          40
 G =       -0.531775 Gcorr = 0.235880 a.u. Nimag =   0 Frame:     1 Step:     1 Geom:     1
C          17.28651500     11.40046100      8.78694400
C          18.55130900     11.04527800      8.31397100
C          18.65146800     10.21585400      7.18826600
C          17.48315700      9.76532000      6.57412200
C          16.23905500     10.13376600      7.07937700
H          19.63258700      9.93939700      6.78641200
H          17.17452900     12.08117700      9.65212600
H          17.53400000      9.16486600      5.66217200
H          15.30291000      9.81442600      6.59352500
C          19.75402600     11.59948200      8.98306100
H          20.68769400     11.33725400      8.46143800
H          19.72800700     12.70894000      8.98315500
H          19.84487200     11.27422500     10.02709400
N          16.15819000     10.93374700      8.18095200
C          14.82927300     11.29636800      8.72799100
H          14.30219600     10.35627700      9.01009900
H          14.96285300     11.88259300      9.67516800
C          13.97716400     12.11160800      7.74174100
H          14.07293900     11.71968500      6.70445200
H          12.90728000     11.97529900      8.00435500
C          14.31425300     13.60026600      7.75729700
H          13.55187900     14.17602600      7.19550700
H          14.31507300     14.00991700      8.78466700
C          15.67470600     13.81465100      7.09249200
O          15.70719200     13.86136000      5.85317400
O          16.67327800     13.88475300      7.85072900
P          19.03209400     13.14474400      5.31664300
O          18.71214700     11.71221100      5.24805700
O          19.16955500     13.73506800      6.78625200
H          18.19607700     13.85078100      7.19811100
O          20.46828400     13.41970700      4.68340000
H          20.63840800     14.43755000      4.74654100
O          18.06563300     14.12142700      4.53204800
H          17.11164300     14.09022700      5.01900500
O          16.22440800     13.80106300     10.47553100
H          16.38115000     13.91790400      9.50090000
H          16.56656500     14.58879000     10.87704200
O          15.62263700     11.21174300      4.85342800
H          15.50343000     12.15294400      5.07845400
H          16.54159800     11.18287300      4.56431200
          40
 G =       -0.528770 Gcorr = 0.239022 a.u. Nimag =   0 Frame:     2 Step:     2 Geom:     2
C          17.39858200     11.41133700      8.70516700
C          18.60108200     11.06555700      8.08366500
C          18.57134000     10.24091300      6.95124300
C          17.34174800      9.77490700      6.48504900
C          16.16551200     10.12652200      7.14060600
H          19.49872900      9.97722400      6.43023800
H          17.38592300     12.08955200      9.57961000
H          17.28802100      9.17233000      5.57461100
H          15.18208900      9.77799500      6.79078200
C          19.87143700     11.62240900      8.61107700
H          20.17508000     11.15252100      9.55507300
H          20.70407900     11.51941400      7.89512400
H          19.78822400     12.71250200      8.79089500
N          16.21029200     10.93574800      8.23831400
C          14.94909000     11.30801600      8.92170200
H          14.44022600     10.37295900      9.24912900
H          15.18505000     11.88483600      9.85436000
C          14.01657500     12.14180700      8.02729500
H          14.02041000     11.76579900      6.97919400
H          12.97322700     12.00470900      8.38017200
C          14.36072700     13.62894200      8.03542800
H          13.54935400     14.21653000      7.56100500
H          14.46325200     14.02080000      9.06465400
C          15.65078400     13.85276500      7.24495400
O          15.56177700     13.94188100      6.01148500
O          16.72109700     13.88747700      7.90225000
P          18.80735600     13.21098300      5.11714500
O          18.46038800     11.78643600      5.01635700
O          19.09917800     13.72414700      6.59329400
H          18.17192900     13.84784500      7.09959800
O          20.17914900     13.49852100      4.35893500
H          20.36635300     14.51207100      4.44395700
O          17.78674500     14.23742500      4.47883300
H          16.88124900     14.18999700      5.04957600
O          16.52600000     13.78733000     10.55790600
H          16.58965800     13.91342900      9.57393200
H          16.90512800     14.57175300     10.93234900
O          15.37805100     11.31154000      4.95547100
H          15.27341200     12.24587000      5.20789700
H          16.28174000     11.28722400      4.62168300
          40
 G =       -0.528766 Gcorr = 0.239026 a.u. Nimag =   0 Frame:     3 Step:     3 Geom:     3
C          17.52068300     11.42433200      8.61009400
C          18.66146200     11.05015000      7.89589100
C          18.52291200     10.22302200      6.77322400
C          17.25010600      9.78316300      6.40923200
C          16.13816400     10.16240700      7.15556700
H          19.39968000      9.93749500      6.18090000
H          17.59287200     12.10559900      9.47924300
H          17.10999900      9.17987100      5.50848700
H          15.12255700      9.83425600      6.88763000
C          19.98208100     11.58007100      8.31675900
H          20.34917700     11.10825700      9.23694100
H          20.75258300     11.45416300      7.53768900
H          19.93806600     12.67277000      8.49488700
N          16.28859000     10.97359900      8.24227000
C          15.09489200     11.37568900      9.02296300
H          14.59392200     10.45323000      9.39518100
H          15.41751500     11.95037100      9.93067500
C          14.11154500     12.22681300      8.20230500
H          14.02293600     11.84762700      7.15912300
H          13.09740100     12.11375000      8.63873600
C          14.48712600     13.70611800      8.17561900
H          13.65303900     14.30975700      7.76503400
H          14.68085000     14.09871500      9.19121500
C          15.71377100     13.89885400      7.28260500
O          15.52703000     13.98604300      6.05969800
O          16.83388400     13.91246300      7.85116700
P          18.67418000     13.18202600      4.91124900
O          18.29002100     11.76484300      4.84675600
O          19.09666700     13.69397600      6.35612900
H          18.21748500     13.83901500      6.93549200
O          19.98533900     13.43687800      4.04231000
H          20.20332400     14.44531300      4.10997000
O          17.62668300     14.22782900      4.35351100
H          16.76922000     14.20041600      4.99610700
O          16.85136500     13.82480900     10.51472400
H          16.83832800     13.94673800      9.52863200
H          17.27304200     14.60291400     10.85478200
O          15.20398100     11.35820800      5.03616600
H          15.14012300     12.29605000      5.28972900
H          16.07743800     11.31242900      4.63131700
          40
 G =       -0.531703 Gcorr = 0.235952 a.u. Nimag =   0 Frame:     4 Step:     4 Geom:     4
C          17.53372400     11.44761300      8.68537800
C          18.69675000     11.10067800      7.99493300
C          18.60206900     10.26286000      6.87507500
C          17.34739100      9.79610800      6.48384600
C          16.21031100     10.15722500      7.20174200
H          19.49793500      9.99244600      6.30515300
H          17.57170400     12.13402200      9.55246800
H          17.24016900      9.18843100      5.58162700
H          15.20562500      9.82536300      6.89393100
C          19.99394100     11.67213900      8.43336200
H          19.95151800     12.78081600      8.44732700
H          20.28252300     11.34240600      9.43934200
H          20.81814500     11.42857000      7.74464900
N          16.32001600     10.96550300      8.29482200
C          15.10676400     11.32092800      9.06843400
H          14.64707000     10.37859900      9.44494200
H          15.40187000     11.91468400      9.97342400
C          14.08502700     12.12265000      8.24571700
H          13.99745500     11.72402700      7.21025800
H          13.08056000     11.98006600      8.69611000
C          14.40643600     13.61389800      8.19230900
H          13.55092400     14.17979600      7.77249300
H          14.58706500     14.03092600      9.20060400
C          15.62425100     13.83376200      7.29376300
O          15.43470700     13.87209200      6.06842600
O          16.74154500     13.91646700      7.86125000
P          18.61646200     13.18108600      4.94927700
O          18.30138900     11.74586200      4.94315600
O          19.00827600     13.77945000      6.36883100
H          18.12257500     13.88982200      6.94711200
O          19.91470000     13.46418000      4.06963200
H          20.08532700     14.48361800      4.09925000
O          17.51795900     14.14688500      4.34559100
H          16.66512700     14.10910900      4.99266000
O          16.76685600     13.85060100     10.52508200
H          16.74687500     13.96163500      9.53753100
H          17.16720200     14.64426300     10.85489200
O          15.19842100     11.21435600      5.11621000
H          15.11337300     12.15616000      5.35406900
H          16.05000100     11.19092400      4.66533000
          40
 G =       -0.528708 Gcorr = 0.238780 a.u. Nimag =   0 Frame:     5 Step:     5 Geom:     5
C          17.60935700     11.29618600      8.59685800
C          18.72698700     10.91520600      7.85178500
C          18.54572900     10.14145500      6.69646100
C          17.25420900      9.76499200      6.33080800
C          16.16448500     10.15237800      7.10717700
H          19.40446800      9.85249100      6.08054000
H          17.71617300     11.93880000      9.48606700
H          17.08049100      9.20902300      5.40596900
H          15.13327300      9.88897100      6.82198900
C          20.07060800     11.38287900      8.27359700
H          20.83887900     11.20639700      7.50322100
H          20.07898400     12.47979000      8.43503400
H          20.40799900     10.90891700      9.20394100
N          16.35653000     10.90083300      8.23025700
C          15.19482800     11.28430200      9.06768000
H          14.72622700     10.35145800      9.45635900
H          15.55427000     11.85847600      9.96261000
C          14.15771400     12.12955000      8.31015600
H          14.02454600     11.76878600      7.26608300
H          13.16807400     11.99061500      8.79321400
C          14.50630000     13.61571800      8.29456700
H          13.66395700     14.20757000      7.88443500
H          14.68923200     14.00470900      9.31373600
C          15.73575000     13.82952100      7.41082700
O          15.54843900     13.97378600      6.19289300
O          16.85545000     13.79341900      7.97831900
P          18.67167200     13.18879900      4.99285800
O          18.28059400     11.77684900      4.87823100
O          19.10047700     13.64924000      6.45304300
H          18.22496100     13.76442600      7.04564700
O          19.98200500     13.46839600      4.12991500
H          20.20521300     14.47274800      4.23338500
O          17.62752000     14.25817800      4.47507800
H          16.77668000     14.21897000      5.12634700
O          16.82482700     13.82585900     10.66875500
H          16.84558500     13.87622600      9.68130400
H          17.21412700     14.63901900     10.96362300
O          15.16742400     11.37978400      5.11391600
H          15.12693400     12.31162100      5.39824300
H          16.00904100     11.34367700      4.64508700
          40
 G =       -0.523137 Gcorr = 0.235199 a.u. Nimag =   0 Frame:     6 Step:     6 Geom:     6
C          17.55151600     11.24846400      8.54851900
C          18.49380200     10.73914600      7.64569500
C          18.04857000     10.03535900      6.52194700
C          16.67336200      9.86468100      6.32701100
C          15.77235500     10.37917300      7.25099100
H          18.76198600      9.63897700      5.78845100
H          17.87273200     11.83890000      9.42322200
H          16.30782800      9.35891700      5.42548500
H          14.69033100     10.27752100      7.11447200
C          19.93261400     11.01401400      7.87354100
H          20.23370200     10.90135300      8.92293000
H          20.59159000     10.38111600      7.26301100
H          20.16924000     12.06267300      7.58355000
N          16.22206500     11.04536000      8.35504800
C          15.24997300     11.50809300      9.37298800
H          14.72331600     10.61408400      9.77827900
H          15.80471100     11.96529100     10.23580300
C          14.23804000     12.52916600      8.82657600
H          14.01095700     12.34436500      7.75442800
H          13.27544600     12.40120800      9.36232400
C          14.72360400     13.96814300      8.99140400
H          13.89610100     14.68369300      8.82010700
H          15.09938500     14.16799000     10.01103700
C          15.81989600     14.21350300      7.95202400
O          15.47822300     14.66252300      6.85543000
O          16.99135800     13.88493500      8.28799900
P          18.00664900     13.23649500      5.01686900
O          17.51594000     11.84933200      5.09201000
O          18.78652500     13.72630900      6.30700700
H          18.07707500     13.84985300      7.10771300
O          19.10805000     13.33251200      3.86241500
H          19.42818400     14.31211400      3.82253600
O          16.95522700     14.34656500      4.64006600
H          16.33787600     14.51859300      5.51276800
O          17.42035100     13.65290900     10.92610500
H          17.27989100     13.79729700      9.95606000
H          17.94880200     14.38818500     11.20798000
O          17.85000200      9.49185900      3.41006400
H          18.11882900      9.76273000      2.53643400
H          17.73392700     10.32661800      3.88971400
          40
 G =       -0.525339 Gcorr = 0.218590 a.u. Nimag =   0 Frame:     7 Step:     7 Geom:     7
C          17.33023200     11.20287400      8.57123500
C          18.19621500     10.74811100      7.56342900
C          17.64128300     10.16076300      6.41060600
C          16.25612700     10.04931500      6.29484800
C          15.42320700     10.50362600      7.32005300
H          18.30402000      9.82785400      5.57308900
H          17.72562200     11.72473000      9.47383600
H          15.81366500      9.62457300      5.38836200
H          14.33106200     10.44314200      7.23715400
C          19.65891200     10.94580700      7.70889900
H          20.23831700     10.41108600      6.94080000
H          19.90403100     12.02554100      7.56752100
H          20.04490400     10.64960900      8.69100500
N          15.96916100     11.07152700      8.44642500
C          15.08014900     11.56838200      9.54522100
H          14.57195500     10.69313300     10.00907100
H          15.72211400     12.03328900     10.34924400
C          14.05159200     12.59983700      9.05987000
H          13.58372700     12.28707100      8.10079200
H          13.22211200     12.63976300      9.79765300
C          14.64446300     13.99781300      8.89429000
H          13.84448400     14.72781400      8.65116600
H          15.10351300     14.35313900      9.84061800
C          15.67941100     14.02531900      7.77703300
O          15.32845000     13.71422700      6.61652800
O          16.87020000     14.32620100      8.10719700
P          18.41746100     13.33569300      4.96145400
O          18.54046000     11.91156100      4.56864200
O          18.76861400     13.57501000      6.52521300
H          18.04406100     14.10351100      7.12749700
O          19.45965400     14.29228500      4.12242500
H          19.19528500     15.24476700      4.02565300
O          17.04231500     14.13439100      4.70039300
H          16.21901100     13.98395300      5.38735700
O          17.37877100     13.34831900     10.53068700
H          17.30541800     13.93172000      9.71624000
H          18.00226600     13.77282800     11.10429100
O          19.23718800      9.71221500      3.89587000
H          19.84052900     10.42280500      4.17363700
H          18.52007900     10.19641800      3.45470800
          40
 G =       -0.528220 Gcorr = 0.221360 a.u. Nimag =   0 Frame:     8 Step:     8 Geom:     8
C          17.56807000     11.36431600      8.63696600
C          18.75755100     11.00698300      7.98639100
C          18.69142400     10.12115300      6.89226200
C          17.45526100      9.60926100      6.49614300
C          16.28615800      9.99886900      7.15776500
H          19.59547800      9.86808100      6.33095500
H          17.57079600     12.09553800      9.47909900
H          17.38103400      8.95147300      5.62487000
H          15.29556300      9.66891200      6.80464300
C          20.04011400     11.61786300      8.41810000
H          20.10370600     12.66136000      8.02571700
H          20.14307600     11.68417500      9.50838600
H          20.92224100     11.09282000      8.03003400
N          16.35741700     10.86515800      8.22180200
C          15.10728000     11.27177600      8.94069200
H          14.62370100     10.35469500      9.34632700
H          15.38684700     11.90437600      9.83161500
C          14.13195200     12.04244800      8.04168700
H          14.18048100     11.67186700      6.98638000
H          13.09618700     11.82760300      8.37694600
C          14.35997500     13.55340100      8.05758400
H          13.48502700     14.07150300      7.61151500
H          14.44543600     13.93465900      9.09579800
C          15.60222300     13.92820700      7.26146000
O          15.54433500     13.93656700      6.01161300
O          16.65735900     14.20261400      7.91886300
P          18.54162300     13.27693700      5.16438900
O          18.06488800     11.87455400      5.09454100
O          18.89859900     13.82473600      6.65296300
H          18.06110100     14.18279700      7.23481300
O          19.95752500     13.50971800      4.37012700
H          20.24052700     14.45820100      4.25910500
O          17.60263300     14.43648900      4.53015700
H          16.63435700     14.53089100      4.95372900
O          16.60274700     13.48751500     10.45514000
H          16.62325000     14.00129200      9.59005800
H          16.94070200     14.06876300     11.12062100
O          15.25685800     11.34904500      5.16816500
H          14.98920700     12.28673200      5.15871600
H          16.19732300     11.36667700      4.88387400
          40
 G =       -0.528684 Gcorr = 0.238805 a.u. Nimag =   0 Frame:     9 Step:     9 Geom:     9
C          17.47448200     11.05577100      8.57598700
C          18.66929600     10.77680600      7.90963200
C          18.62197900     10.14105600      6.66071700
C          17.38231900      9.79543300      6.12468300
C          16.21201300     10.07762700      6.82539100
H          19.54421500      9.93546000      6.10622500
H          17.47735900     11.59118700      9.53950800
H          17.31458300      9.34905500      5.12930700
H          15.22067500      9.83815200      6.40821300
C          19.95307100     11.20711200      8.51684700
H          20.79775900     11.13228300      7.81266800
H          19.91950500     12.27716900      8.80521700
H          20.20781500     10.63011700      9.41477900
N          16.27390000     10.69204400      8.04078000
C          15.02590800     10.96191500      8.79417200
H          14.54243800      9.98480600      9.02304500
H          15.28094100     11.43148700      9.78124400
C          14.05040900     11.87824700      8.03749700
H          14.03031600     11.64059200      6.95072600
H          13.02092900     11.67264500      8.39807800
C          14.36440100     13.35986300      8.22886500
H          13.55366300     13.98606800      7.80621900
H          14.43578200     13.62903200      9.29933100
C          15.67049000     13.68945200      7.50518500
O          15.60226200     13.97282400      6.29934000
O          16.72859500     13.60028300      8.17582200
P          18.84704700     13.36756700      5.34105600
O          18.50117200     11.97439900      5.02600800
O          19.11684800     13.65937800      6.88052100
H          18.18398900     13.69385100      7.39032600
O          20.23048800     13.75995000      4.65417600
H          20.42004900     14.74743900      4.89536000
O          17.83595900     14.47836000      4.84510100
H          16.92593500     14.35506500      5.39811200
O          16.42930600     13.31679000     10.83468600
H          16.54667700     13.48323000      9.86691400
H          16.76879800     14.09367400     11.25986500
O          15.39141600     11.51797800      4.89557600
H          15.30158600     12.40939200      5.28026600
H          16.27565600     11.54646400      4.51256900
          40
 G =       -0.531721 Gcorr = 0.235934 a.u. Nimag =   0 Frame:    10 Step:    10 Geom:    10
C          17.52496000     11.20064100      8.62085000
C          18.73563000     10.96572600      7.96608400
C          18.72769800     10.29322600      6.73614000
C          17.50922200      9.87443500      6.20222100
C          16.32241900     10.11975500      6.88785200
H          19.66276400     10.11439500      6.19376300
H          17.49511300     11.75836500      9.57611100
H          17.47066900      9.39917600      5.21865100
H          15.34559200      9.82513700      6.47152400
C          19.99153700     11.48221800      8.56390800
H          19.92743700     12.57734700      8.73046400
H          20.22222400     11.01665100      9.53037800
H          20.86202700     11.34633200      7.90303900
N          16.34762600     10.76668000      8.08824900
C          15.08157000     10.99728500      8.82355700
H          14.61716300     10.00670200      9.03366600
H          15.30780700     11.46033600      9.82006000
C          14.09850900     11.89670900      8.05667700
H          14.08412100     11.64757900      6.97202400
H          13.07055500     11.68166700      8.41612300
C          14.39382000     13.38374500      8.23421000
H          13.55567300     13.99455600      7.84329400
H          14.50260500     13.65585000      9.30065800
C          15.66124400     13.74084700      7.45644900
O          15.54832900     13.94862500      6.23861100
O          16.73873500     13.75546100      8.10130000
P          18.80746100     13.45411400      5.24402900
O          18.52073600     12.03087200      5.01740100
O          19.09864600     13.85042900      6.75562500
H          18.17654200     13.87062900      7.28487200
O          20.15243700     13.87117900      4.49807900
H          20.29986600     14.87868000      4.67835000
O          17.73043700     14.48396700      4.71195300
H          16.83957800     14.34633700      5.29104200
O          16.59861600     13.31221900     10.72495800
H          16.63834900     13.56205400      9.76366800
H          16.96220700     14.05502900     11.18854400
O          15.42317800     11.44943800      4.90963100
H          15.30578500     12.34752100      5.27096200
H          16.30114600     11.49811300      4.51503200
          40
 G =       -0.528788 Gcorr = 0.238730 a.u. Nimag =   0 Frame:    11 Step:    11 Geom:    11
C          17.64660500     11.26562800      8.55130000
C          18.80181200     11.06779600      7.79129600
C          18.71487100     10.34563000      6.59338500
C          17.48041600      9.82548100      6.20487800
C          16.35525400     10.02397900      7.00023100
H          19.60028500     10.20441700      5.96351900
H          17.67480000     11.86652200      9.48011900
H          17.37588700      9.30112400      5.25150400
H          15.36941100      9.62664100      6.71507300
C          20.07868200     11.67017300      8.24823100
H          20.49739100     11.15274700      9.12066000
H          20.84611200     11.67900600      7.45640100
H          19.94480400     12.73531800      8.52286900
N          16.45304800     10.73945300      8.15745500
C          15.24626400     10.94731800      8.99234600
H          14.87051600      9.95012900      9.31529600
H          15.52964700     11.49856900      9.93002000
C          14.14268400     11.72629800      8.25783900
H          14.08005200     11.42757500      7.18717200
H          13.16177700     11.44610400      8.69487200
C          14.32218800     13.23949700      8.35245500
H          13.41700100     13.76047500      7.98125900
H          14.46197500     13.57051100      9.39828900
C          15.51578300     13.65940300      7.49368600
O          15.31631500     13.84986800      6.28463200
O          16.62950200     13.74059000      8.06973900
P          18.52116100     13.49905600      5.07832600
O          18.28830600     12.06302800      4.86949600
O          18.89494700     13.90576000      6.56954800
H          18.00906700     13.90250900      7.15585600
O          19.79459400     13.97575400      4.24724100
H          19.90750400     14.98904000      4.41893200
O          17.36741700     14.47982800      4.62186700
H          16.52118900     14.30023400      5.25520200
O          16.65357700     13.29292200     10.68861500
H          16.63288400     13.55343600      9.72755100
H          16.95495500     14.06377600     11.15020300
O          15.26151300     11.31300300      5.01138300
H          15.09835600     12.20929000      5.35475300
H          16.13148500     11.40213700      4.60651100
          40
 G =       -0.528201 Gcorr = 0.221379 a.u. Nimag =   0 Frame:    12 Step:    12 Geom:    12
C          17.75579600     11.11724400      8.39272400
C          18.94260600     10.98998100      7.65712300
C          18.90223500     10.32293800      6.41635300
C          17.69501600      9.79202300      5.96040900
C          16.52645200      9.95047200      6.71246700
H          19.80006200     10.25700300      5.79504800
H          17.73494800     11.67519700      9.35818100
H          17.63774200      9.30565800      4.98189700
H          15.55132200      9.61034900      6.32733900
C          20.18970500     11.61498300      8.16567800
H          20.32829900     11.48834800      9.24662500
H          21.09434600     11.24485900      7.66667500
H          20.15777000     12.71445900      7.97310800
N          16.57227100     10.60453800      7.91989400
C          15.32393600     10.76222600      8.73335200
H          14.92966500      9.74790500      8.96815400
H          15.58870500     11.23707900      9.72153900
C          14.25660100     11.60372500      8.02195800
H          14.29026300     11.44198400      6.91471700
H          13.25487700     11.24483100      8.33686800
C          14.36856200     13.09870900      8.31804700
H          13.43924500     13.61673700      8.00037000
H          14.46623500     13.28492800      9.40730000
C          15.54539400     13.71765400      7.57676100
O          15.43812100     13.95333700      6.35272700
O          16.60115700     13.95239900      8.24853600
P          18.43809600     13.72047400      5.32055400
O          18.06913500     12.32117300      4.99731600
O          18.81078700     14.00810300      6.87659900
H          17.97195200     14.17894000      7.53684400
O          19.79888400     14.21548200      4.55032400
H          20.00353700     15.18806100      4.61558400
O          17.38768900     14.89590300      4.94077700
H          16.43337400     14.82873900      5.39810300
O          16.70091300     12.77357400     10.60393200
H          16.64789100     13.44032000      9.85185600
H          17.01984900     13.24603900     11.35915000
O          15.31462000     11.55545900      5.04208500
H          14.97399200     12.45165300      5.22072500
H          16.23797400     11.70653300      4.74231600
          40
 G =       -0.528808 Gcorr = 0.238710 a.u. Nimag =   0 Frame:    13 Step:    13 Geom:    13
C          17.66031400     11.21937500      8.48786900
C          18.85866500     11.09873900      7.78030700
C          18.85702400     10.44043400      6.54311000
C          17.66216600      9.90374200      6.06372300
C          16.49221900     10.02319100      6.80859700
H          19.77745900     10.36119200      5.95391600
H          17.62094500     11.77021700      9.44683900
H          17.62393100      9.42884500      5.07998300
H          15.53631600      9.61034300      6.45245000
C          20.08963900     11.71438300      8.33497000
H          20.90123400     11.77527500      7.59117200
H          19.90963100     12.76369500      8.64292800
H          20.47119600     11.17324300      9.21002100
N          16.50688200     10.67802100      8.00514300
C          15.25310000     10.80226200      8.78563400
H          14.89615900      9.77768900      9.03613300
H          15.46971600     11.31102400      9.76423700
C          14.16166700     11.58412800      8.03617200
H          14.16323600     11.34178100      6.94962100
H          13.17020400     11.24966900      8.40610500
C          14.28382200     13.09495700      8.21920200
H          13.38082900     13.60614800      7.82968600
H          14.35991900     13.37314600      9.28676700
C          15.50337800     13.59861200      7.44617100
O          15.35836400     13.84615700      6.23976400
O          16.58312600     13.68610200      8.08292900
P          18.63050400     13.66418400      5.18667000
O          18.45988400     12.23371800      4.89577800
O          18.91225900     14.00786500      6.71337800
H          17.99832700     13.94250100      7.25174200
O          19.92658800     14.22463700      4.44820400
H          19.99351700     15.23143000      4.67416200
O          17.46677300     14.62733700      4.71766300
H          16.59703200     14.38889000      5.29691800
O          16.49343600     13.09722300     10.67186000
H          16.51109900     13.40865600      9.72593700
H          16.74648600     13.85077100     11.18789400
O          15.45536400     11.38102600      4.83524600
H          15.24993200     12.25224700      5.21851500
H          16.33768800     11.51716400      4.47259400
          40