          47
 G =       -0.779846 Gcorr = 0.269576 a.u. Nimag =   0 Frame:     1 Step:     1 Geom:     1
C           1.24909100      4.23436000      4.37781200
C           1.88971300      4.69387100      5.53055900
C           1.31314700      4.49046500      6.77711200
C           0.04727900      3.88241100      6.85571200
C          -0.56391900      3.43877000      5.68591400
H           1.83858400      4.78398400      7.69019900
H           1.72012000      4.34028300      3.38124500
H           2.87454600      5.16942700      5.43828500
H          -1.53125000      2.91458200      5.71668700
C          -0.62676800      3.69556500      8.16293700
H           0.09386100      3.59428500      8.99469600
H          -1.29834600      4.52965500      8.40642900
H          -1.22820400      2.76724000      8.20080700
N           0.04408200      3.60720500      4.47175100
C          -0.61651900      3.09196200      3.24659700
H          -1.55843300      3.66786900      3.09842200
H           0.03874300      3.30422300      2.36255900
C          -0.92534600      1.58246100      3.30405300
H          -1.17772800      1.26650400      4.34302800
H          -1.85876400      1.39671200      2.72957600
C           0.18126000      0.69549900      2.74648100
H           0.35180900      0.89435500      1.67334000
H          -0.12169100     -0.36830700      2.80285100
S           1.74402400      0.89808900      3.62525700
O           2.62109500     -0.20089100      3.21560200
O           1.37352000      0.90464800      5.06933100
O           2.18617200      2.25918300      3.19350000
P           5.43451100      2.98763800      4.68765600
O           5.05644800      2.32516200      5.93580300
O           6.48932200      4.15362900      4.96302900
H           6.76143600      4.54688800      4.05052400
O           6.15302300      2.13243800      3.56566200
H           5.84554800      1.12590500      3.61872600
O           4.29799100      3.79042800      3.92622800
H           3.55916500      3.12149300      3.57311300
O          -0.89441200      0.78948700      6.69226700
H          -0.11416800      0.72282800      6.11129400
H          -0.50494000      0.82867300      7.57331300
O           0.68153100      1.15384600      9.07315900
H           1.11838100      0.35355300      9.35231700
H           1.32497900      1.59614200      8.48325200
O           5.32631800     -0.51924300      3.62580800
H           5.27082400     -0.79184200      4.54145600
H           4.38130600     -0.46525900      3.34595700
O           2.34668400      2.31709400      7.19593900
H           3.29279600      2.34574900      7.01343500
H           1.99317800      1.80098000      6.43033100
          47
 G =       -0.781150 Gcorr = 0.266646 a.u. Nimag =   0 Frame:     2 Step:     2 Geom:     2
C           1.34238100      4.14553700      4.58898800
C           1.96011100      4.51124400      5.78672400
C           1.31610300      4.29844600      6.99844700
C           0.01319500      3.77224600      6.99946500
C          -0.56924700      3.40882500      5.78744000
H           1.81902700      4.52157500      7.94353100
H           1.86098200      4.26732600      3.61587600
H           2.97978200      4.91962000      5.76056100
H          -1.56438700      2.94072900      5.75730900
C          -0.73738200      3.58927300      8.26514900
H          -1.32181800      2.64917200      8.27466300
H          -0.07344000      3.51331700      9.14435300
H          -1.44072500      4.41210800      8.45156900
N           0.09973500      3.58791600      4.60759000
C          -0.54314100      3.16137000      3.33927000
H          -1.45741300      3.78095200      3.19428400
H           0.14347000      3.39283000      2.48385200
C          -0.91270800      1.66420700      3.31646000
H          -1.18336900      1.30648600      4.33698700
H          -1.84971000      1.54643900      2.73014100
C           0.15753800      0.75785900      2.71899900
H           0.32350500      0.98670800      1.65071200
H          -0.18222300     -0.29584000      2.74401700
S           1.73490500      0.88032200      3.58352600
O           2.59216700     -0.21144100      3.11356700
O           1.39033600      0.82102000      5.03260100
O           2.20284200      2.24764700      3.20685500
P           5.51086600      3.18602900      4.35507500
O           4.80271600      3.15596000      5.63513900
O           6.51135400      4.43175400      4.32017800
H           7.04465200      4.37777700      3.44045300
O           6.50087900      1.99589600      4.02297300
H           5.97208100      1.09923600      3.89660600
O           4.65351600      3.42111600      3.04549200
H           3.72703400      2.91954700      3.11624900
O          -0.87994100      0.77755600      6.66288300
H          -0.10030000      0.68693500      6.08440300
H          -0.49679700      0.81095400      7.54581200
O           0.64585900      1.11721300      9.09897600
H           1.03638600      0.30559400      9.41560500
H           1.32587500      1.50740900      8.52097100
O           5.25266100     -0.49342500      3.74761500
H           5.10197600     -0.85094400      4.61971900
H           4.34520300     -0.42617200      3.36720900
O           2.45770700      2.09956000      7.19470800
H           3.32984600      2.35370400      6.88858700
H           2.07791100      1.60840600      6.42841800
          47
 G =       -0.780946 Gcorr = 0.267711 a.u. Nimag =   0 Frame:     3 Step:     3 Geom:     3
C           1.29783200      3.99234900      4.83552000
C           1.76246500      4.38303100      6.09282700
C           0.92919200      4.30748000      7.20064900
C          -0.38943200      3.86083900      7.03581100
C          -0.81713300      3.46415200      5.76749100
H           1.29904200      4.56167300      8.19927500
H           1.96239400      4.01201500      3.94113000
H           2.80528400      4.71758200      6.19417700
H          -1.82378300      3.05383500      5.61401700
C          -1.32329700      3.76519500      8.18539200
H          -0.78276200      3.63641200      9.14080400
H          -1.95681200      4.65745300      8.27989800
H          -1.98757300      2.88640300      8.10398500
N           0.02365600      3.53512600      4.69268200
C          -0.47843600      3.10746100      3.36213000
H          -1.34858700      3.74951200      3.10034000
H           0.31304900      3.31132400      2.58874600
C          -0.88218400      1.61877700      3.32493700
H          -1.11145700      1.24522000      4.35039700
H          -1.84380200      1.52611500      2.77750500
C           0.14991100      0.70750600      2.66807700
H           0.26172000      0.94039600      1.59404800
H          -0.19135200     -0.34430000      2.70717000
S           1.76689000      0.83090700      3.45791300
O           2.61886100     -0.24483000      2.94357700
O           1.48350400      0.74513400      4.91784800
O           2.19997200      2.20724000      3.06706700
P           5.39404100      3.16256300      4.36394000
O           4.53625000      3.14376200      5.55102900
O           6.36469500      4.42938500      4.41606400
H           6.99760500      4.36949700      3.60537900
O           6.43804100      1.98568700      4.18524400
H           5.94219800      1.08473600      3.97737700
O           4.68562600      3.33131300      2.95943300
H           3.73252300      2.87220700      2.97854800
O          -0.62105600      1.11536600      6.71500400
H           0.07992500      0.84938600      6.08829300
H          -0.12269200      1.37121800      7.50094200
O           1.16563100      2.08643900      8.77983200
H           1.25698000      1.53137700      9.54886900
H           1.89878700      1.78129300      8.17884100
O           5.25429600     -0.51778500      3.73004600
H           5.06077100     -0.90049200      4.58389100
H           4.37085000     -0.45917200      3.29775700
O           3.02361000      1.09408800      7.14559100
H           3.63916800      1.73747300      6.77723700
H           2.47558800      0.84765100      6.36327600
          47
 G =       -0.779003 Gcorr = 0.269790 a.u. Nimag =   0 Frame:     4 Step:     4 Geom:     4
C           1.27881500      4.02485800      4.85533400
C           1.76583800      4.34993100      6.12295500
C           0.94498700      4.24026200      7.23714600
C          -0.38418100      3.82669600      7.07012900
C          -0.83343900      3.49134900      5.79170200
H           1.33205200      4.44201100      8.24131200
H           1.93397200      4.07264800      3.95443300
H           2.81628900      4.65990700      6.22610600
H          -1.84804400      3.10276900      5.63363300
C          -1.30859000      3.70429900      8.22476300
H          -1.93983000      4.59495000      8.34600100
H          -1.97553500      2.82905800      8.12631600
H          -0.76193200      3.55075100      9.17285800
N          -0.00483300      3.59650900      4.70985000
C          -0.53600300      3.23453400      3.37141000
H          -1.43503100      3.86228300      3.17725600
H           0.21406200      3.51291400      2.58563900
C          -0.89989000      1.73933400      3.25918300
H          -1.11919100      1.31099300      4.26572100
H          -1.86060100      1.65099900      2.70873000
C           0.15103000      0.88790400      2.55547100
H           0.28554100      1.20593100      1.50610300
H          -0.18757000     -0.16460700      2.50181200
S           1.75250800      0.94239000      3.38533300
O           2.58063500     -0.14812700      2.86285600
O           1.43120700      0.82662700      4.83609800
O           2.24116100      2.31175800      3.04598200
P           5.42683900      3.13946200      4.45332400
O           4.55854300      3.07733200      5.63130600
O           6.43328500      4.37240500      4.58512800
H           7.07094500      4.34045700      3.77647200
O           6.43907500      1.94545700      4.21329900
H           5.91815500      1.06110800      3.99748400
O           4.73883800      3.41112400      3.05511400
H           3.78236700      2.95937100      3.03078300
O          -0.67957300      1.09972600      6.64091300
H           0.02373600      0.86778600      6.00340500
H          -0.18372400      1.31016500      7.44179600
O           1.11574600      1.94787100      8.75471000
H           1.19810500      1.36213000      9.50169100
H           1.84471900      1.65464600      8.14278800
O           5.18289700     -0.51770800      3.71965100
H           4.95152900     -0.89821100      4.56512700
H           4.31519100     -0.42614300      3.26204800
O           2.96352500      0.99265200      7.08800600
H           3.60220000      1.63778600      6.76459400
H           2.41417800      0.81365500      6.28823700
          47
 G =       -0.778843 Gcorr = 0.272115 a.u. Nimag =   0 Frame:     5 Step:     5 Geom:     5
C           1.28549400      3.94217100      4.88642100
C           1.73370200      4.20339800      6.18407500
C           0.88103000      4.03189800      7.26491100
C          -0.44301300      3.62975700      7.03623900
C          -0.85925000      3.38184400      5.72775700
H           1.23839300      4.17315300      8.28994100
H           1.96973400      4.02657700      4.01100000
H           2.77815600      4.51316700      6.33426200
H          -1.87032100      3.01114900      5.51759900
C          -1.39021200      3.42306900      8.15996200
H          -1.97059400      4.32831200      8.38460500
H          -2.10319400      2.60549700      7.95497500
H          -0.86269700      3.12671900      9.08568100
N           0.00067200      3.54615400      4.67821500
C          -0.48195000      3.24495700      3.30742600
H          -1.38694000      3.86409300      3.11486900
H           0.28765500      3.57612100      2.56077000
C          -0.81023800      1.74967800      3.10948600
H          -1.07748800      1.27723600      4.08408700
H          -1.73469400      1.66891900      2.49947300
C           0.29821100      0.94691600      2.43582000
H           0.42910300      1.25812900      1.38314700
H           0.01826200     -0.12330500      2.39220300
S           1.87859400      1.10981700      3.28875100
O           2.68601000     -0.08257800      3.04406700
O           1.49662200      1.27720100      4.73331400
O           2.41022100      2.39640700      2.76091700
P           5.46269100      3.20408500      4.50306300
O           4.67605700      3.16446600      5.74015800
O           6.68696300      4.21488300      4.65706100
H           7.21423900      4.19678200      3.77079000
O           6.16940200      1.87152800      4.02292000
H           5.67286400      1.02617400      4.40704500
O           4.74229000      3.78514000      3.21943500
H           3.90107700      3.19081900      2.98526000
O          -0.65731000      0.93184500      6.46999400
H           0.07856700      0.91896000      5.82791900
H          -0.20134000      1.07729600      7.30767500
O           1.11194600      1.61670900      8.67791600
H           1.20736100      0.96771300      9.36971100
H           1.85958700      1.41930900      8.05935400
O           4.80975100     -0.40460100      4.89988400
H           4.28043900     -0.13833900      5.66152800
H           4.15527200     -0.48740700      4.17642800
O           3.04623200      0.96727200      6.90061000
H           3.66108500      1.69284500      6.73073300
H           2.44156300      1.00806800      6.11255000
          47
 G =       -0.779866 Gcorr = 0.269559 a.u. Nimag =   0 Frame:     6 Step:     6 Geom:     6
C           1.19705600      4.21292000      4.41519600
C           1.84620700      4.67235100      5.56323700
C           1.30818700      4.41836600      6.81768700
C           0.07000600      3.75761400      6.91135900
C          -0.55097400      3.31594300      5.74602700
H           1.84311100      4.71276500      7.72497800
H           1.63957200      4.35969100      3.41079100
H           2.80894900      5.18900600      5.45931700
H          -1.49565000      2.75256300      5.78688600
C          -0.56371500      3.51349800      8.22925700
H          -1.25844800      4.31610300      8.51065000
H          -1.13012500      2.56314400      8.25780900
H           0.18112300      3.41803400      9.04016600
N           0.02051800      3.53580500      4.52234700
C          -0.64819800      3.02151100      3.30119400
H          -1.61557600      3.56207000      3.18805500
H          -0.02324100      3.27946400      2.40742300
C          -0.89522300      1.49987000      3.33094100
H          -1.11014800      1.15116800      4.36787800
H          -1.83381400      1.28936100      2.77371700
C           0.23234200      0.67085300      2.72800900
H           0.36992900      0.90080200      1.65630600
H          -0.02686900     -0.40521200      2.76591800
S           1.80587600      0.91606500      3.57619300
O           2.71613700     -0.13709400      3.12104900
O           1.46910100      0.87481200      5.02787300
O           2.18314100      2.30346300      3.16695400
P           5.43526100      3.12523400      4.60407500
O           5.11174700      2.41914500      5.84357800
O           6.45002900      4.32490100      4.88465700
H           6.68540400      4.75036600      3.97637800
O           6.15995000      2.32589900      3.44549900
H           5.89369800      1.30692100      3.48121800
O           4.25090700      3.90026500      3.88785800
H           3.53107300      3.21087900      3.53543600
O          -0.75428400      0.63295300      6.69803100
H           0.01388400      0.60976600      6.09803500
H          -0.34573600      0.66686700      7.57067200
O           0.86439800      1.00140700      9.05000200
H           1.33896800      0.21207400      9.29688900
H           1.47552700      1.48458100      8.45767400
O           5.44150200     -0.35801300      3.45982900
H           5.41975000     -0.65368200      4.36974700
H           4.48836500     -0.33476800      3.20446600
O           2.43265500      2.27828100      7.16450500
H           3.37224400      2.34230000      6.95847500
H           2.07538300      1.76968700      6.39576500
          47
 G =       -0.778719 Gcorr = 0.272238 a.u. Nimag =   0 Frame:     7 Step:     7 Geom:     7
C           1.32119400      3.96482700      4.94012700
C           1.82186200      4.17832300      6.22724500
C           1.01355700      3.96654100      7.33475700
C          -0.31891800      3.57206100      7.14531200
C          -0.78831600      3.37297200      5.84645900
H           1.41227100      4.07035600      8.34892200
H           1.96990100      4.08088700      4.04144300
H           2.87167500      4.48311500      6.34627600
H          -1.80747900      3.00988300      5.66387000
C          -1.21968300      3.32229300      8.29806300
H          -1.94139900      2.51280300      8.09135100
H          -0.65495200      2.99123600      9.18944600
H          -1.78952500      4.21788800      8.58066000
N           0.02841300      3.57673900      4.76972100
C          -0.51047000      3.32793100      3.40939600
H          -1.42222000      3.95322800      3.27831300
H           0.22795800      3.68820300      2.64500100
C          -0.84759100      1.84114500      3.16786400
H          -1.07363500      1.33099100      4.13392500
H          -1.79696800      1.78273900      2.59485900
C           0.23140300      1.06694600      2.41736000
H           0.31957400      1.42093700      1.37382500
H          -0.05117800     -0.00071800      2.34166000
S           1.84552100      1.19611800      3.21114000
O           2.64062800      0.01482800      2.88618000
O           1.52249600      1.30538100      4.67555800
O           2.35671200      2.50292100      2.71390100
P           5.48358200      3.23533000      4.34804700
O           4.73305100      3.15697100      5.60559900
O           6.71084100      4.24364200      4.49605200
H           7.21537400      4.24808900      3.59647600
O           6.17971100      1.91883200      3.81094200
H           5.68887500      1.06197300      4.17588300
O           4.72731200      3.85074500      3.10177900
H           3.86407000      3.27863500      2.89345100
O          -0.55715600      0.89736500      6.48628100
H           0.15104100      0.90780300      5.81368500
H          -0.06606300      1.01227800      7.30872200
O           1.30308900      1.50137800      8.64167400
H           1.42649900      0.82596800      9.30301100
H           2.02401200      1.32830600      7.98482500
O           4.83558100     -0.38374300      4.64561900
H           4.33793400     -0.14310300      5.43680000
H           4.15278700     -0.43715100      3.94617700
O           3.15907300      0.91810200      6.76354700
H           3.76689900      1.65016700      6.59617500
H           2.52266000      0.98783900      6.00262300
          47
 G =       -0.779173 Gcorr = 0.269951 a.u. Nimag =   0 Frame:     8 Step:     8 Geom:     8
C           1.34250900      4.29264000      4.55409600
C           1.98647500      4.64745400      5.74143700
C           1.38639800      4.38550200      6.96591900
C           0.09376800      3.83195200      6.99096600
C          -0.52223900      3.49783000      5.78793600
H           1.91339800      4.59196500      7.90161400
H           1.83064100      4.44322200      3.57128800
H           2.99149400      5.08574500      5.69100900
H          -1.51577500      3.02447000      5.77221700
C          -0.60535000      3.58339500      8.27462600
H          -1.23547100      2.67389900      8.24250800
H           0.09855900      3.40495500      9.10752300
H          -1.25446300      4.42087900      8.56312200
N           0.11099500      3.71321400      4.59422200
C          -0.55201300      3.29410200      3.33424100
H          -1.47443500      3.90628800      3.21233600
H           0.11844300      3.53835000      2.47028000
C          -0.90580600      1.79363100      3.30322800
H          -1.15444900      1.42082400      4.32622300
H          -1.85214600      1.67007300      2.73370000
C           0.16666100      0.91154500      2.67558100
H           0.33773800      1.17984700      1.61781900
H          -0.17296000     -0.14259900      2.65919300
S           1.74025100      0.99601300      3.55415300
O           2.58288100     -0.08875000      3.04565700
O           1.37940400      0.88928800      4.99691600
O           2.22031700      2.37494100      3.23504100
P           5.48287900      2.89157300      4.79380400
O           5.06832500      2.15394400      5.98679800
O           6.56718900      4.00304800      5.16389300
H           6.86442900      4.45055500      4.28471600
O           6.19385200      2.09830900      3.62278300
H           5.83514100      1.10839700      3.58020500
O           4.38021900      3.78077400      4.07930800
H           3.62111800      3.16299700      3.68099100
O          -0.93606700      0.81658600      6.52887200
H          -0.13600100      0.73453000      5.97497900
H          -0.58125900      0.77877300      7.42453300
O           0.57786400      0.93762600      8.97506400
H           0.96984400      0.09835500      9.20182100
H           1.25576500      1.39080600      8.43402800
O           5.27309500     -0.51700900      3.45195600
H           5.20109000     -0.85926800      4.34273300
H           4.33284300     -0.41509900      3.16938500
O           2.34072200      2.15143100      7.21989800
H           3.29021900      2.15670400      7.05358200
H           1.98391400      1.69629900      6.41780600
          47
 G =       -0.779912 Gcorr = 0.267876 a.u. Nimag =   0 Frame:     9 Step:     9 Geom:     9
C           1.32519300      4.20585000      4.75238600
C           1.93754700      4.44505000      5.98434700
C           1.29442400      4.09413800      7.16396200
C          -0.00289200      3.55748900      7.10438800
C          -0.58099100      3.32494800      5.85857700
H           1.79364600      4.21762100      8.12904700
H           1.84485000      4.43565900      3.79967100
H           2.95249200      4.86526200      6.00498300
H          -1.57179300      2.85413900      5.77500700
C          -0.75202500      3.22719200      8.34068900
H          -1.32720800      2.28612200      8.24417700
H          -0.08769500      3.05977400      9.20679400
H          -1.46349900      4.01707600      8.61692700
N           0.08739100      3.63933100      4.70703500
C          -0.55095700      3.35145700      3.39805600
H          -1.46988600      3.97634700      3.32125100
H           0.13471800      3.68169200      2.57491900
C          -0.90873600      1.86343900      3.20818500
H          -1.17910100      1.39276700      4.18193900
H          -1.84322000      1.80418700      2.60910400
C           0.17069600      1.03778500      2.51778400
H           0.33686700      1.38412000      1.48170000
H          -0.15947400     -0.01519900      2.42567000
S           1.74513000      1.07818000      3.39571400
O           2.60847600      0.04476900      2.81780900
O           1.39495200      0.86738700      4.82937600
O           2.20778200      2.47936700      3.16455100
P           5.50558700      3.27949200      4.42896500
O           4.75948600      3.15310700      5.68120200
O           6.50229400      4.52536900      4.51986800
H           7.06704700      4.53607700      3.65873900
O           6.51011800      2.11744600      4.04444300
H           5.98556600      1.25210600      3.76901700
O           4.68977500      3.60443600      3.11229100
H           3.74455500      3.13441000      3.13842400
O          -0.87607200      0.60798200      6.43325400
H          -0.09522400      0.59227100      5.84907400
H          -0.49258000      0.54471300      7.31447700
O           0.64020300      0.68282600      8.89850800
H           1.03718700     -0.15552200      9.12408200
H           1.31895700      1.14200100      8.37187400
O           5.27451700     -0.30809700      3.39444000
H           5.12982600     -0.78421200      4.20902100
H           4.36471000     -0.19259400      3.03230600
O           2.44897600      1.89316400      7.12851900
H           3.32145000      2.18634400      6.86004900
H           2.07693400      1.49273300      6.30740600
          47
 G =       -0.760028 Gcorr = 0.249780 a.u. Nimag =   0 Frame:    10 Step:    10 Geom:    10
C           1.33013400      4.09494700      5.07472800
C           1.87354000      4.39504300      6.33001000
C           1.13306000      4.16317800      7.48314600
C          -0.15922600      3.60890600      7.38240900
C          -0.66811700      3.30063000      6.11101700
H           1.56064900      4.37740300      8.46719400
H           1.92870000      4.22839800      4.14495200
H           2.91620200      4.76300200      6.37553000
H          -1.63977800      2.79612500      6.00128000
C          -0.95029700      3.29485000      8.59919000
H          -0.49983100      2.41335400      9.11503100
H          -0.95655000      4.11773100      9.32616000
H          -1.99344800      3.02499700      8.39169300
N           0.07144800      3.55916500      4.97774800
C          -0.50118400      3.24211300      3.62724700
H          -1.43428300      3.83659000      3.49995100
H           0.21893600      3.60570500      2.84108200
C          -0.79188400      1.74502100      3.42184800
H          -0.91411100      1.22401000      4.40804700
H          -1.78554900      1.64359500      2.93490600
C           0.24442800      1.00634300      2.58197500
H           0.20702600      1.34225000      1.52492400
H          -0.02939700     -0.06958900      2.52469200
S           1.87325300      1.20411100      3.23587800
O           2.81768000      0.30696100      2.54273200
O           1.79863100      0.96003100      4.69669500
O           2.21266800      2.65488400      2.94645300
P           5.25537400      3.02578600      4.50511500
O           4.28585500      3.37481200      5.57715300
O           6.58833000      3.98431300      4.55429600
H           7.36058000      3.69626600      4.00286400
O           5.84199100      1.53580100      4.48552400
H           5.64856700      0.90798200      3.58071000
O           4.73681400      3.20828100      2.97586300
H           3.68483700      3.19100400      2.79876600
O          -0.45295200      0.69412100      6.31268500
H           0.41502600      0.57202700      5.86959100
H          -0.24945800      0.63555300      7.27068700
O           1.02082200      1.02457900      8.48331700
H           1.48598500      0.24852300      8.79153100
H           1.71571000      1.51879400      7.93295700
O           5.21128300      0.03021000      2.50524500
H           4.51347100     -0.52301200      2.94410500
H           4.66275900      0.62246400      1.92917900
O           3.08686000      1.36684300      7.06420500
H           3.60418800      2.17859500      6.86081500
H           2.83125500      1.01730700      6.17887600
          47
 G =       -0.778482 Gcorr = 0.262910 a.u. Nimag =   0 Frame:    11 Step:    11 Geom:    11
C           1.53765400      3.93351400      5.31635100
C           2.09412500      4.41705000      6.51012500
C           1.35769100      4.37854600      7.68111100
C           0.04253000      3.88224100      7.65367000
C          -0.50050500      3.47574500      6.43929800
H           1.79486400      4.70833300      8.62575200
H           2.13080900      3.86357000      4.37054500
H           3.13223700      4.78409700      6.50048100
H          -1.53061600      3.08910300      6.36766200
C          -0.74654800      3.73150000      8.90040500
H          -0.53806400      2.73905200      9.35431200
H          -0.50300300      4.48795500      9.65839200
H          -1.83214800      3.77203000      8.73457700
N           0.24980600      3.50874900      5.29677900
C          -0.35205600      3.01613600      4.03520500
H          -1.36954900      3.44802300      3.92537400
H           0.25615900      3.40281800      3.17025300
C          -0.40952100      1.47576200      4.02107600
H           0.09979100      1.05267700      4.92085500
H          -1.46065000      1.14048900      4.14647500
C           0.18267000      0.88815000      2.74793700
H          -0.25183800      1.35037900      1.84647700
H          -0.06883100     -0.18713700      2.67428500
S           1.98439500      1.04438500      2.69645600
O           2.43917800      0.38777200      1.48358200
O           2.44161700      0.37994000      3.96936000
O           2.22237700      2.52029000      2.77895300
P           5.40697400      3.37682000      4.29765700
O           4.53148800      3.39449300      5.47560100
O           6.49294400      4.54299100      4.39481500
H           7.09414000      4.47346100      3.55938500
O           6.32625900      2.10858300      4.07401800
H           5.78554700      1.22653300      4.26587200
O           4.73098900      3.67463300      2.90027200
H           3.76927800      3.23024200      2.85147000
O          -1.78883500      0.97364300      6.66112200
H          -2.38297200      0.31942100      7.01372600
H          -0.97091900      0.88745600      7.18725700
O           0.55087500      0.78583400      8.14520500
H           0.90327200     -0.07821000      8.34563900
H           1.19772300      1.16331800      7.49997500
O           5.02155000     -0.33085100      4.36369000
H           5.17436300     -0.77377300      3.53049200
H           4.05271700     -0.12222000      4.33486500
O           2.23361300      1.69854900      6.25021600
H           3.11571900      2.07337600      6.32414700
H           2.30270300      1.12453500      5.42882900
          47
 G =       -0.779854 Gcorr = 0.269571 a.u. Nimag =   0 Frame:    12 Step:    12 Geom:    12
C           1.33073800      4.33557800      4.71402400
C           1.98254800      4.58212000      5.92425100
C           1.39911100      4.19325900      7.12267700
C           0.11686600      3.61552200      7.10495900
C          -0.50527300      3.38694400      5.88035300