 Entering Gaussian System, Link 0=g16
 Initial command:
 /data0/home/software/g16/l1.exe "/data0/home/software/g16/scratch/Gau-341686.inp" -scrdir="/data0/home/software/g16/scratch/"
 Default is to use a total of  22 processors:
                               22 via shared-memory
                                1 via Linda
 Entering Link 1 = /data0/home/software/g16/l1.exe PID=    341687.
  
 Copyright (c) 1988,1990,1992,1993,1995,1998,2003,2009,2016,
            Gaussian, Inc.  All Rights Reserved.
  
 This is part of the Gaussian(R) 16 program.  It is based on
 the Gaussian(R) 09 system (copyright 2009, Gaussian, Inc.),
 the Gaussian(R) 03 system (copyright 2003, Gaussian, Inc.),
 the Gaussian(R) 98 system (copyright 1998, Gaussian, Inc.),
 the Gaussian(R) 94 system (copyright 1995, Gaussian, Inc.),
 the Gaussian 92(TM) system (copyright 1992, Gaussian, Inc.),
 the Gaussian 90(TM) system (copyright 1990, Gaussian, Inc.),
 the Gaussian 88(TM) system (copyright 1988, Gaussian, Inc.),
 the Gaussian 86(TM) system (copyright 1986, Carnegie Mellon
 University), and the Gaussian 82(TM) system (copyright 1983,
 Carnegie Mellon University). Gaussian is a federally registered
 trademark of Gaussian, Inc.
  
 This software contains proprietary and confidential information,
 including trade secrets, belonging to Gaussian, Inc.
  
 This software is provided under written license and may be
 used, copied, transmitted, or stored only in accord with that
 written license.
  
 The following legend is applicable only to US Government
 contracts under FAR:
  
                    RESTRICTED RIGHTS LEGEND
  
 Use, reproduction and disclosure by the US Government is
 subject to restrictions as set forth in subparagraphs (a)
 and (c) of the Commercial Computer Software - Restricted
 Rights clause in FAR 52.227-19.
  
 Gaussian, Inc.
 340 Quinnipiac St., Bldg. 40, Wallingford CT 06492
  
  
 ---------------------------------------------------------------
 Warning -- This program may not be used in any manner that
 competes with the business of Gaussian, Inc. or will provide
 assistance to any competitor of Gaussian, Inc.  The licensee
 of this program is prohibited from giving any competitor of
 Gaussian, Inc. access to this program.  By using this program,
 the user acknowledges that Gaussian, Inc. is engaged in the
 business of creating and licensing software in the field of
 computational chemistry and represents and warrants to the
 licensee that it is not a competitor of Gaussian, Inc. and that
 it will not use this program in any manner prohibited above.
 ---------------------------------------------------------------
  

 Cite this work as:
 Gaussian 16, Revision A.03,
 M. J. Frisch, G. W. Trucks, H. B. Schlegel, G. E. Scuseria, 
 M. A. Robb, J. R. Cheeseman, G. Scalmani, V. Barone, 
 G. A. Petersson, H. Nakatsuji, X. Li, M. Caricato, A. V. Marenich, 
 J. Bloino, B. G. Janesko, R. Gomperts, B. Mennucci, H. P. Hratchian, 
 J. V. Ortiz, A. F. Izmaylov, J. L. Sonnenberg, D. Williams-Young, 
 F. Ding, F. Lipparini, F. Egidi, J. Goings, B. Peng, A. Petrone, 
 T. Henderson, D. Ranasinghe, V. G. Zakrzewski, J. Gao, N. Rega, 
 G. Zheng, W. Liang, M. Hada, M. Ehara, K. Toyota, R. Fukuda, 
 J. Hasegawa, M. Ishida, T. Nakajima, Y. Honda, O. Kitao, H. Nakai, 
 T. Vreven, K. Throssell, J. A. Montgomery, Jr., J. E. Peralta, 
 F. Ogliaro, M. J. Bearpark, J. J. Heyd, E. N. Brothers, K. N. Kudin, 
 V. N. Staroverov, T. A. Keith, R. Kobayashi, J. Normand, 
 K. Raghavachari, A. P. Rendell, J. C. Burant, S. S. Iyengar, 
 J. Tomasi, M. Cossi, J. M. Millam, M. Klene, C. Adamo, R. Cammi, 
 J. W. Ochterski, R. L. Martin, K. Morokuma, O. Farkas, 
 J. B. Foresman, and D. J. Fox, Gaussian, Inc., Wallingford CT, 2016.
 
 ******************************************
 Gaussian 16:  ES64L-G16RevA.03 25-Dec-2016
                20-Feb-2023 
 ******************************************
 %nproc=24
 Will use up to   24 processors via shared memory.
 %mem=50GB
 ---------------------------------------------------
 #p M062X/6-311+G(2d,p) nosymm em=GD3 counterpoise=5
 ---------------------------------------------------
 1/38=1,62=5,172=1/1;
 2/12=2,15=1,17=6,18=5,40=1/2;
 1/38=1,53=2,62=5,63=1/22;
 3/5=4,6=6,7=112,11=2,25=1,30=1,74=-55,124=31/1,2,3;
 4//1;
 5/5=2,38=5/2;
 6/7=2,8=2,9=2,10=2,28=1/1;
 1/53=2,62=5,63=1/22;
 3/5=7,6=11,7=112,11=2,25=1,30=1,74=-55,82=7,124=31/1,2,3;
 4//1;
 5/5=2,38=5/2;
 6/7=2,8=2,9=2,10=2,28=1/1;
 1/53=2,62=5,63=1/22(-4);
 99/5=1,9=1/99;
 Leave Link    1 at Mon Feb 20 00:04:20 2023, MaxMem=  6710886400 cpu:               0.6 elap:               0.0
 (Enter /data0/home/software/g16/l101.exe)
 -------------------
 Title Card Required
 -------------------
 Symbolic Z-matrix:
 Charge =  0 Multiplicity = 1 in supermolecule
 Charge =  0 Multiplicity = 1 in fragment      1.
 Charge =  0 Multiplicity = 1 in fragment      2.
 Charge =  0 Multiplicity = 1 in fragment      3.
 Charge =  0 Multiplicity = 1 in fragment      4.
 Charge =  0 Multiplicity = 1 in fragment      5.
 P                     13.06715   9.93405   11.01217    
 O                     11.95602   10.56747   11.7358    
 O                     14.06462   10.85555   10.20384    
 H                     13.53585   11.62322   9.70219    
 O                     14.05078   9.21134   12.04363    
 H                     14.84823   8.84377   11.50298    
 O                     12.69943   8.73947   10.04213    
 H                     11.80387   8.96269   9.51951    
 O                     12.71764   12.87933   8.87883    
 H                     12.04526   13.16591   9.51047    
 H                     12.20993   12.42041   8.17835    
 O                     6.99193   12.9123   9.4976     
 H                     7.19314   13.3285   10.34345    
 H                     7.85363   12.54191   9.23185    
 O                     10.58533   13.09787   10.95596    
 H                     11.09303   12.41998   11.42137    
 H                     10.12284   12.56715   10.25021    
 O                     8.15789   13.52612   12.07272    
 H                     8.13765   14.4187   12.40107    
 H                     9.06952   13.40995   11.71003    
 
 ITRead=  0  0  0  0  0  0  0  0  0  0  0  0  0  0  0  0  0  0  0  0
 MicOpt= -1 -1 -1 -1 -1 -1 -1 -1 -1 -1 -1 -1 -1 -1 -1 -1 -1 -1 -1 -1
 NAtoms=     20 NQM=       20 NQMF=       0 NMMI=      0 NMMIF=      0
                NMic=       0 NMicF=      0.
                    Isotopes and Nuclear Properties:
 (Nuclear quadrupole moments (NQMom) in fm**2, nuclear magnetic moments (NMagM)
  in nuclear magnetons)

  Atom         1           2           3           4           5           6           7           8           9          10
 IAtWgt=          31          16          16           1          16           1          16           1          16           1
 AtmWgt=  30.9737634  15.9949146  15.9949146   1.0078250  15.9949146   1.0078250  15.9949146   1.0078250  15.9949146   1.0078250
 NucSpn=           1           0           0           1           0           1           0           1           0           1
 AtZEff=  -0.0000000  -0.0000000  -0.0000000  -0.0000000  -0.0000000  -0.0000000  -0.0000000  -0.0000000  -0.0000000  -0.0000000
 NQMom=    0.0000000   0.0000000   0.0000000   0.0000000   0.0000000   0.0000000   0.0000000   0.0000000   0.0000000   0.0000000
 NMagM=    1.1316000   0.0000000   0.0000000   2.7928460   0.0000000   2.7928460   0.0000000   2.7928460   0.0000000   2.7928460
 AtZNuc=  15.0000000   8.0000000   8.0000000   1.0000000   8.0000000   1.0000000   8.0000000   1.0000000   8.0000000   1.0000000

  Atom        11          12          13          14          15          16          17          18          19          20
 IAtWgt=           1          16           1           1          16           1           1          16           1           1
 AtmWgt=   1.0078250  15.9949146   1.0078250   1.0078250  15.9949146   1.0078250   1.0078250  15.9949146   1.0078250   1.0078250
 NucSpn=           1           0           1           1           0           1           1           0           1           1
 AtZEff=  -0.0000000  -0.0000000  -0.0000000  -0.0000000  -0.0000000  -0.0000000  -0.0000000  -0.0000000  -0.0000000  -0.0000000
 NQMom=    0.0000000   0.0000000   0.0000000   0.0000000   0.0000000   0.0000000   0.0000000   0.0000000   0.0000000   0.0000000
 NMagM=    2.7928460   0.0000000   2.7928460   2.7928460   0.0000000   2.7928460   2.7928460   0.0000000   2.7928460   2.7928460
 AtZNuc=   1.0000000   8.0000000   1.0000000   1.0000000   8.0000000   1.0000000   1.0000000   8.0000000   1.0000000   1.0000000
 Leave Link  101 at Mon Feb 20 00:04:20 2023, MaxMem=  6710886400 cpu:               1.9 elap:               0.1
 (Enter /data0/home/software/g16/l202.exe)
                          Input orientation:                          
 ---------------------------------------------------------------------
 Center     Atomic      Atomic             Coordinates (Angstroms)
 Number     Number       Type             X           Y           Z
 ---------------------------------------------------------------------
      1         15           0       13.067150    9.934052   11.012170
      2          8           0       11.956018   10.567469   11.735798
      3          8           0       14.064622   10.855554   10.203841
      4          1           0       13.535845   11.623217    9.702193
      5          8           0       14.050778    9.211341   12.043625
      6          1           0       14.848232    8.843774   11.502980
      7          8           0       12.699427    8.739469   10.042133
      8          1           0       11.803868    8.962693    9.519510
      9          8           0       12.717640   12.879331    8.878825
     10          1           0       12.045258   13.165905    9.510469
     11          1           0       12.209927   12.420413    8.178345
     12          8           0        6.991930   12.912301    9.497603
     13          1           0        7.193136   13.328503   10.343448
     14          1           0        7.853634   12.541908    9.231850
     15          8           0       10.585334   13.097865   10.955961
     16          1           0       11.093028   12.419983   11.421373
     17          1           0       10.122836   12.567151   10.250209
     18          8           0        8.157890   13.526117   12.072719
     19          1           0        8.137648   14.418704   12.401065
     20          1           0        9.069524   13.409953   11.710028
 ---------------------------------------------------------------------
                    Distance matrix (angstroms):
                    1          2          3          4          5
     1  P    0.000000
     2  O    1.469513   0.000000
     3  O    1.580352   2.622231   0.000000
     4  H    2.188377   2.783165   1.058566   0.000000
     5  O    1.598041   2.514331   2.467475   3.400677   0.000000
     6  H    2.145193   3.374942   2.519735   3.562372   1.031182
     7  O    1.582157   2.600527   2.523435   3.021780   2.460647
     8  H    2.183450   2.740509   3.026919   3.179859   3.388449
     9  O    3.653490   3.753274   2.768700   1.710326   5.024676
    10  H    3.707323   3.422269   3.145841   2.153716   5.106620
    11  H    3.866185   4.019122   3.160904   2.171565   5.350445
    12  O    6.933410   5.928737   7.399456   6.672812   8.366999
    13  H    6.817149   5.678644   7.304265   6.599179   8.177339
    14  H    6.095179   5.195933   6.508835   5.775183   7.576500
    15  O    4.021478   2.981581   4.207028   3.528744   5.319529
    16  H    3.200696   2.067710   3.572141   3.091564   4.408046
    17  H    4.022783   3.092937   4.297603   3.583289   5.468686
    18  O    6.174830   4.826271   6.746413   6.177606   7.303716
    19  H    6.807431   5.463931   7.256228   6.651255   7.887300
    20  H    5.343211   4.051201   5.809007   5.212662   6.523229
                    6          7          8          9         10
     6  H    0.000000
     7  O    2.600445   0.000000
     8  H    3.635443   1.060655   0.000000
     9  O    5.264155   4.300241   4.072531   0.000000
    10  H    5.523367   4.505989   4.210148   0.966021   0.000000
    11  H    5.550333   4.154836   3.730876   0.979311   1.535392
    12  O    9.071710   7.091161   6.225322   5.759143   5.059704
    13  H    8.947503   7.174208   6.402970   5.732977   4.925787
    14  H    8.231563   6.212633   5.338340   4.888459   4.246965
    15  O    6.047216   4.929512   4.543992   2.984791   2.055591
    16  H    5.186279   4.246057   4.009393   3.052035   2.261569
    17  H    6.145107   4.618795   4.043749   2.951467   2.145094
    18  O    8.185940   6.903683   6.374706   5.604517   4.669744
    19  H    8.770310   7.656899   7.177227   5.979312   5.019409
    20  H    7.367925   6.145851   5.661548   4.648228   3.708451
                   11         12         13         14         15
    11  H    0.000000
    12  O    5.404617   0.000000
    13  H    5.538997   0.963930   0.000000
    14  H    4.483517   0.974859   1.513486   0.000000
    15  O    3.288373   3.882498   3.454761   3.277778   0.000000
    16  H    3.429970   4.556564   4.146865   3.911847   0.966378
    17  H    2.944504   3.238536   3.028447   2.487362   0.996819
    18  O    5.727804   2.892655   1.990020   3.021883   2.706110
    19  H    6.197418   3.465835   2.512853   3.694178   3.134343
    20  H    4.828468   3.075529   2.322715   2.893658   1.721539
                   16         17         18         19         20
    16  H    0.000000
    17  H    1.527925   0.000000
    18  O    3.203564   2.846431   0.000000
    19  H    3.699859   3.463438   0.951279   0.000000
    20  H    2.271108   1.987675   0.987986   1.537369   0.000000
 Symmetry turned off by external request.
 Stoichiometry    H11O8P
 Framework group  C1[X(H11O8P)]
 Deg. of freedom    54
 Full point group                 C1      NOp   1
 Rotational constants (GHZ):           1.4257323           0.3669888           0.3458865
 Leave Link  202 at Mon Feb 20 00:04:20 2023, MaxMem=  6710886400 cpu:               0.1 elap:               0.0
 (Enter /data0/home/software/g16/l122.exe)
 Counterpoise: doing full-system calculation.
 Leave Link  122 at Mon Feb 20 00:04:20 2023, MaxMem=  6710886400 cpu:               0.0 elap:               0.0
 (Enter /data0/home/software/g16/l301.exe)
 Standard basis: 6-311+G(2d,p) (5D, 7F)
 Ernie: Thresh=  0.10000D-02 Tol=  0.10000D-05 Strict=F.
   317 basis functions,   480 primitive gaussians,   335 cartesian basis functions
    45 alpha electrons       45 beta electrons
       nuclear repulsion energy       624.0486701960 Hartrees.
 IExCor= 4336 DFT=T Ex+Corr=M062X ExCW=0 ScaHFX=  0.540000
 ScaDFX=  1.000000  1.000000  1.000000  1.000000 ScalE2=  1.000000  1.000000
 IRadAn=      5 IRanWt=     -1 IRanGd=            0 ICorTp=0 IEmpDi=131
 NAtoms=   20 NActive=   20 NUniq=   20 SFac= 1.00D+00 NAtFMM=   60 NAOKFM=F Big=F
 Integral buffers will be    131072 words long.
 Raffenetti 2 integral format.
 Two-electron integral symmetry is turned off.
 R6Disp:  Grimme-D3 Dispersion energy=       -0.0007176614 Hartrees.
 Nuclear repulsion after empirical dispersion term =      624.0479525346 Hartrees.
 Leave Link  301 at Mon Feb 20 00:04:20 2023, MaxMem=  6710886400 cpu:               1.1 elap:               0.1
 (Enter /data0/home/software/g16/l302.exe)
 NPDir=0 NMtPBC=     1 NCelOv=     1 NCel=       1 NClECP=     1 NCelD=      1
         NCelK=      1 NCelE2=     1 NClLst=     1 CellRange=     0.0.
 One-electron integrals computed using PRISM.
 NBasis=   317 RedAO= T EigKep=  3.10D-04  NBF=   317
 NBsUse=   317 1.00D-06 EigRej= -1.00D+00 NBFU=   317
 Precomputing XC quadrature grid using
 IXCGrd= 4 IRadAn=           5 IRanWt=          -1 IRanGd=           0 AccXCQ= 0.00D+00.
 Generated NRdTot=       0 NPtTot=           0 NUsed=           0 NTot=          32
 NSgBfM=   334   334   334   334   334 MxSgAt=    20 MxSgA2=    20.
 Leave Link  302 at Mon Feb 20 00:04:20 2023, MaxMem=  6710886400 cpu:               5.1 elap:               0.2
 (Enter /data0/home/software/g16/l303.exe)
 DipDrv:  MaxL=1.
 Leave Link  303 at Mon Feb 20 00:04:20 2023, MaxMem=  6710886400 cpu:               0.7 elap:               0.0
 (Enter /data0/home/software/g16/l401.exe)
 ExpMin= 3.48D-02 ExpMax= 7.75D+04 ExpMxC= 2.65D+03 IAcc=3 IRadAn=         5 AccDes= 0.00D+00
 Harris functional with IExCor= 1009 and IRadAn=       5 diagonalized for initial guess.
 HarFok:  IExCor= 1009 AccDes= 0.00D+00 IRadAn=         5 IDoV= 1 UseB2=F ITyADJ=14
 ICtDFT=  3500011 ScaDFX=  1.000000  1.000000  1.000000  1.000000
 FoFCou: FMM=F IPFlag=           0 FMFlag=      100000 FMFlg1=           0
         NFxFlg=           0 DoJE=T BraDBF=F KetDBF=T FulRan=T
         wScrn=  0.000000 ICntrl=       500 IOpCl=  0 I1Cent=   200000004 NGrid=           0
         NMat0=    1 NMatS0=      1 NMatT0=    0 NMatD0=    1 NMtDS0=    0 NMtDT0=    0
 Symmetry not used in FoFCou.
 Harris En= -949.612201537832    
 JPrj=0 DoOrth=F DoCkMO=F.
 Leave Link  401 at Mon Feb 20 00:04:21 2023, MaxMem=  6710886400 cpu:              15.8 elap:               0.7
 (Enter /data0/home/software/g16/l502.exe)
 Two-electron integral symmetry not used.
 Closed shell SCF:
 Using DIIS extrapolation, IDIIS=  1040.
 NGot=  6710886400 LenX=  6710651443 LenY=  6710538777
 Requested convergence on RMS density matrix=1.00D-08 within 128 cycles.
 Requested convergence on MAX density matrix=1.00D-06.
 Requested convergence on             energy=1.00D-06.
 No special actions if energy rises.
 Fock matrices will be formed incrementally for  20 cycles.

 Cycle   1  Pass 1  IDiag  1:
 FoFJK:  IHMeth= 1 ICntrl=       0 DoSepK=F KAlg= 0 I1Cent=           0 FoldK=F
 IRaf= 820000000 NMat=       1 IRICut=       1 DoRegI=T DoRafI=F ISym2E= 0 IDoP0=0 IntGTp=1.
 FoFCou: FMM=F IPFlag=           0 FMFlag=      100000 FMFlg1=           0
         NFxFlg=           0 DoJE=F BraDBF=F KetDBF=F FulRan=T
         wScrn=  0.000000 ICntrl=         0 IOpCl=  0 I1Cent=           0 NGrid=           0
         NMat0=    1 NMatS0=      1 NMatT0=    0 NMatD0=    1 NMtDS0=    0 NMtDT0=    0
 Symmetry not used in FoFCou.
 E= -949.348787693600    
 DIIS: error= 4.42D-02 at cycle   1 NSaved=   1.
 NSaved= 1 IEnMin= 1 EnMin= -949.348787693600     IErMin= 1 ErrMin= 4.42D-02
 ErrMax= 4.42D-02  0.00D+00 EMaxC= 1.00D-01 BMatC= 9.22D-01 BMatP= 9.22D-01
 IDIUse=3 WtCom= 5.58D-01 WtEn= 4.42D-01
 Coeff-Com:  0.100D+01
 Coeff-En:   0.100D+01
 Coeff:      0.100D+01
 Gap=     0.279 Goal=   None    Shift=    0.000
 GapD=    0.279 DampG=1.000 DampE=0.500 DampFc=0.5000 IDamp=-1.
 Damping current iteration by 5.00D-01
 RMSDP=5.78D-03 MaxDP=4.09D-01              OVMax= 2.29D-01

 Cycle   2  Pass 1  IDiag  1:
 RMSU=  2.89D-03    CP:  1.01D+00
 E= -949.579059862463     Delta-E=       -0.230272168863 Rises=F Damp=T
 DIIS: error= 6.75D-03 at cycle   2 NSaved=   2.
 NSaved= 2 IEnMin= 2 EnMin= -949.579059862463     IErMin= 2 ErrMin= 6.75D-03
 ErrMax= 6.75D-03  0.00D+00 EMaxC= 1.00D-01 BMatC= 3.96D-02 BMatP= 9.22D-01
 IDIUse=3 WtCom= 9.32D-01 WtEn= 6.75D-02
 Coeff-Com:  0.522D-01 0.948D+00
 Coeff-En:   0.156D+00 0.844D+00
 Coeff:      0.592D-01 0.941D+00
 Gap=     0.338 Goal=   None    Shift=    0.000
 RMSDP=1.03D-03 MaxDP=5.35D-02 DE=-2.30D-01 OVMax= 1.45D-01

 Cycle   3  Pass 1  IDiag  1:
 RMSU=  7.98D-04    CP:  1.00D+00  7.77D-01
 E= -949.876016095515     Delta-E=       -0.296956233052 Rises=F Damp=F
 DIIS: error= 3.47D-03 at cycle   3 NSaved=   3.
 NSaved= 3 IEnMin= 3 EnMin= -949.876016095515     IErMin= 3 ErrMin= 3.47D-03
 ErrMax= 3.47D-03  0.00D+00 EMaxC= 1.00D-01 BMatC= 7.99D-03 BMatP= 3.96D-02
 IDIUse=3 WtCom= 9.65D-01 WtEn= 3.47D-02
 Coeff-Com: -0.254D-01 0.231D+00 0.794D+00
 Coeff-En:   0.000D+00 0.000D+00 0.100D+01
 Coeff:     -0.245D-01 0.223D+00 0.802D+00
 Gap=     0.334 Goal=   None    Shift=    0.000
 RMSDP=3.52D-04 MaxDP=1.57D-02 DE=-2.97D-01 OVMax= 3.46D-02

 Cycle   4  Pass 1  IDiag  1:
 RMSU=  3.35D-04    CP:  1.00D+00  7.98D-01  8.90D-01
 E= -949.878092863979     Delta-E=       -0.002076768465 Rises=F Damp=F
 DIIS: error= 3.17D-03 at cycle   4 NSaved=   4.
 NSaved= 4 IEnMin= 4 EnMin= -949.878092863979     IErMin= 4 ErrMin= 3.17D-03
 ErrMax= 3.17D-03  0.00D+00 EMaxC= 1.00D-01 BMatC= 5.29D-03 BMatP= 7.99D-03
 IDIUse=3 WtCom= 9.68D-01 WtEn= 3.17D-02
 Coeff-Com: -0.205D-01 0.424D-01 0.482D+00 0.496D+00
 Coeff-En:   0.000D+00 0.000D+00 0.394D+00 0.606D+00
 Coeff:     -0.199D-01 0.411D-01 0.480D+00 0.499D+00
 Gap=     0.335 Goal=   None    Shift=    0.000
 RMSDP=1.73D-04 MaxDP=8.04D-03 DE=-2.08D-03 OVMax= 1.52D-02

 Cycle   5  Pass 1  IDiag  1:
 RMSU=  5.27D-05    CP:  1.00D+00  7.96D-01  9.75D-01  5.53D-01
 E= -949.881644186738     Delta-E=       -0.003551322759 Rises=F Damp=F
 DIIS: error= 3.57D-04 at cycle   5 NSaved=   5.
 NSaved= 5 IEnMin= 5 EnMin= -949.881644186738     IErMin= 5 ErrMin= 3.57D-04
 ErrMax= 3.57D-04  0.00D+00 EMaxC= 1.00D-01 BMatC= 2.59D-05 BMatP= 5.29D-03
 IDIUse=3 WtCom= 9.96D-01 WtEn= 3.57D-03
 Coeff-Com: -0.327D-02 0.276D-02 0.939D-01 0.125D+00 0.782D+00
 Coeff-En:   0.000D+00 0.000D+00 0.000D+00 0.000D+00 0.100D+01
 Coeff:     -0.326D-02 0.275D-02 0.935D-01 0.124D+00 0.782D+00
 Gap=     0.337 Goal=   None    Shift=    0.000
 RMSDP=2.07D-05 MaxDP=1.22D-03 DE=-3.55D-03 OVMax= 1.07D-03

 Cycle   6  Pass 1  IDiag  1:
 RMSU=  1.47D-05    CP:  1.00D+00  7.92D-01  9.77D-01  5.79D-01  1.04D+00
 E= -949.881660766686     Delta-E=       -0.000016579948 Rises=F Damp=F
 DIIS: error= 1.32D-04 at cycle   6 NSaved=   6.
 NSaved= 6 IEnMin= 6 EnMin= -949.881660766686     IErMin= 6 ErrMin= 1.32D-04
 ErrMax= 1.32D-04  0.00D+00 EMaxC= 1.00D-01 BMatC= 3.97D-06 BMatP= 2.59D-05
 IDIUse=3 WtCom= 9.99D-01 WtEn= 1.32D-03
 Coeff-Com:  0.521D-05-0.142D-02 0.667D-02 0.169D-01 0.299D+00 0.678D+00
 Coeff-En:   0.000D+00 0.000D+00 0.000D+00 0.000D+00 0.000D+00 0.100D+01
 Coeff:      0.521D-05-0.142D-02 0.666D-02 0.168D-01 0.299D+00 0.679D+00
 Gap=     0.336 Goal=   None    Shift=    0.000
 RMSDP=8.37D-06 MaxDP=5.92D-04 DE=-1.66D-05 OVMax= 4.23D-04

 Cycle   7  Pass 1  IDiag  1:
 RMSU=  4.47D-06    CP:  1.00D+00  7.90D-01  9.79D-01  5.82D-01  1.12D+00
                    CP:  8.90D-01
 E= -949.881663514383     Delta-E=       -0.000002747696 Rises=F Damp=F
 DIIS: error= 6.15D-05 at cycle   7 NSaved=   7.
 NSaved= 7 IEnMin= 7 EnMin= -949.881663514383     IErMin= 7 ErrMin= 6.15D-05
 ErrMax= 6.15D-05  0.00D+00 EMaxC= 1.00D-01 BMatC= 4.59D-07 BMatP= 3.97D-06
 IDIUse=1 WtCom= 1.00D+00 WtEn= 0.00D+00
 Coeff-Com:  0.477D-03-0.840D-03-0.127D-01-0.142D-01-0.203D-01 0.235D+00
 Coeff-Com:  0.813D+00
 Coeff:      0.477D-03-0.840D-03-0.127D-01-0.142D-01-0.203D-01 0.235D+00
 Coeff:      0.813D+00
 Gap=     0.336 Goal=   None    Shift=    0.000
 RMSDP=3.57D-06 MaxDP=1.99D-04 DE=-2.75D-06 OVMax= 1.76D-04

 Cycle   8  Pass 1  IDiag  1:
 RMSU=  1.85D-06    CP:  1.00D+00  7.89D-01  9.79D-01  5.84D-01  1.16D+00
                    CP:  9.60D-01  9.40D-01
 E= -949.881663863813     Delta-E=       -0.000000349430 Rises=F Damp=F
 DIIS: error= 9.88D-06 at cycle   8 NSaved=   8.
 NSaved= 8 IEnMin= 8 EnMin= -949.881663863813     IErMin= 8 ErrMin= 9.88D-06
 ErrMax= 9.88D-06  0.00D+00 EMaxC= 1.00D-01 BMatC= 4.53D-08 BMatP= 4.59D-07
 IDIUse=1 WtCom= 1.00D+00 WtEn= 0.00D+00
 Coeff-Com:  0.176D-03-0.235D-03-0.531D-02-0.625D-02-0.206D-01 0.536D-01
 Coeff-Com:  0.324D+00 0.655D+00
 Coeff:      0.176D-03-0.235D-03-0.531D-02-0.625D-02-0.206D-01 0.536D-01
 Coeff:      0.324D+00 0.655D+00
 Gap=     0.336 Goal=   None    Shift=    0.000
 RMSDP=6.79D-07 MaxDP=4.32D-05 DE=-3.49D-07 OVMax= 3.25D-05

 Cycle   9  Pass 1  IDiag  1:
 RMSU=  3.93D-07    CP:  1.00D+00  7.89D-01  9.79D-01  5.84D-01  1.16D+00
                    CP:  9.79D-01  1.02D+00  9.07D-01
 E= -949.881663899850     Delta-E=       -0.000000036037 Rises=F Damp=F
 DIIS: error= 1.96D-06 at cycle   9 NSaved=   9.
 NSaved= 9 IEnMin= 9 EnMin= -949.881663899850     IErMin= 9 ErrMin= 1.96D-06
 ErrMax= 1.96D-06  0.00D+00 EMaxC= 1.00D-01 BMatC= 1.62D-09 BMatP= 4.53D-08
 IDIUse=1 WtCom= 1.00D+00 WtEn= 0.00D+00
 Coeff-Com: -0.239D-04 0.482D-04 0.295D-03 0.315D-03-0.177D-02-0.137D-01
 Coeff-Com: -0.237D-01 0.881D-01 0.950D+00
 Coeff:     -0.239D-04 0.482D-04 0.295D-03 0.315D-03-0.177D-02-0.137D-01
 Coeff:     -0.237D-01 0.881D-01 0.950D+00
 Gap=     0.336 Goal=   None    Shift=    0.000
 RMSDP=2.61D-07 MaxDP=1.71D-05 DE=-3.60D-08 OVMax= 1.35D-05

 Cycle  10  Pass 1  IDiag  1:
 RMSU=  1.15D-07    CP:  1.00D+00  7.89D-01  9.79D-01  5.84D-01  1.16D+00
                    CP:  9.79D-01  1.04D+00  9.92D-01  1.09D+00
 E= -949.881663901476     Delta-E=       -0.000000001626 Rises=F Damp=F
 DIIS: error= 1.09D-06 at cycle  10 NSaved=  10.
 NSaved=10 IEnMin=10 EnMin= -949.881663901476     IErMin=10 ErrMin= 1.09D-06
 ErrMax= 1.09D-06  0.00D+00 EMaxC= 1.00D-01 BMatC= 6.25D-10 BMatP= 1.62D-09
 IDIUse=1 WtCom= 1.00D+00 WtEn= 0.00D+00
 Coeff-Com: -0.245D-04 0.410D-04 0.529D-03 0.596D-03 0.375D-03-0.112D-01
 Coeff-Com: -0.361D-01-0.480D-02 0.484D+00 0.566D+00
 Coeff:     -0.245D-04 0.410D-04 0.529D-03 0.596D-03 0.375D-03-0.112D-01
 Coeff:     -0.361D-01-0.480D-02 0.484D+00 0.566D+00
 Gap=     0.336 Goal=   None    Shift=    0.000
 RMSDP=7.26D-08 MaxDP=2.66D-06 DE=-1.63D-09 OVMax= 4.20D-06

 Cycle  11  Pass 1  IDiag  1:
 RMSU=  5.41D-08    CP:  1.00D+00  7.89D-01  9.79D-01  5.84D-01  1.16D+00
                    CP:  9.79D-01  1.05D+00  1.00D+00  1.17D+00  7.69D-01
 E= -949.881663901895     Delta-E=       -0.000000000420 Rises=F Damp=F
 DIIS: error= 2.80D-07 at cycle  11 NSaved=  11.
 NSaved=11 IEnMin=11 EnMin= -949.881663901895     IErMin=11 ErrMin= 2.80D-07
 ErrMax= 2.80D-07  0.00D+00 EMaxC= 1.00D-01 BMatC= 2.02D-11 BMatP= 6.25D-10
 IDIUse=1 WtCom= 1.00D+00 WtEn= 0.00D+00
 Coeff-Com: -0.401D-06 0.671D-06 0.577D-04 0.599D-04 0.240D-03-0.484D-03
 Coeff-Com: -0.453D-02-0.126D-01-0.169D-01 0.125D+00 0.909D+00
 Coeff:     -0.401D-06 0.671D-06 0.577D-04 0.599D-04 0.240D-03-0.484D-03
 Coeff:     -0.453D-02-0.126D-01-0.169D-01 0.125D+00 0.909D+00
 Gap=     0.336 Goal=   None    Shift=    0.000
 RMSDP=2.00D-08 MaxDP=5.56D-07 DE=-4.20D-10 OVMax= 1.51D-06

 Cycle  12  Pass 1  IDiag  1:
 RMSU=  1.23D-08    CP:  1.00D+00  7.89D-01  9.79D-01  5.84D-01  1.16D+00
                    CP:  9.79D-01  1.05D+00  1.01D+00  1.19D+00  8.60D-01
                    CP:  1.04D+00
 E= -949.881663901932     Delta-E=       -0.000000000037 Rises=F Damp=F
 DIIS: error= 4.99D-08 at cycle  12 NSaved=  12.
 NSaved=12 IEnMin=12 EnMin= -949.881663901932     IErMin=12 ErrMin= 4.99D-08
 ErrMax= 4.99D-08  0.00D+00 EMaxC= 1.00D-01 BMatC= 1.22D-12 BMatP= 2.02D-11
 IDIUse=1 WtCom= 1.00D+00 WtEn= 0.00D+00
 Coeff-Com:  0.120D-05-0.199D-05-0.795D-05-0.106D-04 0.584D-04 0.448D-03
 Coeff-Com:  0.634D-03-0.308D-02-0.301D-01 0.397D-02 0.257D+00 0.771D+00
 Coeff:      0.120D-05-0.199D-05-0.795D-05-0.106D-04 0.584D-04 0.448D-03
 Coeff:      0.634D-03-0.308D-02-0.301D-01 0.397D-02 0.257D+00 0.771D+00
 Gap=     0.336 Goal=   None    Shift=    0.000
 RMSDP=4.91D-09 MaxDP=1.40D-07 DE=-3.68D-11 OVMax= 2.12D-07

 SCF Done:  E(RM062X) =  -949.881663902     A.U. after   12 cycles
            NFock= 12  Conv=0.49D-08     -V/T= 2.0027
 KE= 9.473275409076D+02 PE=-3.497874102063D+03 EE= 9.766169447194D+02
 Leave Link  502 at Mon Feb 20 00:04:41 2023, MaxMem=  6710886400 cpu:             473.1 elap:              19.8
 (Enter /data0/home/software/g16/l601.exe)
 Copying SCF densities to generalized density rwf, IOpCl= 0 IROHF=0.

 **********************************************************************

            Population analysis using the SCF density.

 **********************************************************************

 Alpha  occ. eigenvalues --  -78.17937 -19.69610 -19.69020 -19.68469 -19.67644
 Alpha  occ. eigenvalues --  -19.67001 -19.61806 -19.61441 -19.60718  -6.98679
 Alpha  occ. eigenvalues --   -5.10587  -5.10536  -5.10430  -1.24641  -1.19973
 Alpha  occ. eigenvalues --   -1.18824  -1.17167  -1.15816  -1.13006  -1.11460
 Alpha  occ. eigenvalues --   -1.11388  -0.73351  -0.66726  -0.65792  -0.65066
 Alpha  occ. eigenvalues --   -0.64527  -0.61275  -0.59023  -0.58840  -0.54818
 Alpha  occ. eigenvalues --   -0.54466  -0.53253  -0.52087  -0.50166  -0.48710
 Alpha  occ. eigenvalues --   -0.47682  -0.47133  -0.46437  -0.45804  -0.44316
 Alpha  occ. eigenvalues --   -0.42862  -0.41269  -0.40028  -0.39599  -0.38265
 Alpha virt. eigenvalues --   -0.04627  -0.00312   0.01276   0.02486   0.04317
 Alpha virt. eigenvalues --    0.06455   0.07775   0.08807   0.09031   0.10357
 Alpha virt. eigenvalues --    0.10567   0.12589   0.13418   0.13693   0.14816
 Alpha virt. eigenvalues --    0.15371   0.15587   0.16817   0.17297   0.17426
 Alpha virt. eigenvalues --    0.17667   0.18985   0.19298   0.19581   0.19946
 Alpha virt. eigenvalues --    0.20485   0.20834   0.21657   0.22350   0.23303
 Alpha virt. eigenvalues --    0.23774   0.24483   0.24782   0.25721   0.26473
 Alpha virt. eigenvalues --    0.26941   0.27136   0.28347   0.28536   0.29489
 Alpha virt. eigenvalues --    0.30302   0.31313   0.31593   0.32195   0.33462
 Alpha virt. eigenvalues --    0.34734   0.36761   0.37626   0.38255   0.40328
 Alpha virt. eigenvalues --    0.42031   0.44214   0.45378   0.47060   0.47954
 Alpha virt. eigenvalues --    0.49744   0.50894   0.53094   0.53599   0.53821
 Alpha virt. eigenvalues --    0.55955   0.59517   0.59760   0.62166   0.63505
 Alpha virt. eigenvalues --    0.64617   0.66378   0.75268   0.77107   0.78518
 Alpha virt. eigenvalues --    0.85262   0.93807   0.94730   0.95078   0.98142
 Alpha virt. eigenvalues --    0.99393   1.00269   1.01190   1.03663   1.04281
 Alpha virt. eigenvalues --    1.04794   1.05841   1.05889   1.06740   1.08246
 Alpha virt. eigenvalues --    1.08762   1.10286   1.10762   1.11243   1.12436
 Alpha virt. eigenvalues --    1.13812   1.15563   1.16411   1.17412   1.17488
 Alpha virt. eigenvalues --    1.19410   1.20395   1.22028   1.23040   1.23135
 Alpha virt. eigenvalues --    1.25225   1.25725   1.26806   1.26944   1.28188
 Alpha virt. eigenvalues --    1.29198   1.32718   1.33353   1.34392   1.35621
 Alpha virt. eigenvalues --    1.36404   1.37943   1.39914   1.43917   1.44109
 Alpha virt. eigenvalues --    1.45185   1.46930   1.49057   1.49560   1.53644
 Alpha virt. eigenvalues --    1.54865   1.56896   1.59973   1.62482   1.63704
 Alpha virt. eigenvalues --    1.64395   1.66571   1.68201   1.69393   1.69948
 Alpha virt. eigenvalues --    1.71188   1.74694   1.75056   1.76436   1.77532
 Alpha virt. eigenvalues --    1.78610   1.79090   1.82487   1.84063   1.86261
 Alpha virt. eigenvalues --    1.87494   1.89885   1.92956   1.93436   1.94389
 Alpha virt. eigenvalues --    1.97438   2.00751   2.03424   2.04299   2.06946
 Alpha virt. eigenvalues --    2.08041   2.08967   2.10773   2.11266   2.14039
 Alpha virt. eigenvalues --    2.15702   2.16810   2.17923   2.22197   2.23935
 Alpha virt. eigenvalues --    2.26871   2.27773   2.31553   2.36656   2.40107
 Alpha virt. eigenvalues --    2.41336   2.42135   2.44074   2.46750   2.47614
 Alpha virt. eigenvalues --    2.49829   2.52929   2.55287   2.56975   2.57246
 Alpha virt. eigenvalues --    2.58501   2.62200   2.63040   2.64527   2.65683
 Alpha virt. eigenvalues --    2.67780   2.74138   2.75862   2.81126   2.85758
 Alpha virt. eigenvalues --    2.86405   2.89457   2.92710   2.96207   2.98940
 Alpha virt. eigenvalues --    3.01671   3.06066   3.08414   3.10089   3.17991
 Alpha virt. eigenvalues --    5.01937   5.06497   5.07381   5.07786   5.08149
 Alpha virt. eigenvalues --    5.09390   5.11841   5.13057   5.13489   5.20429
 Alpha virt. eigenvalues --    5.22147   5.25290   5.35174   5.45746   5.47017
 Alpha virt. eigenvalues --    5.48398   5.52255   5.52946   5.53719   5.59148
 Alpha virt. eigenvalues --    5.83447   5.86867   5.94184   5.96751   6.72144
 Alpha virt. eigenvalues --    6.73093   6.73856   6.74726   6.74925   6.75961
 Alpha virt. eigenvalues --    6.76805   6.77939   6.78895   6.79264   6.80482
 Alpha virt. eigenvalues --    6.80909   6.82816   6.83186   6.83758   6.85289
 Alpha virt. eigenvalues --    6.85790   6.86503   6.88222   6.91034   6.92012
 Alpha virt. eigenvalues --    6.92706   6.92983   6.95513   6.96461   6.96718
 Alpha virt. eigenvalues --    6.98053   7.01247   7.02696   7.06412   7.07621
 Alpha virt. eigenvalues --    7.10814   7.12940   7.15411   7.19889   7.24438
 Alpha virt. eigenvalues --    7.24779   7.27958   7.32586   7.39674   7.65077
 Alpha virt. eigenvalues --   14.22608  14.24421  14.34807  49.95109  49.95983
 Alpha virt. eigenvalues --   49.99111  49.99654  50.00832  50.03217  50.04078
 Alpha virt. eigenvalues --   50.07875 163.87622
          Condensed to atoms (all electrons):
               1          2          3          4          5          6
     1  P   12.532478   0.495919   0.285469   0.020849   0.170393   0.028428
     2  O    0.495919   8.223482  -0.039841  -0.003461  -0.019979  -0.005879
     3  O    0.285469  -0.039841   8.159679   0.195380  -0.005831  -0.010400
     4  H    0.020849  -0.003461   0.195380   0.376368   0.004411   0.000903
     5  O    0.170393  -0.019979  -0.005831   0.004411   8.143659   0.230452
     6  H    0.028428  -0.005879  -0.010400   0.000903   0.230452   0.446827
     7  O    0.287459  -0.025700   0.007257   0.005388  -0.028319  -0.004736
     8  H    0.008762  -0.010885  -0.010411  -0.000066   0.005722   0.001170
     9  O    0.001456   0.009225   0.067600  -0.121900   0.001055  -0.000024
    10  H    0.005013  -0.009225  -0.019958   0.043940  -0.000055   0.000026
    11  H    0.001405  -0.003301  -0.010126   0.016714   0.000021   0.000009
    12  O    0.000032  -0.000016  -0.000012   0.000010   0.000001  -0.000000
    13  H    0.000025  -0.000035   0.000001   0.000000  -0.000000   0.000000
    14  H    0.000060  -0.000090  -0.000003   0.000008   0.000001  -0.000000
    15  O   -0.014734   0.050440   0.013780  -0.019839   0.000400  -0.000157
    16  H    0.011183   0.008037  -0.008224   0.007464  -0.000855   0.000141
    17  H   -0.003606  -0.007290  -0.001522   0.001242  -0.000085   0.000013
    18  O   -0.000132   0.000514   0.000033  -0.000043   0.000003  -0.000000
    19  H    0.000032   0.000010   0.000000   0.000001   0.000000   0.000000
    20  H    0.000039  -0.001929  -0.000088   0.000051  -0.000003   0.000000
               7          8          9         10         11         12
     1  P    0.287459   0.008762   0.001456   0.005013   0.001405   0.000032
     2  O   -0.025700  -0.010885   0.009225  -0.009225  -0.003301  -0.000016
     3  O    0.007257  -0.010411   0.067600  -0.019958  -0.010126  -0.000012
     4  H    0.005388  -0.000066  -0.121900   0.043940   0.016714   0.000010
     5  O   -0.028319   0.005722   0.001055  -0.000055   0.000021   0.000001
     6  H   -0.004736   0.001170  -0.000024   0.000026   0.000009  -0.000000
     7  O    7.999499   0.261148  -0.015134   0.002202   0.002189   0.000001
     8  H    0.261148   0.421044  -0.000477   0.000064   0.000060  -0.000000
     9  O   -0.015134  -0.000477   8.249675   0.185023   0.262501  -0.000301
    10  H    0.002202   0.000064   0.185023   0.398275   0.005153   0.000266
    11  H    0.002189   0.000060   0.262501   0.005153   0.427237   0.000072
    12  O    0.000001  -0.000000  -0.000301   0.000266   0.000072   7.967956
    13  H    0.000001   0.000000  -0.000015   0.000061   0.000007   0.323397
    14  H   -0.000007  -0.000002  -0.000359   0.000090   0.000060   0.304763
    15  O   -0.006261  -0.000943   0.107906  -0.035449  -0.019922  -0.010978
    16  H    0.003964   0.000768  -0.030043   0.023098   0.002942   0.001688
    17  H    0.001208   0.000169  -0.014569   0.011268   0.002724   0.009779
    18  O   -0.000008  -0.000004   0.000773  -0.001472  -0.000031  -0.009751
    19  H    0.000000   0.000000  -0.000061   0.000138   0.000002  -0.000597
    20  H    0.000025   0.000014  -0.000804   0.002366  -0.000009   0.006311
              13         14         15         16         17         18
     1  P    0.000025   0.000060  -0.014734   0.011183  -0.003606  -0.000132
     2  O   -0.000035  -0.000090   0.050440   0.008037  -0.007290   0.000514
     3  O    0.000001  -0.000003   0.013780  -0.008224  -0.001522   0.000033
     4  H    0.000000   0.000008  -0.019839   0.007464   0.001242  -0.000043
     5  O   -0.000000   0.000001   0.000400  -0.000855  -0.000085   0.000003
     6  H    0.000000  -0.000000  -0.000157   0.000141   0.000013  -0.000000
     7  O    0.000001  -0.000007  -0.006261   0.003964   0.001208  -0.000008
     8  H    0.000000  -0.000002  -0.000943   0.000768   0.000169  -0.000004
     9  O   -0.000015  -0.000359   0.107906  -0.030043  -0.014569   0.000773
    10  H    0.000061   0.000090  -0.035449   0.023098   0.011268  -0.001472
    11  H    0.000007   0.000060  -0.019922   0.002942   0.002724  -0.000031
    12  O    0.323397   0.304763  -0.010978   0.001688   0.009779  -0.009751
    13  H    0.345556  -0.031813   0.001546  -0.000402   0.000451  -0.010228
    14  H   -0.031813   0.484105  -0.005963   0.000605   0.008911   0.002358
    15  O    0.001546  -0.005963   8.206338   0.197686   0.244479  -0.000029
    16  H   -0.000402   0.000605   0.197686   0.374306   0.002525  -0.000969
    17  H    0.000451   0.008911   0.244479   0.002525   0.478736  -0.004864
    18  O   -0.010228   0.002358  -0.000029  -0.000969  -0.004864   8.179131
    19  H    0.000121   0.000384   0.004137   0.000079   0.001540   0.296395
    20  H   -0.001001   0.001775  -0.074307   0.021270   0.017781   0.256725
              19         20
     1  P    0.000032   0.000039
     2  O    0.000010  -0.001929
     3  O    0.000000  -0.000088
     4  H    0.000001   0.000051
     5  O    0.000000  -0.000003
     6  H    0.000000   0.000000
     7  O    0.000000   0.000025
     8  H    0.000000   0.000014
     9  O   -0.000061  -0.000804
    10  H    0.000138   0.002366
    11  H    0.000002  -0.000009
    12  O   -0.000597   0.006311
    13  H    0.000121  -0.001001
    14  H    0.000384   0.001775
    15  O    0.004137  -0.074307
    16  H    0.000079   0.021270
    17  H    0.001540   0.017781
    18  O    0.296395   0.256725
    19  H    0.428024  -0.018471
    20  H   -0.018471   0.387801
 Mulliken charges:
               1
     1  P    1.169471
     2  O   -0.659997
     3  O   -0.622783
     4  H    0.472580
     5  O   -0.500990
     6  H    0.313228
     7  O   -0.490176
     8  H    0.323867
     9  O   -0.701527
    10  H    0.389176
    11  H    0.312293
    12  O   -0.592621
    13  H    0.372330
    14  H    0.235117
    15  O   -0.638130
    16  H    0.384738
    17  H    0.251110
    18  O   -0.708403
    19  H    0.288266
    20  H    0.402453
 Sum of Mulliken charges =  -0.00000
 Mulliken charges with hydrogens summed into heavy atoms:
               1
     1  P    1.169471
     2  O   -0.659997
     3  O   -0.150203
     5  O   -0.187763
     7  O   -0.166309
     9  O   -0.000058
    12  O    0.014826
    15  O   -0.002282
    18  O   -0.017684
         Mulliken charges condensed to fragments:
      1      0.005199
      2     -0.000058
      3      0.014826
      4     -0.002282
      5     -0.017684
 Electronic spatial extent (au):  <R**2>=         124252.7461
 Charge=              0.0000 electrons
 Dipole moment (field-independent basis, Debye):
    X=              3.4097    Y=             -0.5993    Z=             -3.7319  Tot=              5.0904
 Quadrupole moment (field-independent basis, Debye-Ang):
   XX=            -10.7275   YY=            -72.7978   ZZ=           -142.9411
   XY=             30.5329   XZ=             -9.3374   YZ=            -40.1484
 Traceless Quadrupole moment (field-independent basis, Debye-Ang):
   XX=             64.7613   YY=              2.6910   ZZ=            -67.4523
   XY=             30.5329   XZ=             -9.3374   YZ=            -40.1484
 Octapole moment (field-independent basis, Debye-Ang**2):
  XXX=          -1579.2162  YYY=          -2218.4022  ZZZ=          -3329.9905  XYY=           -439.1399
  XXY=           -275.6840  XXZ=           -633.0735  XZZ=          -1319.5929  YZZ=          -1497.3484
  YYZ=          -1046.8491  XYZ=           -113.5645
 Hexadecapole moment (field-independent basis, Debye-Ang**3):
 XXXX=         -46174.2220 YYYY=         -49048.0982 ZZZZ=         -63057.6434 XXXY=         -20308.8268
 XXXZ=         -22460.0399 YYYX=         -20986.3163 YYYZ=         -25128.3631 ZZZX=         -35281.8994
 ZZZY=         -35180.7803 XXYY=         -13453.9676 XXZZ=         -21284.0247 YYZZ=         -22257.6161
 XXYZ=          -8025.6092 YYXZ=          -8649.9836 ZZXY=         -13894.8250
 N-N= 6.240479525346D+02 E-N=-3.497874102532D+03  KE= 9.473275409076D+02
 No NMR shielding tensors so no spin-rotation constants.
 Leave Link  601 at Mon Feb 20 00:04:41 2023, MaxMem=  6710886400 cpu:               2.4 elap:               0.1
 (Enter /data0/home/software/g16/l122.exe)
 CPIOFr:  IOpCl= 0 IRwI=-1 IRwCP=  731 ICalc= -1 LCPTot=      156386 Len1MO=      408861 IndFrg=      156386
 CPIOFr:  IOpCl= 0 IRwI=-1 IRwCP=  731 ICalc=  0 LCPTot=      156386 Len1MO=      408861 IndFrg=      565247
 Counterpoise: doing calculation for fragment   1 using the basis set of the full-system, NewBq=T
 Leave Link  122 at Mon Feb 20 00:04:41 2023, MaxMem=  6710886400 cpu:               0.2 elap:               0.0
 (Enter /data0/home/software/g16/l301.exe)
 Basis read from rwf:  (5D, 7F)
 No pseudopotential information found on rwf file.
   317 basis functions,   480 primitive gaussians,   335 cartesian basis functions
    25 alpha electrons       25 beta electrons
       nuclear repulsion energy       280.0269708450 Hartrees.
 IExCor= 4336 DFT=T Ex+Corr=M062X ExCW=0 ScaHFX=  0.540000
 ScaDFX=  1.000000  1.000000  1.000000  1.000000 ScalE2=  1.000000  1.000000
 IRadAn=      5 IRanWt=     -1 IRanGd=            0 ICorTp=0 IEmpDi=131
 NAtoms=   20 NActive=   20 NUniq=   20 SFac= 1.00D+00 NAtFMM=   60 NAOKFM=F Big=F
 Integral buffers will be    131072 words long.
 Raffenetti 2 integral format.
 Two-electron integral symmetry is turned off.
 R6Disp:  Grimme-D3 Dispersion energy=       -0.0000472669 Hartrees.
 Nuclear repulsion after empirical dispersion term =      280.0269235780 Hartrees.
 No density basis found on file   718.
 Leave Link  301 at Mon Feb 20 00:04:41 2023, MaxMem=  6710886400 cpu:               1.3 elap:               0.1
 (Enter /data0/home/software/g16/l302.exe)
 NPDir=0 NMtPBC=     1 NCelOv=     1 NCel=       1 NClECP=     1 NCelD=      1
         NCelK=      1 NCelE2=     1 NClLst=     1 CellRange=     0.0.
 One-electron integrals computed using PRISM.
 NBasis=   317 RedAO= T EigKep=  3.10D-04  NBF=   317
 NBsUse=   317 1.00D-06 EigRej= -1.00D+00 NBFU=   317
 Precomputing XC quadrature grid using
 IXCGrd= 4 IRadAn=           5 IRanWt=          -1 IRanGd=           0 AccXCQ= 0.00D+00.
 Generated NRdTot=       0 NPtTot=           0 NUsed=           0 NTot=          32
 NSgBfM=   334   334   334   334   334 MxSgAt=    20 MxSgA2=    20.
 Leave Link  302 at Mon Feb 20 00:04:41 2023, MaxMem=  6710886400 cpu:               5.1 elap:               0.2
 (Enter /data0/home/software/g16/l303.exe)
 DipDrv:  MaxL=1.
 Leave Link  303 at Mon Feb 20 00:04:41 2023, MaxMem=  6710886400 cpu:               0.7 elap:               0.0
 (Enter /data0/home/software/g16/l401.exe)
 ExpMin= 3.48D-02 ExpMax= 7.75D+04 ExpMxC= 2.65D+03 IAcc=3 IRadAn=         5 AccDes= 0.00D+00
 Harris functional with IExCor= 1009 and IRadAn=       5 diagonalized for initial guess.
 HarFok:  IExCor= 1009 AccDes= 0.00D+00 IRadAn=         5 IDoV= 1 UseB2=F ITyADJ=14
 ICtDFT=  3500011 ScaDFX=  1.000000  1.000000  1.000000  1.000000
 FoFCou: FMM=F IPFlag=           0 FMFlag=      100000 FMFlg1=           0
         NFxFlg=           0 DoJE=T BraDBF=F KetDBF=T FulRan=T
         wScrn=  0.000000 ICntrl=       500 IOpCl=  0 I1Cent=   200000004 NGrid=           0
         NMat0=    1 NMatS0=      1 NMatT0=    0 NMatD0=    1 NMtDS0=    0 NMtDT0=    0
 Symmetry not used in FoFCou.
 Harris En= -643.940583473112    
 JPrj=0 DoOrth=F DoCkMO=F.
 Leave Link  401 at Mon Feb 20 00:04:42 2023, MaxMem=  6710886400 cpu:              14.5 elap:               0.6
 (Enter /data0/home/software/g16/l502.exe)
 Two-electron integral symmetry not used.
 Closed shell SCF:
 Using DIIS extrapolation, IDIIS=  1040.
 NGot=  6710886400 LenX=  6710651443 LenY=  6710538777
 Requested convergence on RMS density matrix=1.00D-08 within 128 cycles.
 Requested convergence on MAX density matrix=1.00D-06.
 Requested convergence on             energy=1.00D-06.
 No special actions if energy rises.
 Fock matrices will be formed incrementally for  20 cycles.

 Cycle   1  Pass 1  IDiag  1:
 FoFJK:  IHMeth= 1 ICntrl=       0 DoSepK=F KAlg= 0 I1Cent=           0 FoldK=F
 IRaf= 820000000 NMat=       1 IRICut=       1 DoRegI=T DoRafI=F ISym2E= 0 IDoP0=0 IntGTp=1.
 FoFCou: FMM=F IPFlag=           0 FMFlag=      100000 FMFlg1=           0
         NFxFlg=           0 DoJE=F BraDBF=F KetDBF=F FulRan=T
         wScrn=  0.000000 ICntrl=         0 IOpCl=  0 I1Cent=           0 NGrid=           0
         NMat0=    1 NMatS0=      1 NMatT0=    0 NMatD0=    1 NMtDS0=    0 NMtDT0=    0
 Symmetry not used in FoFCou.
 E= -643.857115001946    
 DIIS: error= 3.08D-02 at cycle   1 NSaved=   1.
 NSaved= 1 IEnMin= 1 EnMin= -643.857115001946     IErMin= 1 ErrMin= 3.08D-02
 ErrMax= 3.08D-02  0.00D+00 EMaxC= 1.00D-01 BMatC= 5.07D-01 BMatP= 5.07D-01
 IDIUse=3 WtCom= 6.92D-01 WtEn= 3.08D-01
 Coeff-Com:  0.100D+01
 Coeff-En:   0.100D+01
 Coeff:      0.100D+01
 Gap=     0.293 Goal=   None    Shift=    0.000
 GapD=    0.293 DampG=1.000 DampE=0.500 DampFc=0.5000 IDamp=-1.
 Damping current iteration by 5.00D-01
 RMSDP=3.63D-03 MaxDP=1.65D-01              OVMax= 2.66D-01

 Cycle   2  Pass 1  IDiag  1:
 RMSU=  1.81D-03    CP:  1.00D+00
 E= -643.973281166438     Delta-E=       -0.116166164492 Rises=F Damp=T
 DIIS: error= 6.26D-03 at cycle   2 NSaved=   2.
 NSaved= 2 IEnMin= 2 EnMin= -643.973281166438     IErMin= 2 ErrMin= 6.26D-03
 ErrMax= 6.26D-03  0.00D+00 EMaxC= 1.00D-01 BMatC= 2.72D-02 BMatP= 5.07D-01
 IDIUse=3 WtCom= 9.37D-01 WtEn= 6.26D-02
 Coeff-Com:  0.724D-01 0.928D+00
 Coeff-En:   0.204D+00 0.796D+00
 Coeff:      0.807D-01 0.919D+00
 Gap=     0.357 Goal=   None    Shift=    0.000
 RMSDP=8.70D-04 MaxDP=5.32D-02 DE=-1.16D-01 OVMax= 1.76D-01

 Cycle   3  Pass 1  IDiag  1:
 RMSU=  6.49D-04    CP:  9.91D-01  6.84D-01
 E= -644.138444987774     Delta-E=       -0.165163821336 Rises=F Damp=F
 DIIS: error= 4.12D-03 at cycle   3 NSaved=   3.
 NSaved= 3 IEnMin= 3 EnMin= -644.138444987774     IErMin= 3 ErrMin= 4.12D-03
 ErrMax= 4.12D-03  0.00D+00 EMaxC= 1.00D-01 BMatC= 1.05D-02 BMatP= 2.72D-02
 IDIUse=3 WtCom= 9.59D-01 WtEn= 4.12D-02
 Coeff-Com: -0.179D-01 0.343D+00 0.675D+00
 Coeff-En:   0.000D+00 0.000D+00 0.100D+01
 Coeff:     -0.172D-01 0.329D+00 0.689D+00
 Gap=     0.349 Goal=   None    Shift=    0.000
 RMSDP=3.42D-04 MaxDP=1.51D-02 DE=-1.65D-01 OVMax= 3.54D-02

 Cycle   4  Pass 1  IDiag  1:
 RMSU=  2.86D-04    CP:  9.91D-01  7.75D-01  8.63D-01
 E= -644.143344727597     Delta-E=       -0.004899739822 Rises=F Damp=F
 DIIS: error= 3.22D-03 at cycle   4 NSaved=   4.
 NSaved= 4 IEnMin= 4 EnMin= -644.143344727597     IErMin= 4 ErrMin= 3.22D-03
 ErrMax= 3.22D-03  0.00D+00 EMaxC= 1.00D-01 BMatC= 3.76D-03 BMatP= 1.05D-02
 IDIUse=3 WtCom= 9.68D-01 WtEn= 3.22D-02
 Coeff-Com: -0.236D-01 0.534D-01 0.399D+00 0.571D+00
 Coeff-En:   0.000D+00 0.000D+00 0.261D+00 0.739D+00
 Coeff:     -0.228D-01 0.517D-01 0.395D+00 0.576D+00
 Gap=     0.352 Goal=   None    Shift=    0.000
 RMSDP=1.35D-04 MaxDP=5.97D-03 DE=-4.90D-03 OVMax= 1.11D-02

 Cycle   5  Pass 1  IDiag  1:
 RMSU=  4.11D-05    CP:  9.91D-01  7.54D-01  9.57D-01  6.30D-01
 E= -644.145841786199     Delta-E=       -0.002497058602 Rises=F Damp=F
 DIIS: error= 1.80D-04 at cycle   5 NSaved=   5.
 NSaved= 5 IEnMin= 5 EnMin= -644.145841786199     IErMin= 5 ErrMin= 1.80D-04
 ErrMax= 1.80D-04  0.00D+00 EMaxC= 1.00D-01 BMatC= 1.58D-05 BMatP= 3.76D-03
 IDIUse=3 WtCom= 9.98D-01 WtEn= 1.80D-03
 Coeff-Com: -0.280D-02 0.110D-02 0.570D-01 0.119D+00 0.826D+00
 Coeff-En:   0.000D+00 0.000D+00 0.000D+00 0.000D+00 0.100D+01
 Coeff:     -0.280D-02 0.110D-02 0.569D-01 0.119D+00 0.826D+00
 Gap=     0.350 Goal=   None    Shift=    0.000
 RMSDP=1.46D-05 MaxDP=7.67D-04 DE=-2.50D-03 OVMax= 7.73D-04

 Cycle   6  Pass 1  IDiag  1:
 RMSU=  1.01D-05    CP:  9.90D-01  7.50D-01  9.61D-01  6.55D-01  1.06D+00
 E= -644.145852458640     Delta-E=       -0.000010672441 Rises=F Damp=F
 DIIS: error= 5.55D-05 at cycle   6 NSaved=   6.
 NSaved= 6 IEnMin= 6 EnMin= -644.145852458640     IErMin= 6 ErrMin= 5.55D-05
 ErrMax= 5.55D-05  0.00D+00 EMaxC= 1.00D-01 BMatC= 1.17D-06 BMatP= 1.58D-05
 IDIUse=1 WtCom= 1.00D+00 WtEn= 0.00D+00
 Coeff-Com:  0.714D-05-0.144D-02 0.157D-02 0.110D-01 0.217D+00 0.772D+00
 Coeff:      0.714D-05-0.144D-02 0.157D-02 0.110D-01 0.217D+00 0.772D+00
 Gap=     0.351 Goal=   None    Shift=    0.000
 RMSDP=5.34D-06 MaxDP=2.09D-04 DE=-1.07D-05 OVMax= 2.70D-04

 Cycle   7  Pass 1  IDiag  1:
 RMSU=  3.04D-06    CP:  9.91D-01  7.49D-01  9.62D-01  6.57D-01  1.15D+00
                    CP:  9.36D-01
 E= -644.145853268638     Delta-E=       -0.000000809998 Rises=F Damp=F
 DIIS: error= 2.79D-05 at cycle   7 NSaved=   7.
 NSaved= 7 IEnMin= 7 EnMin= -644.145853268638     IErMin= 7 ErrMin= 2.79D-05
 ErrMax= 2.79D-05  0.00D+00 EMaxC= 1.00D-01 BMatC= 2.82D-07 BMatP= 1.17D-06
 IDIUse=1 WtCom= 1.00D+00 WtEn= 0.00D+00
 Coeff-Com:  0.435D-03-0.761D-03-0.854D-02-0.139D-01-0.263D-01 0.326D+00
 Coeff-Com:  0.723D+00
 Coeff:      0.435D-03-0.761D-03-0.854D-02-0.139D-01-0.263D-01 0.326D+00
 Coeff:      0.723D+00
 Gap=     0.351 Goal=   None    Shift=    0.000
 RMSDP=2.05D-06 MaxDP=8.52D-05 DE=-8.10D-07 OVMax= 1.05D-04

 Cycle   8  Pass 1  IDiag  1:
 RMSU=  1.39D-06    CP:  9.91D-01  7.49D-01  9.63D-01  6.58D-01  1.17D+00
                    CP:  1.01D+00  8.61D-01
 E= -644.145853458987     Delta-E=       -0.000000190349 Rises=F Damp=F
 DIIS: error= 7.85D-06 at cycle   8 NSaved=   8.
 NSaved= 8 IEnMin= 8 EnMin= -644.145853458987     IErMin= 8 ErrMin= 7.85D-06
 ErrMax= 7.85D-06  0.00D+00 EMaxC= 1.00D-01 BMatC= 3.30D-08 BMatP= 2.82D-07
 IDIUse=1 WtCom= 1.00D+00 WtEn= 0.00D+00
 Coeff-Com:  0.178D-03-0.251D-03-0.379D-02-0.625D-02-0.187D-01 0.100D+00
 Coeff-Com:  0.335D+00 0.593D+00
 Coeff:      0.178D-03-0.251D-03-0.379D-02-0.625D-02-0.187D-01 0.100D+00
 Coeff:      0.335D+00 0.593D+00
 Gap=     0.351 Goal=   None    Shift=    0.000
 RMSDP=4.64D-07 MaxDP=2.28D-05 DE=-1.90D-07 OVMax= 3.71D-05

 Cycle   9  Pass 1  IDiag  1:
 RMSU=  2.84D-07    CP:  9.91D-01  7.49D-01  9.63D-01  6.58D-01  1.17D+00
                    CP:  1.02D+00  9.43D-01  8.40D-01
 E= -644.145853483017     Delta-E=       -0.000000024029 Rises=F Damp=F
 DIIS: error= 1.14D-06 at cycle   9 NSaved=   9.
 NSaved= 9 IEnMin= 9 EnMin= -644.145853483017     IErMin= 9 ErrMin= 1.14D-06
 ErrMax= 1.14D-06  0.00D+00 EMaxC= 1.00D-01 BMatC= 7.72D-10 BMatP= 3.30D-08
 IDIUse=1 WtCom= 1.00D+00 WtEn= 0.00D+00
 Coeff-Com: -0.273D-04 0.512D-04 0.283D-03 0.593D-03-0.380D-03-0.200D-01
 Coeff-Com: -0.273D-01 0.725D-01 0.974D+00
 Coeff:     -0.273D-04 0.512D-04 0.283D-03 0.593D-03-0.380D-03-0.200D-01
 Coeff:     -0.273D-01 0.725D-01 0.974D+00
 Gap=     0.351 Goal=   None    Shift=    0.000
 RMSDP=1.84D-07 MaxDP=8.06D-06 DE=-2.40D-08 OVMax= 1.03D-05

 Cycle  10  Pass 1  IDiag  1:
 RMSU=  7.20D-08    CP:  9.91D-01  7.49D-01  9.63D-01  6.58D-01  1.17D+00
                    CP:  1.02D+00  9.67D-01  9.17D-01  1.14D+00
 E= -644.145853483984     Delta-E=       -0.000000000968 Rises=F Damp=F
 DIIS: error= 2.22D-07 at cycle  10 NSaved=  10.
 NSaved=10 IEnMin=10 EnMin= -644.145853483984     IErMin=10 ErrMin= 2.22D-07
 ErrMax= 2.22D-07  0.00D+00 EMaxC= 1.00D-01 BMatC= 1.64D-11 BMatP= 7.72D-10
 IDIUse=1 WtCom= 1.00D+00 WtEn= 0.00D+00
 Coeff-Com: -0.483D-05 0.804D-05 0.112D-03 0.186D-03 0.456D-03-0.442D-02
 Coeff-Com: -0.135D-01-0.150D-01 0.458D-01 0.986D+00
 Coeff:     -0.483D-05 0.804D-05 0.112D-03 0.186D-03 0.456D-03-0.442D-02
 Coeff:     -0.135D-01-0.150D-01 0.458D-01 0.986D+00
 Gap=     0.351 Goal=   None    Shift=    0.000
 RMSDP=3.55D-08 MaxDP=9.88D-07 DE=-9.68D-10 OVMax= 2.51D-06

 Cycle  11  Pass 1  IDiag  1:
 RMSU=  1.90D-08    CP:  9.91D-01  7.49D-01  9.63D-01  6.58D-01  1.17D+00
                    CP:  1.02D+00  9.69D-01  9.31D-01  1.20D+00  1.14D+00
 E= -644.145853484021     Delta-E=       -0.000000000037 Rises=F Damp=F
 DIIS: error= 1.80D-07 at cycle  11 NSaved=  11.
 NSaved=11 IEnMin=11 EnMin= -644.145853484021     IErMin=11 ErrMin= 1.80D-07
 ErrMax= 1.80D-07  0.00D+00 EMaxC= 1.00D-01 BMatC= 6.13D-12 BMatP= 1.64D-11
 IDIUse=1 WtCom= 1.00D+00 WtEn= 0.00D+00
 Coeff-Com: -0.211D-06 0.134D-06 0.313D-04 0.444D-04 0.213D-03-0.718D-03
 Coeff-Com: -0.394D-02-0.100D-01-0.390D-01 0.426D+00 0.627D+00
 Coeff:     -0.211D-06 0.134D-06 0.313D-04 0.444D-04 0.213D-03-0.718D-03
 Coeff:     -0.394D-02-0.100D-01-0.390D-01 0.426D+00 0.627D+00
 Gap=     0.351 Goal=   None    Shift=    0.000
 RMSDP=8.10D-09 MaxDP=4.06D-07 DE=-3.66D-11 OVMax= 5.03D-07

 SCF Done:  E(RM062X) =  -644.145853484     A.U. after   11 cycles
            NFock= 11  Conv=0.81D-08     -V/T= 2.0025
 KE= 6.425079847348D+02 PE=-2.087794995557D+03 EE= 5.211142337598D+02
 Leave Link  502 at Mon Feb 20 00:05:00 2023, MaxMem=  6710886400 cpu:             419.6 elap:              17.6
 (Enter /data0/home/software/g16/l601.exe)
 Copying SCF densities to generalized density rwf, IOpCl= 0 IROHF=0.

 **********************************************************************

            Population analysis using the SCF density.

 **********************************************************************

 Alpha  occ. eigenvalues --  -78.16751 -19.68915 -19.68488 -19.67133 -19.58889
 Alpha  occ. eigenvalues --   -6.97528  -5.09431  -5.09399  -5.09244  -1.24194
 Alpha  occ. eigenvalues --   -1.17072  -1.15860  -1.08974  -0.72914  -0.64808
 Alpha  occ. eigenvalues --   -0.63779  -0.58076  -0.53130  -0.51475  -0.49333
 Alpha  occ. eigenvalues --   -0.46820  -0.45971  -0.42811  -0.38690  -0.37818
 Alpha virt. eigenvalues --   -0.02751   0.01191   0.01504   0.04267   0.06423
 Alpha virt. eigenvalues --    0.06898   0.09378   0.10095   0.10455   0.11316
 Alpha virt. eigenvalues --    0.12035   0.12810   0.14516   0.15944   0.16111
 Alpha virt. eigenvalues --    0.16665   0.17691   0.18293   0.19241   0.20147
 Alpha virt. eigenvalues --    0.20474   0.20786   0.20915   0.21331   0.22191
 Alpha virt. eigenvalues --    0.23542   0.23842   0.24533   0.25349   0.26547
 Alpha virt. eigenvalues --    0.27510   0.27933   0.28114   0.28962   0.29315
 Alpha virt. eigenvalues --    0.30052   0.31088   0.31776   0.32796   0.33352
 Alpha virt. eigenvalues --    0.33846   0.34718   0.35670   0.37229   0.37660
 Alpha virt. eigenvalues --    0.38966   0.39734   0.41279   0.41962   0.44636
 Alpha virt. eigenvalues --    0.45343   0.46973   0.48301   0.49069   0.50475
 Alpha virt. eigenvalues --    0.50982   0.55529   0.59582   0.63619   0.64709
 Alpha virt. eigenvalues --    0.66251   0.70926   0.71848   0.73514   0.74417
 Alpha virt. eigenvalues --    0.77283   0.78596   0.79227   0.79466   0.80850
 Alpha virt. eigenvalues --    0.81439   0.82527   0.83464   0.84196   0.86456
 Alpha virt. eigenvalues --    0.87274   0.88733   0.92080   0.94542   0.97304
 Alpha virt. eigenvalues --    0.98978   0.99332   1.01387   1.03392   1.05848
 Alpha virt. eigenvalues --    1.06636   1.07442   1.09038   1.11037   1.11967
 Alpha virt. eigenvalues --    1.13791   1.16100   1.16835   1.18721   1.20764
 Alpha virt. eigenvalues --    1.21665   1.24433   1.26134   1.27699   1.28625
 Alpha virt. eigenvalues --    1.28937   1.34750   1.37349   1.38518   1.44306
 Alpha virt. eigenvalues --    1.45974   1.49156   1.53897   1.55171   1.56782
 Alpha virt. eigenvalues --    1.59035   1.64196   1.66102   1.66770   1.68512
 Alpha virt. eigenvalues --    1.70575   1.73863   1.76286   1.76799   1.78744
 Alpha virt. eigenvalues --    1.80815   1.83681   1.85682   1.86494   1.87752
 Alpha virt. eigenvalues --    1.88588   1.90342   1.92620   1.93432   1.94653
 Alpha virt. eigenvalues --    1.95163   1.97596   1.99176   2.00431   2.05423
 Alpha virt. eigenvalues --    2.07150   2.09913   2.10308   2.12435   2.13705
 Alpha virt. eigenvalues --    2.18016   2.20205   2.20619   2.24240   2.24728
 Alpha virt. eigenvalues --    2.27552   2.28658   2.29533   2.31476   2.35020
 Alpha virt. eigenvalues --    2.36814   2.39773   2.41590   2.44825   2.45651
 Alpha virt. eigenvalues --    2.47254   2.51886   2.52457   2.56131   2.56805
 Alpha virt. eigenvalues --    2.57753   2.58201   2.59268   2.61257   2.62626
 Alpha virt. eigenvalues --    2.63911   2.64698   2.65539   2.69120   2.70159
 Alpha virt. eigenvalues --    2.70786   2.71337   2.73568   2.74487   2.75431
 Alpha virt. eigenvalues --    2.77300   2.78708   2.79567   2.80917   2.82111
 Alpha virt. eigenvalues --    2.83826   2.87087   2.88605   2.92416   2.93408
 Alpha virt. eigenvalues --    2.97358   2.97916   3.01691   3.03347   3.04493
 Alpha virt. eigenvalues --    3.08246   3.12260   3.16703   3.27365   3.33520
 Alpha virt. eigenvalues --    3.50065   3.57036   3.62023   3.65014   3.67204
 Alpha virt. eigenvalues --    3.73593   3.78962   3.89754   4.48561   4.52873
 Alpha virt. eigenvalues --    4.73326   4.81629   5.00974   5.02159   5.06373
 Alpha virt. eigenvalues --    5.07355   5.07912   5.08824   5.12464   5.14599
 Alpha virt. eigenvalues --    5.22209   5.27793   5.30874   5.36685   5.40370
 Alpha virt. eigenvalues --    5.47026   5.54013   5.60951   6.72409   6.75239
 Alpha virt. eigenvalues --    6.75682   6.76718   6.79510   6.81093   6.83955
 Alpha virt. eigenvalues --    6.87138   6.92112   6.93276   6.97807   6.98857
 Alpha virt. eigenvalues --    6.99779   7.06454   7.12389   7.25221   7.25595
 Alpha virt. eigenvalues --    7.27996   7.32246   7.41830   7.65980   9.76202
 Alpha virt. eigenvalues --    9.77145   9.86440   9.88389   9.92526   9.96851
 Alpha virt. eigenvalues --    9.99701  10.04215  10.10971  10.19710  10.26097
 Alpha virt. eigenvalues --   10.27395  10.29202  10.30726  10.35538  10.40621
 Alpha virt. eigenvalues --   10.42753  10.45329  10.63328  10.66903  12.86244
 Alpha virt. eigenvalues --   13.12027  13.20534  13.34586  13.40090  13.46450
 Alpha virt. eigenvalues --   13.63663  13.77134  13.82658  13.85443  14.23774
 Alpha virt. eigenvalues --   14.25589  14.31493  14.35706  14.36103  17.64609
 Alpha virt. eigenvalues --   17.81797  18.42010  18.50310  50.00569  50.01163
 Alpha virt. eigenvalues --   50.02042  50.10306 135.76417 137.28078 139.76036
 Alpha virt. eigenvalues --  139.77114 163.88805
          Condensed to atoms (all electrons):
               1          2          3          4          5          6
     1  P   12.534180   0.539310   0.251434   0.007178   0.172134   0.036913
     2  O    0.539310   8.107581  -0.027151   0.002256  -0.026577  -0.002530
     3  O    0.251434  -0.027151   8.062892   0.273393   0.010939  -0.013124
     4  H    0.007178   0.002256   0.273393   0.295389   0.004420   0.001037
     5  O    0.172134  -0.026577   0.010939   0.004420   8.117496   0.224177
     6  H    0.036913  -0.002530  -0.013124   0.001037   0.224177   0.455425
     7  O    0.288708  -0.018309   0.011819  -0.003891  -0.007382  -0.008856
     8  H    0.004871  -0.008864  -0.009701   0.000308   0.005587   0.001105
     9  O   -0.002062   0.002351   0.030441   0.005533  -0.000091  -0.000029
    10  H    0.000152  -0.001613  -0.003431   0.003510   0.000097   0.000012
    11  H   -0.001646  -0.000945  -0.003341  -0.000457  -0.000014   0.000009
    12  O   -0.000008   0.000016  -0.000003   0.000001  -0.000000   0.000000
    13  H    0.000011  -0.000005   0.000000   0.000000  -0.000000   0.000000
    14  H   -0.000009  -0.000019   0.000004  -0.000004   0.000000  -0.000000
    15  O    0.001801   0.024256  -0.000766  -0.002029   0.000376  -0.000110
    16  H    0.000941  -0.009523  -0.000630   0.001166  -0.000637   0.000120
    17  H   -0.001085  -0.004283  -0.000479   0.000251  -0.000052   0.000008
    18  O    0.000006   0.000195   0.000003  -0.000008   0.000000  -0.000000
    19  H    0.000010  -0.000011   0.000001  -0.000000   0.000000   0.000000
    20  H   -0.000187  -0.000649  -0.000017   0.000013  -0.000002   0.000000
               7          8          9         10         11         12
     1  P    0.288708   0.004871  -0.002062   0.000152  -0.001646  -0.000008
     2  O   -0.018309  -0.008864   0.002351  -0.001613  -0.000945   0.000016
     3  O    0.011819  -0.009701   0.030441  -0.003431  -0.003341  -0.000003
     4  H   -0.003891   0.000308   0.005533   0.003510  -0.000457   0.000001
     5  O   -0.007382   0.005587  -0.000091   0.000097  -0.000014  -0.000000
     6  H   -0.008856   0.001105  -0.000029   0.000012   0.000009   0.000000
     7  O    7.986554   0.267408  -0.001767  -0.000073   0.000373   0.000001
     8  H    0.267408   0.406357  -0.001003   0.000100   0.000200   0.000001
     9  O   -0.001767  -0.001003   0.032076  -0.010377  -0.009023  -0.000003
    10  H   -0.000073   0.000100  -0.010377   0.006915   0.001781  -0.000008
    11  H    0.000373   0.000200  -0.009023   0.001781   0.004845  -0.000002
    12  O    0.000001   0.000001  -0.000003  -0.000008  -0.000002   0.000395
    13  H   -0.000000   0.000000  -0.000010   0.000009   0.000002  -0.000165
    14  H   -0.000001  -0.000002   0.000035  -0.000012  -0.000003  -0.000269
    15  O   -0.001178  -0.000424   0.004288  -0.003629  -0.001016  -0.000123
    16  H    0.001440   0.000387  -0.001349   0.001031   0.000384  -0.000025
    17  H    0.000222   0.000039  -0.001520   0.000895   0.000371   0.000103
    18  O   -0.000002  -0.000003   0.000047  -0.000041  -0.000008   0.000027
    19  H   -0.000000   0.000000  -0.000003   0.000007   0.000000  -0.000047
    20  H    0.000013   0.000007  -0.000030  -0.000032   0.000019   0.000120
              13         14         15         16         17         18
     1  P    0.000011  -0.000009   0.001801   0.000941  -0.001085   0.000006
     2  O   -0.000005  -0.000019   0.024256  -0.009523  -0.004283   0.000195
     3  O    0.000000   0.000004  -0.000766  -0.000630  -0.000479   0.000003
     4  H    0.000000  -0.000004  -0.002029   0.001166   0.000251  -0.000008
     5  O   -0.000000   0.000000   0.000376  -0.000637  -0.000052   0.000000
     6  H    0.000000  -0.000000  -0.000110   0.000120   0.000008  -0.000000
     7  O   -0.000000  -0.000001  -0.001178   0.001440   0.000222  -0.000002
     8  H    0.000000  -0.000002  -0.000424   0.000387   0.000039  -0.000003
     9  O   -0.000010   0.000035   0.004288  -0.001349  -0.001520   0.000047
    10  H    0.000009  -0.000012  -0.003629   0.001031   0.000895  -0.000041
    11  H    0.000002  -0.000003  -0.001016   0.000384   0.000371  -0.000008
    12  O   -0.000165  -0.000269  -0.000123  -0.000025   0.000103   0.000027
    13  H    0.000218  -0.000009  -0.000149   0.000042   0.000094  -0.000225
    14  H   -0.000009   0.000313   0.000231   0.000000  -0.000221   0.000073
    15  O   -0.000149   0.000231   0.034641  -0.018732  -0.009497   0.003178
    16  H    0.000042   0.000000  -0.018732   0.014660   0.003483  -0.000964
    17  H    0.000094  -0.000221  -0.009497   0.003483   0.004351  -0.000882
    18  O   -0.000225   0.000073   0.003178  -0.000964  -0.000882   0.002589
    19  H    0.000067   0.000009  -0.000154   0.000096   0.000045  -0.000532
    20  H    0.000102  -0.000120  -0.006890   0.002222   0.001862  -0.003045
              19         20
     1  P    0.000010  -0.000187
     2  O   -0.000011  -0.000649
     3  O    0.000001  -0.000017
     4  H   -0.000000   0.000013
     5  O    0.000000  -0.000002
     6  H    0.000000   0.000000
     7  O   -0.000000   0.000013
     8  H    0.000000   0.000007
     9  O   -0.000003  -0.000030
    10  H    0.000007  -0.000032
    11  H    0.000000   0.000019
    12  O   -0.000047   0.000120
    13  H    0.000067   0.000102
    14  H    0.000009  -0.000120
    15  O   -0.000154  -0.006890
    16  H    0.000096   0.002222
    17  H    0.000045   0.001862
    18  O   -0.000532  -0.003045
    19  H    0.000286   0.000209
    20  H    0.000209   0.005250
 Mulliken charges:
               1
     1  P    1.167350
     2  O   -0.575488
     3  O   -0.582282
     4  H    0.411934
     5  O   -0.500470
     6  H    0.305844
     7  O   -0.515078
     8  H    0.333629
     9  O   -0.047504
    10  H    0.004707
    11  H    0.008473
    12  O   -0.000012
    13  H    0.000018
    14  H    0.000003
    15  O   -0.024074
    16  H    0.005891
    17  H    0.006295
    18  O   -0.000408
    19  H    0.000020
    20  H    0.001154
 Sum of Mulliken charges =  -0.00000
 Mulliken charges with hydrogens summed into heavy atoms:
               1
     1  P    1.167350
     2  O   -0.575488
     3  O   -0.170348
     5  O   -0.194626
     7  O   -0.181449
     9  O   -0.034324
    12  O    0.000009
    15  O   -0.011888
    18  O    0.000766
         Mulliken charges condensed to fragments:
      1      0.045438
      2     -0.034324
      3      0.000009
      4     -0.011888
      5      0.000766
 Electronic spatial extent (au):  <R**2>=          70254.0084
 Charge=             -0.0000 electrons
 Dipole moment (field-independent basis, Debye):
    X=              1.1304    Y=             -0.1198    Z=             -4.2829  Tot=              4.4312
 Quadrupole moment (field-independent basis, Debye-Ang):
   XX=             -4.4128   YY=            -35.9561   ZZ=           -129.1878
   XY=              9.9881   XZ=            -38.2893   YZ=            -47.1119
 Traceless Quadrupole moment (field-independent basis, Debye-Ang):
   XX=             52.1061   YY=             20.5628   ZZ=            -72.6689
   XY=              9.9881   XZ=            -38.2893   YZ=            -47.1119
 Octapole moment (field-independent basis, Debye-Ang**2):
  XXX=           -754.4000  YYY=          -1021.0319  ZZZ=          -2716.4260  XYY=           -350.9514
  XXY=            -66.5197  XXZ=           -647.5043  XZZ=          -1445.4467  YZZ=          -1363.2473
  YYZ=           -888.7275  XYZ=           -438.0103
 Hexadecapole moment (field-independent basis, Debye-Ang**3):
 XXXX=         -24968.5669 YYYY=         -19898.1027 ZZZZ=         -48682.2383 XXXY=          -8021.0466
 XXXZ=         -15335.3907 YYYX=         -12109.1314 YYYZ=         -16586.8287 ZZZX=         -32390.9015
 ZZZY=         -28126.7730 XXYY=          -6642.4538 XXZZ=         -19977.0679 YYZZ=         -18574.9843
 XXYZ=          -7274.1880 YYXZ=          -9816.0722 ZZXY=         -15389.2839
 N-N= 2.800269235780D+02 E-N=-2.087794996220D+03  KE= 6.425079847348D+02
 No NMR shielding tensors so no spin-rotation constants.
 Leave Link  601 at Mon Feb 20 00:05:00 2023, MaxMem=  6710886400 cpu:               2.4 elap:               0.1
 (Enter /data0/home/software/g16/l122.exe)
 CPIOFr:  IOpCl= 0 IRwI=-1 IRwCP=  731 ICalc=  1 LCPTot=      156386 Len1MO=      408861 IndFrg=      974108
 Counterpoise: doing calculation for fragment   2 using the basis set of the full-system, NewBq=T
 Leave Link  122 at Mon Feb 20 00:05:00 2023, MaxMem=  6710886400 cpu:               0.1 elap:               0.0
 (Enter /data0/home/software/g16/l301.exe)
 Basis read from rwf:  (5D, 7F)
 No pseudopotential information found on rwf file.
   317 basis functions,   480 primitive gaussians,   335 cartesian basis functions
     5 alpha electrons        5 beta electrons
       nuclear repulsion energy         9.0498303102 Hartrees.
 IExCor= 4336 DFT=T Ex+Corr=M062X ExCW=0 ScaHFX=  0.540000
 ScaDFX=  1.000000  1.000000  1.000000  1.000000 ScalE2=  1.000000  1.000000
 IRadAn=      5 IRanWt=     -1 IRanGd=            0 ICorTp=0 IEmpDi=131
 NAtoms=   20 NActive=   20 NUniq=   20 SFac= 1.00D+00 NAtFMM=   60 NAOKFM=F Big=F
 Integral buffers will be    131072 words long.
 Raffenetti 2 integral format.
 Two-electron integral symmetry is turned off.
 R6Disp:  Grimme-D3 Dispersion energy=       -0.0000000081 Hartrees.
 Nuclear repulsion after empirical dispersion term =        9.0498303020 Hartrees.
 No density basis found on file   718.
 Leave Link  301 at Mon Feb 20 00:05:00 2023, MaxMem=  6710886400 cpu:               1.2 elap:               0.1
 (Enter /data0/home/software/g16/l302.exe)
 NPDir=0 NMtPBC=     1 NCelOv=     1 NCel=       1 NClECP=     1 NCelD=      1
         NCelK=      1 NCelE2=     1 NClLst=     1 CellRange=     0.0.
 One-electron integrals computed using PRISM.
 NBasis=   317 RedAO= T EigKep=  3.10D-04  NBF=   317
 NBsUse=   317 1.00D-06 EigRej= -1.00D+00 NBFU=   317
 Precomputing XC quadrature grid using
 IXCGrd= 4 IRadAn=           5 IRanWt=          -1 IRanGd=           0 AccXCQ= 0.00D+00.
 Generated NRdTot=       0 NPtTot=           0 NUsed=           0 NTot=          32
 NSgBfM=   334   334   334   334   334 MxSgAt=    20 MxSgA2=    20.
 Leave Link  302 at Mon Feb 20 00:05:00 2023, MaxMem=  6710886400 cpu:               5.2 elap:               0.2
 (Enter /data0/home/software/g16/l303.exe)
 DipDrv:  MaxL=1.
 Leave Link  303 at Mon Feb 20 00:05:00 2023, MaxMem=  6710886400 cpu:               0.7 elap:               0.0
 (Enter /data0/home/software/g16/l401.exe)
 ExpMin= 3.48D-02 ExpMax= 7.75D+04 ExpMxC= 2.65D+03 IAcc=3 IRadAn=         5 AccDes= 0.00D+00
 Harris functional with IExCor= 1009 and IRadAn=       5 diagonalized for initial guess.
 HarFok:  IExCor= 1009 AccDes= 0.00D+00 IRadAn=         5 IDoV= 1 UseB2=F ITyADJ=14
 ICtDFT=  3500011 ScaDFX=  1.000000  1.000000  1.000000  1.000000
 FoFCou: FMM=F IPFlag=           0 FMFlag=      100000 FMFlg1=           0
         NFxFlg=           0 DoJE=T BraDBF=F KetDBF=T FulRan=T
         wScrn=  0.000000 ICntrl=       500 IOpCl=  0 I1Cent=   200000004 NGrid=           0
         NMat0=    1 NMatS0=      1 NMatT0=    0 NMatD0=    1 NMtDS0=    0 NMtDT0=    0
 Symmetry not used in FoFCou.
 Harris En= -76.4169750277731    
 JPrj=0 DoOrth=F DoCkMO=F.
 Leave Link  401 at Mon Feb 20 00:05:01 2023, MaxMem=  6710886400 cpu:              15.4 elap:               0.7
 (Enter /data0/home/software/g16/l502.exe)
 Two-electron integral symmetry not used.
 Closed shell SCF:
 Using DIIS extrapolation, IDIIS=  1040.
 NGot=  6710886400 LenX=  6710651443 LenY=  6710538777
 Requested convergence on RMS density matrix=1.00D-08 within 128 cycles.
 Requested convergence on MAX density matrix=1.00D-06.
 Requested convergence on             energy=1.00D-06.
 No special actions if energy rises.
 Fock matrices will be formed incrementally for  20 cycles.

 Cycle   1  Pass 1  IDiag  1:
 FoFJK:  IHMeth= 1 ICntrl=       0 DoSepK=F KAlg= 0 I1Cent=           0 FoldK=F
 IRaf= 820000000 NMat=       1 IRICut=       1 DoRegI=T DoRafI=F ISym2E= 0 IDoP0=0 IntGTp=1.
 FoFCou: FMM=F IPFlag=           0 FMFlag=      100000 FMFlg1=           0
         NFxFlg=           0 DoJE=F BraDBF=F KetDBF=F FulRan=T
         wScrn=  0.000000 ICntrl=         0 IOpCl=  0 I1Cent=           0 NGrid=           0
         NMat0=    1 NMatS0=      1 NMatT0=    0 NMatD0=    1 NMtDS0=    0 NMtDT0=    0
 Symmetry not used in FoFCou.
 E= -76.3482682958858    
 DIIS: error= 2.11D-02 at cycle   1 NSaved=   1.
 NSaved= 1 IEnMin= 1 EnMin= -76.3482682958858     IErMin= 1 ErrMin= 2.11D-02
 ErrMax= 2.11D-02  0.00D+00 EMaxC= 1.00D-01 BMatC= 1.19D-01 BMatP= 1.19D-01
 IDIUse=3 WtCom= 7.89D-01 WtEn= 2.11D-01
 Coeff-Com:  0.100D+01
 Coeff-En:   0.100D+01
 Coeff:      0.100D+01
 Gap=     0.273 Goal=   None    Shift=    0.000
 GapD=    0.273 DampG=1.000 DampE=0.500 DampFc=0.5000 IDamp=-1.
 Damping current iteration by 5.00D-01
 RMSDP=2.33D-03 MaxDP=1.78D-01              OVMax= 1.72D-01

 Cycle   2  Pass 1  IDiag  1:
 RMSU=  1.16D-03    CP:  1.02D+00
 E= -76.3788138787693     Delta-E=       -0.030545582883 Rises=F Damp=T
 DIIS: error= 3.82D-03 at cycle   2 NSaved=   2.
 NSaved= 2 IEnMin= 2 EnMin= -76.3788138787693     IErMin= 2 ErrMin= 3.82D-03
 ErrMax= 3.82D-03  0.00D+00 EMaxC= 1.00D-01 BMatC= 5.08D-03 BMatP= 1.19D-01
 IDIUse=3 WtCom= 9.62D-01 WtEn= 3.82D-02
 Coeff-Com:  0.893D-01 0.911D+00
 Coeff-En:   0.200D+00 0.800D+00
 Coeff:      0.936D-01 0.906D+00
 Gap=     0.398 Goal=   None    Shift=    0.000
 RMSDP=3.51D-04 MaxDP=3.15D-02 DE=-3.05D-02 OVMax= 1.04D-01

 Cycle   3  Pass 1  IDiag  1:
 RMSU=  2.24D-04    CP:  1.02D+00  7.68D-01
 E= -76.4228309909904     Delta-E=       -0.044017112221 Rises=F Damp=F
 DIIS: error= 8.28D-04 at cycle   3 NSaved=   3.
 NSaved= 3 IEnMin= 3 EnMin= -76.4228309909904     IErMin= 3 ErrMin= 8.28D-04
 ErrMax= 8.28D-04  0.00D+00 EMaxC= 1.00D-01 BMatC= 1.71D-04 BMatP= 5.08D-03
 IDIUse=3 WtCom= 9.92D-01 WtEn= 8.28D-03
 Coeff-Com: -0.295D-01 0.548D-01 0.975D+00
 Coeff-En:   0.000D+00 0.000D+00 0.100D+01
 Coeff:     -0.293D-01 0.543D-01 0.975D+00
 Gap=     0.400 Goal=   None    Shift=    0.000
 RMSDP=2.86D-05 MaxDP=1.34D-03 DE=-4.40D-02 OVMax= 4.06D-03

 Cycle   4  Pass 1  IDiag  1:
 RMSU=  2.43D-05    CP:  1.02D+00  7.68D-01  1.05D+00
 E= -76.4229651278378     Delta-E=       -0.000134136847 Rises=F Damp=F
 DIIS: error= 8.48D-05 at cycle   4 NSaved=   4.
 NSaved= 4 IEnMin= 4 EnMin= -76.4229651278378     IErMin= 4 ErrMin= 8.48D-05
 ErrMax= 8.48D-05  0.00D+00 EMaxC= 1.00D-01 BMatC= 2.67D-06 BMatP= 1.71D-04
 IDIUse=1 WtCom= 1.00D+00 WtEn= 0.00D+00
 Coeff-Com: -0.340D-02 0.116D-02 0.146D+00 0.856D+00
 Coeff:     -0.340D-02 0.116D-02 0.146D+00 0.856D+00
 Gap=     0.400 Goal=   None    Shift=    0.000
 RMSDP=7.11D-06 MaxDP=5.74D-04 DE=-1.34D-04 OVMax= 5.18D-04

 Cycle   5  Pass 1  IDiag  1:
 RMSU=  3.38D-06    CP:  1.02D+00  7.63D-01  1.06D+00  1.08D+00
 E= -76.4229668495314     Delta-E=       -0.000001721694 Rises=F Damp=F
 DIIS: error= 1.64D-05 at cycle   5 NSaved=   5.
 NSaved= 5 IEnMin= 5 EnMin= -76.4229668495314     IErMin= 5 ErrMin= 1.64D-05
 ErrMax= 1.64D-05  0.00D+00 EMaxC= 1.00D-01 BMatC= 7.44D-08 BMatP= 2.67D-06
 IDIUse=1 WtCom= 1.00D+00 WtEn= 0.00D+00
 Coeff-Com:  0.153D-02-0.239D-02-0.371D-01-0.515D-01 0.109D+01
 Coeff:      0.153D-02-0.239D-02-0.371D-01-0.515D-01 0.109D+01
 Gap=     0.401 Goal=   None    Shift=    0.000
 RMSDP=5.78D-06 MaxDP=5.07D-04 DE=-1.72D-06 OVMax= 2.18D-04

 Cycle   6  Pass 1  IDiag  1:
 RMSU=  8.99D-07    CP:  1.02D+00  7.58D-01  1.06D+00  1.17D+00  1.35D+00
 E= -76.4229669858841     Delta-E=       -0.000000136353 Rises=F Damp=F
 DIIS: error= 3.00D-06 at cycle   6 NSaved=   6.
 NSaved= 6 IEnMin= 6 EnMin= -76.4229669858841     IErMin= 6 ErrMin= 3.00D-06
 ErrMax= 3.00D-06  0.00D+00 EMaxC= 1.00D-01 BMatC= 1.78D-09 BMatP= 7.44D-08
 IDIUse=1 WtCom= 1.00D+00 WtEn= 0.00D+00
 Coeff-Com: -0.283D-03 0.402D-03 0.385D-02-0.646D-02-0.160D+00 0.116D+01
 Coeff:     -0.283D-03 0.402D-03 0.385D-02-0.646D-02-0.160D+00 0.116D+01
 Gap=     0.401 Goal=   None    Shift=    0.000
 RMSDP=7.80D-07 MaxDP=6.97D-05 DE=-1.36D-07 OVMax= 3.93D-05

 Cycle   7  Pass 1  IDiag  1:
 RMSU=  1.08D-07    CP:  1.02D+00  7.58D-01  1.06D+00  1.18D+00  1.42D+00
                    CP:  1.23D+00
 E= -76.4229669895842     Delta-E=       -0.000000003700 Rises=F Damp=F
 DIIS: error= 2.24D-07 at cycle   7 NSaved=   7.
 NSaved= 7 IEnMin= 7 EnMin= -76.4229669895842     IErMin= 7 ErrMin= 2.24D-07
 ErrMax= 2.24D-07  0.00D+00 EMaxC= 1.00D-01 BMatC= 2.36D-11 BMatP= 1.78D-09
 IDIUse=1 WtCom= 1.00D+00 WtEn= 0.00D+00
 Coeff-Com:  0.203D-04-0.105D-04-0.194D-03 0.188D-02-0.199D-02-0.115D+00
 Coeff-Com:  0.112D+01
 Coeff:      0.203D-04-0.105D-04-0.194D-03 0.188D-02-0.199D-02-0.115D+00
 Coeff:      0.112D+01
 Gap=     0.401 Goal=   None    Shift=    0.000
 RMSDP=1.03D-07 MaxDP=9.72D-06 DE=-3.70D-09 OVMax= 5.20D-06

 Cycle   8  Pass 1  IDiag  1:
 RMSU=  1.50D-08    CP:  1.02D+00  7.58D-01  1.06D+00  1.18D+00  1.43D+00
                    CP:  1.26D+00  1.16D+00
 E= -76.4229669896381     Delta-E=       -0.000000000054 Rises=F Damp=F
 DIIS: error= 7.26D-08 at cycle   8 NSaved=   8.
 NSaved= 8 IEnMin= 8 EnMin= -76.4229669896381     IErMin= 8 ErrMin= 7.26D-08
 ErrMax= 7.26D-08  0.00D+00 EMaxC= 1.00D-01 BMatC= 1.13D-12 BMatP= 2.36D-11
 IDIUse=1 WtCom= 1.00D+00 WtEn= 0.00D+00
 Coeff-Com:  0.110D-04-0.139D-04-0.115D-03 0.506D-03 0.406D-02-0.459D-01
 Coeff-Com:  0.138D+00 0.904D+00
 Coeff:      0.110D-04-0.139D-04-0.115D-03 0.506D-03 0.406D-02-0.459D-01
 Coeff:      0.138D+00 0.904D+00
 Gap=     0.401 Goal=   None    Shift=    0.000
 RMSDP=5.87D-09 MaxDP=4.16D-07 DE=-5.39D-11 OVMax= 5.68D-07

 SCF Done:  E(RM062X) =  -76.4229669896     A.U. after    8 cycles
            NFock=  8  Conv=0.59D-08     -V/T= 2.0034
 KE= 7.616448964263D+01 PE=-1.989316433006D+02 EE= 3.729435636630D+01
 Leave Link  502 at Mon Feb 20 00:05:14 2023, MaxMem=  6710886400 cpu:             311.0 elap:              13.0
 (Enter /data0/home/software/g16/l601.exe)
 Copying SCF densities to generalized density rwf, IOpCl= 0 IROHF=0.

 **********************************************************************

            Population analysis using the SCF density.

 **********************************************************************

 Alpha  occ. eigenvalues --  -19.62780  -1.13074  -0.60500  -0.47489  -0.39983
 Alpha virt. eigenvalues --    0.00075   0.03639   0.04486   0.05154   0.07319
 Alpha virt. eigenvalues --    0.09073   0.10031   0.11784   0.13288   0.13675
 Alpha virt. eigenvalues --    0.14593   0.15724   0.16531   0.17401   0.18123
 Alpha virt. eigenvalues --    0.18721   0.19444   0.19810   0.20248   0.20661
 Alpha virt. eigenvalues --    0.21921   0.22098   0.22808   0.23531   0.24694
 Alpha virt. eigenvalues --    0.25462   0.26893   0.27893   0.28297   0.28973
 Alpha virt. eigenvalues --    0.29408   0.30697   0.30972   0.32362   0.33103
 Alpha virt. eigenvalues --    0.34357   0.35595   0.36193   0.36972   0.38046
 Alpha virt. eigenvalues --    0.39082   0.40235   0.40813   0.41109   0.41765
 Alpha virt. eigenvalues --    0.42603   0.44824   0.47627   0.49316   0.50172
 Alpha virt. eigenvalues --    0.52124   0.55480   0.62373   0.63126   0.67687
 Alpha virt. eigenvalues --    0.69440   0.70434   0.71655   0.72531   0.73107
 Alpha virt. eigenvalues --    0.74842   0.75789   0.76343   0.77658   0.79390
 Alpha virt. eigenvalues --    0.80113   0.81010   0.81661   0.82497   0.82903
 Alpha virt. eigenvalues --    0.84724   0.86201   0.86706   0.88412   0.90243
 Alpha virt. eigenvalues --    0.90741   0.92296   0.97129   0.97965   0.99069
 Alpha virt. eigenvalues --    1.01283   1.03163   1.03519   1.06054   1.07908
 Alpha virt. eigenvalues --    1.08237   1.09686   1.10922   1.12095   1.13901
 Alpha virt. eigenvalues --    1.15398   1.16419   1.16898   1.18416   1.23784
 Alpha virt. eigenvalues --    1.25813   1.26999   1.27192   1.29435   1.30996
 Alpha virt. eigenvalues --    1.33655   1.46392   1.47681   1.48045   1.52564
 Alpha virt. eigenvalues --    1.68086   1.71885   1.74199   1.76088   1.79924
 Alpha virt. eigenvalues --    1.82815   1.86096   1.88134   1.88905   1.92382
 Alpha virt. eigenvalues --    1.93071   1.93884   1.96207   1.98387   1.99251
 Alpha virt. eigenvalues --    2.02207   2.05731   2.08806   2.09595   2.11543
 Alpha virt. eigenvalues --    2.16302   2.20689   2.21344   2.22053   2.24889
 Alpha virt. eigenvalues --    2.26726   2.27527   2.28452   2.31454   2.33464
 Alpha virt. eigenvalues --    2.35553   2.37667   2.39499   2.39990   2.42237
 Alpha virt. eigenvalues --    2.47147   2.48397   2.49906   2.52297   2.53423
 Alpha virt. eigenvalues --    2.53699   2.55769   2.55983   2.57190   2.59056
 Alpha virt. eigenvalues --    2.61051   2.62578   2.64216   2.64386   2.65545
 Alpha virt. eigenvalues --    2.65847   2.66783   2.68503   2.69545   2.69852
 Alpha virt. eigenvalues --    2.71137   2.72402   2.73148   2.74985   2.76128
 Alpha virt. eigenvalues --    2.76661   2.78128   2.80053   2.80355   2.83463
[...]
 Alpha virt. eigenvalues --    1.70082   1.73500   1.74668   2.05731   2.09304
 Alpha virt. eigenvalues --    2.35812   2.37648   2.54712   2.85549   2.99601
 Alpha virt. eigenvalues --    5.05499   5.47232   5.85381   6.78635   6.79999
 Alpha virt. eigenvalues --    6.87464   6.91617   7.10398  49.94220
          Condensed to atoms (all electrons):
              15         16         17
    15  O    7.930299   0.314420   0.309455
    16  H    0.314420   0.433228  -0.022575
    17  H    0.309455  -0.022575   0.433873
 Mulliken charges:
               1
     1  P    0.000000
     2  O    0.000000
     3  O    0.000000
     4  H    0.000000
     5  O    0.000000
     6  H    0.000000
     7  O    0.000000
     8  H    0.000000
     9  O    0.000000
    10  H    0.000000
    11  H    0.000000
    12  O    0.000000
    13  H    0.000000
    14  H    0.000000
    15  O   -0.554174
    16  H    0.274927
    17  H    0.279247
    18  O    0.000000
    19  H    0.000000
    20  H    0.000000
 Sum of Mulliken charges =  -0.00000
 Mulliken charges with hydrogens summed into heavy atoms:
               1
     1  P    0.000000
     2  O    0.000000
     3  O    0.000000
     5  O    0.000000
     7  O    0.000000
     9  O    0.000000
    12  O    0.000000
    15  O   -0.000000
    18  O    0.000000
         Mulliken charges condensed to fragments:
      1      0.000000
      2      0.000000
      3      0.000000
      4     -0.000000
      5      0.000000
 Electronic spatial extent (au):  <R**2>=          14352.3785
 Charge=             -0.0000 electrons
 Dipole moment (field-independent basis, Debye):
    X=              0.0912    Y=             -2.1185    Z=             -0.4064  Tot=              2.1590
 Quadrupole moment (field-independent basis, Debye-Ang):
   XX=             -4.4949   YY=            -61.3194   ZZ=            -14.6533
   XY=            -21.5232   XZ=             -1.7002   YZ=            -28.4193
 Traceless Quadrupole moment (field-independent basis, Debye-Ang):
   XX=             22.3276   YY=            -34.4969   ZZ=             12.1692
   XY=            -21.5232   XZ=             -1.7002   YZ=            -28.4193
 Octapole moment (field-independent basis, Debye-Ang**2):
  XXX=           -173.3478  YYY=          -1318.4425  ZZZ=           -335.4265  XYY=           -640.9129
  XXY=           -302.4838  XXZ=            -60.7954  XZZ=           -109.3081  YZZ=           -444.0212
  YYZ=           -738.4035  XYZ=           -270.6402
 Hexadecapole moment (field-independent basis, Debye-Ang**3):
 XXXX=          -3892.7143 YYYY=         -25005.8667 ZZZZ=          -6291.2630 XXXY=          -4882.9063
 XXXZ=          -1840.5631 YYYX=         -13894.2715 YYYZ=         -15293.6209 ZZZX=          -2861.7533
 ZZZY=          -7147.8752 XXYY=          -7803.2851 XXZZ=          -1444.3524 YYZZ=          -9815.4141
 XXYZ=          -3466.9854 YYXZ=          -7469.1512 ZZXY=          -4150.0871
 N-N= 8.973973160206D+00 E-N=-1.987761825804D+02  KE= 7.614884953185D+01
 No NMR shielding tensors so no spin-rotation constants.
 Leave Link  601 at Mon Feb 20 00:06:04 2023, MaxMem=  6710886400 cpu:               1.8 elap:               0.1
 (Enter /data0/home/software/g16/l122.exe)
 CPIOFr:  IOpCl= 0 IRwI=-1 IRwCP=  731 ICalc=  9 LCPTot=      156386 Len1MO=      408861 IndFrg=     4244996
 Counterpoise: doing calculation for fragment   5 using the basis set of the fragment.
 Leave Link  122 at Mon Feb 20 00:06:04 2023, MaxMem=  6710886400 cpu:               0.1 elap:               0.0
 (Enter /data0/home/software/g16/l301.exe)
 Basis read from rwf:  (5D, 7F)
 No pseudopotential information found on rwf file.
    39 basis functions,    58 primitive gaussians,    41 cartesian basis functions
     5 alpha electrons        5 beta electrons
       nuclear repulsion energy         9.0793442529 Hartrees.
 IExCor= 4336 DFT=T Ex+Corr=M062X ExCW=0 ScaHFX=  0.540000
 ScaDFX=  1.000000  1.000000  1.000000  1.000000 ScalE2=  1.000000  1.000000
 IRadAn=      5 IRanWt=     -1 IRanGd=            0 ICorTp=0 IEmpDi=131
 NAtoms=   20 NActive=    3 NUniq=    3 SFac= 1.00D+00 NAtFMM=   60 NAOKFM=F Big=F
 Integral buffers will be    131072 words long.
 Raffenetti 2 integral format.
 Two-electron integral symmetry is turned off.
 R6Disp:  Grimme-D3 Dispersion energy=       -0.0000000082 Hartrees.
 Nuclear repulsion after empirical dispersion term =        9.0793442448 Hartrees.
 No density basis found on file   718.
 Leave Link  301 at Mon Feb 20 00:06:04 2023, MaxMem=  6710886400 cpu:               1.3 elap:               0.1
 (Enter /data0/home/software/g16/l302.exe)
 NPDir=0 NMtPBC=     1 NCelOv=     1 NCel=       1 NClECP=     1 NCelD=      1
         NCelK=      1 NCelE2=     1 NClLst=     1 CellRange=     0.0.
 One-electron integrals computed using PRISM.
 NBasis=    39 RedAO= T EigKep=  3.10D-03  NBF=    39
 NBsUse=    39 1.00D-06 EigRej= -1.00D+00 NBFU=    39
 Precomputing XC quadrature grid using
 IXCGrd= 4 IRadAn=           5 IRanWt=          -1 IRanGd=           0 AccXCQ= 0.00D+00.
 Generated NRdTot=       0 NPtTot=           0 NUsed=           0 NTot=          32
 NSgBfM=    41    41    41    41    41 MxSgAt=     3 MxSgA2=     3.
 Leave Link  302 at Mon Feb 20 00:06:04 2023, MaxMem=  6710886400 cpu:               2.3 elap:               0.1
 (Enter /data0/home/software/g16/l303.exe)
 DipDrv:  MaxL=1.
 Leave Link  303 at Mon Feb 20 00:06:04 2023, MaxMem=  6710886400 cpu:               0.4 elap:               0.0
 (Enter /data0/home/software/g16/l401.exe)
 ExpMin= 8.45D-02 ExpMax= 8.59D+03 ExpMxC= 1.30D+03 IAcc=3 IRadAn=         5 AccDes= 0.00D+00
 Harris functional with IExCor= 1009 and IRadAn=       5 diagonalized for initial guess.
 HarFok:  IExCor= 1009 AccDes= 0.00D+00 IRadAn=         5 IDoV= 1 UseB2=F ITyADJ=14
 ICtDFT=  3500011 ScaDFX=  1.000000  1.000000  1.000000  1.000000
 FoFCou: FMM=F IPFlag=           0 FMFlag=      100000 FMFlg1=           0
         NFxFlg=           0 DoJE=T BraDBF=F KetDBF=T FulRan=T
         wScrn=  0.000000 ICntrl=       500 IOpCl=  0 I1Cent=   200000004 NGrid=           0
         NMat0=    1 NMatS0=      1 NMatT0=    0 NMatD0=    1 NMtDS0=    0 NMtDT0=    0
 Symmetry not used in FoFCou.
 Harris En= -76.4160292992053    
 JPrj=0 DoOrth=F DoCkMO=F.
 Leave Link  401 at Mon Feb 20 00:06:05 2023, MaxMem=  6710886400 cpu:               3.0 elap:               0.1
 (Enter /data0/home/software/g16/l502.exe)
 Keep R1 ints in memory in canonical form, NReq=21039229.
 FoFCou: FMM=F IPFlag=           0 FMFlag=           0 FMFlg1=           0
         NFxFlg=           0 DoJE=F BraDBF=F KetDBF=F FulRan=T
         wScrn=  0.000000 ICntrl=       600 IOpCl=  0 I1Cent=           0 NGrid=           0
         NMat0=    1 NMatS0=    780 NMatT0=    0 NMatD0=    1 NMtDS0=    0 NMtDT0=    0
 Symmetry not used in FoFCou.
 Two-electron integral symmetry not used.
 Closed shell SCF:
 Using DIIS extrapolation, IDIIS=  1040.
 NGot=  6710886400 LenX=  6710576467 LenY=  6710574345
 Requested convergence on RMS density matrix=1.00D-08 within 128 cycles.
 Requested convergence on MAX density matrix=1.00D-06.
 Requested convergence on             energy=1.00D-06.
 No special actions if energy rises.
 Integral accuracy reduced to 1.0D-05 until final iterations.

 Cycle   1  Pass 0  IDiag  1:
 E= -76.3458181244493    
 DIIS: error= 7.01D-02 at cycle   1 NSaved=   1.
 NSaved= 1 IEnMin= 1 EnMin= -76.3458181244493     IErMin= 1 ErrMin= 7.01D-02
 ErrMax= 7.01D-02  0.00D+00 EMaxC= 1.00D-01 BMatC= 1.21D-01 BMatP= 1.21D-01
 IDIUse=3 WtCom= 2.99D-01 WtEn= 7.01D-01
 Coeff-Com:  0.100D+01
 Coeff-En:   0.100D+01
 Coeff:      0.100D+01
 Gap=     0.324 Goal=   None    Shift=    0.000
 GapD=    0.324 DampG=1.000 DampE=0.500 DampFc=0.5000 IDamp=-1.
 Damping current iteration by 5.00D-01
 RMSDP=7.88D-03 MaxDP=1.01D-01              OVMax= 1.68D-01

 Cycle   2  Pass 0  IDiag  1:
 E= -76.3771706423396     Delta-E=       -0.031352517890 Rises=F Damp=T
 DIIS: error= 1.12D-02 at cycle   2 NSaved=   2.
 NSaved= 2 IEnMin= 2 EnMin= -76.3771706423396     IErMin= 2 ErrMin= 1.12D-02
 ErrMax= 1.12D-02  0.00D+00 EMaxC= 1.00D-01 BMatC= 4.87D-03 BMatP= 1.21D-01
 IDIUse=3 WtCom= 8.88D-01 WtEn= 1.12D-01
 Coeff-Com:  0.834D-01 0.917D+00
 Coeff-En:   0.189D+00 0.811D+00
 Coeff:      0.952D-01 0.905D+00
 Gap=     0.456 Goal=   None    Shift=    0.000
 RMSDP=9.45D-04 MaxDP=1.41D-02 DE=-3.14D-02 OVMax= 1.01D-01

 Cycle   3  Pass 0  IDiag  1:
 E= -76.4211736201212     Delta-E=       -0.044002977782 Rises=F Damp=F
 DIIS: error= 2.21D-03 at cycle   3 NSaved=   3.
 NSaved= 3 IEnMin= 3 EnMin= -76.4211736201212     IErMin= 3 ErrMin= 2.21D-03
 ErrMax= 2.21D-03  0.00D+00 EMaxC= 1.00D-01 BMatC= 9.42D-05 BMatP= 4.87D-03
 IDIUse=3 WtCom= 9.78D-01 WtEn= 2.21D-02
 Coeff-Com: -0.201D-01 0.409D-01 0.979D+00
 Coeff-En:   0.000D+00 0.000D+00 0.100D+01
 Coeff:     -0.197D-01 0.400D-01 0.980D+00
 Gap=     0.461 Goal=   None    Shift=    0.000
 RMSDP=1.16D-04 MaxDP=1.04D-03 DE=-4.40D-02 OVMax= 3.35D-03

 Cycle   4  Pass 0  IDiag  1:
 E= -76.4212536860803     Delta-E=       -0.000080065959 Rises=F Damp=F
 DIIS: error= 4.19D-04 at cycle   4 NSaved=   4.
 NSaved= 4 IEnMin= 4 EnMin= -76.4212536860803     IErMin= 4 ErrMin= 4.19D-04
 ErrMax= 4.19D-04  0.00D+00 EMaxC= 1.00D-01 BMatC= 3.41D-06 BMatP= 9.42D-05
 IDIUse=3 WtCom= 9.96D-01 WtEn= 4.19D-03
 Coeff-Com: -0.202D-02-0.207D-02 0.166D+00 0.838D+00
 Coeff-En:   0.000D+00 0.000D+00 0.000D+00 0.100D+01
 Coeff:     -0.201D-02-0.207D-02 0.165D+00 0.839D+00
 Gap=     0.461 Goal=   None    Shift=    0.000
 RMSDP=2.23D-05 MaxDP=3.55D-04 DE=-8.01D-05 OVMax= 5.40D-04

 Cycle   5  Pass 0  IDiag  1:
 E= -76.4212557891584     Delta-E=       -0.000002103078 Rises=F Damp=F
 DIIS: error= 9.12D-05 at cycle   5 NSaved=   5.
 NSaved= 5 IEnMin= 5 EnMin= -76.4212557891584     IErMin= 5 ErrMin= 9.12D-05
 ErrMax= 9.12D-05  0.00D+00 EMaxC= 1.00D-01 BMatC= 8.64D-08 BMatP= 3.41D-06
 IDIUse=1 WtCom= 1.00D+00 WtEn= 0.00D+00
 Coeff-Com:  0.119D-02-0.183D-02-0.368D-01-0.706D-01 0.111D+01
 Coeff:      0.119D-02-0.183D-02-0.368D-01-0.706D-01 0.111D+01
 Gap=     0.462 Goal=   None    Shift=    0.000
 RMSDP=9.15D-06 MaxDP=1.04D-04 DE=-2.10D-06 OVMax= 2.07D-04

 Initial convergence to 1.0D-05 achieved.  Increase integral accuracy.
 Cycle   6  Pass 1  IDiag  1:
 E= -76.4212453381607     Delta-E=        0.000010450998 Rises=F Damp=F
 DIIS: error= 1.42D-05 at cycle   1 NSaved=   1.
 NSaved= 1 IEnMin= 1 EnMin= -76.4212453381607     IErMin= 1 ErrMin= 1.42D-05
 ErrMax= 1.42D-05  0.00D+00 EMaxC= 1.00D-01 BMatC= 9.18D-09 BMatP= 9.18D-09
 IDIUse=1 WtCom= 1.00D+00 WtEn= 0.00D+00
 Coeff-Com:  0.100D+01
 Coeff:      0.100D+01
 Gap=     0.461 Goal=   None    Shift=    0.000
 RMSDP=9.15D-06 MaxDP=1.04D-04 DE= 1.05D-05 OVMax= 4.78D-05

 Cycle   7  Pass 1  IDiag  1:
 E= -76.4212453456214     Delta-E=       -0.000000007461 Rises=F Damp=F
 DIIS: error= 1.36D-05 at cycle   2 NSaved=   2.
 NSaved= 2 IEnMin= 2 EnMin= -76.4212453456214     IErMin= 2 ErrMin= 1.36D-05
 ErrMax= 1.36D-05  0.00D+00 EMaxC= 1.00D-01 BMatC= 2.54D-09 BMatP= 9.18D-09
 IDIUse=1 WtCom= 1.00D+00 WtEn= 0.00D+00
 Coeff-Com:  0.258D+00 0.742D+00
 Coeff:      0.258D+00 0.742D+00
 Gap=     0.462 Goal=   None    Shift=    0.000
 RMSDP=8.53D-07 MaxDP=1.43D-05 DE=-7.46D-09 OVMax= 2.27D-05

 Cycle   8  Pass 1  IDiag  1:
 E= -76.4212453468269     Delta-E=       -0.000000001206 Rises=F Damp=F
 DIIS: error= 5.55D-06 at cycle   3 NSaved=   3.
 NSaved= 3 IEnMin= 3 EnMin= -76.4212453468269     IErMin= 3 ErrMin= 5.55D-06
 ErrMax= 5.55D-06  0.00D+00 EMaxC= 1.00D-01 BMatC= 9.73D-10 BMatP= 2.54D-09
 IDIUse=1 WtCom= 1.00D+00 WtEn= 0.00D+00
 Coeff-Com: -0.547D-01 0.378D+00 0.677D+00
 Coeff:     -0.547D-01 0.378D+00 0.677D+00
 Gap=     0.462 Goal=   None    Shift=    0.000
 RMSDP=3.69D-07 MaxDP=5.11D-06 DE=-1.21D-09 OVMax= 9.68D-06

 Cycle   9  Pass 1  IDiag  1:
 E= -76.4212453475006     Delta-E=       -0.000000000674 Rises=F Damp=F
 DIIS: error= 4.29D-07 at cycle   4 NSaved=   4.
 NSaved= 4 IEnMin= 4 EnMin= -76.4212453475006     IErMin= 4 ErrMin= 4.29D-07
 ErrMax= 4.29D-07  0.00D+00 EMaxC= 1.00D-01 BMatC= 2.86D-12 BMatP= 9.73D-10
 IDIUse=1 WtCom= 1.00D+00 WtEn= 0.00D+00
 Coeff-Com: -0.330D-03-0.427D-01-0.614D-01 0.110D+01
 Coeff:     -0.330D-03-0.427D-01-0.614D-01 0.110D+01
 Gap=     0.462 Goal=   None    Shift=    0.000
 RMSDP=7.29D-08 MaxDP=5.97D-07 DE=-6.74D-10 OVMax= 1.70D-06

 Cycle  10  Pass 1  IDiag  1:
 E= -76.4212453475082     Delta-E=       -0.000000000008 Rises=F Damp=F
 DIIS: error= 8.86D-08 at cycle   5 NSaved=   5.
 NSaved= 5 IEnMin= 5 EnMin= -76.4212453475082     IErMin= 5 ErrMin= 8.86D-08
 ErrMax= 8.86D-08  0.00D+00 EMaxC= 1.00D-01 BMatC= 2.62D-13 BMatP= 2.86D-12
 IDIUse=1 WtCom= 1.00D+00 WtEn= 0.00D+00
 Coeff-Com:  0.315D-02-0.309D-01-0.504D-01 0.168D+00 0.910D+00
 Coeff:      0.315D-02-0.309D-01-0.504D-01 0.168D+00 0.910D+00
 Gap=     0.462 Goal=   None    Shift=    0.000
 RMSDP=1.77D-08 MaxDP=1.48D-07 DE=-7.66D-12 OVMax= 3.71D-07

 Cycle  11  Pass 1  IDiag  1:
 E= -76.4212453475085     Delta-E=       -0.000000000000 Rises=F Damp=F
 DIIS: error= 1.55D-08 at cycle   6 NSaved=   6.
 NSaved= 6 IEnMin= 6 EnMin= -76.4212453475085     IErMin= 6 ErrMin= 1.55D-08
 ErrMax= 1.55D-08  0.00D+00 EMaxC= 1.00D-01 BMatC= 4.49D-15 BMatP= 2.62D-13
 IDIUse=1 WtCom= 1.00D+00 WtEn= 0.00D+00
 Coeff-Com: -0.205D-04 0.116D-02 0.316D-02-0.298D-01-0.309D-01 0.106D+01
 Coeff:     -0.205D-04 0.116D-02 0.316D-02-0.298D-01-0.309D-01 0.106D+01
 Gap=     0.462 Goal=   None    Shift=    0.000
 RMSDP=2.77D-09 MaxDP=2.48D-08 DE=-2.70D-13 OVMax= 5.73D-08

 SCF Done:  E(RM062X) =  -76.4212453475     A.U. after   11 cycles
            NFock= 11  Conv=0.28D-08     -V/T= 2.0031
 KE= 7.618654692266D+01 PE=-1.990072604537D+02 EE= 3.732012393882D+01
 Leave Link  502 at Mon Feb 20 00:06:05 2023, MaxMem=  6710886400 cpu:               9.0 elap:               0.4
 (Enter /data0/home/software/g16/l601.exe)
 Copying SCF densities to generalized density rwf, IOpCl= 0 IROHF=0.

 **********************************************************************

            Population analysis using the SCF density.

 **********************************************************************

 Alpha  occ. eigenvalues --  -19.62610  -1.13202  -0.60761  -0.47345  -0.39947
 Alpha virt. eigenvalues --    0.06205   0.13278   0.17397   0.17954   0.18953
 Alpha virt. eigenvalues --    0.23248   0.50471   0.53725   0.97822   1.00374
 Alpha virt. eigenvalues --    1.06034   1.18971   1.19713   1.32586   1.33996
 Alpha virt. eigenvalues --    1.69036   1.73765   1.75851   2.06689   2.09837
 Alpha virt. eigenvalues --    2.34797   2.42510   2.54119   2.87819   3.01094
 Alpha virt. eigenvalues --    5.05679   5.46809   5.92170   6.78201   6.80360
 Alpha virt. eigenvalues --    6.86982   6.91423   7.09827  49.95691
          Condensed to atoms (all electrons):
              18         19         20
    18  O    7.918228   0.323747   0.317541
    19  H    0.323747   0.423666  -0.024380
    20  H    0.317541  -0.024380   0.424290
 Mulliken charges:
               1
     1  P    0.000000
     2  O    0.000000
     3  O    0.000000
     4  H    0.000000
     5  O    0.000000
     6  H    0.000000
     7  O    0.000000
     8  H    0.000000
     9  O    0.000000
    10  H    0.000000
    11  H    0.000000
    12  O    0.000000
    13  H    0.000000
    14  H    0.000000
    15  O    0.000000
    16  H    0.000000
    17  H    0.000000
    18  O   -0.559516
    19  H    0.276967
    20  H    0.282549
 Sum of Mulliken charges =   0.00000
 Mulliken charges with hydrogens summed into heavy atoms:
               1
     1  P    0.000000
     2  O    0.000000
     3  O    0.000000
     5  O    0.000000
     7  O    0.000000
     9  O    0.000000
    12  O    0.000000
    15  O    0.000000
    18  O    0.000000
         Mulliken charges condensed to fragments:
      1      0.000000
      2      0.000000
      3      0.000000
      4      0.000000
      5      0.000000
 Electronic spatial extent (au):  <R**2>=          14212.6375
 Charge=              0.0000 electrons
 Dipole moment (field-independent basis, Debye):
    X=              1.5766    Y=              1.3991    Z=             -0.0515  Tot=              2.1085
 Quadrupole moment (field-independent basis, Debye-Ang):
   XX=             20.2487   YY=             32.3927   ZZ=             -8.3021
   XY=             32.3058   XZ=             17.6586   YZ=             17.1720
 Traceless Quadrupole moment (field-independent basis, Debye-Ang):
   XX=              5.4689   YY=             17.6129   ZZ=            -23.0818
   XY=             32.3058   XZ=             17.6586   YZ=             17.1720
 Octapole moment (field-independent basis, Debye-Ang**2):
  XXX=            181.1146  YYY=            547.0218  ZZZ=           -278.1338  XYY=            540.5734
  XXY=            359.3938  XXZ=            224.8410  XZZ=            138.8255  YZZ=            115.0646
  YYZ=            408.6541  XYZ=            379.4578
 Hexadecapole moment (field-independent basis, Debye-Ang**3):
 XXXX=           1242.0115 YYYY=           7880.2544 ZZZZ=          -6540.6806 XXXY=           3109.5376
 XXXZ=           1952.6628 YYYX=           8109.3891 YYYZ=           7036.2113 ZZZX=             81.4799
 ZZZY=           -878.6094 XXYY=           5645.2902 XXZZ=           2002.8178 YYZZ=           3847.6264
 XXYZ=           4139.7954 YYXZ=           6496.6713 ZZXY=           3671.0268
 N-N= 9.079344244750D+00 E-N=-1.990072607351D+02  KE= 7.618654692266D+01
 No NMR shielding tensors so no spin-rotation constants.
 Leave Link  601 at Mon Feb 20 00:06:05 2023, MaxMem=  6710886400 cpu:               1.8 elap:               0.1
 (Enter /data0/home/software/g16/l122.exe)
 CPIOFr:  IOpCl= 0 IRwI=-1 IRwCP=  731 ICalc= 10 LCPTot=      156386 Len1MO=      408861 IndFrg=     4653857
 Restoring MOs from calculation   1 to rwf.
 CPIOFr:  IOpCl= 0 IRwI=-2 IRwCP=  731 ICalc=  0 LCPTot=      156386 Len1MO=      408861 IndFrg=      565247
 Counterpoise corrected energy =    -949.876719358292
                   BSSE energy =       0.004944543640
              sum of fragments =    -949.830451910118
           complexation energy =     -32.14 kcal/mole (raw)
           complexation energy =     -29.03 kcal/mole (corrected)
 Leave Link  122 at Mon Feb 20 00:06:05 2023, MaxMem=  6710886400 cpu:               0.2 elap:               0.0
 (Enter /data0/home/software/g16/l9999.exe)
 1\1\GINC-LOCALHOST\SP\RM062X\6-311+G(2d,p)\H11O8P1\WUHANYU\20-Feb-2023
 \0\\#p M062X/6-311+G(2d,p) nosymm em=GD3 counterpoise=5\\Title Card Re
 quired\\0,1\P,0,13.06715,9.934052,11.01217\O,0,11.956018,10.567469,11.
 735798\O,0,14.064622,10.855554,10.203841\H,0,13.535845,11.623217,9.702
 193\O,0,14.050778,9.211341,12.043625\H,0,14.848232,8.843774,11.50298\O
 ,0,12.699427,8.739469,10.042133\H,0,11.803868,8.962693,9.51951\O,0,12.
 71764,12.879331,8.878825\H,0,12.045258,13.165905,9.510469\H,0,12.20992
 7,12.420413,8.178345\O,0,6.99193,12.912301,9.497603\H,0,7.193136,13.32
 8503,10.343448\H,0,7.853634,12.541908,9.23185\O,0,10.585334,13.097865,
 10.955961\H,0,11.093028,12.419983,11.421373\H,0,10.122836,12.567151,10
 .250209\O,0,8.15789,13.526117,12.072719\H,0,8.137648,14.418704,12.4010
 65\H,0,9.069524,13.409953,11.710028\\Version=ES64L-G16RevA.03\HF=-76.4
 212453\RMSD=2.770e-09\Dipole=1.3468927,-0.2594465,-1.4642593\Quadrupol
 e=48.0687678,1.4235682,-49.4923359,22.3301939,-6.7518248,-30.2031648\P
 G=C01 [X(H11O8P1)]\\@


 THEORY:  SUPPOSITION WHICH HAS SCIENTIFIC BASIS,
          BUT NOT EXPERIMENTALLY PROVEN.
 FACT:    A THEORY WHICH HAS BEEN PROVEN BY ENOUGH 
          MONEY TO PAY FOR THE EXPERIMENTS.

                          --  THE WIZARD OF ID
 Job cpu time:       0 days  0 hours 40 minutes 36.0 seconds.
 Elapsed time:       0 days  0 hours  1 minutes 44.9 seconds.
 File lengths (MBytes):  RWF=    104 Int=      0 D2E=      0 Chk=     42 Scr=      1
 Normal termination of Gaussian 16 at Mon Feb 20 00:06:05 2023.
