 Entering Gaussian System, Link 0=g16
 Initial command:
 /data0/hywu0/study/g16/l1.exe "/data0/hywu0/study/g16/scratch/Gau-3996567.inp" -scrdir="/data0/hywu0/study/g16/scratch/"
 Default is to use a total of  16 processors:
                               16 via shared-memory
                                1 via Linda
 Entering Link 1 = /data0/hywu0/study/g16/l1.exe PID=   3996568.
  
 Copyright (c) 1988,1990,1992,1993,1995,1998,2003,2009,2016,
            Gaussian, Inc.  All Rights Reserved.
  
 This is part of the Gaussian(R) 16 program.  It is based on
 the Gaussian(R) 09 system (copyright 2009, Gaussian, Inc.),
 the Gaussian(R) 03 system (copyright 2003, Gaussian, Inc.),
 the Gaussian(R) 98 system (copyright 1998, Gaussian, Inc.),
 the Gaussian(R) 94 system (copyright 1995, Gaussian, Inc.),
 the Gaussian 92(TM) system (copyright 1992, Gaussian, Inc.),
 the Gaussian 90(TM) system (copyright 1990, Gaussian, Inc.),
 the Gaussian 88(TM) system (copyright 1988, Gaussian, Inc.),
 the Gaussian 86(TM) system (copyright 1986, Carnegie Mellon
 University), and the Gaussian 82(TM) system (copyright 1983,
 Carnegie Mellon University). Gaussian is a federally registered
 trademark of Gaussian, Inc.
  
 This software contains proprietary and confidential information,
 including trade secrets, belonging to Gaussian, Inc.
  
 This software is provided under written license and may be
 used, copied, transmitted, or stored only in accord with that
 written license.
  
 The following legend is applicable only to US Government
 contracts under FAR:
  
                    RESTRICTED RIGHTS LEGEND
  
 Use, reproduction and disclosure by the US Government is
 subject to restrictions as set forth in subparagraphs (a)
 and (c) of the Commercial Computer Software - Restricted
 Rights clause in FAR 52.227-19.
  
 Gaussian, Inc.
 340 Quinnipiac St., Bldg. 40, Wallingford CT 06492
  
  
 ---------------------------------------------------------------
 Warning -- This program may not be used in any manner that
 competes with the business of Gaussian, Inc. or will provide
 assistance to any competitor of Gaussian, Inc.  The licensee
 of this program is prohibited from giving any competitor of
 Gaussian, Inc. access to this program.  By using this program,
 the user acknowledges that Gaussian, Inc. is engaged in the
 business of creating and licensing software in the field of
 computational chemistry and represents and warrants to the
 licensee that it is not a competitor of Gaussian, Inc. and that
 it will not use this program in any manner prohibited above.
 ---------------------------------------------------------------
  

 Cite this work as:
 Gaussian 16, Revision A.03,
 M. J. Frisch, G. W. Trucks, H. B. Schlegel, G. E. Scuseria, 
 M. A. Robb, J. R. Cheeseman, G. Scalmani, V. Barone, 
 G. A. Petersson, H. Nakatsuji, X. Li, M. Caricato, A. V. Marenich, 
 J. Bloino, B. G. Janesko, R. Gomperts, B. Mennucci, H. P. Hratchian, 
 J. V. Ortiz, A. F. Izmaylov, J. L. Sonnenberg, D. Williams-Young, 
 F. Ding, F. Lipparini, F. Egidi, J. Goings, B. Peng, A. Petrone, 
 T. Henderson, D. Ranasinghe, V. G. Zakrzewski, J. Gao, N. Rega, 
 G. Zheng, W. Liang, M. Hada, M. Ehara, K. Toyota, R. Fukuda, 
 J. Hasegawa, M. Ishida, T. Nakajima, Y. Honda, O. Kitao, H. Nakai, 
 T. Vreven, K. Throssell, J. A. Montgomery, Jr., J. E. Peralta, 
 F. Ogliaro, M. J. Bearpark, J. J. Heyd, E. N. Brothers, K. N. Kudin, 
 V. N. Staroverov, T. A. Keith, R. Kobayashi, J. Normand, 
 K. Raghavachari, A. P. Rendell, J. C. Burant, S. S. Iyengar, 
 J. Tomasi, M. Cossi, J. M. Millam, M. Klene, C. Adamo, R. Cammi, 
 J. W. Ochterski, R. L. Martin, K. Morokuma, O. Farkas, 
 J. B. Foresman, and D. J. Fox, Gaussian, Inc., Wallingford CT, 2016.
 
 ******************************************
 Gaussian 16:  ES64L-G16RevA.03 25-Dec-2016
                16-May-2022 
 ******************************************
 %nproc=16
 Will use up to   16 processors via shared memory.
 %mem=20GB
 ---------------------------------------------------
 #p M062X/6-311+G(2d,p) nosymm em=GD3 counterpoise=3
 ---------------------------------------------------
 1/38=1,62=3,172=1/1;
 2/12=2,15=1,17=6,18=5,40=1/2;
 1/38=1,53=2,62=3,63=1/22;
 3/5=4,6=6,7=112,11=2,25=1,30=1,74=-55,124=31/1,2,3;
 4//1;
 5/5=2,38=5/2;
 6/7=2,8=2,9=2,10=2,28=1/1;
 1/53=2,62=3,63=1/22;
 3/5=7,6=11,7=112,11=2,25=1,30=1,74=-55,82=7,124=31/1,2,3;
 4//1;
 5/5=2,38=5/2;
 6/7=2,8=2,9=2,10=2,28=1/1;
 1/53=2,62=3,63=1/22(-4);
 99/5=1,9=1/99;
 Leave Link    1 at Mon May 16 08:28:55 2022, MaxMem=  2684354560 cpu:               0.5 elap:               0.0
 (Enter /data0/hywu0/study/g16/l101.exe)
 -------------------
 Title Card Required
 -------------------
 Symbolic Z-matrix:
 Charge =  0 Multiplicity = 1 in supermolecule
 Charge =  0 Multiplicity = 1 in fragment      1.
 Charge =  0 Multiplicity = 1 in fragment      2.
 Charge =  0 Multiplicity = 1 in fragment      3.
 C                     9.97747   11.74954   8.16678    
 C                     11.11728   11.49661   7.38953    
 C                     11.54792   10.19652   7.19231    
 C                     10.80485   9.13618   7.7378     
 C                     9.67255   9.4243    8.49586    
 H                     12.46429   9.9893    6.63701    
 H                     9.63752   12.78852   8.3404     
 H                     11.67347   12.3541   6.99127    
 H                     9.08358   8.62203   8.96622    
 C                     11.24838   7.73126   7.56414    
 H                     11.47009   7.48184   6.51879    
 H                     12.17481   7.55429   8.15102    
 H                     10.52301   6.99472   7.94005    
 N                     9.28983   10.72053   8.72134    
 C                     8.11426   10.94757   9.59682    
 H                     7.20706   10.93478   8.94952    
 H                     8.02992   10.07773   10.30418    
 C                     8.14592   12.24375   10.42776    
 H                     8.46902   13.11558   9.81923    
 H                     7.09431   12.48479   10.7039    
 C                     8.97326   12.12471   11.70015    
 H                     8.97391   11.08726   12.0899    
 H                     8.52368   12.72813   12.51108    
 S                     10.68643   12.67828   11.50572    
 O                     11.40083   12.10488   12.65968    
 O                     10.62574   14.13484   11.36554    
 O                     11.14407   12.06371   10.19198    
 P                     11.49362   8.8588    11.38521    
 O                     10.03453   8.80242   11.23886    
 O                     12.1073   7.3853    11.30776    
 H                     13.10932   7.45866   11.54005    
 O                     12.25034   9.59569   10.19867    
 H                     11.90273   10.60572   10.14787    
 O                     12.07916   9.41754   12.74143    
 H                     11.86867   10.46333   12.79807    
 O                     11.27851   14.34908   8.54544    
 H                     11.09608   14.98603   9.24912    
 H                     11.50633   13.55171   9.05955    
 
 ITRead=  0  0  0  0  0  0  0  0  0  0  0  0  0  0  0  0  0  0  0  0
 ITRead=  0  0  0  0  0  0  0  0  0  0  0  0  0  0  0  0  0  0
 MicOpt= -1 -1 -1 -1 -1 -1 -1 -1 -1 -1 -1 -1 -1 -1 -1 -1 -1 -1 -1 -1
 MicOpt= -1 -1 -1 -1 -1 -1 -1 -1 -1 -1 -1 -1 -1 -1 -1 -1 -1 -1
 NAtoms=     38 NQM=       38 NQMF=       0 NMMI=      0 NMMIF=      0
                NMic=       0 NMicF=      0.
                    Isotopes and Nuclear Properties:
 (Nuclear quadrupole moments (NQMom) in fm**2, nuclear magnetic moments (NMagM)
  in nuclear magnetons)

  Atom         1           2           3           4           5           6           7           8           9          10
 IAtWgt=          12          12          12          12          12           1           1           1           1          12
 AtmWgt=  12.0000000  12.0000000  12.0000000  12.0000000  12.0000000   1.0078250   1.0078250   1.0078250   1.0078250  12.0000000
 NucSpn=           0           0           0           0           0           1           1           1           1           0
 AtZEff=  -0.0000000  -0.0000000  -0.0000000  -0.0000000  -0.0000000  -0.0000000  -0.0000000  -0.0000000  -0.0000000  -0.0000000
 NQMom=    0.0000000   0.0000000   0.0000000   0.0000000   0.0000000   0.0000000   0.0000000   0.0000000   0.0000000   0.0000000
 NMagM=    0.0000000   0.0000000   0.0000000   0.0000000   0.0000000   2.7928460   2.7928460   2.7928460   2.7928460   0.0000000
 AtZNuc=   6.0000000   6.0000000   6.0000000   6.0000000   6.0000000   1.0000000   1.0000000   1.0000000   1.0000000   6.0000000

  Atom        11          12          13          14          15          16          17          18          19          20
 IAtWgt=           1           1           1          14          12           1           1          12           1           1
 AtmWgt=   1.0078250   1.0078250   1.0078250  14.0030740  12.0000000   1.0078250   1.0078250  12.0000000   1.0078250   1.0078250
 NucSpn=           1           1           1           2           0           1           1           0           1           1
 AtZEff=  -0.0000000  -0.0000000  -0.0000000  -0.0000000  -0.0000000  -0.0000000  -0.0000000  -0.0000000  -0.0000000  -0.0000000
 NQMom=    0.0000000   0.0000000   0.0000000   2.0440000   0.0000000   0.0000000   0.0000000   0.0000000   0.0000000   0.0000000
 NMagM=    2.7928460   2.7928460   2.7928460   0.4037610   0.0000000   2.7928460   2.7928460   0.0000000   2.7928460   2.7928460
 AtZNuc=   1.0000000   1.0000000   1.0000000   7.0000000   6.0000000   1.0000000   1.0000000   6.0000000   1.0000000   1.0000000

  Atom        21          22          23          24          25          26          27          28          29          30
 IAtWgt=          12           1           1          32          16          16          16          31          16          16
 AtmWgt=  12.0000000   1.0078250   1.0078250  31.9720718  15.9949146  15.9949146  15.9949146  30.9737634  15.9949146  15.9949146
 NucSpn=           0           1           1           0           0           0           0           1           0           0
 AtZEff=  -0.0000000  -0.0000000  -0.0000000  -0.0000000  -0.0000000  -0.0000000  -0.0000000  -0.0000000  -0.0000000  -0.0000000
 NQMom=    0.0000000   0.0000000   0.0000000   0.0000000   0.0000000   0.0000000   0.0000000   0.0000000   0.0000000   0.0000000
 NMagM=    0.0000000   2.7928460   2.7928460   0.0000000   0.0000000   0.0000000   0.0000000   1.1316000   0.0000000   0.0000000
 AtZNuc=   6.0000000   1.0000000   1.0000000  16.0000000   8.0000000   8.0000000   8.0000000  15.0000000   8.0000000   8.0000000

  Atom        31          32          33          34          35          36          37          38
 IAtWgt=           1          16           1          16           1          16           1           1
 AtmWgt=   1.0078250  15.9949146   1.0078250  15.9949146   1.0078250  15.9949146   1.0078250   1.0078250
 NucSpn=           1           0           1           0           1           0           1           1
 AtZEff=  -0.0000000  -0.0000000  -0.0000000  -0.0000000  -0.0000000  -0.0000000  -0.0000000  -0.0000000
 NQMom=    0.0000000   0.0000000   0.0000000   0.0000000   0.0000000   0.0000000   0.0000000   0.0000000
 NMagM=    2.7928460   0.0000000   2.7928460   0.0000000   2.7928460   0.0000000   2.7928460   2.7928460
 AtZNuc=   1.0000000   8.0000000   1.0000000   8.0000000   1.0000000   8.0000000   1.0000000   1.0000000
 Leave Link  101 at Mon May 16 08:28:55 2022, MaxMem=  2684354560 cpu:               1.5 elap:               0.1
 (Enter /data0/hywu0/study/g16/l202.exe)
                          Input orientation:                          
 ---------------------------------------------------------------------
 Center     Atomic      Atomic             Coordinates (Angstroms)
 Number     Number       Type             X           Y           Z
 ---------------------------------------------------------------------
      1          6           0        9.977465   11.749537    8.166783
      2          6           0       11.117282   11.496610    7.389534
      3          6           0       11.547922   10.196520    7.192314
      4          6           0       10.804848    9.136180    7.737804
      5          6           0        9.672547    9.424304    8.495859
      6          1           0       12.464286    9.989296    6.637009
      7          1           0        9.637520   12.788522    8.340403
      8          1           0       11.673474   12.354095    6.991267
      9          1           0        9.083580    8.622034    8.966220
     10          6           0       11.248377    7.731261    7.564135
     11          1           0       11.470085    7.481835    6.518789
     12          1           0       12.174807    7.554285    8.151022
     13          1           0       10.523010    6.994715    7.940054
     14          7           0        9.289825   10.720533    8.721341
     15          6           0        8.114261   10.947570    9.596817
     16          1           0        7.207059   10.934775    8.949523
     17          1           0        8.029916   10.077731   10.304178
     18          6           0        8.145921   12.243752   10.427760
     19          1           0        8.469018   13.115581    9.819231
     20          1           0        7.094307   12.484788   10.703898
     21          6           0        8.973260   12.124712   11.700145
     22          1           0        8.973910   11.087255   12.089903
     23          1           0        8.523681   12.728134   12.511081
     24         16           0       10.686427   12.678278   11.505715
     25          8           0       11.400826   12.104885   12.659682
     26          8           0       10.625744   14.134838   11.365538
     27          8           0       11.144066   12.063713   10.191980
     28         15           0       11.493624    8.858800   11.385212
     29          8           0       10.034529    8.802420   11.238856
     30          8           0       12.107304    7.385295   11.307759
     31          1           0       13.109323    7.458661   11.540046
     32          8           0       12.250340    9.595688   10.198666
     33          1           0       11.902725   10.605720   10.147873
     34          8           0       12.079160    9.417538   12.741428
     35          1           0       11.868671   10.463332   12.798073
     36          8           0       11.278511   14.349077    8.545441
     37          1           0       11.096075   14.986034    9.249119
     38          1           0       11.506334   13.551712    9.059555
 ---------------------------------------------------------------------
                    Distance matrix (angstroms):
                    1          2          3          4          5
     1  C    0.000000
     2  C    1.402594   0.000000
     3  C    2.414081   1.383684   0.000000
     4  C    2.774567   2.406353   1.405005   0.000000
     5  C    2.368116   2.757837   2.410929   1.392756   0.000000
     6  H    3.409243   2.157014   1.091342   2.166400   3.401227
     7  H    1.106886   2.182403   3.418511   3.881415   3.367990
     8  H    2.150296   1.096926   2.170556   3.415671   3.853723
     9  H    3.349538   3.858117   3.420341   2.176262   1.100799
    10  C    4.257340   3.771674   2.511071   1.483468   2.493541
    11  H    4.812180   4.123237   2.798072   2.159953   3.303503
    12  H    4.735895   4.152126   2.879846   2.133056   3.142800
    13  H    4.791384   4.574198   3.443997   2.169380   2.633460
    14  N    1.356183   2.390733   2.776962   2.402668   1.370229
    15  C    2.481870   3.767184   4.258608   3.738492   2.441455
    16  H    2.991934   4.247242   4.740875   4.200868   2.926767
    17  H    3.340111   4.476628   4.698316   3.895259   2.528877
    18  C    2.951410   4.314861   5.121804   4.895177   3.743276
    19  H    2.621464   3.941801   4.990116   5.062023   4.101868
    20  H    3.910262   5.305265   6.115724   5.811971   4.570484
    21  C    3.692402   4.855173   5.537811   5.290197   4.248371
    22  H    4.103244   5.182189   5.604045   5.108796   4.021275
    23  H    4.684449   5.871428   6.621509   6.394531   5.325147
    24  S    3.537464   4.304059   5.050418   5.172778   4.547036
    25  O    4.726349   5.312707   5.792720   5.778692   5.244987
    26  O    4.042519   4.796922   5.811760   6.178925   5.597568
    27  O    2.358196   2.859375   3.556333   3.835166   3.465353
    28  P    4.584036   4.802616   4.401458   3.722222   3.461860
    29  O    4.257510   4.821648   4.539645   3.600299   2.835807
    30  O    5.783472   5.765027   5.015255   4.184085   4.241743
    31  H    6.292778   6.123725   5.369974   4.752023   4.994222
    32  O    3.732770   3.576108   3.145241   2.890750   3.094179
    33  H    2.989927   3.003172   3.004773   3.028748   3.016387
    34  O    5.548218   5.821556   5.628649   5.171004   4.880234
    35  H    5.165252   5.557386   5.621263   5.338481   4.940808
    36  O    2.931503   3.081993   4.375759   5.296313   5.180248
    37  H    3.591330   3.954059   5.232022   6.048940   5.790222
    38  H    2.526325   2.676523   3.840004   4.662192   4.551486
                    6          7          8          9         10
     6  H    0.000000
     7  H    4.327566   0.000000
     8  H    2.518562   2.480726   0.000000
     9  H    4.327101   4.249485   4.953410   0.000000
    10  C    2.727035   5.364079   4.677551   2.728675   0.000000
    11  H    2.699958   5.902330   4.899339   3.603523   1.097322
    12  H    2.881894   5.819873   4.963320   3.370507   1.110869
    13  H    3.799210   5.874740   5.562977   2.402736   1.099987
    14  N    3.867344   2.131334   3.368006   2.122781   3.756434
    15  C    5.348034   2.699629   4.629816   2.597181   4.929414
    16  H    5.820660   3.116817   5.079183   2.978318   5.339855
    17  H    5.754962   3.713380   5.425194   2.240400   4.834485
    18  C    6.172572   2.622728   4.925981   4.016484   6.179657
    19  H    5.988519   1.912929   4.341173   4.614897   6.465384
    20  H    7.183574   3.485154   5.896565   4.679487   7.050562
    21  C    6.510193   3.488517   5.432983   4.444690   6.448655
    22  H    6.566757   4.170544   5.906659   3.980796   6.076057
    23  H    7.585138   4.317272   6.366274   5.453401   7.540887
    24  S    5.839153   3.336399   4.632450   5.046907   6.350183
    25  O    6.471418   4.715165   5.680438   5.580461   6.716876
    26  O    6.551698   3.455517   4.837668   6.206932   7.472893
    27  O    4.322500   2.494668   3.257170   4.194430   5.068194
    28  P    4.976509   5.306477   5.617489   3.422849   3.991506
    29  O    5.337545   4.944457   5.774301   2.470165   4.015518
    30  O    5.359493   6.640775   6.596157   4.019358   3.856445
    31  H    5.555174   7.120291   6.835081   4.917786   4.398329
    32  O    3.589722   4.524838   4.269542   3.534868   3.379463
    33  H    3.608531   3.628047   3.615734   3.644021   3.919998
    34  O    6.143221   6.057570   6.469335   4.884519   5.508003
    35  H    6.207912   5.500488   6.109999   5.082343   5.936589
    36  O    4.904678   2.273813   2.559571   6.147666   6.690244
    37  H    5.801940   2.789661   3.515450   6.680619   7.449436
    38  H    4.413299   2.142920   2.395838   5.493648   6.015021
                   11         12         13         14         15
    11  H    0.000000
    12  H    1.779344   0.000000
    13  H    1.776016   1.756718   0.000000
    14  N    4.482626   4.321286   4.001609   0.000000
    15  C    5.722511   5.485685   4.916503   1.483224   0.000000
    16  H    6.000388   6.061669   5.247726   2.106153   1.114526
    17  H    5.736080   5.308859   4.616231   2.122719   1.124319
    18  C    7.000427   6.588365   6.276275   2.557455   1.539986
    19  H    7.185987   6.887946   6.724224   2.759591   2.208074
    20  H    7.854432   7.525856   7.038163   3.444333   2.151505
    21  C    7.391677   6.613243   6.546517   3.308354   2.558814
    22  H    7.089940   6.184044   6.030741   3.403160   2.640831
    23  H    8.491909   7.688273   7.600243   4.356555   3.439617
    24  S    7.244762   6.302741   6.711448   3.679130   3.640780
    25  O    7.686869   6.452521   7.011368   4.677957   4.639184
    26  O    8.274439   7.485746   7.919965   4.520391   4.426579
    27  O    5.881516   5.055974   5.581364   2.721235   3.283247
    28  P    5.057535   3.553274   4.035594   3.926702   4.356766
    29  O    5.107230   3.958958   3.793218   3.251403   3.314421
    30  O    4.832143   3.161978   3.742189   5.074599   5.617964
    31  H    5.282108   3.516809   4.456928   5.759642   6.395254
    32  O    4.314935   2.892383   3.853577   3.494627   4.392830
    33  H    4.807919   3.656870   4.451678   2.979165   3.843564
    34  O    6.545163   4.955067   5.598649   5.063525   5.286776
    35  H    6.962586   5.491025   6.119024   4.830770   4.957633
    36  O    7.162613   6.864992   7.417811   4.141515   4.763205
    37  H    7.994222   7.589491   8.118081   4.662144   5.032027
    38  H    6.580290   6.102575   6.724167   3.611492   4.310031
                   16         17         18         19         20
    16  H    0.000000
    17  H    1.801862   0.000000
    18  C    2.186336   2.172643   0.000000
    19  H    2.665492   3.107494   1.111209   0.000000
    20  H    2.343733   2.613248   1.113662   1.752246   0.000000
    21  C    3.478698   2.651180   1.522374   2.184930   2.156995
    22  H    3.606522   2.258114   2.187640   3.086256   2.721583
    23  H    4.199324   3.484087   2.171993   2.720140   2.316946
    24  S    4.656170   3.906864   2.793738   2.819994   3.685604
    25  O    5.720325   4.584843   3.949072   4.205374   4.745053
    26  O    5.269245   4.932031   3.256556   2.842783   3.953667
    27  O    4.279980   3.695219   3.012786   2.898491   4.103646
    28  P    5.349476   3.827754   4.856102   5.451672   5.741600
    29  O    4.216938   2.553138   4.008426   4.803074   4.742459
    30  O    6.494035   4.988134   6.330210   6.949030   7.176323
    31  H    7.323312   5.846988   6.983526   7.516274   7.882989
    32  O    5.365463   4.249174   4.889886   5.179963   5.931849
    33  H    4.857324   3.911758   4.107927   4.265882   5.192393
    34  O    6.357509   4.772046   5.367580   5.936993   6.197444
    35  H    6.063351   4.593935   4.758902   5.240760   5.591637
    36  O    5.328927   5.647205   4.217658   3.322244   5.063800
    37  H    5.623780   5.882680   4.196750   3.274912   4.938295
    38  H    5.034305   5.069824   3.856828   3.161108   4.827854
                   21         22         23         24         25
    21  C    0.000000
    22  H    1.108255   0.000000
    23  H    1.106281   1.752878   0.000000
    24  S    1.810850   2.409428   2.385522   0.000000
    25  O    2.610399   2.692608   2.947624   1.473359   0.000000
    26  O    2.623599   3.541331   2.776644   1.464547   2.529085
    27  O    2.643990   3.043872   3.561756   1.520863   2.481365
    28  P    4.137342   3.436795   5.005985   3.905701   3.488546
    29  O    3.518054   2.658884   4.394593   3.939348   3.846010
    30  O    5.695461   4.912679   6.544942   5.483954   4.959973
    31  H    6.237362   5.529076   7.052543   5.754651   5.075426
    32  O    4.403369   4.066515   5.389570   3.695479   3.615846
    33  H    3.646731   3.547015   4.637600   2.760183   2.967926
    34  O    4.249668   3.585389   4.863593   3.754879   2.772842
    35  H    3.514119   3.044737   4.049772   2.823805   1.712521
    36  O    4.496014   5.339839   5.093412   3.450414   4.688106
    37  H    4.324469   5.270115   4.728184   3.253579   4.475023
    38  H    3.927532   4.655076   4.635465   2.723754   3.881411
                   26         27         28         29         30
    26  O    0.000000
    27  O    2.436279   0.000000
    28  P    5.346979   3.437653   0.000000
    29  O    5.366588   3.600424   1.467500   0.000000
    30  O    6.910477   4.905139   1.598067   2.511849   0.000000
    31  H    7.125304   5.185173   2.143559   3.369089   1.031204
    32  O    4.960321   2.704632   1.588557   2.573147   2.477173
    33  H    3.945638   1.644157   2.179473   2.816432   3.429041
    34  O    5.124296   3.791613   1.579355   2.610864   2.487209
    35  H    4.132430   3.142927   2.170567   2.924699   3.428162
    36  O    2.902576   2.819939   6.184959   6.290261   7.537344
    37  H    2.329158   3.071034   6.501072   6.582022   7.939258
    38  H    2.536342   1.904669   5.237582   5.428751   6.590924
                   31         32         33         34         35
    31  H    0.000000
    32  O    2.665340   0.000000
    33  H    3.646643   1.069383   0.000000
    34  O    2.518284   2.554737   2.858222   0.000000
    35  H    3.485670   2.766838   2.654241   1.068269   0.000000
    36  O    7.732876   5.125652   4.119485   6.524371   5.790698
    37  H    8.121752   5.593728   4.543742   6.646114   5.800587
    38  H    6.771091   4.183449   3.165506   5.565583   4.862705
                   36         37         38
    36  O    0.000000
    37  H    0.966519   0.000000
    38  H    0.975709   1.503837   0.000000
 Symmetry turned off by external request.
 Stoichiometry    C9H18NO8PS
 Framework group  C1[X(C9H18NO8PS)]
 Deg. of freedom   108
 Full point group                 C1      NOp   1
 Rotational constants (GHZ):           0.3662151           0.2880144           0.2147709
 Leave Link  202 at Mon May 16 08:28:55 2022, MaxMem=  2684354560 cpu:               0.1 elap:               0.0
 (Enter /data0/hywu0/study/g16/l122.exe)
 Counterpoise: doing full-system calculation.
 Leave Link  122 at Mon May 16 08:28:55 2022, MaxMem=  2684354560 cpu:               0.0 elap:               0.0
 (Enter /data0/hywu0/study/g16/l301.exe)
 Standard basis: 6-311+G(2d,p) (5D, 7F)
 Ernie: Thresh=  0.10000D-02 Tol=  0.10000D-05 Strict=F.
   664 basis functions,  1012 primitive gaussians,   704 cartesian basis functions
    87 alpha electrons       87 beta electrons
       nuclear repulsion energy      2296.1080269466 Hartrees.
 IExCor= 4336 DFT=T Ex+Corr=M062X ExCW=0 ScaHFX=  0.540000
 ScaDFX=  1.000000  1.000000  1.000000  1.000000 ScalE2=  1.000000  1.000000
 IRadAn=      5 IRanWt=     -1 IRanGd=            0 ICorTp=0 IEmpDi=131
 NAtoms=   38 NActive=   38 NUniq=   38 SFac= 1.00D+00 NAtFMM=   60 NAOKFM=F Big=F
 Integral buffers will be    131072 words long.
 Raffenetti 2 integral format.
 Two-electron integral symmetry is turned off.
 R6Disp:  Grimme-D3 Dispersion energy=       -0.0032750425 Hartrees.
 Nuclear repulsion after empirical dispersion term =     2296.1047519041 Hartrees.
 Leave Link  301 at Mon May 16 08:28:55 2022, MaxMem=  2684354560 cpu:               0.8 elap:               0.1
 (Enter /data0/hywu0/study/g16/l302.exe)
 NPDir=0 NMtPBC=     1 NCelOv=     1 NCel=       1 NClECP=     1 NCelD=      1
         NCelK=      1 NCelE2=     1 NClLst=     1 CellRange=     0.0.
 One-electron integrals computed using PRISM.
 NBasis=   664 RedAO= T EigKep=  1.87D-06  NBF=   664
 NBsUse=   664 1.00D-06 EigRej= -1.00D+00 NBFU=   664
 Precomputing XC quadrature grid using
 IXCGrd= 4 IRadAn=           5 IRanWt=          -1 IRanGd=           0 AccXCQ= 0.00D+00.
 Generated NRdTot=       0 NPtTot=           0 NUsed=           0 NTot=          32
 NSgBfM=   704   704   704   704   704 MxSgAt=    38 MxSgA2=    38.
 Leave Link  302 at Mon May 16 08:28:56 2022, MaxMem=  2684354560 cpu:              12.7 elap:               0.8
 (Enter /data0/hywu0/study/g16/l303.exe)
 DipDrv:  MaxL=1.
 Leave Link  303 at Mon May 16 08:28:56 2022, MaxMem=  2684354560 cpu:               1.3 elap:               0.1
 (Enter /data0/hywu0/study/g16/l401.exe)
 ExpMin= 3.48D-02 ExpMax= 9.34D+04 ExpMxC= 3.17D+03 IAcc=3 IRadAn=         5 AccDes= 0.00D+00
 Harris functional with IExCor= 1009 and IRadAn=       5 diagonalized for initial guess.
 HarFok:  IExCor= 1009 AccDes= 0.00D+00 IRadAn=         5 IDoV= 1 UseB2=F ITyADJ=14
 ICtDFT=  3500011 ScaDFX=  1.000000  1.000000  1.000000  1.000000
 FoFCou: FMM=F IPFlag=           0 FMFlag=      100000 FMFlg1=           0
         NFxFlg=           0 DoJE=T BraDBF=F KetDBF=T FulRan=T
         wScrn=  0.000000 ICntrl=       500 IOpCl=  0 I1Cent=   200000004 NGrid=           0
         NMat0=    1 NMatS0=      1 NMatT0=    0 NMatD0=    1 NMtDS0=    0 NMtDT0=    0
 Symmetry not used in FoFCou.
 Harris En= -1749.24455205582    
 JPrj=0 DoOrth=F DoCkMO=F.
 Leave Link  401 at Mon May 16 08:29:00 2022, MaxMem=  2684354560 cpu:              61.2 elap:               3.9
 (Enter /data0/hywu0/study/g16/l502.exe)
 Two-electron integral symmetry not used.
 Closed shell SCF:
 Using DIIS extrapolation, IDIIS=  1040.
 NGot=  2684354560 LenX=  2683347194 LenY=  2682850874
 Requested convergence on RMS density matrix=1.00D-08 within 128 cycles.
 Requested convergence on MAX density matrix=1.00D-06.
 Requested convergence on             energy=1.00D-06.
 No special actions if energy rises.
 Fock matrices will be formed incrementally for  20 cycles.

 Cycle   1  Pass 1  IDiag  1:
 FoFJK:  IHMeth= 1 ICntrl=       0 DoSepK=F KAlg= 0 I1Cent=           0 FoldK=F
 IRaf= 850000000 NMat=       1 IRICut=       1 DoRegI=T DoRafI=F ISym2E= 0 IDoP0=0 IntGTp=1.
 FoFCou: FMM=F IPFlag=           0 FMFlag=      100000 FMFlg1=           0
         NFxFlg=           0 DoJE=F BraDBF=F KetDBF=F FulRan=T
         wScrn=  0.000000 ICntrl=         0 IOpCl=  0 I1Cent=           0 NGrid=           0
         NMat0=    1 NMatS0=      1 NMatT0=    0 NMatD0=    1 NMtDS0=    0 NMtDT0=    0
 Symmetry not used in FoFCou.
 E= -1749.11134621250    
 DIIS: error= 2.04D-02 at cycle   1 NSaved=   1.
 NSaved= 1 IEnMin= 1 EnMin= -1749.11134621250     IErMin= 1 ErrMin= 2.04D-02
 ErrMax= 2.04D-02  0.00D+00 EMaxC= 1.00D-01 BMatC= 1.35D+00 BMatP= 1.35D+00
 IDIUse=3 WtCom= 7.96D-01 WtEn= 2.04D-01
 Coeff-Com:  0.100D+01
 Coeff-En:   0.100D+01
 Coeff:      0.100D+01
 Gap=     0.247 Goal=   None    Shift=    0.000
 GapD=    0.247 DampG=1.000 DampE=0.500 DampFc=0.5000 IDamp=-1.
 Damping current iteration by 5.00D-01
 RMSDP=1.17D-02 MaxDP=1.15D+00              OVMax= 2.08D-01

 Cycle   2  Pass 1  IDiag  1:
 RMSU=  5.84D-03    CP:  1.02D+00
 E= -1749.46036041750     Delta-E=       -0.349014205004 Rises=F Damp=T
 DIIS: error= 4.83D-03 at cycle   2 NSaved=   2.
 NSaved= 2 IEnMin= 2 EnMin= -1749.46036041750     IErMin= 2 ErrMin= 4.83D-03
 ErrMax= 4.83D-03  0.00D+00 EMaxC= 1.00D-01 BMatC= 8.26D-02 BMatP= 1.35D+00
 IDIUse=3 WtCom= 9.52D-01 WtEn= 4.83D-02
 Coeff-Com:  0.419D-01 0.958D+00
 Coeff-En:   0.143D+00 0.857D+00
 Coeff:      0.468D-01 0.953D+00
 Gap=     0.316 Goal=   None    Shift=    0.000
 RMSDP=6.21D-03 MaxDP=1.25D+00 DE=-3.49D-01 OVMax= 1.35D-01

 Cycle   3  Pass 1  IDiag  1:
 RMSU=  3.25D-03    CP:  8.43D-01  6.17D-01
 E= -1749.89740447805     Delta-E=       -0.437044060549 Rises=F Damp=F
 DIIS: error= 3.44D-03 at cycle   3 NSaved=   3.
 NSaved= 3 IEnMin= 3 EnMin= -1749.89740447805     IErMin= 3 ErrMin= 3.44D-03
 ErrMax= 3.44D-03  0.00D+00 EMaxC= 1.00D-01 BMatC= 3.29D-02 BMatP= 8.26D-02
 IDIUse=3 WtCom= 9.66D-01 WtEn= 3.44D-02
 Coeff-Com: -0.449D-01 0.355D+00 0.689D+00
 Coeff-En:   0.000D+00 0.000D+00 0.100D+01
 Coeff:     -0.434D-01 0.343D+00 0.700D+00
 Gap=     0.267 Goal=   None    Shift=    0.000
 RMSDP=1.16D-03 MaxDP=1.10D-01 DE=-4.37D-01 OVMax= 4.17D-02

 Cycle   4  Pass 1  IDiag  1:
 RMSU=  9.57D-04    CP:  8.30D-01  7.11D-01  9.77D-01
 E= -1749.91710453202     Delta-E=       -0.019700053971 Rises=F Damp=F
 DIIS: error= 1.72D-03 at cycle   4 NSaved=   4.
 NSaved= 4 IEnMin= 4 EnMin= -1749.91710453202     IErMin= 4 ErrMin= 1.72D-03
 ErrMax= 1.72D-03  0.00D+00 EMaxC= 1.00D-01 BMatC= 8.39D-03 BMatP= 3.29D-02
 IDIUse=3 WtCom= 9.83D-01 WtEn= 1.72D-02
 Coeff-Com: -0.277D-01 0.833D-01 0.380D+00 0.564D+00
 Coeff-En:   0.000D+00 0.000D+00 0.194D+00 0.806D+00
 Coeff:     -0.273D-01 0.818D-01 0.377D+00 0.569D+00
 Gap=     0.267 Goal=   None    Shift=    0.000
 RMSDP=5.03D-04 MaxDP=6.76D-02 DE=-1.97D-02 OVMax= 1.65D-02

 Cycle   5  Pass 1  IDiag  1:
 RMSU=  2.97D-04    CP:  8.24D-01  6.80D-01  9.96D-01  6.63D-01
 E= -1749.92375054219     Delta-E=       -0.006646010169 Rises=F Damp=F
 DIIS: error= 3.83D-04 at cycle   5 NSaved=   5.
 NSaved= 5 IEnMin= 5 EnMin= -1749.92375054219     IErMin= 5 ErrMin= 3.83D-04
 ErrMax= 3.83D-04  0.00D+00 EMaxC= 1.00D-01 BMatC= 3.62D-04 BMatP= 8.39D-03
 IDIUse=3 WtCom= 9.96D-01 WtEn= 3.83D-03
 Coeff-Com: -0.943D-02 0.197D-01 0.134D+00 0.263D+00 0.592D+00
 Coeff-En:   0.000D+00 0.000D+00 0.000D+00 0.000D+00 0.100D+01
 Coeff:     -0.940D-02 0.196D-01 0.134D+00 0.262D+00 0.594D+00
 Gap=     0.266 Goal=   None    Shift=    0.000
 RMSDP=1.06D-04 MaxDP=1.29D-02 DE=-6.65D-03 OVMax= 4.04D-03

 Cycle   6  Pass 1  IDiag  1:
 RMSU=  6.59D-05    CP:  8.24D-01  6.82D-01  9.99D-01  7.06D-01  7.68D-01
 E= -1749.92402645907     Delta-E=       -0.000275916881 Rises=F Damp=F
 DIIS: error= 1.01D-04 at cycle   6 NSaved=   6.
 NSaved= 6 IEnMin= 6 EnMin= -1749.92402645907     IErMin= 6 ErrMin= 1.01D-04
 ErrMax= 1.01D-04  0.00D+00 EMaxC= 1.00D-01 BMatC= 3.63D-05 BMatP= 3.62D-04
 IDIUse=3 WtCom= 9.99D-01 WtEn= 1.01D-03
 Coeff-Com: -0.194D-02 0.180D-02 0.302D-01 0.753D-01 0.291D+00 0.604D+00
 Coeff-En:   0.000D+00 0.000D+00 0.000D+00 0.000D+00 0.000D+00 0.100D+01
 Coeff:     -0.194D-02 0.179D-02 0.302D-01 0.752D-01 0.291D+00 0.604D+00
 Gap=     0.266 Goal=   None    Shift=    0.000
 RMSDP=3.18D-05 MaxDP=4.55D-03 DE=-2.76D-04 OVMax= 1.29D-03

 Cycle   7  Pass 1  IDiag  1:
 RMSU=  2.92D-05    CP:  8.24D-01  6.82D-01  1.00D+00  7.11D-01  7.60D-01
                    CP:  8.51D-01
 E= -1749.92405306803     Delta-E=       -0.000026608954 Rises=F Damp=F
 DIIS: error= 3.39D-05 at cycle   7 NSaved=   7.
 NSaved= 7 IEnMin= 7 EnMin= -1749.92405306803     IErMin= 7 ErrMin= 3.39D-05
 ErrMax= 3.39D-05  0.00D+00 EMaxC= 1.00D-01 BMatC= 3.26D-06 BMatP= 3.63D-05
 IDIUse=1 WtCom= 1.00D+00 WtEn= 0.00D+00
 Coeff-Com:  0.127D-03-0.121D-02-0.715D-03 0.594D-02 0.755D-01 0.271D+00
 Coeff-Com:  0.649D+00
 Coeff:      0.127D-03-0.121D-02-0.715D-03 0.594D-02 0.755D-01 0.271D+00
 Coeff:      0.649D+00
 Gap=     0.266 Goal=   None    Shift=    0.000
 RMSDP=1.17D-05 MaxDP=1.30D-03 DE=-2.66D-05 OVMax= 2.92D-04

 Cycle   8  Pass 1  IDiag  1:
 RMSU=  9.67D-06    CP:  8.24D-01  6.81D-01  1.00D+00  7.13D-01  7.59D-01
                    CP:  9.15D-01  9.43D-01
 E= -1749.92405558911     Delta-E=       -0.000002521089 Rises=F Damp=F
 DIIS: error= 1.06D-05 at cycle   8 NSaved=   8.
 NSaved= 8 IEnMin= 8 EnMin= -1749.92405558911     IErMin= 8 ErrMin= 1.06D-05
 ErrMax= 1.06D-05  0.00D+00 EMaxC= 1.00D-01 BMatC= 3.29D-07 BMatP= 3.26D-06
 IDIUse=1 WtCom= 1.00D+00 WtEn= 0.00D+00
 Coeff-Com:  0.335D-03-0.709D-03-0.504D-02-0.956D-02-0.127D-01 0.621D-02
 Coeff-Com:  0.244D+00 0.777D+00
 Coeff:      0.335D-03-0.709D-03-0.504D-02-0.956D-02-0.127D-01 0.621D-02
 Coeff:      0.244D+00 0.777D+00
 Gap=     0.266 Goal=   None    Shift=    0.000
 RMSDP=5.73D-06 MaxDP=7.27D-04 DE=-2.52D-06 OVMax= 2.49D-04

 Cycle   9  Pass 1  IDiag  1:
 RMSU=  3.20D-06    CP:  8.24D-01  6.81D-01  1.00D+00  7.13D-01  7.66D-01
                    CP:  9.21D-01  9.83D-01  8.51D-01
 E= -1749.92405591393     Delta-E=       -0.000000324811 Rises=F Damp=F
 DIIS: error= 4.68D-06 at cycle   9 NSaved=   9.
 NSaved= 9 IEnMin= 9 EnMin= -1749.92405591393     IErMin= 9 ErrMin= 4.68D-06
 ErrMax= 4.68D-06  0.00D+00 EMaxC= 1.00D-01 BMatC= 4.88D-08 BMatP= 3.29D-07
 IDIUse=1 WtCom= 1.00D+00 WtEn= 0.00D+00
 Coeff-Com:  0.141D-03-0.239D-03-0.234D-02-0.501D-02-0.114D-01-0.178D-01
 Coeff-Com:  0.627D-01 0.363D+00 0.611D+00
 Coeff:      0.141D-03-0.239D-03-0.234D-02-0.501D-02-0.114D-01-0.178D-01
 Coeff:      0.627D-01 0.363D+00 0.611D+00
 Gap=     0.266 Goal=   None    Shift=    0.000
 RMSDP=1.55D-06 MaxDP=2.24D-04 DE=-3.25D-07 OVMax= 4.81D-05

 Cycle  10  Pass 1  IDiag  1:
 RMSU=  1.10D-06    CP:  8.24D-01  6.81D-01  1.00D+00  7.13D-01  7.65D-01
                    CP:  9.27D-01  9.90D-01  9.10D-01  9.50D-01
 E= -1749.92405595959     Delta-E=       -0.000000045661 Rises=F Damp=F
 DIIS: error= 1.74D-06 at cycle  10 NSaved=  10.
 NSaved=10 IEnMin=10 EnMin= -1749.92405595959     IErMin=10 ErrMin= 1.74D-06
 ErrMax= 1.74D-06  0.00D+00 EMaxC= 1.00D-01 BMatC= 4.16D-09 BMatP= 4.88D-08
 IDIUse=1 WtCom= 1.00D+00 WtEn= 0.00D+00
 Coeff-Com:  0.221D-05 0.138D-04-0.140D-03-0.489D-03-0.219D-02-0.719D-02
 Coeff-Com: -0.113D-01 0.252D-01 0.210D+00 0.786D+00
 Coeff:      0.221D-05 0.138D-04-0.140D-03-0.489D-03-0.219D-02-0.719D-02
 Coeff:     -0.113D-01 0.252D-01 0.210D+00 0.786D+00
 Gap=     0.266 Goal=   None    Shift=    0.000
 RMSDP=5.45D-07 MaxDP=7.65D-05 DE=-4.57D-08 OVMax= 5.54D-05

 Cycle  11  Pass 1  IDiag  1:
 RMSU=  3.86D-07    CP:  8.24D-01  6.81D-01  1.00D+00  7.13D-01  7.65D-01
                    CP:  9.27D-01  9.92D-01  9.25D-01  1.01D+00  1.01D+00
 E= -1749.92405596610     Delta-E=       -0.000000006514 Rises=F Damp=F
 DIIS: error= 8.19D-07 at cycle  11 NSaved=  11.
 NSaved=11 IEnMin=11 EnMin= -1749.92405596610     IErMin=11 ErrMin= 8.19D-07
 ErrMax= 8.19D-07  0.00D+00 EMaxC= 1.00D-01 BMatC= 1.25D-09 BMatP= 4.16D-09
 IDIUse=1 WtCom= 1.00D+00 WtEn= 0.00D+00
 Coeff-Com: -0.198D-04 0.416D-04 0.299D-03 0.530D-03 0.632D-03-0.762D-03
 Coeff-Com: -0.159D-01-0.470D-01-0.107D-01 0.379D+00 0.694D+00
 Coeff:     -0.198D-04 0.416D-04 0.299D-03 0.530D-03 0.632D-03-0.762D-03
 Coeff:     -0.159D-01-0.470D-01-0.107D-01 0.379D+00 0.694D+00
 Gap=     0.266 Goal=   None    Shift=    0.000
 RMSDP=3.00D-07 MaxDP=3.18D-05 DE=-6.51D-09 OVMax= 2.11D-05

 Cycle  12  Pass 1  IDiag  1:
 RMSU=  1.67D-07    CP:  8.24D-01  6.81D-01  1.00D+00  7.13D-01  7.65D-01
                    CP:  9.27D-01  9.91D-01  9.28D-01  1.06D+00  1.14D+00
                    CP:  1.03D+00
 E= -1749.92405596795     Delta-E=       -0.000000001848 Rises=F Damp=F
 DIIS: error= 2.06D-07 at cycle  12 NSaved=  12.
 NSaved=12 IEnMin=12 EnMin= -1749.92405596795     IErMin=12 ErrMin= 2.06D-07
 ErrMax= 2.06D-07  0.00D+00 EMaxC= 1.00D-01 BMatC= 1.27D-10 BMatP= 1.25D-09
 IDIUse=1 WtCom= 1.00D+00 WtEn= 0.00D+00
 Coeff-Com: -0.651D-05 0.119D-04 0.131D-03 0.257D-03 0.529D-03 0.849D-03
 Coeff-Com: -0.429D-02-0.204D-01-0.380D-01 0.322D-01 0.252D+00 0.777D+00
 Coeff:     -0.651D-05 0.119D-04 0.131D-03 0.257D-03 0.529D-03 0.849D-03
 Coeff:     -0.429D-02-0.204D-01-0.380D-01 0.322D-01 0.252D+00 0.777D+00
 Gap=     0.266 Goal=   None    Shift=    0.000
 RMSDP=9.28D-08 MaxDP=1.19D-05 DE=-1.85D-09 OVMax= 1.21D-05

 Cycle  13  Pass 1  IDiag  1:
 RMSU=  6.09D-08    CP:  8.24D-01  6.81D-01  1.00D+00  7.13D-01  7.65D-01
                    CP:  9.27D-01  9.91D-01  9.31D-01  1.06D+00  1.18D+00
                    CP:  1.10D+00  1.08D+00
 E= -1749.92405596800     Delta-E=       -0.000000000047 Rises=F Damp=F
 DIIS: error= 9.88D-08 at cycle  13 NSaved=  13.
 NSaved=13 IEnMin=13 EnMin= -1749.92405596800     IErMin=13 ErrMin= 9.88D-08
 ErrMax= 9.88D-08  0.00D+00 EMaxC= 1.00D-01 BMatC= 3.15D-11 BMatP= 1.27D-10
 IDIUse=1 WtCom= 1.00D+00 WtEn= 0.00D+00
 Coeff-Com:  0.543D-06-0.195D-05 0.121D-04 0.324D-04 0.153D-03 0.600D-03
 Coeff-Com:  0.668D-03-0.119D-02-0.162D-01-0.496D-01-0.133D-01 0.365D+00
 Coeff-Com:  0.714D+00
 Coeff:      0.543D-06-0.195D-05 0.121D-04 0.324D-04 0.153D-03 0.600D-03
 Coeff:      0.668D-03-0.119D-02-0.162D-01-0.496D-01-0.133D-01 0.365D+00
 Coeff:      0.714D+00
 Gap=     0.266 Goal=   None    Shift=    0.000
 RMSDP=5.17D-08 MaxDP=7.89D-06 DE=-4.73D-11 OVMax= 4.38D-06

 Cycle  14  Pass 1  IDiag  1:
 RMSU=  2.85D-08    CP:  8.24D-01  6.81D-01  1.00D+00  7.13D-01  7.65D-01
                    CP:  9.27D-01  9.91D-01  9.33D-01  1.06D+00  1.19D+00
                    CP:  1.14D+00  1.21D+00  1.09D+00
 E= -1749.92405596799     Delta-E=        0.000000000010 Rises=F Damp=F
 DIIS: error= 4.15D-08 at cycle  14 NSaved=  14.
 NSaved=14 IEnMin=13 EnMin= -1749.92405596800     IErMin=14 ErrMin= 4.15D-08
 ErrMax= 4.15D-08  0.00D+00 EMaxC= 1.00D-01 BMatC= 3.84D-12 BMatP= 3.15D-11
 IDIUse=1 WtCom= 1.00D+00 WtEn= 0.00D+00
 Coeff-Com:  0.119D-05-0.252D-05-0.152D-04-0.276D-04-0.301D-04 0.891D-04
 Coeff-Com:  0.847D-03 0.286D-02-0.166D-03-0.247D-01-0.503D-01 0.296D-01
 Coeff-Com:  0.298D+00 0.744D+00
 Coeff:      0.119D-05-0.252D-05-0.152D-04-0.276D-04-0.301D-04 0.891D-04
 Coeff:      0.847D-03 0.286D-02-0.166D-03-0.247D-01-0.503D-01 0.296D-01
 Coeff:      0.298D+00 0.744D+00
 Gap=     0.266 Goal=   None    Shift=    0.000
 RMSDP=1.68D-08 MaxDP=1.92D-06 DE= 1.00D-11 OVMax= 1.84D-06

 Cycle  15  Pass 1  IDiag  1:
 RMSU=  8.72D-09    CP:  8.24D-01  6.81D-01  1.00D+00  7.13D-01  7.65D-01
                    CP:  9.27D-01  9.91D-01  9.33D-01  1.06D+00  1.19D+00
                    CP:  1.15D+00  1.25D+00  1.18D+00  9.78D-01
 E= -1749.92405596815     Delta-E=       -0.000000000164 Rises=F Damp=F
 DIIS: error= 1.46D-08 at cycle  15 NSaved=  15.
 NSaved=15 IEnMin=15 EnMin= -1749.92405596815     IErMin=15 ErrMin= 1.46D-08
 ErrMax= 1.46D-08  0.00D+00 EMaxC= 1.00D-01 BMatC= 4.59D-13 BMatP= 3.84D-12
 IDIUse=1 WtCom= 1.00D+00 WtEn= 0.00D+00
 Coeff-Com:  0.295D-06-0.596D-06-0.654D-05-0.123D-04-0.244D-04-0.281D-04
 Coeff-Com:  0.235D-03 0.116D-02 0.189D-02-0.292D-02-0.178D-01-0.361D-01
 Coeff-Com:  0.162D-01 0.293D+00 0.745D+00
 Coeff:      0.295D-06-0.596D-06-0.654D-05-0.123D-04-0.244D-04-0.281D-04
 Coeff:      0.235D-03 0.116D-02 0.189D-02-0.292D-02-0.178D-01-0.361D-01
 Coeff:      0.162D-01 0.293D+00 0.745D+00
 Gap=     0.266 Goal=   None    Shift=    0.000
 RMSDP=6.66D-09 MaxDP=7.41D-07 DE=-1.64D-10 OVMax= 4.61D-07

 SCF Done:  E(RM062X) =  -1749.92405597     A.U. after   15 cycles
            NFock= 15  Conv=0.67D-08     -V/T= 2.0030
 KE= 1.744680192250D+03 PE=-8.719607668589D+03 EE= 2.928898668467D+03
 Leave Link  502 at Mon May 16 08:33:50 2022, MaxMem=  2684354560 cpu:            4630.3 elap:             290.3
 (Enter /data0/hywu0/study/g16/l601.exe)
 Copying SCF densities to generalized density rwf, IOpCl= 0 IROHF=0.

 **********************************************************************

            Population analysis using the SCF density.

 **********************************************************************

 Alpha  occ. eigenvalues --  -90.10209 -78.14512 -19.65706 -19.63855 -19.63477
 Alpha  occ. eigenvalues --  -19.61811 -19.61540 -19.60421 -19.59870 -19.57838
 Alpha  occ. eigenvalues --  -14.88593 -10.64650 -10.64049 -10.63088 -10.60572
 Alpha  occ. eigenvalues --  -10.60320 -10.59421 -10.58687 -10.57651 -10.56407
 Alpha  occ. eigenvalues --   -8.43680  -6.95234  -6.35993  -6.35909  -6.35866
 Alpha  occ. eigenvalues --   -5.07178  -5.07092  -5.06954  -1.24751  -1.20984
 Alpha  occ. eigenvalues --   -1.16061  -1.13493  -1.12736  -1.11589  -1.10739
 Alpha  occ. eigenvalues --   -1.10219  -1.08057  -0.98474  -0.93195  -0.92584
 Alpha  occ. eigenvalues --   -0.84836  -0.83822  -0.77760  -0.76022  -0.71776
 Alpha  occ. eigenvalues --   -0.69968  -0.67240  -0.65544  -0.62743  -0.62553
 Alpha  occ. eigenvalues --   -0.61244  -0.60244  -0.59543  -0.58737  -0.58582
 Alpha  occ. eigenvalues --   -0.56583  -0.56225  -0.55293  -0.54475  -0.53604
 Alpha  occ. eigenvalues --   -0.52779  -0.50750  -0.50014  -0.49624  -0.49058
 Alpha  occ. eigenvalues --   -0.48809  -0.48393  -0.47803  -0.47581  -0.46615
 Alpha  occ. eigenvalues --   -0.45782  -0.45484  -0.44836  -0.43892  -0.43065
 Alpha  occ. eigenvalues --   -0.42405  -0.41880  -0.41176  -0.39615  -0.38761
 Alpha  occ. eigenvalues --   -0.38139  -0.37749  -0.37504  -0.36285  -0.35920
 Alpha  occ. eigenvalues --   -0.35428  -0.33386
 Alpha virt. eigenvalues --   -0.06754  -0.02731  -0.00970  -0.00052   0.00993
 Alpha virt. eigenvalues --    0.01273   0.01994   0.02456   0.02976   0.03746
 Alpha virt. eigenvalues --    0.04601   0.04938   0.05314   0.05532   0.05874
 Alpha virt. eigenvalues --    0.06886   0.07522   0.07872   0.08246   0.08375
 Alpha virt. eigenvalues --    0.08743   0.09071   0.09666   0.10085   0.10162
 Alpha virt. eigenvalues --    0.11301   0.11732   0.11918   0.12072   0.12689
 Alpha virt. eigenvalues --    0.12767   0.13249   0.13561   0.13986   0.14084
 Alpha virt. eigenvalues --    0.14298   0.14843   0.15228   0.15363   0.15511
 Alpha virt. eigenvalues --    0.15982   0.16681   0.17227   0.17493   0.17510
 Alpha virt. eigenvalues --    0.17786   0.17883   0.18198   0.18807   0.19356
 Alpha virt. eigenvalues --    0.19531   0.19903   0.20201   0.20304   0.20496
 Alpha virt. eigenvalues --    0.20916   0.21277   0.22009   0.22190   0.22654
 Alpha virt. eigenvalues --    0.22880   0.23422   0.23735   0.24086   0.24356
 Alpha virt. eigenvalues --    0.24738   0.25035   0.25303   0.25710   0.25893
 Alpha virt. eigenvalues --    0.26232   0.26584   0.27014   0.27324   0.27790
 Alpha virt. eigenvalues --    0.28122   0.28515   0.28652   0.29069   0.29338
 Alpha virt. eigenvalues --    0.29934   0.30038   0.30680   0.31116   0.31286
 Alpha virt. eigenvalues --    0.31716   0.32041   0.32755   0.32971   0.33194
 Alpha virt. eigenvalues --    0.33710   0.33809   0.34422   0.35034   0.35193
 Alpha virt. eigenvalues --    0.35443   0.35928   0.36376   0.36485   0.37380
 Alpha virt. eigenvalues --    0.37419   0.37907   0.38519   0.38942   0.39652
 Alpha virt. eigenvalues --    0.40046   0.40115   0.40768   0.40956   0.41587
 Alpha virt. eigenvalues --    0.42268   0.42699   0.42994   0.43680   0.44560
 Alpha virt. eigenvalues --    0.45024   0.45901   0.46597   0.46894   0.47234
 Alpha virt. eigenvalues --    0.48296   0.49166   0.50133   0.51049   0.51178
 Alpha virt. eigenvalues --    0.51871   0.52395   0.53280   0.53840   0.54357
 Alpha virt. eigenvalues --    0.55336   0.55440   0.55873   0.56232   0.56759
 Alpha virt. eigenvalues --    0.57128   0.58549   0.59018   0.59189   0.59737
 Alpha virt. eigenvalues --    0.60340   0.61054   0.61829   0.62852   0.64339
 Alpha virt. eigenvalues --    0.64678   0.65132   0.65525   0.65823   0.65971
 Alpha virt. eigenvalues --    0.66370   0.67174   0.67918   0.68270   0.69138
 Alpha virt. eigenvalues --    0.69401   0.70140   0.71256   0.71602   0.71684
 Alpha virt. eigenvalues --    0.72428   0.73119   0.73255   0.75242   0.76612
 Alpha virt. eigenvalues --    0.76933   0.77334   0.78185   0.79078   0.79634
 Alpha virt. eigenvalues --    0.79852   0.80885   0.81761   0.81886   0.82797
 Alpha virt. eigenvalues --    0.83487   0.83754   0.84205   0.84731   0.86102
 Alpha virt. eigenvalues --    0.86317   0.86531   0.87835   0.88541   0.89336
 Alpha virt. eigenvalues --    0.89861   0.90591   0.91240   0.92825   0.93169
 Alpha virt. eigenvalues --    0.93972   0.95217   0.95678   0.97345   0.99018
 Alpha virt. eigenvalues --    0.99883   1.00408   1.01654   1.03246   1.03961
 Alpha virt. eigenvalues --    1.05317   1.06028   1.06660   1.07760   1.09322
 Alpha virt. eigenvalues --    1.10632   1.10956   1.11383   1.12331   1.12754
 Alpha virt. eigenvalues --    1.13719   1.14127   1.14451   1.15878   1.17269
 Alpha virt. eigenvalues --    1.18210   1.19180   1.20131   1.20573   1.20869
 Alpha virt. eigenvalues --    1.21526   1.22421   1.22648   1.23049   1.24001
 Alpha virt. eigenvalues --    1.24484   1.25007   1.26299   1.26991   1.27651
 Alpha virt. eigenvalues --    1.27951   1.29008   1.29573   1.29881   1.30410
 Alpha virt. eigenvalues --    1.31125   1.32157   1.32769   1.33038   1.33484
 Alpha virt. eigenvalues --    1.34632   1.34924   1.35969   1.36249   1.36622
 Alpha virt. eigenvalues --    1.37427   1.37755   1.38006   1.38844   1.39195
 Alpha virt. eigenvalues --    1.39958   1.40502   1.41612   1.42613   1.43169
 Alpha virt. eigenvalues --    1.44048   1.44604   1.45067   1.45818   1.45882
 Alpha virt. eigenvalues --    1.46801   1.48141   1.48465   1.49079   1.50471
 Alpha virt. eigenvalues --    1.50987   1.52103   1.52947   1.53938   1.54312
 Alpha virt. eigenvalues --    1.55828   1.56744   1.57351   1.58875   1.59091
 Alpha virt. eigenvalues --    1.60287   1.61168   1.61809   1.62070   1.62690
 Alpha virt. eigenvalues --    1.64173   1.64277   1.65875   1.67049   1.67469
 Alpha virt. eigenvalues --    1.68778   1.70345   1.70769   1.72535   1.73085
 Alpha virt. eigenvalues --    1.73682   1.75267   1.76519   1.77345   1.78376
 Alpha virt. eigenvalues --    1.78440   1.80382   1.81120   1.81969   1.82503
 Alpha virt. eigenvalues --    1.83381   1.85154   1.85916   1.86252   1.86797
 Alpha virt. eigenvalues --    1.87906   1.88686   1.89172   1.90760   1.91577
 Alpha virt. eigenvalues --    1.93042   1.93565   1.94709   1.96536   1.97339
 Alpha virt. eigenvalues --    1.97905   1.99920   2.00664   2.01048   2.01739
 Alpha virt. eigenvalues --    2.03196   2.04313   2.04703   2.05319   2.08143
 Alpha virt. eigenvalues --    2.08280   2.09767   2.10402   2.11516   2.13045
 Alpha virt. eigenvalues --    2.13830   2.14367   2.15216   2.16598   2.18085
 Alpha virt. eigenvalues --    2.18349   2.19006   2.19847   2.21426   2.21922
 Alpha virt. eigenvalues --    2.23247   2.25484   2.26028   2.27323   2.29114
 Alpha virt. eigenvalues --    2.29682   2.30294   2.31524   2.31800   2.32520
 Alpha virt. eigenvalues --    2.33050   2.34984   2.35530   2.36548   2.38282
 Alpha virt. eigenvalues --    2.39196   2.39781   2.40560   2.42227   2.43897
 Alpha virt. eigenvalues --    2.45794   2.46286   2.47233   2.47897   2.48525
 Alpha virt. eigenvalues --    2.52471   2.53918   2.55312   2.56878   2.58458
 Alpha virt. eigenvalues --    2.59594   2.62652   2.63574   2.65309   2.66650
 Alpha virt. eigenvalues --    2.67897   2.70521   2.72070   2.73222   2.76221
 Alpha virt. eigenvalues --    2.77253   2.79045   2.79992   2.80942   2.81848
 Alpha virt. eigenvalues --    2.83159   2.83582   2.85635   2.86427   2.87107
 Alpha virt. eigenvalues --    2.88710   2.89769   2.90364   2.91842   2.92664
 Alpha virt. eigenvalues --    2.93364   2.94569   2.95934   2.96937   2.97545
 Alpha virt. eigenvalues --    3.00838   3.01973   3.03041   3.03426   3.04879
 Alpha virt. eigenvalues --    3.07859   3.10102   3.11532   3.13982   3.15451
 Alpha virt. eigenvalues --    3.16233   3.18390   3.20173   3.21716   3.22884
 Alpha virt. eigenvalues --    3.23395   3.26877   3.28646   3.29963   3.31962
 Alpha virt. eigenvalues --    3.33336   3.34879   3.36836   3.40123   3.40863
 Alpha virt. eigenvalues --    3.41521   3.42306   3.44424   3.45302   3.47710
 Alpha virt. eigenvalues --    3.49176   3.49645   3.50283   3.51498   3.52419
 Alpha virt. eigenvalues --    3.54347   3.55571   3.57905   3.58499   3.60529
 Alpha virt. eigenvalues --    3.62223   3.62399   3.63520   3.64437   3.64854
 Alpha virt. eigenvalues --    3.66549   3.67673   3.70970   3.71925   3.72895
 Alpha virt. eigenvalues --    3.74528   3.74963   3.77714   3.80278   3.83017
 Alpha virt. eigenvalues --    3.83937   3.85687   3.87375   3.90112   3.92553
 Alpha virt. eigenvalues --    3.95772   4.00539   4.04398   4.07727   4.09107
 Alpha virt. eigenvalues --    4.14265   4.15671   4.17121   4.19346   4.20447
 Alpha virt. eigenvalues --    4.24324   4.31121   4.39520   4.48335   4.51247
 Alpha virt. eigenvalues --    4.63948   4.71941   4.98443   5.02871   5.06895
 Alpha virt. eigenvalues --    5.10913   5.12632   5.13896   5.14770   5.19936
 Alpha virt. eigenvalues --    5.20222   5.22064   5.22789   5.24545   5.25285
 Alpha virt. eigenvalues --    5.26593   5.29883   5.31392   5.32166   5.36126
 Alpha virt. eigenvalues --    5.40613   5.41099   5.44648   5.46040   5.47570
 Alpha virt. eigenvalues --    5.55330   5.56017   5.57645   5.59372   5.61878
 Alpha virt. eigenvalues --    5.64273   5.68319   5.76937   5.97730   6.75764
 Alpha virt. eigenvalues --    6.77750   6.78015   6.79578   6.80383   6.81505
 Alpha virt. eigenvalues --    6.82586   6.84298   6.84818   6.85547   6.86143
 Alpha virt. eigenvalues --    6.87390   6.87543   6.89510   6.90908   6.92688
 Alpha virt. eigenvalues --    6.93606   6.95930   6.96474   6.97111   6.98991
 Alpha virt. eigenvalues --    7.00073   7.01574   7.03107   7.04680   7.05589
 Alpha virt. eigenvalues --    7.06431   7.06995   7.18085   7.20649   7.22262
 Alpha virt. eigenvalues --    7.24105   7.28936   7.29092   7.31942   7.36766
 Alpha virt. eigenvalues --    7.39018   7.40036   7.43428   7.46070   7.73621
 Alpha virt. eigenvalues --    8.60278  14.31300  14.35647  14.43375  17.76928
 Alpha virt. eigenvalues --   17.79448  17.82885  23.84425  23.93401  23.99028
 Alpha virt. eigenvalues --   24.00220  24.04960  24.07891  24.11499  24.12300
 Alpha virt. eigenvalues --   24.24750  35.70609  50.04306  50.05086  50.06179
 Alpha virt. eigenvalues --   50.10292  50.12248  50.13099  50.14876  50.19644
 Alpha virt. eigenvalues --  163.99151 189.91683
          Condensed to atoms (all electrons):
               1          2          3          4          5          6
     1  C   11.097277  -4.250511   2.699871  -0.783126  -2.205354  -0.012685
     2  C   -4.250511  11.175305  -3.828196   1.941096   0.502258   0.026163
     3  C    2.699871  -3.828196  12.103003  -2.384994  -1.664033   0.271240
     4  C   -0.783126   1.941096  -2.384994  14.556329  -7.104266   0.043634
     5  C   -2.205354   0.502258  -1.664033  -7.104266  16.442767   0.013369
     6  H   -0.012685   0.026163   0.271240   0.043634   0.013369   0.501554
     7  H    0.336284   0.032994  -0.011764   0.027358  -0.011340  -0.000206
     8  H    0.025662   0.345631  -0.013652  -0.011248  -0.007219  -0.003893
     9  H    0.017646  -0.010659   0.002941   0.048279   0.344227  -0.000121
    10  C   -0.126901  -0.342231  -0.354258  -1.223081   1.200721   0.001829
    11  H   -0.005469   0.005052  -0.018273  -0.079048   0.068954   0.000707
    12  H    0.010354  -0.003200   0.035381   0.108463  -0.152417   0.000471
    13  H    0.005340  -0.007086  -0.049108  -0.251290   0.196169   0.000071
    14  N   -0.203627   0.431963  -0.351577   0.408233  -0.454562   0.000955
    15  C    0.248161  -0.262187   0.045334  -0.352947  -0.242380   0.000434
    16  H    0.008571   0.004614  -0.000383  -0.014823   0.016730   0.000000
    17  H   -0.055457   0.020811  -0.021000   0.020717   0.042338  -0.000001
    18  C   -0.356752   0.128871  -0.088758  -0.074265   0.196216  -0.000172
    19  H   -0.019549   0.017529  -0.005248  -0.001938   0.000678   0.000001
    20  H    0.003894  -0.004818   0.000331   0.002996   0.002392   0.000000
    21  C    0.095101  -0.068812   0.041365  -0.016870  -0.021696   0.000145
    22  H    0.009529   0.002011  -0.001083  -0.001110  -0.003548  -0.000000
    23  H   -0.001373   0.001256  -0.000058  -0.001034  -0.000916  -0.000000
    24  S    0.029518  -0.037156  -0.019711   0.126587  -0.258704  -0.000346
    25  O   -0.018617   0.012782  -0.000579   0.015881   0.005207  -0.000003
    26  O    0.059128  -0.038167   0.014280  -0.016898   0.002173   0.000000
    27  O   -0.134058   0.180536  -0.105514   0.016692   0.119421   0.000432
    28  P    0.001457   0.022293  -0.084251   0.151348  -0.159849  -0.000647
    29  O   -0.068054   0.062423  -0.064330  -0.012545   0.216475   0.000010
    30  O   -0.006247   0.001616   0.040833   0.005135  -0.018987   0.000005
    31  H    0.000612  -0.001580  -0.004582  -0.000902   0.005254   0.000005
    32  O    0.049793  -0.054696   0.183755  -0.160988  -0.101151   0.000343
    33  H    0.059561  -0.067881   0.120859  -0.013220  -0.011741  -0.001018
    34  O    0.015516  -0.008645  -0.002307   0.018616  -0.014976   0.000017
    35  H    0.000804  -0.000775   0.000179  -0.001798   0.000171  -0.000001
    36  O   -0.047997   0.059860  -0.001448  -0.002954   0.008356   0.000043
    37  H    0.011943  -0.010179  -0.001246  -0.001713   0.002054  -0.000002
    38  H   -0.069775   0.063448  -0.026741   0.029918  -0.021371   0.000012
               7          8          9         10         11         12
     1  C    0.336284   0.025662   0.017646  -0.126901  -0.005469   0.010354
     2  C    0.032994   0.345631  -0.010659  -0.342231   0.005052  -0.003200
     3  C   -0.011764  -0.013652   0.002941  -0.354258  -0.018273   0.035381
     4  C    0.027358  -0.011248   0.048279  -1.223081  -0.079048   0.108463
     5  C   -0.011340  -0.007219   0.344227   1.200721   0.068954  -0.152417
     6  H   -0.000206  -0.003893  -0.000121   0.001829   0.000707   0.000471
     7  H    0.437991  -0.002309  -0.000114   0.001800  -0.000002  -0.000007
     8  H   -0.002309   0.462771   0.000027   0.002451   0.000004  -0.000003
     9  H   -0.000114   0.000027   0.458793  -0.016376  -0.000251   0.000244
    10  C    0.001800   0.002451  -0.016376   6.585335   0.388305   0.366103
    11  H   -0.000002   0.000004  -0.000251   0.388305   0.504547  -0.028961
    12  H   -0.000007  -0.000003   0.000244   0.366103  -0.028961   0.460965
    13  H   -0.000005   0.000009   0.004650   0.456578  -0.019496  -0.021138
    14  N   -0.037069   0.009340  -0.046910  -0.133591  -0.001359   0.001698
    15  C   -0.008970   0.002232   0.002413   0.012398   0.000078  -0.000650
    16  H    0.000646  -0.000014   0.000640  -0.002831  -0.000003   0.000003
    17  H    0.000163   0.000007   0.005064   0.004489  -0.000003  -0.000017
    18  C    0.007461   0.001166   0.000016   0.013904  -0.000148  -0.000617
    19  H    0.005737   0.000011   0.000027   0.000126   0.000000   0.000000
    20  H   -0.000450  -0.000001  -0.000028  -0.000004   0.000000   0.000000
    21  C    0.005420  -0.000007  -0.003570   0.014375  -0.000014   0.000219
    22  H    0.000014  -0.000001   0.000059  -0.000332   0.000000  -0.000002
    23  H    0.000010   0.000000   0.000006  -0.000022   0.000000   0.000000
    24  S    0.015242   0.000007   0.002607  -0.020154  -0.000079   0.000265
    25  O    0.000618  -0.000004   0.000035   0.000335  -0.000000  -0.000026
    26  O   -0.006845   0.000110  -0.000013  -0.000577   0.000000   0.000002
    27  O   -0.021152  -0.001365   0.000044   0.017589  -0.000005  -0.000396
    28  P    0.000171  -0.000049   0.006209  -0.033178   0.001384  -0.003651
    29  O    0.000251  -0.000019  -0.020465   0.018140  -0.000264  -0.000386
    30  O    0.000000   0.000000  -0.000254  -0.014995   0.000233   0.000645
    31  H    0.000000  -0.000000   0.000056  -0.000022  -0.000016  -0.000115
    32  O   -0.000491   0.000141  -0.000759  -0.024706   0.000437   0.006213
    33  H    0.000155  -0.000226  -0.000153  -0.029745   0.000043  -0.000129
    34  O   -0.000025  -0.000001   0.000072   0.003745  -0.000008  -0.000148
    35  H    0.000003   0.000001  -0.000021   0.000058  -0.000000   0.000005
    36  O   -0.002537  -0.001863  -0.000009  -0.002129   0.000001   0.000003
    37  H   -0.000315   0.000197  -0.000000  -0.000080  -0.000000   0.000000
    38  H    0.002945   0.000453   0.000013   0.002449  -0.000001  -0.000008
              13         14         15         16         17         18
     1  C    0.005340  -0.203627   0.248161   0.008571  -0.055457  -0.356752
     2  C   -0.007086   0.431963  -0.262187   0.004614   0.020811   0.128871
     3  C   -0.049108  -0.351577   0.045334  -0.000383  -0.021000  -0.088758
     4  C   -0.251290   0.408233  -0.352947  -0.014823   0.020717  -0.074265
     5  C    0.196169  -0.454562  -0.242380   0.016730   0.042338   0.196216
     6  H    0.000071   0.000955   0.000434   0.000000  -0.000001  -0.000172
     7  H   -0.000005  -0.037069  -0.008970   0.000646   0.000163   0.007461
     8  H    0.000009   0.009340   0.002232  -0.000014   0.000007   0.001166
     9  H    0.004650  -0.046910   0.002413   0.000640   0.005064   0.000016
    10  C    0.456578  -0.133591   0.012398  -0.002831   0.004489   0.013904
    11  H   -0.019496  -0.001359   0.000078  -0.000003  -0.000003  -0.000148
    12  H   -0.021138   0.001698  -0.000650   0.000003  -0.000017  -0.000617
    13  H    0.496032   0.005024   0.009149   0.000001  -0.000012  -0.000090
    14  N    0.005024   6.710170   0.116281  -0.056368  -0.060431   0.081931
    15  C    0.009149   0.116281   7.077605   0.418045   0.412850  -0.831259
    16  H    0.000001  -0.056368   0.418045   0.501575  -0.025792  -0.052940
    17  H   -0.000012  -0.060431   0.412850  -0.025792   0.440824  -0.012863
    18  C   -0.000090   0.081931  -0.831259  -0.052940  -0.012863   7.067661
    19  H    0.000000  -0.009648  -0.057882  -0.001652   0.003692   0.449621
    20  H    0.000000   0.004278  -0.000273  -0.006791  -0.001670   0.393288
    21  C    0.000050  -0.010180  -0.124556   0.016214  -0.024585  -0.543202
    22  H    0.000000   0.000245  -0.042041   0.000425   0.003580  -0.032823
    23  H    0.000000  -0.000188   0.018776  -0.000156   0.000254  -0.019569
    24  S    0.000119   0.077143  -0.018567   0.001828   0.016645  -0.136210
    25  O   -0.000005  -0.019977  -0.051336   0.000003   0.000672   0.046681
    26  O    0.000001   0.002890   0.092988  -0.000077  -0.000482  -0.091597
    27  O   -0.000052  -0.146209  -0.038764   0.000653  -0.000306  -0.017871
    28  P   -0.002261   0.033147   0.024834  -0.000299  -0.004852   0.038456
    29  O   -0.001010  -0.019702  -0.108438   0.001398   0.012102  -0.030728
    30  O    0.000195  -0.001286   0.002691  -0.000008  -0.000152   0.001048
    31  H    0.000073   0.000163   0.000212  -0.000000  -0.000008   0.000345
    32  O    0.000536  -0.010291   0.046293   0.000060  -0.001102  -0.051448
    33  H    0.000006   0.025657   0.012886  -0.000095   0.000071   0.022995
    34  O   -0.000044  -0.000210  -0.001165   0.000001   0.000101  -0.002743
    35  H    0.000001   0.001113  -0.002315   0.000001   0.000026   0.001175
    36  O    0.000001  -0.010523  -0.012156   0.000121   0.000082   0.004273
    37  H    0.000000   0.000291   0.001763  -0.000004   0.000002  -0.001096
    38  H   -0.000001   0.012405  -0.009022  -0.000016   0.000010  -0.000395
              19         20         21         22         23         24
     1  C   -0.019549   0.003894   0.095101   0.009529  -0.001373   0.029518
     2  C    0.017529  -0.004818  -0.068812   0.002011   0.001256  -0.037156
     3  C   -0.005248   0.000331   0.041365  -0.001083  -0.000058  -0.019711
     4  C   -0.001938   0.002996  -0.016870  -0.001110  -0.001034   0.126587
     5  C    0.000678   0.002392  -0.021696  -0.003548  -0.000916  -0.258704
     6  H    0.000001   0.000000   0.000145  -0.000000  -0.000000  -0.000346
     7  H    0.005737  -0.000450   0.005420   0.000014   0.000010   0.015242
     8  H    0.000011  -0.000001  -0.000007  -0.000001   0.000000   0.000007
     9  H    0.000027  -0.000028  -0.003570   0.000059   0.000006   0.002607
    10  C    0.000126  -0.000004   0.014375  -0.000332  -0.000022  -0.020154
    11  H    0.000000   0.000000  -0.000014   0.000000   0.000000  -0.000079
    12  H    0.000000   0.000000   0.000219  -0.000002   0.000000   0.000265
    13  H    0.000000   0.000000   0.000050   0.000000   0.000000   0.000119
    14  N   -0.009648   0.004278  -0.010180   0.000245  -0.000188   0.077143
    15  C   -0.057882  -0.000273  -0.124556  -0.042041   0.018776  -0.018567
    16  H   -0.001652  -0.006791   0.016214   0.000425  -0.000156   0.001828
    17  H    0.003692  -0.001670  -0.024585   0.003580   0.000254   0.016645
    18  C    0.449621   0.393288  -0.543202  -0.032823  -0.019569  -0.136210
    19  H    0.470015  -0.027922  -0.021453   0.002117  -0.000155   0.002680
    20  H   -0.027922   0.505457  -0.052745   0.000240  -0.008466   0.013048
    21  C   -0.021453  -0.052745   7.141041   0.425477   0.373243  -0.650154
    22  H    0.002117   0.000240   0.425477   0.434056  -0.026183  -0.020173
    23  H   -0.000155  -0.008466   0.373243  -0.026183   0.476469  -0.032063
    24  S    0.002680   0.013048  -0.650154  -0.020173  -0.032063  15.590032
    25  O   -0.000082  -0.000334  -0.079078   0.016740   0.002896   0.232790
    26  O    0.003654  -0.000951   0.017090  -0.007905   0.007090   0.075742
    27  O   -0.000023   0.000559   0.007308  -0.001382  -0.000081  -0.095478
    28  P    0.000070  -0.000603   0.029538   0.002329   0.001672  -0.079644
    29  O   -0.000203   0.000359  -0.002601  -0.000498   0.000413   0.096905
    30  O    0.000001  -0.000004   0.006504  -0.000170   0.000011  -0.015712
    31  H   -0.000000   0.000000  -0.000282   0.000007  -0.000000  -0.001222
    32  O    0.000100   0.000050   0.025100  -0.000172   0.000000  -0.038491
    33  H    0.000195  -0.000073  -0.041987  -0.000456   0.000157   0.053488
    34  O   -0.000001   0.000026  -0.029910   0.001798  -0.000187   0.045246
    35  H   -0.000019  -0.000000  -0.000391  -0.001091   0.000133   0.032395
    36  O    0.001680  -0.000041  -0.038402  -0.000019   0.000319  -0.002530
    37  H   -0.000149   0.000020  -0.008445   0.000005   0.000036   0.006275
    38  H   -0.001687   0.000069   0.027237   0.000098  -0.000343   0.022444
              25         26         27         28         29         30
     1  C   -0.018617   0.059128  -0.134058   0.001457  -0.068054  -0.006247
     2  C    0.012782  -0.038167   0.180536   0.022293   0.062423   0.001616
     3  C   -0.000579   0.014280  -0.105514  -0.084251  -0.064330   0.040833
     4  C    0.015881  -0.016898   0.016692   0.151348  -0.012545   0.005135
     5  C    0.005207   0.002173   0.119421  -0.159849   0.216475  -0.018987
     6  H   -0.000003   0.000000   0.000432  -0.000647   0.000010   0.000005
     7  H    0.000618  -0.006845  -0.021152   0.000171   0.000251   0.000000
     8  H   -0.000004   0.000110  -0.001365  -0.000049  -0.000019   0.000000
     9  H    0.000035  -0.000013   0.000044   0.006209  -0.020465  -0.000254
    10  C    0.000335  -0.000577   0.017589  -0.033178   0.018140  -0.014995
    11  H   -0.000000   0.000000  -0.000005   0.001384  -0.000264   0.000233
    12  H   -0.000026   0.000002  -0.000396  -0.003651  -0.000386   0.000645
    13  H   -0.000005   0.000001  -0.000052  -0.002261  -0.001010   0.000195
    14  N   -0.019977   0.002890  -0.146209   0.033147  -0.019702  -0.001286
    15  C   -0.051336   0.092988  -0.038764   0.024834  -0.108438   0.002691
    16  H    0.000003  -0.000077   0.000653  -0.000299   0.001398  -0.000008
    17  H    0.000672  -0.000482  -0.000306  -0.004852   0.012102  -0.000152
    18  C    0.046681  -0.091597  -0.017871   0.038456  -0.030728   0.001048
    19  H   -0.000082   0.003654  -0.000023   0.000070  -0.000203   0.000001
    20  H   -0.000334  -0.000951   0.000559  -0.000603   0.000359  -0.000004
    21  C   -0.079078   0.017090   0.007308   0.029538  -0.002601   0.006504
    22  H    0.016740  -0.007905  -0.001382   0.002329  -0.000498  -0.000170
    23  H    0.002896   0.007090  -0.000081   0.001672   0.000413   0.000011
    24  S    0.232790   0.075742  -0.095478  -0.079644   0.096905  -0.015712
    25  O    8.443390  -0.228385   0.046404   0.060678  -0.040327   0.003306
    26  O   -0.228385   8.715841  -0.014954   0.004302   0.002741  -0.000032
    27  O    0.046404  -0.014954   8.794272   0.015782  -0.002832  -0.001483
    28  P    0.060678   0.004302   0.015782  12.669283   0.375222   0.230776
    29  O   -0.040327   0.002741  -0.002832   0.375222   8.407577  -0.021332
    30  O    0.003306  -0.000032  -0.001483   0.230776  -0.021332   7.971024
    31  H    0.000939  -0.000022   0.000534  -0.019651  -0.013872   0.252767
    32  O    0.003747  -0.001106   0.029955   0.272276  -0.053581   0.018218
    33  H   -0.003393   0.007184   0.001696   0.020610  -0.028957   0.005988
    34  O   -0.044609   0.001061  -0.007087   0.202240   0.000473  -0.049619
    35  H    0.047926   0.002649  -0.002029   0.030366   0.007874   0.004490
    36  O   -0.001711   0.007541   0.030134   0.002153   0.000003   0.000025
    37  H   -0.000422   0.012890   0.007242  -0.000029   0.000006  -0.000000
    38  H    0.003464  -0.034444   0.014461  -0.002473   0.000146  -0.000048
              31         32         33         34         35         36
     1  C    0.000612   0.049793   0.059561   0.015516   0.000804  -0.047997
     2  C   -0.001580  -0.054696  -0.067881  -0.008645  -0.000775   0.059860
     3  C   -0.004582   0.183755   0.120859  -0.002307   0.000179  -0.001448
     4  C   -0.000902  -0.160988  -0.013220   0.018616  -0.001798  -0.002954
     5  C    0.005254  -0.101151  -0.011741  -0.014976   0.000171   0.008356
     6  H    0.000005   0.000343  -0.001018   0.000017  -0.000001   0.000043
     7  H    0.000000  -0.000491   0.000155  -0.000025   0.000003  -0.002537
     8  H   -0.000000   0.000141  -0.000226  -0.000001   0.000001  -0.001863
     9  H    0.000056  -0.000759  -0.000153   0.000072  -0.000021  -0.000009
    10  C   -0.000022  -0.024706  -0.029745   0.003745   0.000058  -0.002129
    11  H   -0.000016   0.000437   0.000043  -0.000008  -0.000000   0.000001
    12  H   -0.000115   0.006213  -0.000129  -0.000148   0.000005   0.000003
    13  H    0.000073   0.000536   0.000006  -0.000044   0.000001   0.000001
    14  N    0.000163  -0.010291   0.025657  -0.000210   0.001113  -0.010523
    15  C    0.000212   0.046293   0.012886  -0.001165  -0.002315  -0.012156
    16  H   -0.000000   0.000060  -0.000095   0.000001   0.000001   0.000121
    17  H   -0.000008  -0.001102   0.000071   0.000101   0.000026   0.000082
    18  C    0.000345  -0.051448   0.022995  -0.002743   0.001175   0.004273
    19  H   -0.000000   0.000100   0.000195  -0.000001  -0.000019   0.001680
    20  H    0.000000   0.000050  -0.000073   0.000026  -0.000000  -0.000041
    21  C   -0.000282   0.025100  -0.041987  -0.029910  -0.000391  -0.038402
    22  H    0.000007  -0.000172  -0.000456   0.001798  -0.001091  -0.000019
    23  H   -0.000000   0.000000   0.000157  -0.000187   0.000133   0.000319
    24  S   -0.001222  -0.038491   0.053488   0.045246   0.032395  -0.002530
    25  O    0.000939   0.003747  -0.003393  -0.044609   0.047926  -0.001711
    26  O   -0.000022  -0.001106   0.007184   0.001061   0.002649   0.007541
    27  O    0.000534   0.029955   0.001696  -0.007087  -0.002029   0.030134
    28  P   -0.019651   0.272276   0.020610   0.202240   0.030366   0.002153
    29  O   -0.013872  -0.053581  -0.028957   0.000473   0.007874   0.000003
    30  O    0.252767   0.018218   0.005988  -0.049619   0.004490   0.000025
    31  H    0.465952  -0.001042   0.002014   0.003500  -0.000210   0.000000
    32  O   -0.001042   8.244703   0.143377   0.027449  -0.008517   0.001113
    33  H    0.002014   0.143377   0.393408  -0.005153   0.004151  -0.001022
    34  O    0.003500   0.027449  -0.005153   8.130460   0.229548  -0.000264
    35  H   -0.000210  -0.008517   0.004151   0.229548   0.255164   0.000076
    36  O    0.000000   0.001113  -0.001022  -0.000264   0.000076   8.026053
    37  H   -0.000000  -0.000086   0.000300   0.000006  -0.000003   0.297305
    38  H   -0.000000  -0.001025  -0.000873   0.000414  -0.000122   0.249506
              37         38
     1  C    0.011943  -0.069775
     2  C   -0.010179   0.063448
     3  C   -0.001246  -0.026741
     4  C   -0.001713   0.029918
     5  C    0.002054  -0.021371
     6  H   -0.000002   0.000012
     7  H   -0.000315   0.002945
     8  H    0.000197   0.000453
     9  H   -0.000000   0.000013
    10  C   -0.000080   0.002449
    11  H   -0.000000  -0.000001
    12  H    0.000000  -0.000008
    13  H    0.000000  -0.000001
    14  N    0.000291   0.012405
    15  C    0.001763  -0.009022
    16  H   -0.000004  -0.000016
    17  H    0.000002   0.000010
    18  C   -0.001096  -0.000395
    19  H   -0.000149  -0.001687
    20  H    0.000020   0.000069
    21  C   -0.008445   0.027237
    22  H    0.000005   0.000098
    23  H    0.000036  -0.000343
    24  S    0.006275   0.022444
    25  O   -0.000422   0.003464
    26  O    0.012890  -0.034444
    27  O    0.007242   0.014461
    28  P   -0.000029  -0.002473
    29  O    0.000006   0.000146
    30  O   -0.000000  -0.000048
    31  H   -0.000000  -0.000000
    32  O   -0.000086  -0.001025
    33  H    0.000300  -0.000873
    34  O    0.000006   0.000414
    35  H   -0.000003  -0.000122
    36  O    0.297305   0.249506
    37  H    0.396995  -0.023811
    38  H   -0.023811   0.456624
 Mulliken charges:
               1
     1  C   -0.420471
     2  C   -0.041730
     3  C   -0.456279
     4  C    0.989775
     5  C   -0.931420
     6  H    0.157656
     7  H    0.228337
     8  H    0.191650
     9  H    0.205635
    10  C   -0.765519
    11  H    0.183652
    12  H    0.220839
    13  H    0.177592
    14  N    0.650780
    15  C   -0.380519
    16  H    0.190727
    17  H    0.224229
    18  C   -0.109561
    19  H    0.189677
    20  H    0.178170
    21  C   -0.486485
    22  H    0.240259
    23  H    0.208051
    24  S    0.985386
    25  O   -0.455606
    26  O   -0.586901
    27  O   -0.692674
    28  P    1.194842
    29  O   -0.712375
    30  O   -0.415181
    31  H    0.311094
    32  O   -0.544010
    33  H    0.331322
    34  O   -0.513184
    35  H    0.398988
    36  O   -0.563042
    37  H    0.310255
    38  H    0.306041
 Sum of Mulliken charges =  -0.00000
 Mulliken charges with hydrogens summed into heavy atoms:
               1
     1  C   -0.192134
     2  C    0.149920
     3  C   -0.298623
     4  C    0.989775
     5  C   -0.725785
    10  C   -0.183436
    14  N    0.650780
    15  C    0.034438
    18  C    0.258286
    21  C   -0.038176
    24  S    0.985386
    25  O   -0.455606
    26  O   -0.586901
    27  O   -0.692674
    28  P    1.194842
    29  O   -0.712375
    30  O   -0.104087
    32  O   -0.212688
    34  O   -0.114197
    36  O    0.053253
         Mulliken charges condensed to fragments:
      1     -0.104749
      2      0.051496
      3      0.053253
 Electronic spatial extent (au):  <R**2>=         212733.7872
 Charge=             -0.0000 electrons
 Dipole moment (field-independent basis, Debye):
    X=             -3.8669    Y=             -3.3932    Z=             -6.3746  Tot=              8.1916
 Quadrupole moment (field-independent basis, Debye-Ang):
   XX=           -198.8011   YY=           -222.1193   ZZ=           -263.6655
   XY=            -90.6390   XZ=           -110.7561   YZ=            -95.0763
 Traceless Quadrupole moment (field-independent basis, Debye-Ang):
   XX=             29.3942   YY=              6.0760   ZZ=            -35.4702
   XY=            -90.6390   XZ=           -110.7561   YZ=            -95.0763
 Octapole moment (field-independent basis, Debye-Ang**2):
  XXX=          -5050.0441  YYY=          -6050.0924  ZZZ=          -6063.6142  XYY=          -3087.1435
  XXY=          -2812.2791  XXZ=          -2806.0258  XZZ=          -3273.8115  YZZ=          -3056.2009
  YYZ=          -2830.4016  XYZ=          -1612.7136
 Hexadecapole moment (field-independent basis, Debye-Ang**3):
 XXXX=         -99721.7978 YYYY=        -126387.2682 ZZZZ=        -112483.1695 XXXY=         -63071.4099
 XXXZ=         -59860.8667 YYYX=         -73421.9222 YYYZ=         -66942.0851 ZZZX=         -69730.6129
 ZZZY=         -67352.4884 XXYY=         -55018.7375 XXZZ=         -52196.9564 YYZZ=         -51827.6703
 XXYZ=         -36345.9987 YYXZ=         -38043.2124 ZZXY=         -39010.4457
 N-N= 2.296104751904D+03 E-N=-8.719607663201D+03  KE= 1.744680192250D+03
 No NMR shielding tensors so no spin-rotation constants.
 Leave Link  601 at Mon May 16 08:33:51 2022, MaxMem=  2684354560 cpu:               3.4 elap:               0.3
 (Enter /data0/hywu0/study/g16/l122.exe)
 CPIOFr:  IOpCl= 0 IRwI=-1 IRwCP=  731 ICalc= -1 LCPTot=      675091 Len1MO=     1777222 IndFrg=      675091
 CPIOFr:  IOpCl= 0 IRwI=-1 IRwCP=  731 ICalc=  0 LCPTot=      675091 Len1MO=     1777222 IndFrg=     2452313
 Counterpoise: doing calculation for fragment   1 using the basis set of the full-system, NewBq=T
 Leave Link  122 at Mon May 16 08:33:51 2022, MaxMem=  2684354560 cpu:               0.4 elap:               0.0
 (Enter /data0/hywu0/study/g16/l301.exe)
 Basis read from rwf:  (5D, 7F)
 No pseudopotential information found on rwf file.
   664 basis functions,  1012 primitive gaussians,   704 cartesian basis functions
    57 alpha electrons       57 beta electrons
       nuclear repulsion energy      1086.1484321433 Hartrees.
 IExCor= 4336 DFT=T Ex+Corr=M062X ExCW=0 ScaHFX=  0.540000
 ScaDFX=  1.000000  1.000000  1.000000  1.000000 ScalE2=  1.000000  1.000000
 IRadAn=      5 IRanWt=     -1 IRanGd=            0 ICorTp=0 IEmpDi=131
 NAtoms=   38 NActive=   38 NUniq=   38 SFac= 1.00D+00 NAtFMM=   60 NAOKFM=F Big=F
 Integral buffers will be    131072 words long.
 Raffenetti 2 integral format.
 Two-electron integral symmetry is turned off.
 R6Disp:  Grimme-D3 Dispersion energy=       -0.0014144947 Hartrees.
 Nuclear repulsion after empirical dispersion term =     1086.1470176486 Hartrees.
 No density basis found on file   718.
 Leave Link  301 at Mon May 16 08:33:51 2022, MaxMem=  2684354560 cpu:               0.9 elap:               0.1
 (Enter /data0/hywu0/study/g16/l302.exe)
 NPDir=0 NMtPBC=     1 NCelOv=     1 NCel=       1 NClECP=     1 NCelD=      1
         NCelK=      1 NCelE2=     1 NClLst=     1 CellRange=     0.0.
 One-electron integrals computed using PRISM.
 NBasis=   664 RedAO= T EigKep=  1.87D-06  NBF=   664
 NBsUse=   664 1.00D-06 EigRej= -1.00D+00 NBFU=   664
 Precomputing XC quadrature grid using
 IXCGrd= 4 IRadAn=           5 IRanWt=          -1 IRanGd=           0 AccXCQ= 0.00D+00.
 Generated NRdTot=       0 NPtTot=           0 NUsed=           0 NTot=          32
 NSgBfM=   704   704   704   704   704 MxSgAt=    38 MxSgA2=    38.
 Leave Link  302 at Mon May 16 08:33:52 2022, MaxMem=  2684354560 cpu:              13.1 elap:               0.8
 (Enter /data0/hywu0/study/g16/l303.exe)
 DipDrv:  MaxL=1.
 Leave Link  303 at Mon May 16 08:33:52 2022, MaxMem=  2684354560 cpu:               1.3 elap:               0.1
 (Enter /data0/hywu0/study/g16/l401.exe)
 ExpMin= 3.48D-02 ExpMax= 9.34D+04 ExpMxC= 3.17D+03 IAcc=3 IRadAn=         5 AccDes= 0.00D+00
 Harris functional with IExCor= 1009 and IRadAn=       5 diagonalized for initial guess.
 HarFok:  IExCor= 1009 AccDes= 0.00D+00 IRadAn=         5 IDoV= 1 UseB2=F ITyADJ=14
 ICtDFT=  3500011 ScaDFX=  1.000000  1.000000  1.000000  1.000000
 FoFCou: FMM=F IPFlag=           0 FMFlag=      100000 FMFlg1=           0
         NFxFlg=           0 DoJE=T BraDBF=F KetDBF=T FulRan=T
         wScrn=  0.000000 ICntrl=       500 IOpCl=  0 I1Cent=   200000004 NGrid=           0
         NMat0=    1 NMatS0=      1 NMatT0=    0 NMatD0=    1 NMtDS0=    0 NMtDT0=    0
 Symmetry not used in FoFCou.
 Harris En= -1028.88613908092    
 JPrj=0 DoOrth=F DoCkMO=F.
 Leave Link  401 at Mon May 16 08:33:56 2022, MaxMem=  2684354560 cpu:              62.5 elap:               3.9
 (Enter /data0/hywu0/study/g16/l502.exe)
 Two-electron integral symmetry not used.
 Closed shell SCF:
 Using DIIS extrapolation, IDIIS=  1040.
 NGot=  2684354560 LenX=  2683347194 LenY=  2682850874
 Requested convergence on RMS density matrix=1.00D-08 within 128 cycles.
 Requested convergence on MAX density matrix=1.00D-06.
 Requested convergence on             energy=1.00D-06.
 No special actions if energy rises.
 Fock matrices will be formed incrementally for  20 cycles.

 Cycle   1  Pass 1  IDiag  1:
 FoFJK:  IHMeth= 1 ICntrl=       0 DoSepK=F KAlg= 0 I1Cent=           0 FoldK=F
 IRaf= 850000000 NMat=       1 IRICut=       1 DoRegI=T DoRafI=F ISym2E= 0 IDoP0=0 IntGTp=1.
 FoFCou: FMM=F IPFlag=           0 FMFlag=      100000 FMFlg1=           0
         NFxFlg=           0 DoJE=F BraDBF=F KetDBF=F FulRan=T
         wScrn=  0.000000 ICntrl=         0 IOpCl=  0 I1Cent=           0 NGrid=           0
         NMat0=    1 NMatS0=      1 NMatT0=    0 NMatD0=    1 NMtDS0=    0 NMtDT0=    0
 Symmetry not used in FoFCou.
 E= -1028.73831090217    
 DIIS: error= 1.17D-02 at cycle   1 NSaved=   1.
 NSaved= 1 IEnMin= 1 EnMin= -1028.73831090217     IErMin= 1 ErrMin= 1.17D-02
 ErrMax= 1.17D-02  0.00D+00 EMaxC= 1.00D-01 BMatC= 7.85D-01 BMatP= 7.85D-01
[...]
    X=              3.7831    Y=              3.7681    Z=              0.8253  Tot=              5.4029
 Quadrupole moment (field-independent basis, Debye-Ang):
   XX=             47.9557   YY=             39.5610   ZZ=            -17.7190
   XY=             74.6100   XZ=             52.9980   YZ=             50.1326
 Traceless Quadrupole moment (field-independent basis, Debye-Ang):
   XX=             24.6898   YY=             16.2951   ZZ=            -40.9849
   XY=             74.6100   XZ=             52.9980   YZ=             50.1326
 Octapole moment (field-independent basis, Debye-Ang**2):
  XXX=            158.1917  YYY=            186.9037  ZZZ=           -925.6441  XYY=            714.2297
  XXY=            864.2434  XXZ=            667.5840  XZZ=            290.5239  YZZ=            336.5022
  YYZ=            515.4069  XYZ=            936.0038
 Hexadecapole moment (field-independent basis, Debye-Ang**3):
 XXXX=          -7923.9696 YYYY=          -1653.6419 ZZZZ=         -23661.1208 XXXY=           5973.1940
 XXXZ=           3312.9087 YYYX=           4309.0112 YYYZ=           2724.7259 ZZZX=          -5098.7685
 ZZZY=          -2433.7261 XXYY=           7952.5958 XXZZ=           3961.4355 YYZZ=           3829.1829
 XXYZ=          10894.6707 YYXZ=           8906.2664 ZZXY=           7949.2071
 N-N= 2.798332706390D+02 E-N=-2.087315320193D+03  KE= 6.424933032209D+02
 No NMR shielding tensors so no spin-rotation constants.
 Leave Link  601 at Mon May 16 08:46:48 2022, MaxMem=  2684354560 cpu:               1.1 elap:               0.1
 (Enter /data0/hywu0/study/g16/l122.exe)
 CPIOFr:  IOpCl= 0 IRwI=-1 IRwCP=  731 ICalc=  5 LCPTot=      675091 Len1MO=     1777222 IndFrg=    11338423
 Counterpoise: doing calculation for fragment   3 using the basis set of the fragment.
 Leave Link  122 at Mon May 16 08:46:48 2022, MaxMem=  2684354560 cpu:               0.2 elap:               0.0
 (Enter /data0/hywu0/study/g16/l301.exe)
 Basis read from rwf:  (5D, 7F)
 No pseudopotential information found on rwf file.
    39 basis functions,    58 primitive gaussians,    41 cartesian basis functions
     5 alpha electrons        5 beta electrons
       nuclear repulsion energy         9.0707623930 Hartrees.
 IExCor= 4336 DFT=T Ex+Corr=M062X ExCW=0 ScaHFX=  0.540000
 ScaDFX=  1.000000  1.000000  1.000000  1.000000 ScalE2=  1.000000  1.000000
 IRadAn=      5 IRanWt=     -1 IRanGd=            0 ICorTp=0 IEmpDi=131
 NAtoms=   38 NActive=    3 NUniq=    3 SFac= 1.00D+00 NAtFMM=   60 NAOKFM=F Big=F
 Integral buffers will be    131072 words long.
 Raffenetti 2 integral format.
 Two-electron integral symmetry is turned off.
 R6Disp:  Grimme-D3 Dispersion energy=       -0.0000000070 Hartrees.
 Nuclear repulsion after empirical dispersion term =        9.0707623861 Hartrees.
 No density basis found on file   718.
 Leave Link  301 at Mon May 16 08:46:49 2022, MaxMem=  2684354560 cpu:               0.8 elap:               0.1
 (Enter /data0/hywu0/study/g16/l302.exe)
 NPDir=0 NMtPBC=     1 NCelOv=     1 NCel=       1 NClECP=     1 NCelD=      1
         NCelK=      1 NCelE2=     1 NClLst=     1 CellRange=     0.0.
 One-electron integrals computed using PRISM.
 NBasis=    39 RedAO= T EigKep=  2.97D-03  NBF=    39
 NBsUse=    39 1.00D-06 EigRej= -1.00D+00 NBFU=    39
 Precomputing XC quadrature grid using
 IXCGrd= 4 IRadAn=           5 IRanWt=          -1 IRanGd=           0 AccXCQ= 0.00D+00.
 Generated NRdTot=       0 NPtTot=           0 NUsed=           0 NTot=          32
 NSgBfM=    41    41    41    41    41 MxSgAt=     3 MxSgA2=     3.
 Leave Link  302 at Mon May 16 08:46:49 2022, MaxMem=  2684354560 cpu:               1.3 elap:               0.1
 (Enter /data0/hywu0/study/g16/l303.exe)
 DipDrv:  MaxL=1.
 Leave Link  303 at Mon May 16 08:46:49 2022, MaxMem=  2684354560 cpu:               0.3 elap:               0.0
 (Enter /data0/hywu0/study/g16/l401.exe)
 ExpMin= 8.45D-02 ExpMax= 8.59D+03 ExpMxC= 1.30D+03 IAcc=3 IRadAn=         5 AccDes= 0.00D+00
 Harris functional with IExCor= 1009 and IRadAn=       5 diagonalized for initial guess.
 HarFok:  IExCor= 1009 AccDes= 0.00D+00 IRadAn=         5 IDoV= 1 UseB2=F ITyADJ=14
 ICtDFT=  3500011 ScaDFX=  1.000000  1.000000  1.000000  1.000000
 FoFCou: FMM=F IPFlag=           0 FMFlag=      100000 FMFlg1=           0
         NFxFlg=           0 DoJE=T BraDBF=F KetDBF=T FulRan=T
         wScrn=  0.000000 ICntrl=       500 IOpCl=  0 I1Cent=   200000004 NGrid=           0
         NMat0=    1 NMatS0=      1 NMatT0=    0 NMatD0=    1 NMtDS0=    0 NMtDT0=    0
 Symmetry not used in FoFCou.
 Harris En= -76.4157572467938    
 JPrj=0 DoOrth=F DoCkMO=F.
 Leave Link  401 at Mon May 16 08:46:49 2022, MaxMem=  2684354560 cpu:               1.8 elap:               0.1
 (Enter /data0/hywu0/study/g16/l502.exe)
 Keep R1 ints in memory in canonical form, NReq=14132587.
 FoFCou: FMM=F IPFlag=           0 FMFlag=           0 FMFlg1=           0
         NFxFlg=           0 DoJE=F BraDBF=F KetDBF=F FulRan=T
         wScrn=  0.000000 ICntrl=       600 IOpCl=  0 I1Cent=           0 NGrid=           0
         NMat0=    1 NMatS0=    780 NMatT0=    0 NMatD0=    1 NMtDS0=    0 NMtDT0=    0
 Symmetry not used in FoFCou.
 Two-electron integral symmetry not used.
 Closed shell SCF:
 Using DIIS extrapolation, IDIIS=  1040.
 NGot=  2684354560 LenX=  2684044397 LenY=  2684042275
 Requested convergence on RMS density matrix=1.00D-08 within 128 cycles.
 Requested convergence on MAX density matrix=1.00D-06.
 Requested convergence on             energy=1.00D-06.
 No special actions if energy rises.
 Integral accuracy reduced to 1.0D-05 until final iterations.

 Cycle   1  Pass 0  IDiag  1:
 E= -76.3468163826805    
 DIIS: error= 6.94D-02 at cycle   1 NSaved=   1.
 NSaved= 1 IEnMin= 1 EnMin= -76.3468163826805     IErMin= 1 ErrMin= 6.94D-02
 ErrMax= 6.94D-02  0.00D+00 EMaxC= 1.00D-01 BMatC= 1.19D-01 BMatP= 1.19D-01
 IDIUse=3 WtCom= 3.06D-01 WtEn= 6.94D-01
 Coeff-Com:  0.100D+01
 Coeff-En:   0.100D+01
 Coeff:      0.100D+01
 Gap=     0.324 Goal=   None    Shift=    0.000
 GapD=    0.324 DampG=1.000 DampE=0.500 DampFc=0.5000 IDamp=-1.
 Damping current iteration by 5.00D-01
 RMSDP=8.05D-03 MaxDP=9.99D-02              OVMax= 1.67D-01

 Cycle   2  Pass 0  IDiag  1:
 E= -76.3777922707782     Delta-E=       -0.030975888098 Rises=F Damp=T
 DIIS: error= 1.12D-02 at cycle   2 NSaved=   2.
 NSaved= 2 IEnMin= 2 EnMin= -76.3777922707782     IErMin= 2 ErrMin= 1.12D-02
 ErrMax= 1.12D-02  0.00D+00 EMaxC= 1.00D-01 BMatC= 4.88D-03 BMatP= 1.19D-01
 IDIUse=3 WtCom= 8.88D-01 WtEn= 1.12D-01
 Coeff-Com:  0.848D-01 0.915D+00
 Coeff-En:   0.191D+00 0.809D+00
 Coeff:      0.967D-01 0.903D+00
 Gap=     0.456 Goal=   None    Shift=    0.000
 RMSDP=9.62D-04 MaxDP=1.43D-02 DE=-3.10D-02 OVMax= 1.00D-01

 Cycle   3  Pass 0  IDiag  1:
 E= -76.4214242600240     Delta-E=       -0.043631989246 Rises=F Damp=F
 DIIS: error= 2.15D-03 at cycle   3 NSaved=   3.
 NSaved= 3 IEnMin= 3 EnMin= -76.4214242600240     IErMin= 3 ErrMin= 2.15D-03
 ErrMax= 2.15D-03  0.00D+00 EMaxC= 1.00D-01 BMatC= 9.00D-05 BMatP= 4.88D-03
 IDIUse=3 WtCom= 9.79D-01 WtEn= 2.15D-02
 Coeff-Com: -0.199D-01 0.388D-01 0.981D+00
 Coeff-En:   0.000D+00 0.000D+00 0.100D+01
 Coeff:     -0.195D-01 0.380D-01 0.981D+00
 Gap=     0.461 Goal=   None    Shift=    0.000
 RMSDP=1.14D-04 MaxDP=1.03D-03 DE=-4.36D-02 OVMax= 3.33D-03

 Cycle   4  Pass 0  IDiag  1:
 E= -76.4215013698965     Delta-E=       -0.000077109873 Rises=F Damp=F
 DIIS: error= 4.16D-04 at cycle   4 NSaved=   4.
 NSaved= 4 IEnMin= 4 EnMin= -76.4215013698965     IErMin= 4 ErrMin= 4.16D-04
 ErrMax= 4.16D-04  0.00D+00 EMaxC= 1.00D-01 BMatC= 3.25D-06 BMatP= 9.00D-05
 IDIUse=3 WtCom= 9.96D-01 WtEn= 4.16D-03
 Coeff-Com: -0.186D-02-0.237D-02 0.160D+00 0.844D+00
 Coeff-En:   0.000D+00 0.000D+00 0.000D+00 0.100D+01
 Coeff:     -0.185D-02-0.236D-02 0.159D+00 0.845D+00
 Gap=     0.461 Goal=   None    Shift=    0.000
 RMSDP=2.23D-05 MaxDP=3.57D-04 DE=-7.71D-05 OVMax= 5.44D-04

 Cycle   5  Pass 0  IDiag  1:
 E= -76.4215033986246     Delta-E=       -0.000002028728 Rises=F Damp=F
 DIIS: error= 8.88D-05 at cycle   5 NSaved=   5.
 NSaved= 5 IEnMin= 5 EnMin= -76.4215033986246     IErMin= 5 ErrMin= 8.88D-05
 ErrMax= 8.88D-05  0.00D+00 EMaxC= 1.00D-01 BMatC= 8.25D-08 BMatP= 3.25D-06
 IDIUse=1 WtCom= 1.00D+00 WtEn= 0.00D+00
 Coeff-Com:  0.119D-02-0.181D-02-0.373D-01-0.607D-01 0.110D+01
 Coeff:      0.119D-02-0.181D-02-0.373D-01-0.607D-01 0.110D+01
 Gap=     0.462 Goal=   None    Shift=    0.000
 RMSDP=9.07D-06 MaxDP=1.01D-04 DE=-2.03D-06 OVMax= 2.05D-04

 Initial convergence to 1.0D-05 achieved.  Increase integral accuracy.
 Cycle   6  Pass 1  IDiag  1:
 E= -76.4215084458626     Delta-E=       -0.000005047238 Rises=F Damp=F
 DIIS: error= 1.37D-05 at cycle   1 NSaved=   1.
 NSaved= 1 IEnMin= 1 EnMin= -76.4215084458626     IErMin= 1 ErrMin= 1.37D-05
 ErrMax= 1.37D-05  0.00D+00 EMaxC= 1.00D-01 BMatC= 1.37D-08 BMatP= 1.37D-08
 IDIUse=1 WtCom= 1.00D+00 WtEn= 0.00D+00
 Coeff-Com:  0.100D+01
 Coeff:      0.100D+01
 Gap=     0.461 Goal=   None    Shift=    0.000
 RMSDP=9.07D-06 MaxDP=1.01D-04 DE=-5.05D-06 OVMax= 4.12D-05

 Cycle   7  Pass 1  IDiag  1:
 E= -76.4215084569878     Delta-E=       -0.000000011125 Rises=F Damp=F
 DIIS: error= 9.24D-06 at cycle   2 NSaved=   2.
 NSaved= 2 IEnMin= 2 EnMin= -76.4215084569878     IErMin= 2 ErrMin= 9.24D-06
 ErrMax= 9.24D-06  0.00D+00 EMaxC= 1.00D-01 BMatC= 1.14D-09 BMatP= 1.37D-08
 IDIUse=1 WtCom= 1.00D+00 WtEn= 0.00D+00
 Coeff-Com:  0.701D-01 0.930D+00
 Coeff:      0.701D-01 0.930D+00
 Gap=     0.462 Goal=   None    Shift=    0.000
 RMSDP=7.03D-07 MaxDP=1.10D-05 DE=-1.11D-08 OVMax= 1.93D-05

 Cycle   8  Pass 1  IDiag  1:
 E= -76.4215084572196     Delta-E=       -0.000000000232 Rises=F Damp=F
 DIIS: error= 6.30D-06 at cycle   3 NSaved=   3.
 NSaved= 3 IEnMin= 3 EnMin= -76.4215084572196     IErMin= 3 ErrMin= 6.30D-06
 ErrMax= 6.30D-06  0.00D+00 EMaxC= 1.00D-01 BMatC= 1.04D-09 BMatP= 1.14D-09
 IDIUse=1 WtCom= 1.00D+00 WtEn= 0.00D+00
 Coeff-Com: -0.445D-01 0.499D+00 0.545D+00
 Coeff:     -0.445D-01 0.499D+00 0.545D+00
 Gap=     0.462 Goal=   None    Shift=    0.000
 RMSDP=3.68D-07 MaxDP=5.04D-06 DE=-2.32D-10 OVMax= 8.42D-06

 Cycle   9  Pass 1  IDiag  1:
 E= -76.4215084579031     Delta-E=       -0.000000000683 Rises=F Damp=F
 DIIS: error= 6.30D-07 at cycle   4 NSaved=   4.
 NSaved= 4 IEnMin= 4 EnMin= -76.4215084579031     IErMin= 4 ErrMin= 6.30D-07
 ErrMax= 6.30D-07  0.00D+00 EMaxC= 1.00D-01 BMatC= 4.19D-12 BMatP= 1.04D-09
 IDIUse=1 WtCom= 1.00D+00 WtEn= 0.00D+00
 Coeff-Com: -0.135D-02-0.350D-01 0.553D-02 0.103D+01
 Coeff:     -0.135D-02-0.350D-01 0.553D-02 0.103D+01
 Gap=     0.462 Goal=   None    Shift=    0.000
 RMSDP=5.90D-08 MaxDP=4.45D-07 DE=-6.83D-10 OVMax= 1.38D-06

 Cycle  10  Pass 1  IDiag  1:
 E= -76.4215084579095     Delta-E=       -0.000000000006 Rises=F Damp=F
 DIIS: error= 9.56D-08 at cycle   5 NSaved=   5.
 NSaved= 5 IEnMin= 5 EnMin= -76.4215084579095     IErMin= 5 ErrMin= 9.56D-08
 ErrMax= 9.56D-08  0.00D+00 EMaxC= 1.00D-01 BMatC= 2.76D-13 BMatP= 4.19D-12
 IDIUse=1 WtCom= 1.00D+00 WtEn= 0.00D+00
 Coeff-Com:  0.195D-02-0.317D-01-0.274D-01 0.175D+00 0.882D+00
 Coeff:      0.195D-02-0.317D-01-0.274D-01 0.175D+00 0.882D+00
 Gap=     0.462 Goal=   None    Shift=    0.000
 RMSDP=1.49D-08 MaxDP=1.30D-07 DE=-6.41D-12 OVMax= 3.48D-07

 Cycle  11  Pass 1  IDiag  1:
 E= -76.4215084579101     Delta-E=       -0.000000000001 Rises=F Damp=F
 DIIS: error= 1.50D-08 at cycle   6 NSaved=   6.
 NSaved= 6 IEnMin= 6 EnMin= -76.4215084579101     IErMin= 6 ErrMin= 1.50D-08
 ErrMax= 1.50D-08  0.00D+00 EMaxC= 1.00D-01 BMatC= 4.77D-15 BMatP= 2.76D-13
 IDIUse=1 WtCom= 1.00D+00 WtEn= 0.00D+00
 Coeff-Com:  0.158D-03-0.415D-03-0.202D-02-0.335D-01-0.240D-01 0.106D+01
 Coeff:      0.158D-03-0.415D-03-0.202D-02-0.335D-01-0.240D-01 0.106D+01
 Gap=     0.462 Goal=   None    Shift=    0.000
 RMSDP=3.45D-09 MaxDP=3.00D-08 DE=-5.83D-13 OVMax= 8.20D-08

 SCF Done:  E(RM062X) =  -76.4215084579     A.U. after   11 cycles
            NFock= 11  Conv=0.34D-08     -V/T= 2.0031
 KE= 7.618543790527D+01 PE=-1.989834634748D+02 EE= 3.730575472555D+01
 Leave Link  502 at Mon May 16 08:46:49 2022, MaxMem=  2684354560 cpu:               5.6 elap:               0.4
 (Enter /data0/hywu0/study/g16/l601.exe)
 Copying SCF densities to generalized density rwf, IOpCl= 0 IROHF=0.

 **********************************************************************

            Population analysis using the SCF density.

 **********************************************************************

 Alpha  occ. eigenvalues --  -19.62779  -1.13350  -0.60080  -0.47964  -0.40015
 Alpha virt. eigenvalues --    0.06136   0.13273   0.17450   0.17937   0.18867
 Alpha virt. eigenvalues --    0.23547   0.50583   0.53334   0.98361   1.00315
 Alpha virt. eigenvalues --    1.05972   1.16355   1.20419   1.31380   1.34188
 Alpha virt. eigenvalues --    1.71338   1.74437   1.74813   2.06710   2.10056
 Alpha virt. eigenvalues --    2.35080   2.39197   2.55438   2.86959   3.01173
 Alpha virt. eigenvalues --    5.05562   5.49683   5.88495   6.78719   6.79810
 Alpha virt. eigenvalues --    6.87232   6.92153   7.09462  49.95149
          Condensed to atoms (all electrons):
              36         37         38
    36  O    7.921606   0.314384   0.312886
    37  H    0.314384   0.434801  -0.022970
    38  H    0.312886  -0.022970   0.434992
 Mulliken charges:
               1
     1  C    0.000000
     2  C    0.000000
     3  C    0.000000
     4  C    0.000000
     5  C    0.000000
     6  H    0.000000
     7  H    0.000000
     8  H    0.000000
     9  H    0.000000
    10  C    0.000000
    11  H    0.000000
    12  H    0.000000
    13  H    0.000000
    14  N    0.000000
    15  C    0.000000
    16  H    0.000000
    17  H    0.000000
    18  C    0.000000
    19  H    0.000000
    20  H    0.000000
    21  C    0.000000
    22  H    0.000000
    23  H    0.000000
    24  S    0.000000
    25  O    0.000000
    26  O    0.000000
    27  O    0.000000
    28  P    0.000000
    29  O    0.000000
    30  O    0.000000
    31  H    0.000000
    32  O    0.000000
    33  H    0.000000
    34  O    0.000000
    35  H    0.000000
    36  O   -0.548876
    37  H    0.273785
    38  H    0.275092
 Sum of Mulliken charges =   0.00000
 Mulliken charges with hydrogens summed into heavy atoms:
               1
     1  C    0.000000
     2  C    0.000000
     3  C    0.000000
     4  C    0.000000
     5  C    0.000000
    10  C    0.000000
    14  N    0.000000
    15  C    0.000000
    18  C    0.000000
    21  C    0.000000
    24  S    0.000000
    25  O    0.000000
    26  O    0.000000
    27  O    0.000000
    28  P    0.000000
    29  O    0.000000
    30  O    0.000000
    32  O    0.000000
    34  O    0.000000
    36  O    0.000000
         Mulliken charges condensed to fragments:
      1      0.000000
      2      0.000000
      3      0.000000
 Electronic spatial extent (au):  <R**2>=          14562.0337
 Charge=              0.0000 electrons
 Dipole moment (field-independent basis, Debye):
    X=              0.0782    Y=             -0.2765    Z=              2.1419  Tot=              2.1611
 Quadrupole moment (field-independent basis, Debye-Ang):
   XX=             -5.7359   YY=            -12.6949   ZZ=             30.8652
   XY=             -2.8497   XZ=             24.7843   YZ=             28.5128
 Traceless Quadrupole moment (field-independent basis, Debye-Ang):
   XX=             -9.8807   YY=            -16.8397   ZZ=             26.7204
   XY=             -2.8497   XZ=             24.7843   YZ=             28.5128
 Octapole moment (field-independent basis, Debye-Ang**2):
  XXX=           -223.9796  YYY=           -375.9649  ZZZ=            321.3889  XYY=           -151.4473
  XXY=           -136.6941  XXZ=            222.0733  XZZ=            353.0359  YZZ=            425.4064
  YYZ=            337.2862  XYZ=            322.9315
 Hexadecapole moment (field-independent basis, Debye-Ang**3):
 XXXX=          -5285.2391 YYYY=          -9170.2253 ZZZZ=           2801.0715 XXXY=          -3935.0087
 XXXZ=           1128.3651 YYYX=          -4531.4946 YYYZ=           3232.7385 ZZZX=           3662.3304
 ZZZY=           4477.8696 XXYY=          -3347.0411 XXZZ=           3479.5641 YYZZ=           5515.9499
 XXYZ=           2731.7659 YYXZ=           3714.7975 ZZXY=           4799.9804
 N-N= 9.070762386062D+00 E-N=-1.989834634296D+02  KE= 7.618543790527D+01
 No NMR shielding tensors so no spin-rotation constants.
 Leave Link  601 at Mon May 16 08:46:49 2022, MaxMem=  2684354560 cpu:               1.0 elap:               0.1
 (Enter /data0/hywu0/study/g16/l122.exe)
 CPIOFr:  IOpCl= 0 IRwI=-1 IRwCP=  731 ICalc=  6 LCPTot=      675091 Len1MO=     1777222 IndFrg=    13115645
 Restoring MOs from calculation   1 to rwf.
 CPIOFr:  IOpCl= 0 IRwI=-2 IRwCP=  731 ICalc=  0 LCPTot=      675091 Len1MO=     1777222 IndFrg=     2452313
 Counterpoise corrected energy =   -1749.918238599998
                   BSSE energy =       0.005817368152
              sum of fragments =   -1749.812812813860
           complexation energy =     -69.81 kcal/mole (raw)
           complexation energy =     -66.16 kcal/mole (corrected)
 Leave Link  122 at Mon May 16 08:46:49 2022, MaxMem=  2684354560 cpu:               0.4 elap:               0.0
 (Enter /data0/hywu0/study/g16/l9999.exe)
 1\1\GINC-LOCALHOST\SP\RM062X\6-311+G(2d,p)\C9H18N1O8P1S1\HYWU0\16-May-
 2022\0\\#p M062X/6-311+G(2d,p) nosymm em=GD3 counterpoise=3\\Title Car
 d Required\\0,1\C,0,9.977465,11.749537,8.166783\C,0,11.117282,11.49661
 ,7.389534\C,0,11.547922,10.19652,7.192314\C,0,10.804848,9.13618,7.7378
 04\C,0,9.672547,9.424304,8.495859\H,0,12.464286,9.989296,6.637009\H,0,
 9.63752,12.788522,8.340403\H,0,11.673474,12.354095,6.991267\H,0,9.0835
 8,8.622034,8.96622\C,0,11.248377,7.731261,7.564135\H,0,11.470085,7.481
 835,6.518789\H,0,12.174807,7.554285,8.151022\H,0,10.52301,6.994715,7.9
 40054\N,0,9.289825,10.720533,8.721341\C,0,8.114261,10.94757,9.596817\H
 ,0,7.207059,10.934775,8.949523\H,0,8.029916,10.077731,10.304178\C,0,8.
 145921,12.243752,10.42776\H,0,8.469018,13.115581,9.819231\H,0,7.094307
 ,12.484788,10.703898\C,0,8.97326,12.124712,11.700145\H,0,8.97391,11.08
 7255,12.089903\H,0,8.523681,12.728134,12.511081\S,0,10.686427,12.67827
 8,11.505715\O,0,11.400826,12.104885,12.659682\O,0,10.625744,14.134838,
 11.365538\O,0,11.144066,12.063713,10.19198\P,0,11.493624,8.8588,11.385
 212\O,0,10.034529,8.80242,11.238856\O,0,12.107304,7.385295,11.307759\H
 ,0,13.109323,7.458661,11.540046\O,0,12.25034,9.595688,10.198666\H,0,11
 .902725,10.60572,10.147873\O,0,12.07916,9.417538,12.741428\H,0,11.8686
 71,10.463332,12.798073\O,0,11.278511,14.349077,8.545441\H,0,11.096075,
 14.986034,9.249119\H,0,11.506334,13.551712,9.059555\\Version=ES64L-G16
 RevA.03\HF=-76.4215085\RMSD=3.448e-09\Dipole=-1.5403263,-1.3242248,-2.
 4623707\Quadrupole=20.7850995,4.4077879,-25.1928874,-67.5725109,-81.77
 8451,-69.1403385\PG=C01 [X(C9H18N1O8P1S1)]\\@


 THE ENLIGHTENED ONE, BECAUSE HE SAW MANKIND DROWNING  
 IN THE GREAT SEA OF BIRTH, DEATH, AND SORROW, LONGED TO SAVE 
 THEM, FOR THIS HE WAS MOVED TO PITY.                         
 BECAUSE HE SAW MEN OF THE WORLD STRAYING IN FALSE PATHS, AND 
 NONE TO GUIDE THEM, FOR THIS HE WAS MOVED TO PITY.           
                     ..................                       
 BECAUSE HE SAW THE MEN OF THE WORLD PLOUGHING THEIR FIELDS,  
 SOWING THE SEED, TRAFFICKING, HUCKSTERING, BUYING, SELLING,  
 AND AT THE END WINNOWING NOTHING BUT BITTERNESS,             
 FOR THIS HE WAS MOVED TO PITY......                   
                   BUDAH'S PITY - UPSAKA SILA SUTRA           
 Job cpu time:       0 days  4 hours 44 minutes 52.8 seconds.
 Elapsed time:       0 days  0 hours 17 minutes 54.0 seconds.
 File lengths (MBytes):  RWF=    364 Int=      0 D2E=      0 Chk=    125 Scr=      1
 Normal termination of Gaussian 16 at Mon May 16 08:46:49 2022.
