 Entering Gaussian System, Link 0=g16
 Initial command:
 /data0/home/software/g16/l1.exe "/data0/home/software/g16/scratch/Gau-2506187.inp" -scrdir="/data0/home/software/g16/scratch/"
 Default is to use a total of  22 processors:
                               22 via shared-memory
                                1 via Linda
 Entering Link 1 = /data0/home/software/g16/l1.exe PID=   2506188.
  
 Copyright (c) 1988,1990,1992,1993,1995,1998,2003,2009,2016,
            Gaussian, Inc.  All Rights Reserved.
  
 This is part of the Gaussian(R) 16 program.  It is based on
 the Gaussian(R) 09 system (copyright 2009, Gaussian, Inc.),
 the Gaussian(R) 03 system (copyright 2003, Gaussian, Inc.),
 the Gaussian(R) 98 system (copyright 1998, Gaussian, Inc.),
 the Gaussian(R) 94 system (copyright 1995, Gaussian, Inc.),
 the Gaussian 92(TM) system (copyright 1992, Gaussian, Inc.),
 the Gaussian 90(TM) system (copyright 1990, Gaussian, Inc.),
 the Gaussian 88(TM) system (copyright 1988, Gaussian, Inc.),
 the Gaussian 86(TM) system (copyright 1986, Carnegie Mellon
 University), and the Gaussian 82(TM) system (copyright 1983,
 Carnegie Mellon University). Gaussian is a federally registered
 trademark of Gaussian, Inc.
  
 This software contains proprietary and confidential information,
 including trade secrets, belonging to Gaussian, Inc.
  
 This software is provided under written license and may be
 used, copied, transmitted, or stored only in accord with that
 written license.
  
 The following legend is applicable only to US Government
 contracts under FAR:
  
                    RESTRICTED RIGHTS LEGEND
  
 Use, reproduction and disclosure by the US Government is
 subject to restrictions as set forth in subparagraphs (a)
 and (c) of the Commercial Computer Software - Restricted
 Rights clause in FAR 52.227-19.
  
 Gaussian, Inc.
 340 Quinnipiac St., Bldg. 40, Wallingford CT 06492
  
  
 ---------------------------------------------------------------
 Warning -- This program may not be used in any manner that
 competes with the business of Gaussian, Inc. or will provide
 assistance to any competitor of Gaussian, Inc.  The licensee
 of this program is prohibited from giving any competitor of
 Gaussian, Inc. access to this program.  By using this program,
 the user acknowledges that Gaussian, Inc. is engaged in the
 business of creating and licensing software in the field of
 computational chemistry and represents and warrants to the
 licensee that it is not a competitor of Gaussian, Inc. and that
 it will not use this program in any manner prohibited above.
 ---------------------------------------------------------------
  

 Cite this work as:
 Gaussian 16, Revision A.03,
 M. J. Frisch, G. W. Trucks, H. B. Schlegel, G. E. Scuseria, 
 M. A. Robb, J. R. Cheeseman, G. Scalmani, V. Barone, 
 G. A. Petersson, H. Nakatsuji, X. Li, M. Caricato, A. V. Marenich, 
 J. Bloino, B. G. Janesko, R. Gomperts, B. Mennucci, H. P. Hratchian, 
 J. V. Ortiz, A. F. Izmaylov, J. L. Sonnenberg, D. Williams-Young, 
 F. Ding, F. Lipparini, F. Egidi, J. Goings, B. Peng, A. Petrone, 
 T. Henderson, D. Ranasinghe, V. G. Zakrzewski, J. Gao, N. Rega, 
 G. Zheng, W. Liang, M. Hada, M. Ehara, K. Toyota, R. Fukuda, 
 J. Hasegawa, M. Ishida, T. Nakajima, Y. Honda, O. Kitao, H. Nakai, 
 T. Vreven, K. Throssell, J. A. Montgomery, Jr., J. E. Peralta, 
 F. Ogliaro, M. J. Bearpark, J. J. Heyd, E. N. Brothers, K. N. Kudin, 
 V. N. Staroverov, T. A. Keith, R. Kobayashi, J. Normand, 
 K. Raghavachari, A. P. Rendell, J. C. Burant, S. S. Iyengar, 
 J. Tomasi, M. Cossi, J. M. Millam, M. Klene, C. Adamo, R. Cammi, 
 J. W. Ochterski, R. L. Martin, K. Morokuma, O. Farkas, 
 J. B. Foresman, and D. J. Fox, Gaussian, Inc., Wallingford CT, 2016.
 
 ******************************************
 Gaussian 16:  ES64L-G16RevA.03 25-Dec-2016
                11-Oct-2023 
 ******************************************
 %mem=50GB
 %nprocshared=24
 Will use up to   24 processors via shared memory.
 ---------------
 #p M052X/6-31G*
 ---------------
 1/38=1,172=1/1;
 2/12=2,17=6,18=5,40=1/2;
 3/5=1,6=6,7=1,11=2,25=1,30=1,74=-38/1,2,3;
 4//1;
 5/5=2,38=5/2;
 6/7=2,8=2,9=2,10=2,28=1/1;
 99/5=1,9=1/99;
 Leave Link    1 at Wed Oct 11 16:10:39 2023, MaxMem=  6710886400 cpu:               0.6 elap:               0.0
 (Enter /data0/home/software/g16/l101.exe)
 -------------------
 Title Card Required
 -------------------
 Symbolic Z-matrix:
 Charge =  0 Multiplicity = 1
 C                     2.93549   0.27047  -0.63865 
 C                     2.22471   1.40673  -0.43564 
 C                     1.26706  -0.20467   0.73134 
 N                     2.32921  -0.7211    0.11404 
 H                     3.81252   0.08344  -1.23158 
 H                     2.36495   2.40091  -0.81989 
 H                     0.51403  -0.7287    1.31061 
 C                     2.60131  -2.1516    0.03093 
 H                     2.25822  -2.63024   0.94478 
 H                     2.05926  -2.56912  -0.81719 
 H                     3.67206  -2.30927  -0.0815 
 N                     1.195     1.09267   0.4342 
 C                     0.04851   1.96445   0.73923 
 H                     0.4608    2.95159   0.94711 
 H                    -0.41509   1.57829   1.64419 
 C                    -0.96156   2.02729  -0.42394 
 H                    -1.33958   3.05238  -0.47529 
 H                    -0.42921   1.84022  -1.3582 
 C                    -2.16458   1.0888   -0.3351 
 H                    -2.73324   1.13092  -1.26348 
 H                    -2.82861   1.35758   0.48729 
 S                    -1.76308  -0.6684   -0.07262 
 O                    -2.96658  -1.40425  -0.42487 
 O                    -0.58523  -0.9214   -0.94022 
 O                    -1.39344  -0.73353   1.36862 
 
 ITRead=  0  0  0  0  0  0  0  0  0  0  0  0  0  0  0  0  0  0  0  0
 ITRead=  0  0  0  0  0
 MicOpt= -1 -1 -1 -1 -1 -1 -1 -1 -1 -1 -1 -1 -1 -1 -1 -1 -1 -1 -1 -1
 MicOpt= -1 -1 -1 -1 -1
 NAtoms=     25 NQM=       25 NQMF=       0 NMMI=      0 NMMIF=      0
                NMic=       0 NMicF=      0.
                    Isotopes and Nuclear Properties:
 (Nuclear quadrupole moments (NQMom) in fm**2, nuclear magnetic moments (NMagM)
  in nuclear magnetons)

  Atom         1           2           3           4           5           6           7           8           9          10
 IAtWgt=          12          12          12          14           1           1           1          12           1           1
 AtmWgt=  12.0000000  12.0000000  12.0000000  14.0030740   1.0078250   1.0078250   1.0078250  12.0000000   1.0078250   1.0078250
 NucSpn=           0           0           0           2           1           1           1           0           1           1
 AtZEff=  -0.0000000  -0.0000000  -0.0000000  -0.0000000  -0.0000000  -0.0000000  -0.0000000  -0.0000000  -0.0000000  -0.0000000
 NQMom=    0.0000000   0.0000000   0.0000000   2.0440000   0.0000000   0.0000000   0.0000000   0.0000000   0.0000000   0.0000000
 NMagM=    0.0000000   0.0000000   0.0000000   0.4037610   2.7928460   2.7928460   2.7928460   0.0000000   2.7928460   2.7928460
 AtZNuc=   6.0000000   6.0000000   6.0000000   7.0000000   1.0000000   1.0000000   1.0000000   6.0000000   1.0000000   1.0000000

  Atom        11          12          13          14          15          16          17          18          19          20
 IAtWgt=           1          14          12           1           1          12           1           1          12           1
 AtmWgt=   1.0078250  14.0030740  12.0000000   1.0078250   1.0078250  12.0000000   1.0078250   1.0078250  12.0000000   1.0078250
 NucSpn=           1           2           0           1           1           0           1           1           0           1
 AtZEff=  -0.0000000  -0.0000000  -0.0000000  -0.0000000  -0.0000000  -0.0000000  -0.0000000  -0.0000000  -0.0000000  -0.0000000
 NQMom=    0.0000000   2.0440000   0.0000000   0.0000000   0.0000000   0.0000000   0.0000000   0.0000000   0.0000000   0.0000000
 NMagM=    2.7928460   0.4037610   0.0000000   2.7928460   2.7928460   0.0000000   2.7928460   2.7928460   0.0000000   2.7928460
 AtZNuc=   1.0000000   7.0000000   6.0000000   1.0000000   1.0000000   6.0000000   1.0000000   1.0000000   6.0000000   1.0000000

  Atom        21          22          23          24          25
 IAtWgt=           1          32          16          16          16
 AtmWgt=   1.0078250  31.9720718  15.9949146  15.9949146  15.9949146
 NucSpn=           1           0           0           0           0
 AtZEff=  -0.0000000  -0.0000000  -0.0000000  -0.0000000  -0.0000000
 NQMom=    0.0000000   0.0000000   0.0000000   0.0000000   0.0000000
 NMagM=    2.7928460   0.0000000   0.0000000   0.0000000   0.0000000
 AtZNuc=   1.0000000  16.0000000   8.0000000   8.0000000   8.0000000
 Leave Link  101 at Wed Oct 11 16:10:40 2023, MaxMem=  6710886400 cpu:               2.1 elap:               0.1
 (Enter /data0/home/software/g16/l202.exe)
                          Input orientation:                          
 ---------------------------------------------------------------------
 Center     Atomic      Atomic             Coordinates (Angstroms)
 Number     Number       Type             X           Y           Z
 ---------------------------------------------------------------------
      1          6           0        2.935489    0.270469   -0.638646
      2          6           0        2.224705    1.406727   -0.435635
      3          6           0        1.267056   -0.204669    0.731340
      4          7           0        2.329207   -0.721103    0.114038
      5          1           0        3.812515    0.083437   -1.231582
      6          1           0        2.364946    2.400912   -0.819892
      7          1           0        0.514034   -0.728697    1.310609
      8          6           0        2.601309   -2.151603    0.030928
      9          1           0        2.258222   -2.630241    0.944775
     10          1           0        2.059265   -2.569119   -0.817194
     11          1           0        3.672063   -2.309274   -0.081496
     12          7           0        1.194995    1.092672    0.434203
     13          6           0        0.048512    1.964448    0.739231
     14          1           0        0.460802    2.951592    0.947105
     15          1           0       -0.415090    1.578285    1.644192
     16          6           0       -0.961557    2.027294   -0.423939
     17          1           0       -1.339578    3.052380   -0.475294
     18          1           0       -0.429210    1.840221   -1.358198
     19          6           0       -2.164584    1.088802   -0.335097
     20          1           0       -2.733240    1.130923   -1.263476
     21          1           0       -2.828611    1.357583    0.487288
     22         16           0       -1.763075   -0.668398   -0.072619
     23          8           0       -2.966577   -1.404250   -0.424866
     24          8           0       -0.585228   -0.921395   -0.940215
     25          8           0       -1.393436   -0.733533    1.368617
 ---------------------------------------------------------------------
                    Distance matrix (angstroms):
                    1          2          3          4          5
     1  C    0.000000
     2  C    1.355548   0.000000
     3  C    2.210495   2.208058   0.000000
     4  N    1.384675   2.200164   1.332640   0.000000
     5  H    1.075048   2.214897   3.227294   2.158282   0.000000
     6  H    2.212952   1.075046   3.225017   3.258908   2.763265
     7  H    3.265176   3.245890   1.084989   2.174096   4.242909
     8  C    2.535042   3.608493   2.461983   1.458519   2.838372
     9  H    3.373430   4.266587   2.628947   2.083260   3.810040
    10  H    2.977064   3.997538   2.935332   2.086918   3.206502
    11  H    2.740079   4.003614   3.297594   2.088967   2.658475
    12  N    2.203711   1.384034   1.332883   2.163035   3.262638
    13  C    3.619772   2.535188   2.487967   3.578354   4.646507
    14  H    3.978329   2.722119   3.264749   4.204001   4.920058
    15  H    4.260060   3.365060   2.615691   3.893549   5.327034
    16  C    4.280129   3.246152   3.359024   4.321138   5.217531
    17  H    5.103128   3.926049   4.342681   5.295892   5.994219
    18  H    3.781941   2.842939   3.380098   4.041871   4.592881
    19  C    5.174220   4.401936   3.819229   4.865351   6.127002
    20  H    5.767606   5.034144   4.665347   5.563804   6.629114
    21  H    5.972804   5.137140   4.390294   5.573449   6.977286
    22  S    4.824765   4.510024   3.169083   4.096876   5.744184
    23  O    6.138792   5.903483   4.549665   5.366790   6.987138
    24  O    3.729200   3.683813   2.595910   3.105720   4.520478
    25  O    4.876137   4.574602   2.786402   3.928383   5.876257
                    6          7          8          9         10
     6  H    0.000000
     7  H    4.214186   0.000000
     8  C    4.637365   2.831777   0.000000
     9  H    5.332724   2.606127   1.087161   0.000000
    10  H    4.979423   3.209741   1.089698   1.774219   0.000000
    11  H    4.943646   3.795962   1.088124   1.776288   1.791616
    12  N    2.157089   2.132881   3.558886   3.905281   3.965056
    13  C    2.826169   2.792170   4.894930   5.102571   5.197963
    14  H    2.655427   3.698580   5.609256   5.864093   6.012161
    15  H    3.804869   2.509326   5.060963   5.034627   5.420499
    16  C    3.370755   3.575124   5.510363   5.825203   5.514257
    17  H    3.777123   4.574043   6.547388   6.874078   6.578015
    18  H    2.900251   3.822510   5.200805   5.701842   5.091903
    19  C    4.740601   3.631342   5.774767   5.918663   5.608360
    20  H    5.272679   4.541904   6.395926   6.628531   6.071045
    21  H    5.456216   4.025382   6.481256   6.479807   6.404061
    22  S    5.198042   2.664992   4.610690   4.588545   4.333292
    23  O    6.562045   3.947518   5.636279   5.538727   5.173966
    24  O    4.444742   2.512313   3.551133   3.815567   3.118248
    25  O    5.360947   1.908358   4.445033   4.136635   4.479764
                   11         12         13         14         15
    11  H    0.000000
    12  N    4.239699   0.000000
    13  C    5.662898   1.472229   0.000000
    14  H    6.248754   2.063417   1.089793   0.000000
    15  H    5.898808   2.071779   1.087659   1.771747   0.000000
    16  C    6.355590   2.502128   1.541802   2.181099   2.185727
    17  H    7.349759   3.330420   2.141369   2.296681   2.742235
    18  H    5.972329   2.531713   2.154729   2.709555   3.013827
    19  C    6.758527   3.446536   2.611270   3.465066   2.686616
    20  H    7.366135   4.279557   3.527569   4.289919   3.745462
    21  H    7.485193   4.032667   2.951203   3.684092   2.685558
    22  S    5.677436   3.479715   3.297397   4.369187   3.132425
    23  O    6.708838   4.928621   4.668405   5.709868   4.436959
    24  O    4.559401   3.019054   3.398567   4.433530   3.599515
    25  O    5.499552   3.302746   3.123210   4.146808   2.525392
                   16         17         18         19         20
    16  C    0.000000
    17  H    1.093773   0.000000
    18  H    1.091435   1.754314   0.000000
    19  C    1.528376   2.134462   2.150090   0.000000
    20  H    2.155728   2.501104   2.412598   1.089510   0.000000
    21  H    2.182828   2.452778   3.065270   1.090638   1.767949
    22  S    2.834186   3.766389   3.118506   1.821498   2.365780
    23  O    3.974368   4.744599   4.223261   2.620412   2.680451
    24  O    3.017106   4.071374   2.797423   2.627056   2.988388
    25  O    3.319931   4.211418   3.871623   2.611171   3.492733
                   21         22         23         24         25
    21  H    0.000000
    22  S    2.356578   0.000000
    23  O    2.911835   1.453951   0.000000
    24  O    3.502038   1.484606   2.483859   0.000000
    25  O    2.685002   1.489307   2.478148   2.453405   0.000000
 Stoichiometry    C7H12N2O3S
 Framework group  C1[X(C7H12N2O3S)]
 Deg. of freedom    69
 Full point group                 C1      NOp   1
 Largest Abelian subgroup         C1      NOp   1
 Largest concise Abelian subgroup C1      NOp   1
                         Standard orientation:                         
 ---------------------------------------------------------------------
 Center     Atomic      Atomic             Coordinates (Angstroms)
 Number     Number       Type             X           Y           Z
 ---------------------------------------------------------------------
      1          6           0        2.935489    0.270469   -0.638646
      2          6           0        2.224705    1.406727   -0.435635
      3          6           0        1.267056   -0.204669    0.731340
      4          7           0        2.329207   -0.721103    0.114038
      5          1           0        3.812515    0.083437   -1.231582
      6          1           0        2.364946    2.400912   -0.819892
      7          1           0        0.514034   -0.728697    1.310609
      8          6           0        2.601309   -2.151603    0.030928
      9          1           0        2.258222   -2.630241    0.944775
     10          1           0        2.059265   -2.569119   -0.817194
     11          1           0        3.672063   -2.309274   -0.081496
     12          7           0        1.194995    1.092672    0.434203
     13          6           0        0.048512    1.964448    0.739231
     14          1           0        0.460802    2.951592    0.947105
     15          1           0       -0.415090    1.578285    1.644192
     16          6           0       -0.961557    2.027294   -0.423939
     17          1           0       -1.339578    3.052380   -0.475294
     18          1           0       -0.429210    1.840221   -1.358198
     19          6           0       -2.164584    1.088802   -0.335097
     20          1           0       -2.733240    1.130923   -1.263476
     21          1           0       -2.828611    1.357583    0.487288
     22         16           0       -1.763075   -0.668398   -0.072619
     23          8           0       -2.966577   -1.404250   -0.424866
     24          8           0       -0.585228   -0.921395   -0.940215
     25          8           0       -1.393436   -0.733533    1.368617
 ---------------------------------------------------------------------
 Rotational constants (GHZ):           1.2025909           0.5927188           0.4596357
 Leave Link  202 at Wed Oct 11 16:10:40 2023, MaxMem=  6710886400 cpu:               0.1 elap:               0.0
 (Enter /data0/home/software/g16/l301.exe)
 Standard basis: 6-31G(d) (6D, 7F)
 Ernie: Thresh=  0.10000D-02 Tol=  0.10000D-05 Strict=F.
 There are   223 symmetry adapted cartesian basis functions of A   symmetry.
 There are   223 symmetry adapted basis functions of A   symmetry.
   223 basis functions,   436 primitive gaussians,   223 cartesian basis functions
    54 alpha electrons       54 beta electrons
       nuclear repulsion energy      1031.6909238816 Hartrees.
 IExCor= 3428 DFT=T Ex+Corr=M052X ExCW=0 ScaHFX=  0.560000
 ScaDFX=  0.440000  0.440000  1.000000  1.000000 ScalE2=  1.000000  1.000000
 IRadAn=      5 IRanWt=     -1 IRanGd=            0 ICorTp=0 IEmpDi=  4
 NAtoms=   25 NActive=   25 NUniq=   25 SFac= 1.00D+00 NAtFMM=   60 NAOKFM=F Big=F
 Integral buffers will be    131072 words long.
 Raffenetti 2 integral format.
 Two-electron integral symmetry is turned on.
 Leave Link  301 at Wed Oct 11 16:10:40 2023, MaxMem=  6710886400 cpu:               1.1 elap:               0.1
 (Enter /data0/home/software/g16/l302.exe)
 NPDir=0 NMtPBC=     1 NCelOv=     1 NCel=       1 NClECP=     1 NCelD=      1
         NCelK=      1 NCelE2=     1 NClLst=     1 CellRange=     0.0.
 One-electron integrals computed using PRISM.
 One-electron integral symmetry used in STVInt
 NBasis=   223 RedAO= T EigKep=  1.34D-03  NBF=   223
 NBsUse=   223 1.00D-06 EigRej= -1.00D+00 NBFU=   223
 Precomputing XC quadrature grid using
 IXCGrd= 4 IRadAn=           5 IRanWt=          -1 IRanGd=           0 AccXCQ= 0.00D+00.
 Generated NRdTot=       0 NPtTot=           0 NUsed=           0 NTot=          32
 NSgBfM=   223   223   223   223   223 MxSgAt=    25 MxSgA2=    25.
 Leave Link  302 at Wed Oct 11 16:10:40 2023, MaxMem=  6710886400 cpu:               4.7 elap:               0.2
 (Enter /data0/home/software/g16/l303.exe)
 DipDrv:  MaxL=1.
 Leave Link  303 at Wed Oct 11 16:10:40 2023, MaxMem=  6710886400 cpu:               0.6 elap:               0.0
 (Enter /data0/home/software/g16/l401.exe)
 ExpMin= 1.17D-01 ExpMax= 2.19D+04 ExpMxC= 3.30D+03 IAcc=3 IRadAn=         5 AccDes= 0.00D+00
 Harris functional with IExCor= 1009 and IRadAn=       5 diagonalized for initial guess.
 HarFok:  IExCor= 1009 AccDes= 0.00D+00 IRadAn=         5 IDoV= 1 UseB2=F ITyADJ=14
 ICtDFT=  3500011 ScaDFX=  1.000000  1.000000  1.000000  1.000000
 FoFCou: FMM=F IPFlag=           0 FMFlag=      100000 FMFlg1=           0
         NFxFlg=           0 DoJE=T BraDBF=F KetDBF=T FulRan=T
         wScrn=  0.000000 ICntrl=       500 IOpCl=  0 I1Cent=   200000004 NGrid=           0
         NMat0=    1 NMatS0=      1 NMatT0=    0 NMatD0=    1 NMtDS0=    0 NMtDT0=    0
 Petite list used in FoFCou.
 Harris En= -1006.57917046335    
 JPrj=0 DoOrth=F DoCkMO=F.
 Leave Link  401 at Wed Oct 11 16:10:41 2023, MaxMem=  6710886400 cpu:              14.9 elap:               0.6
 (Enter /data0/home/software/g16/l502.exe)
 Integral symmetry usage will be decided dynamically.
 Closed shell SCF:
 Using DIIS extrapolation, IDIIS=  1040.
 NGot=  6710886400 LenX=  6710779005 LenY=  6710728835
 Requested convergence on RMS density matrix=1.00D-08 within 128 cycles.
 Requested convergence on MAX density matrix=1.00D-06.
 Requested convergence on             energy=1.00D-06.
 No special actions if energy rises.
 Fock matrices will be formed incrementally for  20 cycles.
 Integral accuracy reduced to 1.0D-05 until final iterations.

 Cycle   1  Pass 0  IDiag  1:
 FoFJK:  IHMeth= 1 ICntrl=       0 DoSepK=F KAlg= 0 I1Cent=           0 FoldK=F
 IRaf= 920000000 NMat=       1 IRICut=       1 DoRegI=T DoRafI=F ISym2E= 0 IDoP0=0 IntGTp=1.
 FoFCou: FMM=F IPFlag=           0 FMFlag=      100000 FMFlg1=           0
         NFxFlg=           0 DoJE=F BraDBF=F KetDBF=F FulRan=T
         wScrn=  0.000000 ICntrl=         0 IOpCl=  0 I1Cent=           0 NGrid=           0
         NMat0=    1 NMatS0=      1 NMatT0=    0 NMatD0=    1 NMtDS0=    0 NMtDT0=    0
 Symmetry not used in FoFCou.
 E= -1006.76599510684    
 DIIS: error= 3.18D-02 at cycle   1 NSaved=   1.
 NSaved= 1 IEnMin= 1 EnMin= -1006.76599510684     IErMin= 1 ErrMin= 3.18D-02
 ErrMax= 3.18D-02  0.00D+00 EMaxC= 1.00D-01 BMatC= 5.20D-01 BMatP= 5.20D-01
 IDIUse=3 WtCom= 6.82D-01 WtEn= 3.18D-01
 Coeff-Com:  0.100D+01
 Coeff-En:   0.100D+01
 Coeff:      0.100D+01
 Gap=     0.328 Goal=   None    Shift=    0.000
 GapD=    0.328 DampG=1.000 DampE=0.500 DampFc=0.5000 IDamp=-1.
 Damping current iteration by 5.00D-01
 RMSDP=5.87D-03 MaxDP=3.50D-01              OVMax= 1.53D-01

 Cycle   2  Pass 0  IDiag  1:
 RMSU=  2.93D-03    CP:  1.00D+00
 E= -1006.95149169321     Delta-E=       -0.185496586377 Rises=F Damp=T
 DIIS: error= 1.02D-02 at cycle   2 NSaved=   2.
 NSaved= 2 IEnMin= 2 EnMin= -1006.95149169321     IErMin= 2 ErrMin= 1.02D-02
 ErrMax= 1.02D-02  0.00D+00 EMaxC= 1.00D-01 BMatC= 3.05D-02 BMatP= 5.20D-01
 IDIUse=3 WtCom= 8.98D-01 WtEn= 1.02D-01
 Coeff-Com:  0.248D-01 0.975D+00
 Coeff-En:   0.257D-01 0.974D+00
 Coeff:      0.248D-01 0.975D+00
 Gap=     0.305 Goal=   None    Shift=    0.000
 RMSDP=1.15D-03 MaxDP=4.93D-02 DE=-1.85D-01 OVMax= 9.52D-02

 Cycle   3  Pass 0  IDiag  1:
 RMSU=  1.15D-03    CP:  9.98D-01  1.01D+00
 E= -1007.15447863968     Delta-E=       -0.202986946464 Rises=F Damp=F
 DIIS: error= 4.42D-03 at cycle   3 NSaved=   3.
 NSaved= 3 IEnMin= 3 EnMin= -1007.15447863968     IErMin= 3 ErrMin= 4.42D-03
 ErrMax= 4.42D-03  0.00D+00 EMaxC= 1.00D-01 BMatC= 8.96D-03 BMatP= 3.05D-02
 IDIUse=3 WtCom= 9.56D-01 WtEn= 4.42D-02
 Coeff-Com: -0.394D-01 0.312D+00 0.727D+00
 Coeff-En:   0.000D+00 0.000D+00 0.100D+01
 Coeff:     -0.377D-01 0.298D+00 0.739D+00
 Gap=     0.295 Goal=   None    Shift=    0.000
 RMSDP=5.41D-04 MaxDP=2.67D-02 DE=-2.03D-01 OVMax= 2.48D-02

 Cycle   4  Pass 0  IDiag  1:
 RMSU=  3.94D-04    CP:  1.00D+00  1.07D+00  7.25D-01
 E= -1007.16044853407     Delta-E=       -0.005969894392 Rises=F Damp=F
 DIIS: error= 1.68D-03 at cycle   4 NSaved=   4.
 NSaved= 4 IEnMin= 4 EnMin= -1007.16044853407     IErMin= 4 ErrMin= 1.68D-03
 ErrMax= 1.68D-03  0.00D+00 EMaxC= 1.00D-01 BMatC= 1.64D-03 BMatP= 8.96D-03
 IDIUse=3 WtCom= 9.83D-01 WtEn= 1.68D-02
 Coeff-Com: -0.139D-01 0.382D-01 0.326D+00 0.650D+00
 Coeff-En:   0.000D+00 0.000D+00 0.112D+00 0.888D+00
 Coeff:     -0.136D-01 0.376D-01 0.322D+00 0.654D+00
 Gap=     0.302 Goal=   None    Shift=    0.000
 RMSDP=1.95D-04 MaxDP=7.13D-03 DE=-5.97D-03 OVMax= 1.03D-02

 Cycle   5  Pass 0  IDiag  1:
 RMSU=  9.23D-05    CP:  1.00D+00  1.07D+00  8.13D-01  6.53D-01
 E= -1007.16188883815     Delta-E=       -0.001440304075 Rises=F Damp=F
 DIIS: error= 3.86D-04 at cycle   5 NSaved=   5.
 NSaved= 5 IEnMin= 5 EnMin= -1007.16188883815     IErMin= 5 ErrMin= 3.86D-04
 ErrMax= 3.86D-04  0.00D+00 EMaxC= 1.00D-01 BMatC= 7.24D-05 BMatP= 1.64D-03
 IDIUse=3 WtCom= 9.96D-01 WtEn= 3.86D-03
 Coeff-Com: -0.397D-02 0.552D-02 0.106D+00 0.277D+00 0.615D+00
 Coeff-En:   0.000D+00 0.000D+00 0.000D+00 0.000D+00 0.100D+01
 Coeff:     -0.395D-02 0.550D-02 0.106D+00 0.276D+00 0.616D+00
 Gap=     0.302 Goal=   None    Shift=    0.000
 RMSDP=4.61D-05 MaxDP=1.18D-03 DE=-1.44D-03 OVMax= 1.68D-03

 Cycle   6  Pass 0  IDiag  1:
 RMSU=  3.24D-05    CP:  1.00D+00  1.07D+00  8.15D-01  7.04D-01  7.21D-01
 E= -1007.16194591337     Delta-E=       -0.000057075225 Rises=F Damp=F
 DIIS: error= 1.55D-04 at cycle   6 NSaved=   6.
 NSaved= 6 IEnMin= 6 EnMin= -1007.16194591337     IErMin= 6 ErrMin= 1.55D-04
 ErrMax= 1.55D-04  0.00D+00 EMaxC= 1.00D-01 BMatC= 9.05D-06 BMatP= 7.24D-05
 IDIUse=3 WtCom= 9.98D-01 WtEn= 1.55D-03
 Coeff-Com: -0.506D-03-0.116D-02 0.176D-01 0.689D-01 0.295D+00 0.620D+00
 Coeff-En:   0.000D+00 0.000D+00 0.000D+00 0.000D+00 0.000D+00 0.100D+01
 Coeff:     -0.505D-03-0.116D-02 0.176D-01 0.688D-01 0.295D+00 0.620D+00
 Gap=     0.302 Goal=   None    Shift=    0.000
 RMSDP=1.51D-05 MaxDP=4.34D-04 DE=-5.71D-05 OVMax= 7.20D-04

 Cycle   7  Pass 0  IDiag  1:
 RMSU=  1.14D-05    CP:  1.00D+00  1.07D+00  8.17D-01  7.11D-01  7.94D-01
                    CP:  7.98D-01
 E= -1007.16195326782     Delta-E=       -0.000007354444 Rises=F Damp=F
 DIIS: error= 4.15D-05 at cycle   7 NSaved=   7.
 NSaved= 7 IEnMin= 7 EnMin= -1007.16195326782     IErMin= 7 ErrMin= 4.15D-05
 ErrMax= 4.15D-05  0.00D+00 EMaxC= 1.00D-01 BMatC= 9.43D-07 BMatP= 9.05D-06
 IDIUse=1 WtCom= 1.00D+00 WtEn= 0.00D+00
 Coeff-Com:  0.390D-03-0.153D-02-0.975D-02-0.131D-01 0.326D-01 0.266D+00
 Coeff-Com:  0.726D+00
 Coeff:      0.390D-03-0.153D-02-0.975D-02-0.131D-01 0.326D-01 0.266D+00
 Coeff:      0.726D+00
 Gap=     0.302 Goal=   None    Shift=    0.000
 RMSDP=5.78D-06 MaxDP=1.76D-04 DE=-7.35D-06 OVMax= 2.39D-04

 Initial convergence to 1.0D-05 achieved.  Increase integral accuracy.
 Cycle   8  Pass 1  IDiag  1:
 E= -1007.16191583343     Delta-E=        0.000037434390 Rises=F Damp=F
 DIIS: error= 3.58D-05 at cycle   1 NSaved=   1.
 NSaved= 1 IEnMin= 1 EnMin= -1007.16191583343     IErMin= 1 ErrMin= 3.58D-05
 ErrMax= 3.58D-05  0.00D+00 EMaxC= 1.00D-01 BMatC= 3.68D-07 BMatP= 3.68D-07
 IDIUse=1 WtCom= 1.00D+00 WtEn= 0.00D+00
 Coeff-Com:  0.100D+01
 Coeff:      0.100D+01
 Gap=     0.302 Goal=   None    Shift=    0.000
 RMSDP=5.78D-06 MaxDP=1.76D-04 DE= 3.74D-05 OVMax= 1.35D-04

 Cycle   9  Pass 1  IDiag  1:
 RMSU=  8.00D-06    CP:  1.00D+00
 E= -1007.16191615805     Delta-E=       -0.000000324620 Rises=F Damp=F
 DIIS: error= 1.36D-05 at cycle   2 NSaved=   2.
 NSaved= 2 IEnMin= 2 EnMin= -1007.16191615805     IErMin= 2 ErrMin= 1.36D-05
 ErrMax= 1.36D-05  0.00D+00 EMaxC= 1.00D-01 BMatC= 7.14D-08 BMatP= 3.68D-07
 IDIUse=1 WtCom= 1.00D+00 WtEn= 0.00D+00
 Coeff-Com:  0.217D+00 0.783D+00
 Coeff:      0.217D+00 0.783D+00
 Gap=     0.302 Goal=   None    Shift=    0.000
 RMSDP=1.98D-06 MaxDP=7.45D-05 DE=-3.25D-07 OVMax= 7.22D-05

 Cycle  10  Pass 1  IDiag  1:
 RMSU=  1.98D-06    CP:  1.00D+00  9.97D-01
 E= -1007.16191619527     Delta-E=       -0.000000037222 Rises=F Damp=F
 DIIS: error= 1.05D-05 at cycle   3 NSaved=   3.
 NSaved= 3 IEnMin= 3 EnMin= -1007.16191619527     IErMin= 3 ErrMin= 1.05D-05
 ErrMax= 1.05D-05  0.00D+00 EMaxC= 1.00D-01 BMatC= 4.32D-08 BMatP= 7.14D-08
 IDIUse=1 WtCom= 1.00D+00 WtEn= 0.00D+00
 Coeff-Com: -0.360D-01 0.431D+00 0.605D+00
 Coeff:     -0.360D-01 0.431D+00 0.605D+00
 Gap=     0.302 Goal=   None    Shift=    0.000
 RMSDP=8.46D-07 MaxDP=3.65D-05 DE=-3.72D-08 OVMax= 3.36D-05

 Cycle  11  Pass 1  IDiag  1:
 RMSU=  5.04D-07    CP:  1.00D+00  1.05D+00  7.23D-01
 E= -1007.16191622865     Delta-E=       -0.000000033378 Rises=F Damp=F
 DIIS: error= 1.53D-06 at cycle   4 NSaved=   4.
 NSaved= 4 IEnMin= 4 EnMin= -1007.16191622865     IErMin= 4 ErrMin= 1.53D-06
 ErrMax= 1.53D-06  0.00D+00 EMaxC= 1.00D-01 BMatC= 9.21D-10 BMatP= 4.32D-08
 IDIUse=1 WtCom= 1.00D+00 WtEn= 0.00D+00
 Coeff-Com: -0.229D-01 0.923D-01 0.168D+00 0.762D+00
 Coeff:     -0.229D-01 0.923D-01 0.168D+00 0.762D+00
 Gap=     0.302 Goal=   None    Shift=    0.000
 RMSDP=2.21D-07 MaxDP=5.01D-06 DE=-3.34D-08 OVMax= 1.18D-05

 Cycle  12  Pass 1  IDiag  1:
 RMSU=  2.02D-07    CP:  1.00D+00  1.06D+00  7.53D-01  1.02D+00
 E= -1007.16191622969     Delta-E=       -0.000000001049 Rises=F Damp=F
 DIIS: error= 7.04D-07 at cycle   5 NSaved=   5.
 NSaved= 5 IEnMin= 5 EnMin= -1007.16191622969     IErMin= 5 ErrMin= 7.04D-07
 ErrMax= 7.04D-07  0.00D+00 EMaxC= 1.00D-01 BMatC= 2.78D-10 BMatP= 9.21D-10
 IDIUse=1 WtCom= 1.00D+00 WtEn= 0.00D+00
 Coeff-Com: -0.309D-02-0.272D-01-0.314D-01 0.334D+00 0.728D+00
 Coeff:     -0.309D-02-0.272D-01-0.314D-01 0.334D+00 0.728D+00
 Gap=     0.302 Goal=   None    Shift=    0.000
 RMSDP=1.08D-07 MaxDP=3.48D-06 DE=-1.05D-09 OVMax= 6.91D-06

 Cycle  13  Pass 1  IDiag  1:
 RMSU=  7.38D-08    CP:  1.00D+00  1.06D+00  7.63D-01  1.16D+00  8.95D-01
 E= -1007.16191622997     Delta-E=       -0.000000000279 Rises=F Damp=F
 DIIS: error= 2.91D-07 at cycle   6 NSaved=   6.
 NSaved= 6 IEnMin= 6 EnMin= -1007.16191622997     IErMin= 6 ErrMin= 2.91D-07
 ErrMax= 2.91D-07  0.00D+00 EMaxC= 1.00D-01 BMatC= 5.61D-11 BMatP= 2.78D-10
 IDIUse=1 WtCom= 1.00D+00 WtEn= 0.00D+00
 Coeff-Com:  0.154D-02-0.301D-01-0.455D-01 0.630D-01 0.383D+00 0.628D+00
 Coeff:      0.154D-02-0.301D-01-0.455D-01 0.630D-01 0.383D+00 0.628D+00
 Gap=     0.302 Goal=   None    Shift=    0.000
 RMSDP=4.10D-08 MaxDP=9.82D-07 DE=-2.79D-10 OVMax= 2.55D-06

 Cycle  14  Pass 1  IDiag  1:
 RMSU=  2.37D-08    CP:  1.00D+00  1.06D+00  7.68D-01  1.20D+00  9.83D-01
                    CP:  7.74D-01
 E= -1007.16191623004     Delta-E=       -0.000000000066 Rises=F Damp=F
 DIIS: error= 5.54D-08 at cycle   7 NSaved=   7.
 NSaved= 7 IEnMin= 7 EnMin= -1007.16191623004     IErMin= 7 ErrMin= 5.54D-08
 ErrMax= 5.54D-08  0.00D+00 EMaxC= 1.00D-01 BMatC= 1.81D-12 BMatP= 5.61D-11
 IDIUse=1 WtCom= 1.00D+00 WtEn= 0.00D+00
 Coeff-Com:  0.803D-03-0.507D-02-0.898D-02-0.182D-01 0.261D-01 0.160D+00
 Coeff-Com:  0.845D+00
 Coeff:      0.803D-03-0.507D-02-0.898D-02-0.182D-01 0.261D-01 0.160D+00
 Coeff:      0.845D+00
 Gap=     0.302 Goal=   None    Shift=    0.000
 RMSDP=1.09D-08 MaxDP=3.48D-07 DE=-6.57D-11 OVMax= 8.78D-07

 Cycle  15  Pass 1  IDiag  1:
 RMSU=  6.67D-09    CP:  1.00D+00  1.06D+00  7.69D-01  1.21D+00  1.00D+00
                    CP:  8.46D-01  1.02D+00
 E= -1007.16191623004     Delta-E=       -0.000000000005 Rises=F Damp=F
 DIIS: error= 2.14D-08 at cycle   8 NSaved=   8.
 NSaved= 8 IEnMin= 8 EnMin= -1007.16191623004     IErMin= 8 ErrMin= 2.14D-08
 ErrMax= 2.14D-08  0.00D+00 EMaxC= 1.00D-01 BMatC= 2.49D-13 BMatP= 1.81D-12
 IDIUse=1 WtCom= 1.00D+00 WtEn= 0.00D+00
 Coeff-Com:  0.149D-03 0.558D-03 0.465D-03-0.109D-01-0.202D-01 0.677D-02
 Coeff-Com:  0.293D+00 0.730D+00
 Coeff:      0.149D-03 0.558D-03 0.465D-03-0.109D-01-0.202D-01 0.677D-02
 Coeff:      0.293D+00 0.730D+00
 Gap=     0.302 Goal=   None    Shift=    0.000
 RMSDP=3.36D-09 MaxDP=1.22D-07 DE=-4.77D-12 OVMax= 2.73D-07

 SCF Done:  E(RM052X) =  -1007.16191623     A.U. after   15 cycles
            NFock= 15  Conv=0.34D-08     -V/T= 2.0070
 KE= 1.000185269822D+03 PE=-4.428995744700D+03 EE= 1.389957634766D+03
 Leave Link  502 at Wed Oct 11 16:10:57 2023, MaxMem=  6710886400 cpu:             382.5 elap:              16.0
 (Enter /data0/home/software/g16/l601.exe)
 Copying SCF densities to generalized density rwf, IOpCl= 0 IROHF=0.

 **********************************************************************

            Population analysis using the SCF density.

 **********************************************************************

 Orbital symmetries:
       Occupied  (A) (A) (A) (A) (A) (A) (A) (A) (A) (A) (A) (A)
                 (A) (A) (A) (A) (A) (A) (A) (A) (A) (A) (A) (A)
                 (A) (A) (A) (A) (A) (A) (A) (A) (A) (A) (A) (A)
                 (A) (A) (A) (A) (A) (A) (A) (A) (A) (A) (A) (A)
                 (A) (A) (A) (A) (A) (A)
       Virtual   (A) (A) (A) (A) (A) (A) (A) (A) (A) (A) (A) (A)
                 (A) (A) (A) (A) (A) (A) (A) (A) (A) (A) (A) (A)
                 (A) (A) (A) (A) (A) (A) (A) (A) (A) (A) (A) (A)
                 (A) (A) (A) (A) (A) (A) (A) (A) (A) (A) (A) (A)
                 (A) (A) (A) (A) (A) (A) (A) (A) (A) (A) (A) (A)
                 (A) (A) (A) (A) (A) (A) (A) (A) (A) (A) (A) (A)
                 (A) (A) (A) (A) (A) (A) (A) (A) (A) (A) (A) (A)
                 (A) (A) (A) (A) (A) (A) (A) (A) (A) (A) (A) (A)
                 (A) (A) (A) (A) (A) (A) (A) (A) (A) (A) (A) (A)
                 (A) (A) (A) (A) (A) (A) (A) (A) (A) (A) (A) (A)
                 (A) (A) (A) (A) (A) (A) (A) (A) (A) (A) (A) (A)
                 (A) (A) (A) (A) (A) (A) (A) (A) (A) (A) (A) (A)
                 (A) (A) (A) (A) (A) (A) (A) (A) (A) (A) (A) (A)
                 (A) (A) (A) (A) (A) (A) (A) (A) (A) (A) (A) (A)
                 (A)
 The electronic state is 1-A.
 Alpha  occ. eigenvalues --  -90.18975 -19.60621 -19.60540 -19.59803 -14.91767
 Alpha  occ. eigenvalues --  -14.91265 -10.69139 -10.66051 -10.65889 -10.64997
 Alpha  occ. eigenvalues --  -10.64650 -10.59350 -10.57283  -8.39627  -6.32251
 Alpha  occ. eigenvalues --   -6.32241  -6.32180  -1.22095  -1.18569  -1.09422
 Alpha  occ. eigenvalues --   -1.04009  -1.03320  -0.94369  -0.91399  -0.87492
 Alpha  occ. eigenvalues --   -0.82224  -0.76387  -0.73616  -0.71610  -0.66568
 Alpha  occ. eigenvalues --   -0.61805  -0.61090  -0.58984  -0.57297  -0.56828
 Alpha  occ. eigenvalues --   -0.55938  -0.54706  -0.52881  -0.52584  -0.51233
 Alpha  occ. eigenvalues --   -0.50568  -0.48410  -0.47602  -0.46657  -0.43879
 Alpha  occ. eigenvalues --   -0.42428  -0.38657  -0.36963  -0.35730  -0.33783
 Alpha  occ. eigenvalues --   -0.31951  -0.31579  -0.30298  -0.27942
 Alpha virt. eigenvalues --    0.02277   0.03539   0.11625   0.12451   0.13664
 Alpha virt. eigenvalues --    0.16053   0.16939   0.17276   0.17474   0.18051
 Alpha virt. eigenvalues --    0.19480   0.20490   0.20663   0.21328   0.22200
 Alpha virt. eigenvalues --    0.23002   0.24001   0.25463   0.26037   0.26907
 Alpha virt. eigenvalues --    0.27693   0.28836   0.31077   0.34804   0.35640
 Alpha virt. eigenvalues --    0.38263   0.44223   0.46205   0.48210   0.49680
 Alpha virt. eigenvalues --    0.50869   0.51149   0.52447   0.54644   0.54849
 Alpha virt. eigenvalues --    0.57466   0.58139   0.59590   0.61528   0.63603
 Alpha virt. eigenvalues --    0.64221   0.66064   0.67591   0.69198   0.69656
 Alpha virt. eigenvalues --    0.72626   0.75274   0.77403   0.79043   0.79788
 Alpha virt. eigenvalues --    0.82064   0.83818   0.85928   0.86712   0.88315
 Alpha virt. eigenvalues --    0.89093   0.89762   0.91230   0.93016   0.93744
 Alpha virt. eigenvalues --    0.94913   0.96335   0.97108   0.98390   0.98633
 Alpha virt. eigenvalues --    1.00455   1.00806   1.01464   1.02691   1.03753
 Alpha virt. eigenvalues --    1.06620   1.07220   1.09411   1.12670   1.15766
 Alpha virt. eigenvalues --    1.17145   1.17494   1.19204   1.20779   1.21630
 Alpha virt. eigenvalues --    1.24790   1.28385   1.29856   1.31421   1.32869
 Alpha virt. eigenvalues --    1.35765   1.36258   1.37776   1.38928   1.40046
 Alpha virt. eigenvalues --    1.41750   1.42049   1.50793   1.54420   1.57046
 Alpha virt. eigenvalues --    1.59392   1.60972   1.63630   1.68226   1.72002
 Alpha virt. eigenvalues --    1.73921   1.76822   1.82380   1.87049   1.88181
 Alpha virt. eigenvalues --    1.90211   1.91724   1.93654   1.94090   1.94529
 Alpha virt. eigenvalues --    1.95379   1.96332   1.97308   1.98153   1.99255
 Alpha virt. eigenvalues --    2.01298   2.03185   2.04484   2.08017   2.08443
 Alpha virt. eigenvalues --    2.09498   2.11738   2.13600   2.14722   2.18616
 Alpha virt. eigenvalues --    2.20168   2.22239   2.24083   2.27372   2.27612
 Alpha virt. eigenvalues --    2.29709   2.31181   2.31946   2.33267   2.38223
 Alpha virt. eigenvalues --    2.40077   2.41268   2.44134   2.45532   2.48177
 Alpha virt. eigenvalues --    2.50493   2.53925   2.56216   2.62852   2.67853
 Alpha virt. eigenvalues --    2.71562   2.73484   2.76276   2.79772   2.81241
 Alpha virt. eigenvalues --    2.82483   2.94900   2.97794   3.04875   3.10170
 Alpha virt. eigenvalues --    3.15635   3.90267   3.93400   3.95307   4.02847
 Alpha virt. eigenvalues --    4.09312   4.13914   4.23000   4.29291   4.29804
 Alpha virt. eigenvalues --    4.41362   4.46980   4.51375   4.57708
          Condensed to atoms (all electrons):
               1          2          3          4          5          6
     1  C    4.822850   0.631286  -0.094988   0.374864   0.377778  -0.029027
     2  C    0.631286   4.826189  -0.094226  -0.056464  -0.028387   0.377321
     3  C   -0.094988  -0.094226   4.853719   0.361572   0.005189   0.005575
     4  N    0.374864  -0.056464   0.361572   6.731632  -0.038549   0.002590
     5  H    0.377778  -0.028387   0.005189  -0.038549   0.450742  -0.000244
     6  H   -0.029027   0.377321   0.005575   0.002590  -0.000244   0.450484
     7  H    0.002037   0.002565   0.312428  -0.026417  -0.000042  -0.000051
     8  C   -0.038406   0.005293  -0.044214   0.255366  -0.001759  -0.000075
     9  H    0.003035  -0.000224  -0.002295  -0.029321  -0.000006   0.000002
    10  H    0.000079  -0.000002  -0.001083  -0.038313   0.000209  -0.000001
    11  H   -0.003097   0.000167   0.003361  -0.034353   0.001653  -0.000001
    12  N   -0.054555   0.379506   0.407849  -0.046330   0.002555  -0.038506
    13  C    0.005053  -0.041279  -0.037767   0.005430  -0.000071  -0.001725
    14  H    0.000134  -0.003999   0.003571  -0.000123  -0.000001   0.001824
    15  H   -0.000250   0.003230  -0.001315   0.000237   0.000002   0.000022
    16  C   -0.000084  -0.000604  -0.000916  -0.000358  -0.000001   0.000352
    17  H   -0.000003   0.000105  -0.000050   0.000001  -0.000000  -0.000036
    18  H   -0.000035   0.004960   0.000301  -0.000118   0.000007   0.000438
    19  C    0.000014  -0.000038  -0.002629  -0.000025   0.000000  -0.000003
    20  H   -0.000000  -0.000005   0.000050   0.000001   0.000000   0.000000
    21  H   -0.000000   0.000004   0.000032   0.000000  -0.000000   0.000000
    22  S   -0.000015  -0.000262   0.005386  -0.000415   0.000004   0.000004
    23  O    0.000000   0.000000  -0.000012  -0.000000   0.000000   0.000000
    24  O    0.001240   0.001842   0.022819  -0.011695   0.000002   0.000009
    25  O   -0.000019  -0.000126  -0.025827   0.001102   0.000000   0.000000
               7          8          9         10         11         12
     1  C    0.002037  -0.038406   0.003035   0.000079  -0.003097  -0.054555
     2  C    0.002565   0.005293  -0.000224  -0.000002   0.000167   0.379506
     3  C    0.312428  -0.044214  -0.002295  -0.001083   0.003361   0.407849
     4  N   -0.026417   0.255366  -0.029321  -0.038313  -0.034353  -0.046330
     5  H   -0.000042  -0.001759  -0.000006   0.000209   0.001653   0.002555
     6  H   -0.000051  -0.000075   0.000002  -0.000001  -0.000001  -0.038506
     7  H    0.349299  -0.000883   0.001107   0.000311  -0.000011  -0.027364
     8  C   -0.000883   5.039506   0.385567   0.382243   0.380077   0.004066
     9  H    0.001107   0.385567   0.461550  -0.021530  -0.022886   0.000145
    10  H    0.000311   0.382243  -0.021530   0.444434  -0.025436  -0.000017
    11  H   -0.000011   0.380077  -0.022886  -0.025436   0.500212  -0.000152
    12  N   -0.027364   0.004066   0.000145  -0.000017  -0.000152   6.716650
    13  C   -0.001891  -0.000062  -0.000000  -0.000001   0.000003   0.246907
    14  H   -0.000063   0.000003  -0.000000   0.000000  -0.000000  -0.042363
    15  H    0.001303  -0.000002  -0.000000   0.000001  -0.000000  -0.031280
    16  C    0.000633   0.000003   0.000001  -0.000004  -0.000000  -0.056869
    17  H    0.000001  -0.000000  -0.000000   0.000000   0.000000   0.003978
    18  H    0.000112  -0.000001   0.000000  -0.000000  -0.000000  -0.007512
    19  C    0.001632   0.000001  -0.000000   0.000006   0.000000   0.002025
    20  H   -0.000053   0.000000   0.000000  -0.000000   0.000000  -0.000173
    21  H    0.000028  -0.000000   0.000000  -0.000000  -0.000000   0.000055
    22  S   -0.006919   0.000335  -0.000052   0.000300   0.000002  -0.004500
    23  O   -0.000011  -0.000000  -0.000000   0.000001  -0.000000  -0.000016
    24  O   -0.003295   0.000539  -0.000157   0.003170   0.000031  -0.010427
    25  O    0.050397  -0.000015  -0.000007  -0.000003  -0.000000  -0.005560
              13         14         15         16         17         18
     1  C    0.005053   0.000134  -0.000250  -0.000084  -0.000003  -0.000035
     2  C   -0.041279  -0.003999   0.003230  -0.000604   0.000105   0.004960
     3  C   -0.037767   0.003571  -0.001315  -0.000916  -0.000050   0.000301
     4  N    0.005430  -0.000123   0.000237  -0.000358   0.000001  -0.000118
     5  H   -0.000071  -0.000001   0.000002  -0.000001  -0.000000   0.000007
     6  H   -0.001725   0.001824   0.000022   0.000352  -0.000036   0.000438
     7  H   -0.001891  -0.000063   0.001303   0.000633   0.000001   0.000112
     8  C   -0.000062   0.000003  -0.000002   0.000003  -0.000000  -0.000001
     9  H   -0.000000  -0.000000  -0.000000   0.000001  -0.000000   0.000000
    10  H   -0.000001   0.000000   0.000001  -0.000004   0.000000  -0.000000
    11  H    0.000003  -0.000000  -0.000000  -0.000000   0.000000  -0.000000
    12  N    0.246907  -0.042363  -0.031280  -0.056869   0.003978  -0.007512
    13  C    5.088386   0.389476   0.382895   0.311513  -0.039816  -0.042713
    14  H    0.389476   0.522549  -0.021854  -0.042253  -0.006474   0.000665
    15  H    0.382895  -0.021854   0.439424  -0.036551   0.001232   0.003132
    16  C    0.311513  -0.042253  -0.036551   5.212450   0.371162   0.384957
    17  H   -0.039816  -0.006474   0.001232   0.371162   0.548601  -0.026047
    18  H   -0.042713   0.000665   0.003132   0.384957  -0.026047   0.509172
    19  C   -0.033886   0.003629  -0.002379   0.262804  -0.028892  -0.033221
    20  H    0.005101  -0.000075   0.000195  -0.033354  -0.003221  -0.004508
    21  H   -0.004485  -0.000075   0.002045  -0.035425  -0.003409   0.004342
    22  S   -0.005080   0.000403  -0.002708  -0.003831   0.001644  -0.002832
    23  O   -0.000033   0.000000   0.000003   0.002568  -0.000041   0.000016
    24  O   -0.006725  -0.000038  -0.000046   0.008866   0.000230   0.005972
    25  O    0.008241   0.000276   0.010474  -0.009148  -0.000141   0.000023
              19         20         21         22         23         24
     1  C    0.000014  -0.000000  -0.000000  -0.000015   0.000000   0.001240
     2  C   -0.000038  -0.000005   0.000004  -0.000262   0.000000   0.001842
     3  C   -0.002629   0.000050   0.000032   0.005386  -0.000012   0.022819
     4  N   -0.000025   0.000001   0.000000  -0.000415  -0.000000  -0.011695
     5  H    0.000000   0.000000  -0.000000   0.000004   0.000000   0.000002
     6  H   -0.000003   0.000000   0.000000   0.000004   0.000000   0.000009
     7  H    0.001632  -0.000053   0.000028  -0.006919  -0.000011  -0.003295
     8  C    0.000001   0.000000  -0.000000   0.000335  -0.000000   0.000539
     9  H   -0.000000   0.000000   0.000000  -0.000052  -0.000000  -0.000157
    10  H    0.000006  -0.000000  -0.000000   0.000300   0.000001   0.003170
    11  H    0.000000   0.000000  -0.000000   0.000002  -0.000000   0.000031
    12  N    0.002025  -0.000173   0.000055  -0.004500  -0.000016  -0.010427
    13  C   -0.033886   0.005101  -0.004485  -0.005080  -0.000033  -0.006725
    14  H    0.003629  -0.000075  -0.000075   0.000403   0.000000  -0.000038
    15  H   -0.002379   0.000195   0.002045  -0.002708   0.000003  -0.000046
    16  C    0.262804  -0.033354  -0.035425  -0.003831   0.002568   0.008866
    17  H   -0.028892  -0.003221  -0.003409   0.001644  -0.000041   0.000230
    18  H   -0.033221  -0.004508   0.004342  -0.002832   0.000016   0.005972
    19  C    5.665378   0.356990   0.356752   0.184039  -0.061732  -0.074080
    20  H    0.356990   0.495307  -0.022716  -0.013064   0.000902  -0.000723
    21  H    0.356752  -0.022716   0.502742  -0.011125  -0.000382   0.002044
    22  S    0.184039  -0.013064  -0.011125  13.433056   0.477051   0.385672
    23  O   -0.061732   0.000902  -0.000382   0.477051   8.266068  -0.054968
    24  O   -0.074080  -0.000723   0.002044   0.385672  -0.054968   8.459250
    25  O   -0.057699   0.002355   0.000112   0.333318  -0.055346  -0.056847
              25
     1  C   -0.000019
     2  C   -0.000126
     3  C   -0.025827
     4  N    0.001102
     5  H    0.000000
     6  H    0.000000
     7  H    0.050397
     8  C   -0.000015
     9  H   -0.000007
    10  H   -0.000003
    11  H   -0.000000
    12  N   -0.005560
    13  C    0.008241
    14  H    0.000276
    15  H    0.010474
    16  C   -0.009148
    17  H   -0.000141
    18  H    0.000023
    19  C   -0.057699
    20  H    0.002355
    21  H    0.000112
    22  S    0.333318
    23  O   -0.055346
    24  O   -0.056847
    25  O    8.493668
 Mulliken charges:
               1
     1  C    0.002108
     2  C   -0.006849
     3  C    0.323471
     4  N   -0.450314
     5  H    0.230920
     6  H    0.231049
     7  H    0.345145
     8  C   -0.367585
     9  H    0.225072
    10  H    0.255635
    11  H    0.200430
    12  N   -0.438113
    13  C   -0.227471
    14  H    0.194787
    15  H    0.252191
    16  C   -0.335911
    17  H    0.181176
    18  H    0.202890
    19  C   -0.538687
    20  H    0.216989
    21  H    0.209458
    22  S    1.229590
    23  O   -0.574068
    24  O   -0.672684
    25  O   -0.689227
 Sum of Mulliken charges =  -0.00000
 Mulliken charges with hydrogens summed into heavy atoms:
               1
     1  C    0.233028
     2  C    0.224199
     3  C    0.668615
     4  N   -0.450314
     8  C    0.313552
    12  N   -0.438113
    13  C    0.219507
    16  C    0.048155
    19  C   -0.112240
    22  S    1.229590
    23  O   -0.574068
    24  O   -0.672684
    25  O   -0.689227
 Electronic spatial extent (au):  <R**2>=           2521.4727
 Charge=             -0.0000 electrons
 Dipole moment (field-independent basis, Debye):
    X=             10.7135    Y=              5.4420    Z=              0.1871  Tot=             12.0179
 Quadrupole moment (field-independent basis, Debye-Ang):
   XX=            -80.4072   YY=            -73.6393   ZZ=            -86.4449
   XY=            -16.8675   XZ=             -2.4264   YZ=             -2.1445
 Traceless Quadrupole moment (field-independent basis, Debye-Ang):
   XX=             -0.2434   YY=              6.5245   ZZ=             -6.2811
   XY=            -16.8675   XZ=             -2.4264   YZ=             -2.1445
 Octapole moment (field-independent basis, Debye-Ang**2):
  XXX=             79.2672  YYY=              1.4195  ZZZ=             -1.7184  XYY=             30.7453
  XXY=             13.8115  XXZ=            -16.3102  XZZ=              6.7433  YZZ=              3.6450
  YYZ=              2.8589  XYZ=             -2.1730
 Hexadecapole moment (field-independent basis, Debye-Ang**3):
 XXXX=          -1940.1497 YYYY=           -888.3262 ZZZZ=           -304.7601 XXXY=           -128.6771
 XXXZ=            -77.2083 YYYX=            -27.8774 YYYZ=             -4.1660 ZZZX=              7.7164
 ZZZY=              3.0884 XXYY=           -468.5952 XXZZ=           -374.1452 YYZZ=           -207.1207
 XXYZ=            -16.6722 YYXZ=            -10.9955 ZZXY=             -9.8997
 N-N= 1.031690923882D+03 E-N=-4.428995747657D+03  KE= 1.000185269822D+03
 No NMR shielding tensors so no spin-rotation constants.
 Leave Link  601 at Wed Oct 11 16:10:57 2023, MaxMem=  6710886400 cpu:               2.4 elap:               0.1
 (Enter /data0/home/software/g16/l9999.exe)
 1\1\GINC-LOCALHOST\SP\RM052X\6-31G(d)\C7H12N2O3S1\WUHANYU\11-Oct-2023\
 0\\#p M052X/6-31G*\\Title Card Required\\0,1\C,0,2.935489,0.270469,-0.
 638646\C,0,2.224705,1.406727,-0.435635\C,0,1.267056,-0.204669,0.73134\
 N,0,2.329207,-0.721103,0.114038\H,0,3.812515,0.083437,-1.231582\H,0,2.
 364946,2.400912,-0.819892\H,0,0.514034,-0.728697,1.310609\C,0,2.601309
 ,-2.151603,0.030928\H,0,2.258222,-2.630241,0.944775\H,0,2.059265,-2.56
 9119,-0.817194\H,0,3.672063,-2.309274,-0.081496\N,0,1.194995,1.092672,
 0.434203\C,0,0.048512,1.964448,0.739231\H,0,0.460802,2.951592,0.947105
 \H,0,-0.41509,1.578285,1.644192\C,0,-0.961557,2.027294,-0.423939\H,0,-
 1.339578,3.05238,-0.475294\H,0,-0.42921,1.840221,-1.358198\C,0,-2.1645
 84,1.088802,-0.335097\H,0,-2.73324,1.130923,-1.263476\H,0,-2.828611,1.
 357583,0.487288\S,0,-1.763075,-0.668398,-0.072619\O,0,-2.966577,-1.404
 25,-0.424866\O,0,-0.585228,-0.921395,-0.940215\O,0,-1.393436,-0.733533
 ,1.368617\\Version=ES64L-G16RevA.03\State=1-A\HF=-1007.1619162\RMSD=3.
 359e-09\Dipole=4.2150161,2.1410383,0.0736012\Quadrupole=-0.1809753,4.8
 507929,-4.6698176,-12.5405847,-1.8039874,-1.5943941\PG=C01 [X(C7H12N2O
 3S1)]\\@



 IN THIS SHORT LIFE

 THAT ONLY LASTS AN HOUR

 HOW MUCH, HOW LITTLE, IS WITHIN OUR POWER....


 EMILY DICKINSON BOLTS OF MELODY NO. 521
 Job cpu time:       0 days  0 hours  6 minutes 49.5 seconds.
 Elapsed time:       0 days  0 hours  0 minutes 17.3 seconds.
 File lengths (MBytes):  RWF=     33 Int=      0 D2E=      0 Chk=      4 Scr=      1
 Normal termination of Gaussian 16 at Wed Oct 11 16:10:57 2023.
