 Entering Gaussian System, Link 0=g16
 Initial command:
 /data0/home/software/g16/l1.exe "/data0/home/software/g16/scratch/Gau-2499919.inp" -scrdir="/data0/home/software/g16/scratch/"
 Default is to use a total of  22 processors:
                               22 via shared-memory
                                1 via Linda
 Entering Link 1 = /data0/home/software/g16/l1.exe PID=   2499920.
  
 Copyright (c) 1988,1990,1992,1993,1995,1998,2003,2009,2016,
            Gaussian, Inc.  All Rights Reserved.
  
 This is part of the Gaussian(R) 16 program.  It is based on
 the Gaussian(R) 09 system (copyright 2009, Gaussian, Inc.),
 the Gaussian(R) 03 system (copyright 2003, Gaussian, Inc.),
 the Gaussian(R) 98 system (copyright 1998, Gaussian, Inc.),
 the Gaussian(R) 94 system (copyright 1995, Gaussian, Inc.),
 the Gaussian 92(TM) system (copyright 1992, Gaussian, Inc.),
 the Gaussian 90(TM) system (copyright 1990, Gaussian, Inc.),
 the Gaussian 88(TM) system (copyright 1988, Gaussian, Inc.),
 the Gaussian 86(TM) system (copyright 1986, Carnegie Mellon
 University), and the Gaussian 82(TM) system (copyright 1983,
 Carnegie Mellon University). Gaussian is a federally registered
 trademark of Gaussian, Inc.
  
 This software contains proprietary and confidential information,
 including trade secrets, belonging to Gaussian, Inc.
  
 This software is provided under written license and may be
 used, copied, transmitted, or stored only in accord with that
 written license.
  
 The following legend is applicable only to US Government
 contracts under FAR:
  
                    RESTRICTED RIGHTS LEGEND
  
 Use, reproduction and disclosure by the US Government is
 subject to restrictions as set forth in subparagraphs (a)
 and (c) of the Commercial Computer Software - Restricted
 Rights clause in FAR 52.227-19.
  
 Gaussian, Inc.
 340 Quinnipiac St., Bldg. 40, Wallingford CT 06492
  
  
 ---------------------------------------------------------------
 Warning -- This program may not be used in any manner that
 competes with the business of Gaussian, Inc. or will provide
 assistance to any competitor of Gaussian, Inc.  The licensee
 of this program is prohibited from giving any competitor of
 Gaussian, Inc. access to this program.  By using this program,
 the user acknowledges that Gaussian, Inc. is engaged in the
 business of creating and licensing software in the field of
 computational chemistry and represents and warrants to the
 licensee that it is not a competitor of Gaussian, Inc. and that
 it will not use this program in any manner prohibited above.
 ---------------------------------------------------------------
  

 Cite this work as:
 Gaussian 16, Revision A.03,
 M. J. Frisch, G. W. Trucks, H. B. Schlegel, G. E. Scuseria, 
 M. A. Robb, J. R. Cheeseman, G. Scalmani, V. Barone, 
 G. A. Petersson, H. Nakatsuji, X. Li, M. Caricato, A. V. Marenich, 
 J. Bloino, B. G. Janesko, R. Gomperts, B. Mennucci, H. P. Hratchian, 
 J. V. Ortiz, A. F. Izmaylov, J. L. Sonnenberg, D. Williams-Young, 
 F. Ding, F. Lipparini, F. Egidi, J. Goings, B. Peng, A. Petrone, 
 T. Henderson, D. Ranasinghe, V. G. Zakrzewski, J. Gao, N. Rega, 
 G. Zheng, W. Liang, M. Hada, M. Ehara, K. Toyota, R. Fukuda, 
 J. Hasegawa, M. Ishida, T. Nakajima, Y. Honda, O. Kitao, H. Nakai, 
 T. Vreven, K. Throssell, J. A. Montgomery, Jr., J. E. Peralta, 
 F. Ogliaro, M. J. Bearpark, J. J. Heyd, E. N. Brothers, K. N. Kudin, 
 V. N. Staroverov, T. A. Keith, R. Kobayashi, J. Normand, 
 K. Raghavachari, A. P. Rendell, J. C. Burant, S. S. Iyengar, 
 J. Tomasi, M. Cossi, J. M. Millam, M. Klene, C. Adamo, R. Cammi, 
 J. W. Ochterski, R. L. Martin, K. Morokuma, O. Farkas, 
 J. B. Foresman, and D. J. Fox, Gaussian, Inc., Wallingford CT, 2016.
 
 ******************************************
 Gaussian 16:  ES64L-G16RevA.03 25-Dec-2016
                11-Oct-2023 
 ******************************************
 %mem=50GB
 %nprocshared=24
 Will use up to   24 processors via shared memory.
 ----------------------------------------
 #p opt freq b3lyp/6-311+g(2d,p) em=gd3bj
 ----------------------------------------
 1/18=20,19=15,26=3,38=1/1,3;
 2/9=110,12=2,17=6,18=5,40=1/2;
 3/5=4,6=6,7=112,11=2,25=1,30=1,71=1,74=-5,124=41/1,2,3;
 4//1;
 5/5=2,38=5/2;
 6/7=2,8=2,9=2,10=2,28=1/1;
 7//1,2,3,16;
 1/18=20,19=15,26=3/3(2);
 2/9=110/2;
 99//99;
 2/9=110/2;
 3/5=4,6=6,7=112,11=2,25=1,30=1,71=1,74=-5,124=41/1,2,3;
 4/5=5,16=3,69=1/1;
 5/5=2,38=5/2;
 7//1,2,3,16;
 1/18=20,19=15,26=3/3(-5);
 2/9=110/2;
 6/7=2,8=2,9=2,10=2,19=2,28=1/1;
 99/9=1/99;
 Leave Link    1 at Wed Oct 11 15:28:28 2023, MaxMem=  6710886400 cpu:               0.7 elap:               0.0
 (Enter /data0/home/software/g16/l101.exe)
 -------------------
 Title Card Required
 -------------------
 Symbolic Z-matrix:
 Charge =  0 Multiplicity = 1
 C                     2.93187   0.27251  -0.64902 
 C                     2.21723   1.40623  -0.44566 
 C                     1.28448  -0.19996   0.74218 
 N                     2.3407   -0.71682   0.11658 
 H                     3.80291   0.08655  -1.25157 
 H                     2.34736   2.39819  -0.83986 
 H                     0.54263  -0.728     1.33069 
 C                     2.61089  -2.14879   0.03271 
 H                     2.31223  -2.62267   0.96501 
 H                     2.03014  -2.57125  -0.78726 
 H                     3.6757   -2.30574  -0.1287 
 N                     1.19843   1.09375   0.4364 
 C                     0.0472    1.96175   0.74413 
 H                     0.45687   2.94903   0.95846 
 H                    -0.41759   1.56883   1.64614 
 C                    -0.96424   2.02735  -0.42162 
 H                    -1.33852   3.05403  -0.47527 
 H                    -0.43311   1.83482  -1.35587 
 C                    -2.17081   1.09096  -0.33046 
 H                    -2.74516   1.13642  -1.25559 
 H                    -2.82879   1.35633   0.49824 
 S                    -1.76721  -0.67162  -0.07382 
 O                    -2.97026  -1.40758  -0.43069 
 O                    -0.58644  -0.91897  -0.94105 
 O                    -1.39867  -0.73712   1.3683 
 
 ITRead=  0  0  0  0  0  0  0  0  0  0  0  0  0  0  0  0  0  0  0  0
 ITRead=  0  0  0  0  0
 MicOpt= -1 -1 -1 -1 -1 -1 -1 -1 -1 -1 -1 -1 -1 -1 -1 -1 -1 -1 -1 -1
 MicOpt= -1 -1 -1 -1 -1
 NAtoms=     25 NQM=       25 NQMF=       0 NMMI=      0 NMMIF=      0
                NMic=       0 NMicF=      0.
                    Isotopes and Nuclear Properties:
 (Nuclear quadrupole moments (NQMom) in fm**2, nuclear magnetic moments (NMagM)
  in nuclear magnetons)

  Atom         1           2           3           4           5           6           7           8           9          10
 IAtWgt=          12          12          12          14           1           1           1          12           1           1
 AtmWgt=  12.0000000  12.0000000  12.0000000  14.0030740   1.0078250   1.0078250   1.0078250  12.0000000   1.0078250   1.0078250
 NucSpn=           0           0           0           2           1           1           1           0           1           1
 AtZEff=  -0.0000000  -0.0000000  -0.0000000  -0.0000000  -0.0000000  -0.0000000  -0.0000000  -0.0000000  -0.0000000  -0.0000000
 NQMom=    0.0000000   0.0000000   0.0000000   2.0440000   0.0000000   0.0000000   0.0000000   0.0000000   0.0000000   0.0000000
 NMagM=    0.0000000   0.0000000   0.0000000   0.4037610   2.7928460   2.7928460   2.7928460   0.0000000   2.7928460   2.7928460
 AtZNuc=   6.0000000   6.0000000   6.0000000   7.0000000   1.0000000   1.0000000   1.0000000   6.0000000   1.0000000   1.0000000

  Atom        11          12          13          14          15          16          17          18          19          20
 IAtWgt=           1          14          12           1           1          12           1           1          12           1
 AtmWgt=   1.0078250  14.0030740  12.0000000   1.0078250   1.0078250  12.0000000   1.0078250   1.0078250  12.0000000   1.0078250
 NucSpn=           1           2           0           1           1           0           1           1           0           1
 AtZEff=  -0.0000000  -0.0000000  -0.0000000  -0.0000000  -0.0000000  -0.0000000  -0.0000000  -0.0000000  -0.0000000  -0.0000000
 NQMom=    0.0000000   2.0440000   0.0000000   0.0000000   0.0000000   0.0000000   0.0000000   0.0000000   0.0000000   0.0000000
 NMagM=    2.7928460   0.4037610   0.0000000   2.7928460   2.7928460   0.0000000   2.7928460   2.7928460   0.0000000   2.7928460
 AtZNuc=   1.0000000   7.0000000   6.0000000   1.0000000   1.0000000   6.0000000   1.0000000   1.0000000   6.0000000   1.0000000

  Atom        21          22          23          24          25
 IAtWgt=           1          32          16          16          16
 AtmWgt=   1.0078250  31.9720718  15.9949146  15.9949146  15.9949146
 NucSpn=           1           0           0           0           0
 AtZEff=  -0.0000000  -0.0000000  -0.0000000  -0.0000000  -0.0000000
 NQMom=    0.0000000   0.0000000   0.0000000   0.0000000   0.0000000
 NMagM=    2.7928460   0.0000000   0.0000000   0.0000000   0.0000000
 AtZNuc=   1.0000000  16.0000000   8.0000000   8.0000000   8.0000000
 Leave Link  101 at Wed Oct 11 15:28:28 2023, MaxMem=  6710886400 cpu:               7.9 elap:               0.4
 (Enter /data0/home/software/g16/l103.exe)

 GradGradGradGradGradGradGradGradGradGradGradGradGradGradGradGradGradGrad
 Berny optimization.
 Initialization pass.
                           ----------------------------
                           !    Initial Parameters    !
                           ! (Angstroms and Degrees)  !
 --------------------------                            --------------------------
 ! Name  Definition              Value          Derivative Info.                !
 --------------------------------------------------------------------------------
 ! R1    R(1,2)                  1.3555         estimate D2E/DX2                !
 ! R2    R(1,4)                  1.3836         estimate D2E/DX2                !
 ! R3    R(1,5)                  1.0753         estimate D2E/DX2                !
 ! R4    R(2,6)                  1.0753         estimate D2E/DX2                !
 ! R5    R(2,12)                 1.3833         estimate D2E/DX2                !
 ! R6    R(3,4)                  1.332          estimate D2E/DX2                !
 ! R7    R(3,7)                  1.0842         estimate D2E/DX2                !
 ! R8    R(3,12)                 1.3321         estimate D2E/DX2                !
 ! R9    R(4,8)                  1.4597         estimate D2E/DX2                !
 ! R10   R(8,9)                  1.0876         estimate D2E/DX2                !
 ! R11   R(8,10)                 1.09           estimate D2E/DX2                !
 ! R12   R(8,11)                 1.0883         estimate D2E/DX2                !
 ! R13   R(12,13)                1.4743         estimate D2E/DX2                !
 ! R14   R(13,14)                1.0902         estimate D2E/DX2                !
 ! R15   R(13,15)                1.0881         estimate D2E/DX2                !
 ! R16   R(13,16)                1.5448         estimate D2E/DX2                !
 ! R17   R(16,17)                1.0941         estimate D2E/DX2                !
 ! R18   R(16,18)                1.0918         estimate D2E/DX2                !
 ! R19   R(16,19)                1.53           estimate D2E/DX2                !
 ! R20   R(19,20)                1.0899         estimate D2E/DX2                !
 ! R21   R(19,21)                1.0909         estimate D2E/DX2                !
 ! R22   R(19,22)                1.8263         estimate D2E/DX2                !
 ! R23   R(22,23)                1.4548         estimate D2E/DX2                !
 ! R24   R(22,24)                1.4858         estimate D2E/DX2                !
 ! R25   R(22,25)                1.4899         estimate D2E/DX2                !
 ! A1    A(2,1,4)              106.8437         estimate D2E/DX2                !
 ! A2    A(2,1,5)              130.977          estimate D2E/DX2                !
 ! A3    A(4,1,5)              122.1736         estimate D2E/DX2                !
 ! A4    A(1,2,6)              130.7488         estimate D2E/DX2                !
 ! A5    A(1,2,12)             107.1588         estimate D2E/DX2                !
 ! A6    A(6,2,12)             122.0899         estimate D2E/DX2                !
 ! A7    A(4,3,7)              127.4838         estimate D2E/DX2                !
 ! A8    A(4,3,12)             108.6789         estimate D2E/DX2                !
 ! A9    A(7,3,12)             123.5989         estimate D2E/DX2                !
 ! A10   A(1,4,3)              108.7379         estimate D2E/DX2                !
 ! A11   A(1,4,8)              126.1986         estimate D2E/DX2                !
 ! A12   A(3,4,8)              123.6737         estimate D2E/DX2                !
 ! A13   A(4,8,9)              109.108          estimate D2E/DX2                !
 ! A14   A(4,8,10)             108.9548         estimate D2E/DX2                !
 ! A15   A(4,8,11)             109.3353         estimate D2E/DX2                !
 ! A16   A(9,8,10)             109.2478         estimate D2E/DX2                !
 ! A17   A(9,8,11)             109.4481         estimate D2E/DX2                !
 ! A18   A(10,8,11)            110.722          estimate D2E/DX2                !
 ! A19   A(2,12,3)             108.5514         estimate D2E/DX2                !
 ! A20   A(2,12,13)            125.1143         estimate D2E/DX2                !
 ! A21   A(3,12,13)            125.0516         estimate D2E/DX2                !
 ! A22   A(12,13,14)           106.3075         estimate D2E/DX2                !
 ! A23   A(12,13,15)           107.0965         estimate D2E/DX2                !
 ! A24   A(12,13,16)           112.2574         estimate D2E/DX2                !
 ! A25   A(14,13,15)           108.9385         estimate D2E/DX2                !
 ! A26   A(14,13,16)           110.8518         estimate D2E/DX2                !
 ! A27   A(15,13,16)           111.1753         estimate D2E/DX2                !
 ! A28   A(13,16,17)           107.508          estimate D2E/DX2                !
 ! A29   A(13,16,18)           108.6471         estimate D2E/DX2                !
 ! A30   A(13,16,19)           116.4479         estimate D2E/DX2                !
 ! A31   A(17,16,18)           106.8547         estimate D2E/DX2                !
 ! A32   A(17,16,19)           107.906          estimate D2E/DX2                !
 ! A33   A(18,16,19)           109.0686         estimate D2E/DX2                !
 ! A34   A(16,19,20)           109.8449         estimate D2E/DX2                !
 ! A35   A(16,19,21)           111.8404         estimate D2E/DX2                !
 ! A36   A(16,19,22)           115.1349         estimate D2E/DX2                !
 ! A37   A(20,19,21)           108.4709         estimate D2E/DX2                !
 ! A38   A(20,19,22)           106.0215         estimate D2E/DX2                !
 ! A39   A(21,19,22)           105.1481         estimate D2E/DX2                !
 ! A40   A(19,22,23)           105.7244         estimate D2E/DX2                !
 ! A41   A(19,22,24)           104.7309         estimate D2E/DX2                !
 ! A42   A(19,22,25)           103.48           estimate D2E/DX2                !
 ! A43   A(23,22,24)           115.4556         estimate D2E/DX2                !
 ! A44   A(23,22,25)           114.8195         estimate D2E/DX2                !
 ! A45   A(24,22,25)           111.1661         estimate D2E/DX2                !
 ! D1    D(4,1,2,6)            179.2282         estimate D2E/DX2                !
 ! D2    D(4,1,2,12)            -0.1904         estimate D2E/DX2                !
 ! D3    D(5,1,2,6)              0.0957         estimate D2E/DX2                !
 ! D4    D(5,1,2,12)          -179.3229         estimate D2E/DX2                !
 ! D5    D(2,1,4,3)              1.1905         estimate D2E/DX2                !
 ! D6    D(2,1,4,8)            168.046          estimate D2E/DX2                !
 ! D7    D(5,1,4,3)           -179.5832         estimate D2E/DX2                !
 ! D8    D(5,1,4,8)            -12.7277         estimate D2E/DX2                !
 ! D9    D(1,2,12,3)            -0.8726         estimate D2E/DX2                !
 ! D10   D(1,2,12,13)         -168.4417         estimate D2E/DX2                !
 ! D11   D(6,2,12,3)           179.6473         estimate D2E/DX2                !
 ! D12   D(6,2,12,13)           12.0782         estimate D2E/DX2                !
 ! D13   D(7,3,4,1)            172.7451         estimate D2E/DX2                !
 ! D14   D(7,3,4,8)              5.4842         estimate D2E/DX2                !
 ! D15   D(12,3,4,1)            -1.7544         estimate D2E/DX2                !
 ! D16   D(12,3,4,8)          -169.0153         estimate D2E/DX2                !
 ! D17   D(4,3,12,2)             1.6306         estimate D2E/DX2                !
 ! D18   D(4,3,12,13)          169.2094         estimate D2E/DX2                !
 ! D19   D(7,3,12,2)          -173.1299         estimate D2E/DX2                !
 ! D20   D(7,3,12,13)           -5.5511         estimate D2E/DX2                !
 ! D21   D(1,4,8,9)            158.5796         estimate D2E/DX2                !
 ! D22   D(1,4,8,10)           -82.2203         estimate D2E/DX2                !
 ! D23   D(1,4,8,11)            38.9105         estimate D2E/DX2                !
 ! D24   D(3,4,8,9)            -36.4177         estimate D2E/DX2                !
 ! D25   D(3,4,8,10)            82.7823         estimate D2E/DX2                !
 ! D26   D(3,4,8,11)          -156.0869         estimate D2E/DX2                !
 ! D27   D(2,12,13,14)         -48.7668         estimate D2E/DX2                !
 ! D28   D(2,12,13,15)        -165.1118         estimate D2E/DX2                !
 ! D29   D(2,12,13,16)          72.5967         estimate D2E/DX2                !
 ! D30   D(3,12,13,14)         145.6687         estimate D2E/DX2                !
 ! D31   D(3,12,13,15)          29.3236         estimate D2E/DX2                !
 ! D32   D(3,12,13,16)         -92.9678         estimate D2E/DX2                !
 ! D33   D(12,13,16,17)       -141.9926         estimate D2E/DX2                !
 ! D34   D(12,13,16,18)        -26.6948         estimate D2E/DX2                !
 ! D35   D(12,13,16,19)         96.8763         estimate D2E/DX2                !
 ! D36   D(14,13,16,17)        -23.2712         estimate D2E/DX2                !
 ! D37   D(14,13,16,18)         92.0266         estimate D2E/DX2                !
 ! D38   D(14,13,16,19)       -144.4023         estimate D2E/DX2                !
 ! D39   D(15,13,16,17)         98.061          estimate D2E/DX2                !
 ! D40   D(15,13,16,18)       -146.6412         estimate D2E/DX2                !
 ! D41   D(15,13,16,19)        -23.0701         estimate D2E/DX2                !
 ! D42   D(13,16,19,20)       -173.1757         estimate D2E/DX2                !
 ! D43   D(13,16,19,21)         66.3257         estimate D2E/DX2                !
 ! D44   D(13,16,19,22)        -53.6086         estimate D2E/DX2                !
 ! D45   D(17,16,19,20)         65.9045         estimate D2E/DX2                !
 ! D46   D(17,16,19,21)        -54.5941         estimate D2E/DX2                !
 ! D47   D(17,16,19,22)       -174.5285         estimate D2E/DX2                !
 ! D48   D(18,16,19,20)        -49.8225         estimate D2E/DX2                !
 ! D49   D(18,16,19,21)       -170.3211         estimate D2E/DX2                !
 ! D50   D(18,16,19,22)         69.7446         estimate D2E/DX2                !
 ! D51   D(16,19,22,23)       -162.7075         estimate D2E/DX2                !
 ! D52   D(16,19,22,24)        -40.3146         estimate D2E/DX2                !
 ! D53   D(16,19,22,25)         76.2333         estimate D2E/DX2                !
 ! D54   D(20,19,22,23)        -41.0487         estimate D2E/DX2                !
 ! D55   D(20,19,22,24)         81.3442         estimate D2E/DX2                !
 ! D56   D(20,19,22,25)       -162.1079         estimate D2E/DX2                !
 ! D57   D(21,19,22,23)         73.7372         estimate D2E/DX2                !
 ! D58   D(21,19,22,24)       -163.8698         estimate D2E/DX2                !
 ! D59   D(21,19,22,25)        -47.322          estimate D2E/DX2                !
 --------------------------------------------------------------------------------
 Trust Radius=3.00D-01 FncErr=1.00D-07 GrdErr=1.00D-06 EigMax=2.50D+02 EigMin=1.00D-04
 Number of steps in this run=    139 maximum allowed number of steps=    150.
 GradGradGradGradGradGradGradGradGradGradGradGradGradGradGradGradGradGrad

 Leave Link  103 at Wed Oct 11 15:28:28 2023, MaxMem=  6710886400 cpu:               0.2 elap:               0.0
 (Enter /data0/home/software/g16/l202.exe)
                          Input orientation:                          
 ---------------------------------------------------------------------
 Center     Atomic      Atomic             Coordinates (Angstroms)
 Number     Number       Type             X           Y           Z
 ---------------------------------------------------------------------
      1          6           0        2.931867    0.272513   -0.649024
      2          6           0        2.217230    1.406225   -0.445657
      3          6           0        1.284479   -0.199959    0.742175
      4          7           0        2.340698   -0.716817    0.116579
      5          1           0        3.802909    0.086552   -1.251570
      6          1           0        2.347361    2.398194   -0.839863
      7          1           0        0.542633   -0.728000    1.330691
      8          6           0        2.610894   -2.148792    0.032706
      9          1           0        2.312230   -2.622671    0.965006
     10          1           0        2.030136   -2.571246   -0.787259
     11          1           0        3.675704   -2.305735   -0.128697
     12          7           0        1.198427    1.093749    0.436397
     13          6           0        0.047201    1.961748    0.744130
     14          1           0        0.456872    2.949030    0.958463
     15          1           0       -0.417590    1.568828    1.646136
     16          6           0       -0.964242    2.027351   -0.421622
     17          1           0       -1.338520    3.054035   -0.475269
     18          1           0       -0.433105    1.834818   -1.355869
     19          6           0       -2.170814    1.090958   -0.330459
     20          1           0       -2.745156    1.136419   -1.255590
     21          1           0       -2.828791    1.356331    0.498238
     22         16           0       -1.767207   -0.671623   -0.073824
     23          8           0       -2.970258   -1.407577   -0.430689
     24          8           0       -0.586443   -0.918972   -0.941050
     25          8           0       -1.398667   -0.737123    1.368297
 ---------------------------------------------------------------------
                    Distance matrix (angstroms):
                    1          2          3          4          5
     1  C    0.000000
     2  C    1.355495   0.000000
     3  C    2.207386   2.204721   0.000000
     4  N    1.383619   2.199696   1.331958   0.000000
     5  H    1.075341   2.214816   3.224841   2.157613   0.000000
     6  H    2.212823   1.075330   3.222260   3.258546   2.762573
     7  H    3.260174   3.242623   1.084211   2.169615   4.238038
     8  C    2.535843   3.608594   2.461843   1.459655   2.840251
     9  H    3.372111   4.269777   2.641109   2.086365   3.804632
    10  H    2.986502   3.996495   2.918591   2.086212   3.228343
    11  H    2.733386   4.000782   3.303130   2.089752   2.645763
    12  N    2.203947   1.383337   1.332136   2.164536   3.262975
    13  C    3.621559   2.536380   2.490750   3.581712   4.648066
    14  H    3.984138   2.729590   3.263104   4.206662   4.926864
    15  H    4.262283   3.368132   2.615873   3.895109   5.329771
    16  C    4.279116   3.241626   3.372251   4.329289   5.213563
    17  H    5.099339   3.919121   4.353248   5.301533   5.986893
    18  H    3.776700   2.834864   3.390015   4.046347   4.583790
    19  C    5.177711   4.400863   3.841362   4.880741   6.127205
    20  H    5.774326   5.035282   4.692007   5.584196   6.631696
    21  H    5.972943   5.133786   4.404604   5.582761   6.975214
    22  S    4.827374   4.509041   3.193917   4.112564   5.743527
    23  O    6.140477   5.901503   4.575668   5.383577   6.984415
    24  O    3.726046   3.675940   2.617360   3.118910   4.513747
    25  O    4.882876   4.578109   2.807106   3.943357   5.882052
                    6          7          8          9         10
     6  H    0.000000
     7  H    4.212058   0.000000
     8  C    4.637446   2.825087   0.000000
     9  H    5.335529   2.618201   1.087633   0.000000
    10  H    4.979833   3.177410   1.089995   1.775572   0.000000
    11  H    4.939352   3.799368   1.088348   1.776428   1.792232
    12  N    2.156494   2.132744   3.559790   3.915579   3.952374
    13  C    2.826704   2.797186   4.896446   5.118207   5.179307
    14  H    2.666711   3.696817   5.611116   5.872499   5.999679
    15  H    3.809592   2.509373   5.059206   5.048219   5.390082
    16  C    3.358447   3.596280   5.516175   5.854973   5.499735
    17  H    3.761486   4.593911   6.551742   6.901258   6.564219
    18  H    2.883513   3.838972   5.202232   5.726477   5.079791
    19  C    4.730990   3.664809   5.787279   5.963804   5.591814
    20  H    5.262949   4.579789   6.414015   6.681239   6.063788
    21  H    5.446884   4.050175   6.487895   6.517701   6.378678
    22  S    5.190401   2.703923   4.621812   4.639780   4.305505
    23  O    6.551976   3.988068   5.649194   5.597240   5.146378
    24  O    4.429564   2.544030   3.561407   3.864964   3.098410
    25  O    5.360868   1.941686   4.455692   4.181948   4.446023
                   11         12         13         14         15
    11  H    0.000000
    12  N    4.244140   0.000000
    13  C    5.669151   1.474260   0.000000
    14  H    6.257424   2.065072   1.090181   0.000000
    15  H    5.909088   2.073808   1.088132   1.772720   0.000000
    16  C    6.355355   2.506980   1.544765   2.184878   2.187395
    17  H    7.347768   3.333160   2.144819   2.300010   2.748511
    18  H    5.960909   2.534422   2.157962   2.718393   3.013806
    19  C    6.764614   3.455410   2.613926   3.466769   2.684973
    20  H    7.371957   4.291444   3.532323   4.294249   3.744937
    21  H    7.490810   4.036243   2.949292   3.680228   2.678939
    22  S    5.683187   3.488818   3.300874   4.372788   3.130391
    23  O    6.713173   4.938259   4.673073   5.714454   4.437150
    24  O    4.555099   3.022278   3.397040   4.433745   3.593215
    25  O    5.518222   3.311409   3.124744   4.147133   2.521332
                   16         17         18         19         20
    16  C    0.000000
    17  H    1.094094   0.000000
    18  H    1.091784   1.755484   0.000000
    19  C    1.530019   2.137137   2.150448   0.000000
    20  H    2.158916   2.502954   2.417312   1.089864   0.000000
    21  H    2.184709   2.459842   3.066916   1.090915   1.769539
    22  S    2.837283   3.771665   3.115399   1.826322   2.371070
    23  O    3.977803   4.750846   4.219743   2.625230   2.683850
    24  O    3.015519   4.070302   2.789076   2.631135   2.997267
    25  O    3.321875   4.216068   3.868885   2.612252   3.493991
                   21         22         23         24         25
    21  H    0.000000
    22  S    2.359409   0.000000
    23  O    2.919265   1.454755   0.000000
    24  O    3.503809   1.485754   2.486318   0.000000
    25  O    2.680449   1.489908   2.481080   2.454763   0.000000
 Stoichiometry    C7H12N2O3S
 Framework group  C1[X(C7H12N2O3S)]
 Deg. of freedom    69
 Full point group                 C1      NOp   1
 Largest Abelian subgroup         C1      NOp   1
 Largest concise Abelian subgroup C1      NOp   1
                         Standard orientation:                         
 ---------------------------------------------------------------------
 Center     Atomic      Atomic             Coordinates (Angstroms)
 Number     Number       Type             X           Y           Z
 ---------------------------------------------------------------------
      1          6           0        2.931867    0.272513   -0.649024
      2          6           0        2.217230    1.406225   -0.445657
      3          6           0        1.284479   -0.199959    0.742175
      4          7           0        2.340698   -0.716817    0.116579
      5          1           0        3.802909    0.086552   -1.251570
      6          1           0        2.347361    2.398194   -0.839863
      7          1           0        0.542633   -0.728000    1.330691
      8          6           0        2.610894   -2.148792    0.032706
      9          1           0        2.312230   -2.622671    0.965006
     10          1           0        2.030136   -2.571246   -0.787259
     11          1           0        3.675704   -2.305735   -0.128697
     12          7           0        1.198427    1.093749    0.436397
     13          6           0        0.047201    1.961748    0.744130
     14          1           0        0.456872    2.949030    0.958463
     15          1           0       -0.417590    1.568828    1.646136
     16          6           0       -0.964242    2.027351   -0.421622
     17          1           0       -1.338520    3.054035   -0.475269
     18          1           0       -0.433105    1.834818   -1.355869
     19          6           0       -2.170814    1.090958   -0.330459
     20          1           0       -2.745156    1.136419   -1.255590
     21          1           0       -2.828791    1.356331    0.498238
     22         16           0       -1.767207   -0.671623   -0.073824
     23          8           0       -2.970258   -1.407577   -0.430689
     24          8           0       -0.586443   -0.918972   -0.941050
     25          8           0       -1.398667   -0.737123    1.368297
 ---------------------------------------------------------------------
 Rotational constants (GHZ):           1.2006968           0.5901778           0.4584676
 Leave Link  202 at Wed Oct 11 15:28:28 2023, MaxMem=  6710886400 cpu:               0.1 elap:               0.0
 (Enter /data0/home/software/g16/l301.exe)
 Standard basis: 6-311+G(2d,p) (5D, 7F)
 Ernie: Thresh=  0.10000D-02 Tol=  0.10000D-05 Strict=F.
 There are   457 symmetry adapted cartesian basis functions of A   symmetry.
 There are   431 symmetry adapted basis functions of A   symmetry.
   431 basis functions,   656 primitive gaussians,   457 cartesian basis functions
    54 alpha electrons       54 beta electrons
       nuclear repulsion energy      1030.4511639915 Hartrees.
 IExCor=  402 DFT=T Ex+Corr=B3LYP ExCW=0 ScaHFX=  0.200000
 ScaDFX=  0.800000  0.720000  1.000000  0.810000 ScalE2=  1.000000  1.000000
 IRadAn=      5 IRanWt=     -1 IRanGd=            0 ICorTp=0 IEmpDi=141
 NAtoms=   25 NActive=   25 NUniq=   25 SFac= 1.00D+00 NAtFMM=   60 NAOKFM=F Big=F
 Integral buffers will be    131072 words long.
 Raffenetti 2 integral format.
 Two-electron integral symmetry is turned on.
 R6Disp:  Grimme-D3(BJ) Dispersion energy=       -0.0517093193 Hartrees.
 Nuclear repulsion after empirical dispersion term =     1030.3994546722 Hartrees.
 Leave Link  301 at Wed Oct 11 15:28:28 2023, MaxMem=  6710886400 cpu:               1.1 elap:               0.1
 (Enter /data0/home/software/g16/l302.exe)
 NPDir=0 NMtPBC=     1 NCelOv=     1 NCel=       1 NClECP=     1 NCelD=      1
         NCelK=      1 NCelE2=     1 NClLst=     1 CellRange=     0.0.
 One-electron integrals computed using PRISM.
 One-electron integral symmetry used in STVInt
 NBasis=   431 RedAO= T EigKep=  1.26D-05  NBF=   431
 NBsUse=   431 1.00D-06 EigRej= -1.00D+00 NBFU=   431
 Precomputing XC quadrature grid using
 IXCGrd= 4 IRadAn=           5 IRanWt=          -1 IRanGd=           0 AccXCQ= 0.00D+00.
 Generated NRdTot=       0 NPtTot=           0 NUsed=           0 NTot=          32
 NSgBfM=   457   457   457   457   457 MxSgAt=    25 MxSgA2=    25.
 Leave Link  302 at Wed Oct 11 15:28:29 2023, MaxMem=  6710886400 cpu:               9.0 elap:               0.4
 (Enter /data0/home/software/g16/l303.exe)
 DipDrv:  MaxL=1.
 Leave Link  303 at Wed Oct 11 15:28:29 2023, MaxMem=  6710886400 cpu:               1.0 elap:               0.1
 (Enter /data0/home/software/g16/l401.exe)
 ExpMin= 4.05D-02 ExpMax= 9.34D+04 ExpMxC= 3.17D+03 IAcc=3 IRadAn=         5 AccDes= 0.00D+00
 Harris functional with IExCor=  402 and IRadAn=       5 diagonalized for initial guess.
 HarFok:  IExCor=  402 AccDes= 0.00D+00 IRadAn=         5 IDoV= 1 UseB2=F ITyADJ=14
 ICtDFT=  3500011 ScaDFX=  1.000000  1.000000  1.000000  1.000000
 FoFCou: FMM=F IPFlag=           0 FMFlag=      100000 FMFlg1=           0
         NFxFlg=           0 DoJE=T BraDBF=F KetDBF=T FulRan=T
         wScrn=  0.000000 ICntrl=       500 IOpCl=  0 I1Cent=   200000004 NGrid=           0
         NMat0=    1 NMatS0=      1 NMatT0=    0 NMatD0=    1 NMtDS0=    0 NMtDT0=    0
 Petite list used in FoFCou.
 Harris En= -1007.61698422478    
 JPrj=0 DoOrth=F DoCkMO=F.
 Leave Link  401 at Wed Oct 11 15:28:30 2023, MaxMem=  6710886400 cpu:              33.4 elap:               1.4
 (Enter /data0/home/software/g16/l502.exe)
 Integral symmetry usage will be decided dynamically.
 Closed shell SCF:
 Using DIIS extrapolation, IDIIS=  1040.
 NGot=  6710886400 LenX=  6710453468 LenY=  6710244162
 Requested convergence on RMS density matrix=1.00D-08 within 128 cycles.
 Requested convergence on MAX density matrix=1.00D-06.
 Requested convergence on             energy=1.00D-06.
 No special actions if energy rises.
 Fock matrices will be formed incrementally for  20 cycles.

 Cycle   1  Pass 1  IDiag  1:
 FoFJK:  IHMeth= 1 ICntrl=       0 DoSepK=F KAlg= 0 I1Cent=           0 FoldK=F
 IRaf= 910000000 NMat=       1 IRICut=       1 DoRegI=T DoRafI=F ISym2E= 0 IDoP0=0 IntGTp=1.
 FoFCou: FMM=F IPFlag=           0 FMFlag=      100000 FMFlg1=           0
         NFxFlg=           0 DoJE=F BraDBF=F KetDBF=F FulRan=T
         wScrn=  0.000000 ICntrl=         0 IOpCl=  0 I1Cent=           0 NGrid=           0
         NMat0=    1 NMatS0=      1 NMatT0=    0 NMatD0=    1 NMtDS0=    0 NMtDT0=    0
 Symmetry not used in FoFCou.
 E= -1007.08014225487    
 DIIS: error= 2.16D-02 at cycle   1 NSaved=   1.
 NSaved= 1 IEnMin= 1 EnMin= -1007.08014225487     IErMin= 1 ErrMin= 2.16D-02
 ErrMax= 2.16D-02  0.00D+00 EMaxC= 1.00D-01 BMatC= 6.94D-01 BMatP= 6.94D-01
 IDIUse=3 WtCom= 7.84D-01 WtEn= 2.16D-01
 Coeff-Com:  0.100D+01
 Coeff-En:   0.100D+01
 Coeff:      0.100D+01
 Gap=     0.218 Goal=   None    Shift=    0.000
 GapD=    0.218 DampG=1.000 DampE=0.500 DampFc=0.5000 IDamp=-1.
 Damping current iteration by 5.00D-01
 RMSDP=9.01D-03 MaxDP=1.12D+00              OVMax= 2.77D-01

 Cycle   2  Pass 1  IDiag  1:
 RMSU=  4.46D-03    CP:  1.06D+00
 E= -1007.19192784532     Delta-E=       -0.111785590445 Rises=F Damp=T
 DIIS: error= 1.01D-02 at cycle   2 NSaved=   2.
 NSaved= 2 IEnMin= 2 EnMin= -1007.19192784532     IErMin= 2 ErrMin= 1.01D-02
 ErrMax= 1.01D-02  0.00D+00 EMaxC= 1.00D-01 BMatC= 9.45D-02 BMatP= 6.94D-01
 IDIUse=3 WtCom= 8.99D-01 WtEn= 1.01D-01
 Coeff-Com:  0.221D+00 0.779D+00
 Coeff-En:   0.380D+00 0.620D+00
 Coeff:      0.237D+00 0.763D+00
 Gap=     0.186 Goal=   None    Shift=    0.000
 RMSDP=3.19D-03 MaxDP=4.83D-01 DE=-1.12D-01 OVMax= 2.23D-01

 Cycle   3  Pass 1  IDiag  1:
 RMSU=  1.67D-03    CP:  9.96D-01  4.08D-01
 E= -1007.53160250146     Delta-E=       -0.339674656147 Rises=F Damp=F
 DIIS: error= 6.12D-03 at cycle   3 NSaved=   3.
 NSaved= 3 IEnMin= 3 EnMin= -1007.53160250146     IErMin= 3 ErrMin= 6.12D-03
 ErrMax= 6.12D-03  0.00D+00 EMaxC= 1.00D-01 BMatC= 3.42D-02 BMatP= 9.45D-02
 IDIUse=3 WtCom= 9.39D-01 WtEn= 6.12D-02
 Coeff-Com:  0.498D-01 0.383D+00 0.567D+00
 Coeff-En:   0.000D+00 0.000D+00 0.100D+01
 Coeff:      0.468D-01 0.360D+00 0.593D+00
 Gap=     0.180 Goal=   None    Shift=    0.000
 RMSDP=7.75D-04 MaxDP=4.57D-02 DE=-3.40D-01 OVMax= 4.61D-02

 Cycle   4  Pass 1  IDiag  1:
 RMSU=  7.36D-04    CP:  9.97D-01  4.44D-01  8.92D-01
 E= -1007.55511836206     Delta-E=       -0.023515860596 Rises=F Damp=F
 DIIS: error= 2.77D-03 at cycle   4 NSaved=   4.
 NSaved= 4 IEnMin= 4 EnMin= -1007.55511836206     IErMin= 4 ErrMin= 2.77D-03
 ErrMax= 2.77D-03  0.00D+00 EMaxC= 1.00D-01 BMatC= 6.26D-03 BMatP= 3.42D-02
 IDIUse=3 WtCom= 9.72D-01 WtEn= 2.77D-02
 Coeff-Com: -0.559D-02 0.993D-01 0.330D+00 0.577D+00
 Coeff-En:   0.000D+00 0.000D+00 0.155D+00 0.845D+00
 Coeff:     -0.544D-02 0.966D-01 0.325D+00 0.584D+00
 Gap=     0.180 Goal=   None    Shift=    0.000
 RMSDP=3.23D-04 MaxDP=2.46D-02 DE=-2.35D-02 OVMax= 2.00D-02

 Cycle   5  Pass 1  IDiag  1:
 RMSU=  1.80D-04    CP:  9.94D-01  4.33D-01  9.37D-01  6.58D-01
 E= -1007.56031017962     Delta-E=       -0.005191817560 Rises=F Damp=F
 DIIS: error= 7.82D-04 at cycle   5 NSaved=   5.
 NSaved= 5 IEnMin= 5 EnMin= -1007.56031017962     IErMin= 5 ErrMin= 7.82D-04
 ErrMax= 7.82D-04  0.00D+00 EMaxC= 1.00D-01 BMatC= 7.14D-04 BMatP= 6.26D-03
 IDIUse=3 WtCom= 9.92D-01 WtEn= 7.82D-03
 Coeff-Com: -0.694D-02 0.312D-01 0.148D+00 0.344D+00 0.483D+00
 Coeff-En:   0.000D+00 0.000D+00 0.000D+00 0.000D+00 0.100D+01
 Coeff:     -0.688D-02 0.310D-01 0.147D+00 0.342D+00 0.488D+00
 Gap=     0.181 Goal=   None    Shift=    0.000
 RMSDP=1.02D-04 MaxDP=6.87D-03 DE=-5.19D-03 OVMax= 5.82D-03

 Cycle   6  Pass 1  IDiag  1:
 RMSU=  7.20D-05    CP:  9.95D-01  4.39D-01  9.36D-01  6.99D-01  6.70D-01
 E= -1007.56079444955     Delta-E=       -0.000484269928 Rises=F Damp=F
 DIIS: error= 3.42D-04 at cycle   6 NSaved=   6.
 NSaved= 6 IEnMin= 6 EnMin= -1007.56079444955     IErMin= 6 ErrMin= 3.42D-04
 ErrMax= 3.42D-04  0.00D+00 EMaxC= 1.00D-01 BMatC= 1.11D-04 BMatP= 7.14D-04
 IDIUse=3 WtCom= 9.97D-01 WtEn= 3.42D-03
 Coeff-Com: -0.355D-02 0.627D-02 0.470D-01 0.137D+00 0.318D+00 0.496D+00
 Coeff-En:   0.000D+00 0.000D+00 0.000D+00 0.000D+00 0.119D+00 0.881D+00
 Coeff:     -0.354D-02 0.625D-02 0.469D-01 0.136D+00 0.317D+00 0.497D+00
 Gap=     0.181 Goal=   None    Shift=    0.000
 RMSDP=3.53D-05 MaxDP=1.74D-03 DE=-4.84D-04 OVMax= 2.08D-03

 Cycle   7  Pass 1  IDiag  1:
 RMSU=  2.23D-05    CP:  9.94D-01  4.38D-01  9.41D-01  7.08D-01  6.93D-01
                    CP:  6.66D-01
 E= -1007.56087615197     Delta-E=       -0.000081702426 Rises=F Damp=F
 DIIS: error= 5.15D-05 at cycle   7 NSaved=   7.
 NSaved= 7 IEnMin= 7 EnMin= -1007.56087615197     IErMin= 7 ErrMin= 5.15D-05
 ErrMax= 5.15D-05  0.00D+00 EMaxC= 1.00D-01 BMatC= 4.49D-06 BMatP= 1.11D-04
 IDIUse=1 WtCom= 1.00D+00 WtEn= 0.00D+00
 Coeff-Com: -0.976D-03 0.218D-03 0.984D-02 0.364D-01 0.115D+00 0.245D+00
 Coeff-Com:  0.595D+00
 Coeff:     -0.976D-03 0.218D-03 0.984D-02 0.364D-01 0.115D+00 0.245D+00
 Coeff:      0.595D+00
 Gap=     0.180 Goal=   None    Shift=    0.000
 RMSDP=8.93D-06 MaxDP=9.77D-04 DE=-8.17D-05 OVMax= 3.62D-04

 Cycle   8  Pass 1  IDiag  1:
 RMSU=  5.53D-06    CP:  9.94D-01  4.37D-01  9.42D-01  7.09D-01  6.97D-01
                    CP:  6.59D-01  7.14D-01
 E= -1007.56088006079     Delta-E=       -0.000003908813 Rises=F Damp=F
 DIIS: error= 1.16D-05 at cycle   8 NSaved=   8.
 NSaved= 8 IEnMin= 8 EnMin= -1007.56088006079     IErMin= 8 ErrMin= 1.16D-05
 ErrMax= 1.16D-05  0.00D+00 EMaxC= 1.00D-01 BMatC= 1.67D-07 BMatP= 4.49D-06
 IDIUse=1 WtCom= 1.00D+00 WtEn= 0.00D+00
 Coeff-Com: -0.823D-04-0.335D-03 0.489D-03 0.429D-02 0.207D-01 0.566D-01
 Coeff-Com:  0.216D+00 0.702D+00
 Coeff:     -0.823D-04-0.335D-03 0.489D-03 0.429D-02 0.207D-01 0.566D-01
 Coeff:      0.216D+00 0.702D+00
 Gap=     0.181 Goal=   None    Shift=    0.000
 RMSDP=2.43D-06 MaxDP=1.86D-04 DE=-3.91D-06 OVMax= 1.43D-04

 Cycle   9  Pass 1  IDiag  1:
 RMSU=  1.59D-06    CP:  9.94D-01  4.37D-01  9.42D-01  7.08D-01  7.03D-01
                    CP:  6.69D-01  7.42D-01  8.09D-01
 E= -1007.56088021173     Delta-E=       -0.000000150944 Rises=F Damp=F
 DIIS: error= 4.87D-06 at cycle   9 NSaved=   9.
 NSaved= 9 IEnMin= 9 EnMin= -1007.56088021173     IErMin= 9 ErrMin= 4.87D-06
 ErrMax= 4.87D-06  0.00D+00 EMaxC= 1.00D-01 BMatC= 2.59D-08 BMatP= 1.67D-07
 IDIUse=1 WtCom= 1.00D+00 WtEn= 0.00D+00
 Coeff-Com:  0.392D-04-0.173D-03-0.560D-03-0.758D-03 0.123D-02 0.955D-02
 Coeff-Com:  0.591D-01 0.339D+00 0.592D+00
 Coeff:      0.392D-04-0.173D-03-0.560D-03-0.758D-03 0.123D-02 0.955D-02
 Coeff:      0.591D-01 0.339D+00 0.592D+00
 Gap=     0.181 Goal=   None    Shift=    0.000
 RMSDP=7.64D-07 MaxDP=5.26D-05 DE=-1.51D-07 OVMax= 5.14D-05

 Cycle  10  Pass 1  IDiag  1:
 RMSU=  4.47D-07    CP:  9.94D-01  4.37D-01  9.42D-01  7.08D-01  7.02D-01
                    CP:  6.69D-01  7.45D-01  8.66D-01  7.86D-01
 E= -1007.56088023247     Delta-E=       -0.000000020739 Rises=F Damp=F
 DIIS: error= 2.10D-06 at cycle  10 NSaved=  10.
 NSaved=10 IEnMin=10 EnMin= -1007.56088023247     IErMin=10 ErrMin= 2.10D-06
 ErrMax= 2.10D-06  0.00D+00 EMaxC= 1.00D-01 BMatC= 4.02D-09 BMatP= 2.59D-08
 IDIUse=1 WtCom= 1.00D+00 WtEn= 0.00D+00
 Coeff-Com:  0.228D-04-0.619D-04-0.342D-03-0.744D-03-0.118D-02 0.185D-03
 Coeff-Com:  0.116D-01 0.121D+00 0.337D+00 0.533D+00
 Coeff:      0.228D-04-0.619D-04-0.342D-03-0.744D-03-0.118D-02 0.185D-03
 Coeff:      0.116D-01 0.121D+00 0.337D+00 0.533D+00
 Gap=     0.181 Goal=   None    Shift=    0.000
 RMSDP=1.96D-07 MaxDP=1.13D-05 DE=-2.07D-08 OVMax= 1.73D-05

 Cycle  11  Pass 1  IDiag  1:
 RMSU=  1.64D-07    CP:  9.94D-01  4.37D-01  9.42D-01  7.08D-01  7.02D-01
                    CP:  6.69D-01  7.46D-01  8.77D-01  7.89D-01  8.48D-01
 E= -1007.56088023587     Delta-E=       -0.000000003400 Rises=F Damp=F
 DIIS: error= 4.37D-07 at cycle  11 NSaved=  11.
 NSaved=11 IEnMin=11 EnMin= -1007.56088023587     IErMin=11 ErrMin= 4.37D-07
 ErrMax= 4.37D-07  0.00D+00 EMaxC= 1.00D-01 BMatC= 2.54D-10 BMatP= 4.02D-09
 IDIUse=1 WtCom= 1.00D+00 WtEn= 0.00D+00
 Coeff-Com:  0.391D-05-0.685D-05-0.101D-03-0.249D-03-0.685D-03-0.913D-03
 Coeff-Com: -0.997D-03 0.178D-01 0.870D-01 0.241D+00 0.657D+00
 Coeff:      0.391D-05-0.685D-05-0.101D-03-0.249D-03-0.685D-03-0.913D-03
 Coeff:     -0.997D-03 0.178D-01 0.870D-01 0.241D+00 0.657D+00
 Gap=     0.181 Goal=   None    Shift=    0.000
 RMSDP=8.76D-08 MaxDP=6.47D-06 DE=-3.40D-09 OVMax= 6.03D-06

 Cycle  12  Pass 1  IDiag  1:
 RMSU=  5.75D-08    CP:  9.94D-01  4.37D-01  9.42D-01  7.08D-01  7.02D-01
                    CP:  6.69D-01  7.46D-01  8.77D-01  8.08D-01  8.85D-01
                    CP:  7.81D-01
 E= -1007.56088023608     Delta-E=       -0.000000000214 Rises=F Damp=F
 DIIS: error= 3.38D-07 at cycle  12 NSaved=  12.
 NSaved=12 IEnMin=12 EnMin= -1007.56088023608     IErMin=12 ErrMin= 3.38D-07
 ErrMax= 3.38D-07  0.00D+00 EMaxC= 1.00D-01 BMatC= 7.79D-11 BMatP= 2.54D-10
 IDIUse=1 WtCom= 1.00D+00 WtEn= 0.00D+00
 Coeff-Com:  0.242D-06 0.207D-05-0.356D-04-0.950D-04-0.334D-03-0.597D-03
 Coeff-Com: -0.167D-02-0.219D-03 0.231D-01 0.102D+00 0.419D+00 0.459D+00
 Coeff:      0.242D-06 0.207D-05-0.356D-04-0.950D-04-0.334D-03-0.597D-03
 Coeff:     -0.167D-02-0.219D-03 0.231D-01 0.102D+00 0.419D+00 0.459D+00
 Gap=     0.181 Goal=   None    Shift=    0.000
 RMSDP=3.01D-08 MaxDP=1.02D-06 DE=-2.14D-10 OVMax= 2.66D-06

 Cycle  13  Pass 1  IDiag  1:
 RMSU=  2.01D-08    CP:  9.94D-01  4.37D-01  9.42D-01  7.08D-01  7.02D-01
                    CP:  6.69D-01  7.46D-01  8.78D-01  8.09D-01  8.81D-01
                    CP:  8.57D-01  7.31D-01
 E= -1007.56088023615     Delta-E=       -0.000000000071 Rises=F Damp=F
 DIIS: error= 9.15D-08 at cycle  13 NSaved=  13.
 NSaved=13 IEnMin=13 EnMin= -1007.56088023615     IErMin=13 ErrMin= 9.15D-08
 ErrMax= 9.15D-08  0.00D+00 EMaxC= 1.00D-01 BMatC= 7.04D-12 BMatP= 7.79D-11
 IDIUse=1 WtCom= 1.00D+00 WtEn= 0.00D+00
 Coeff-Com: -0.495D-06 0.220D-05-0.619D-05-0.192D-04-0.946D-04-0.216D-03
 Coeff-Com: -0.811D-03-0.269D-02-0.623D-03 0.193D-01 0.128D+00 0.267D+00
 Coeff-Com:  0.590D+00
 Coeff:     -0.495D-06 0.220D-05-0.619D-05-0.192D-04-0.946D-04-0.216D-03
 Coeff:     -0.811D-03-0.269D-02-0.623D-03 0.193D-01 0.128D+00 0.267D+00
 Coeff:      0.590D+00
 Gap=     0.181 Goal=   None    Shift=    0.000
 RMSDP=9.74D-09 MaxDP=3.51D-07 DE=-7.12D-11 OVMax= 7.23D-07

 SCF Done:  E(RB3LYP) =  -1007.56088024     A.U. after   13 cycles
            NFock= 13  Conv=0.97D-08     -V/T= 2.0029
 KE= 1.004610250756D+03 PE=-4.431730205180D+03 EE= 1.389159619515D+03
 Leave Link  502 at Wed Oct 11 15:29:15 2023, MaxMem=  6710886400 cpu:            1064.1 elap:              44.5
 (Enter /data0/home/software/g16/l601.exe)
 Copying SCF densities to generalized density rwf, IOpCl= 0 IROHF=0.

 **********************************************************************

            Population analysis using the SCF density.

 **********************************************************************

 Orbital symmetries:
       Occupied  (A) (A) (A) (A) (A) (A) (A) (A) (A) (A) (A) (A)
                 (A) (A) (A) (A) (A) (A) (A) (A) (A) (A) (A) (A)
                 (A) (A) (A) (A) (A) (A) (A) (A) (A) (A) (A) (A)
                 (A) (A) (A) (A) (A) (A) (A) (A) (A) (A) (A) (A)
                 (A) (A) (A) (A) (A) (A)
       Virtual   (A) (A) (A) (A) (A) (A) (A) (A) (A) (A) (A) (A)
                 (A) (A) (A) (A) (A) (A) (A) (A) (A) (A) (A) (A)
                 (A) (A) (A) (A) (A) (A) (A) (A) (A) (A) (A) (A)
                 (A) (A) (A) (A) (A) (A) (A) (A) (A) (A) (A) (A)
                 (A) (A) (A) (A) (A) (A) (A) (A) (A) (A) (A) (A)
                 (A) (A) (A) (A) (A) (A) (A) (A) (A) (A) (A) (A)
                 (A) (A) (A) (A) (A) (A) (A) (A) (A) (A) (A) (A)
                 (A) (A) (A) (A) (A) (A) (A) (A) (A) (A) (A) (A)
                 (A) (A) (A) (A) (A) (A) (A) (A) (A) (A) (A) (A)
                 (A) (A) (A) (A) (A) (A) (A) (A) (A) (A) (A) (A)
                 (A) (A) (A) (A) (A) (A) (A) (A) (A) (A) (A) (A)
                 (A) (A) (A) (A) (A) (A) (A) (A) (A) (A) (A) (A)
                 (A) (A) (A) (A) (A) (A) (A) (A) (A) (A) (A) (A)
                 (A) (A) (A) (A) (A) (A) (A) (A) (A) (A) (A) (A)
                 (A) (A) (A) (A) (A) (A) (A) (A) (A) (A) (A) (A)
                 (A) (A) (A) (A) (A) (A) (A) (A) (A) (A) (A) (A)
                 (A) (A) (A) (A) (A) (A) (A) (A) (A) (A) (A) (A)
                 (A) (A) (A) (A) (A) (A) (A) (A) (A) (A) (A) (A)
                 (A) (A) (A) (A) (A) (A) (A) (A) (A) (A) (A) (A)
                 (A) (A) (A) (A) (A) (A) (A) (A) (A) (A) (A) (A)
                 (A) (A) (A) (A) (A) (A) (A) (A) (A) (A) (A) (A)
                 (A) (A) (A) (A) (A) (A) (A) (A) (A) (A) (A) (A)
                 (A) (A) (A) (A) (A) (A) (A) (A) (A) (A) (A) (A)
                 (A) (A) (A) (A) (A) (A) (A) (A) (A) (A) (A) (A)
                 (A) (A) (A) (A) (A) (A) (A) (A) (A) (A) (A) (A)
                 (A) (A) (A) (A) (A) (A) (A) (A) (A) (A) (A) (A)
                 (A) (A) (A) (A) (A) (A) (A) (A) (A) (A) (A) (A)
                 (A) (A) (A) (A) (A) (A) (A) (A) (A) (A) (A) (A)
                 (A) (A) (A) (A) (A) (A) (A) (A) (A) (A) (A) (A)
                 (A) (A) (A) (A) (A) (A) (A) (A) (A) (A) (A) (A)
                 (A) (A) (A) (A) (A) (A) (A) (A) (A) (A) (A) (A)
                 (A) (A) (A) (A) (A)
 The electronic state is 1-A.
 Alpha  occ. eigenvalues --  -88.99607 -19.05836 -19.05734 -19.05207 -14.43004
 Alpha  occ. eigenvalues --  -14.42489 -10.28579 -10.25666 -10.25525 -10.24998
 Alpha  occ. eigenvalues --  -10.24549 -10.19395 -10.17548  -8.05184  -6.01488
 Alpha  occ. eigenvalues --   -6.01458  -6.01425  -1.10275  -1.07433  -0.98566
 Alpha  occ. eigenvalues --   -0.94258  -0.93605  -0.84028  -0.81173  -0.77663
 Alpha  occ. eigenvalues --   -0.72813  -0.67787  -0.65133  -0.63228  -0.58736
 Alpha  occ. eigenvalues --   -0.54046  -0.53354  -0.51886  -0.50379  -0.49882
 Alpha  occ. eigenvalues --   -0.49051  -0.47896  -0.45951  -0.45565  -0.44680
 Alpha  occ. eigenvalues --   -0.43773  -0.41632  -0.41026  -0.40228  -0.37894
 Alpha  occ. eigenvalues --   -0.36492  -0.33367  -0.31401  -0.29849  -0.28661
 Alpha  occ. eigenvalues --   -0.26265  -0.26090  -0.25386  -0.22393
 Alpha virt. eigenvalues --   -0.04339  -0.03176  -0.01936  -0.01048   0.00185
 Alpha virt. eigenvalues --    0.01153   0.02033   0.02464   0.02878   0.03974
 Alpha virt. eigenvalues --    0.04415   0.05257   0.05689   0.05999   0.06943
 Alpha virt. eigenvalues --    0.07570   0.08024   0.08979   0.09718   0.09862
 Alpha virt. eigenvalues --    0.10659   0.11150   0.11303   0.11635   0.12221
 Alpha virt. eigenvalues --    0.12614   0.13214   0.13666   0.14210   0.14594
 Alpha virt. eigenvalues --    0.14790   0.15109   0.15751   0.15998   0.16231
 Alpha virt. eigenvalues --    0.16559   0.17202   0.17310   0.17678   0.17815
 Alpha virt. eigenvalues --    0.18168   0.18766   0.19490   0.19870   0.20663
 Alpha virt. eigenvalues --    0.20867   0.21620   0.22055   0.22570   0.22852
 Alpha virt. eigenvalues --    0.22984   0.24040   0.24563   0.25742   0.26901
 Alpha virt. eigenvalues --    0.27171   0.28112   0.28813   0.29464   0.29730
 Alpha virt. eigenvalues --    0.29995   0.30313   0.31384   0.31668   0.32247
 Alpha virt. eigenvalues --    0.33993   0.34630   0.35357   0.35940   0.36188
 Alpha virt. eigenvalues --    0.36798   0.37063   0.38046   0.38344   0.38676
 Alpha virt. eigenvalues --    0.39515   0.40717   0.41388   0.41871   0.42621
 Alpha virt. eigenvalues --    0.43147   0.44764   0.45020   0.45234   0.46359
 Alpha virt. eigenvalues --    0.47479   0.47789   0.49281   0.50422   0.51214
 Alpha virt. eigenvalues --    0.51785   0.53979   0.54463   0.54919   0.55781
 Alpha virt. eigenvalues --    0.57620   0.58147   0.58724   0.59379   0.59878
 Alpha virt. eigenvalues --    0.60219   0.60917   0.61804   0.62433   0.63833
 Alpha virt. eigenvalues --    0.64688   0.65160   0.67260   0.67595   0.68202
 Alpha virt. eigenvalues --    0.68892   0.70330   0.71262   0.72060   0.72458
 Alpha virt. eigenvalues --    0.73123   0.74226   0.74739   0.75664   0.76110
 Alpha virt. eigenvalues --    0.79030   0.79120   0.81793   0.82402   0.84124
 Alpha virt. eigenvalues --    0.84493   0.86285   0.87060   0.87535   0.88532
 Alpha virt. eigenvalues --    0.89805   0.91145   0.91273   0.93261   0.94280
 Alpha virt. eigenvalues --    0.95454   0.96938   0.98047   0.99537   1.01577
 Alpha virt. eigenvalues --    1.02483   1.03583   1.06545   1.07677   1.08554
 Alpha virt. eigenvalues --    1.10981   1.12473   1.12931   1.13429   1.15523
 Alpha virt. eigenvalues --    1.15840   1.16104   1.18626   1.19723   1.21027
 Alpha virt. eigenvalues --    1.21317   1.22093   1.22865   1.23146   1.23598
 Alpha virt. eigenvalues --    1.24880   1.25964   1.27561   1.29351   1.30795
 Alpha virt. eigenvalues --    1.31422   1.33046   1.33359   1.34986   1.36107
 Alpha virt. eigenvalues --    1.37517   1.37996   1.39040   1.39414   1.39951
 Alpha virt. eigenvalues --    1.42753   1.43612   1.45377   1.45582   1.47321
 Alpha virt. eigenvalues --    1.47934   1.50908   1.52640   1.54017   1.54153
 Alpha virt. eigenvalues --    1.57383   1.57646   1.60750   1.61631   1.63726
 Alpha virt. eigenvalues --    1.66347   1.68876   1.69840   1.72269   1.72968
 Alpha virt. eigenvalues --    1.73974   1.75645   1.76322   1.78727   1.79160
 Alpha virt. eigenvalues --    1.80778   1.82772   1.83661   1.84817   1.85881
 Alpha virt. eigenvalues --    1.87473   1.88429   1.90345   1.92846   1.93995
 Alpha virt. eigenvalues --    1.94789   1.96836   1.99534   2.01272   2.02376
 Alpha virt. eigenvalues --    2.05500   2.07856   2.09952   2.11397   2.13077
 Alpha virt. eigenvalues --    2.14791   2.16317   2.17519   2.18887   2.19534
 Alpha virt. eigenvalues --    2.23304   2.24358   2.26248   2.28481   2.29406
 Alpha virt. eigenvalues --    2.31518   2.32590   2.33888   2.35187   2.36278
 Alpha virt. eigenvalues --    2.37887   2.38845   2.39774   2.41428   2.43453
 Alpha virt. eigenvalues --    2.46319   2.48852   2.50638   2.52109   2.54336
 Alpha virt. eigenvalues --    2.64086   2.67139   2.69712   2.71106   2.72914
 Alpha virt. eigenvalues --    2.73688   2.75792   2.76924   2.78851   2.80928
 Alpha virt. eigenvalues --    2.83651   2.86195   2.87397   2.88761   2.89768
 Alpha virt. eigenvalues --    2.91187   2.92830   2.93615   2.96564   2.96930
 Alpha virt. eigenvalues --    3.00578   3.02308   3.07340   3.07995   3.13993
 Alpha virt. eigenvalues --    3.16186   3.20257   3.21805   3.23143   3.26347
 Alpha virt. eigenvalues --    3.27583   3.29530   3.32942   3.35952   3.36593
 Alpha virt. eigenvalues --    3.38018   3.39449   3.40750   3.43198   3.44521
 Alpha virt. eigenvalues --    3.46661   3.49280   3.49825   3.52352   3.52709
 Alpha virt. eigenvalues --    3.54749   3.55927   3.57126   3.59520   3.60932
 Alpha virt. eigenvalues --    3.62773   3.63422   3.64002   3.65983   3.67276
 Alpha virt. eigenvalues --    3.67572   3.70706   3.71892   3.78846   3.81491
 Alpha virt. eigenvalues --    3.86410   3.86884   3.90217   3.93239   3.94046
 Alpha virt. eigenvalues --    3.95671   4.00570   4.04745   4.12119   4.19517
 Alpha virt. eigenvalues --    4.20358   4.21495   4.26780   4.28582   4.38245
 Alpha virt. eigenvalues --    4.50979   4.56732   4.96678   4.98123   4.99981
 Alpha virt. eigenvalues --    5.07360   5.08190   5.09044   5.12155   5.12847
 Alpha virt. eigenvalues --    5.13569   5.16149   5.16871   5.19565   5.20523
 Alpha virt. eigenvalues --    5.27648   5.30127   5.37242   5.40392   5.45663
 Alpha virt. eigenvalues --    5.49879   5.54009   5.63932   5.65166   5.88846
 Alpha virt. eigenvalues --    6.82388   6.82633   6.85178   6.88819   6.90743
 Alpha virt. eigenvalues --    6.94642   6.98114   6.99098   7.00800   7.07498
 Alpha virt. eigenvalues --    7.23049   7.23814   7.32067   7.45110   7.46271
 Alpha virt. eigenvalues --    8.46825  17.58391  17.60967  17.68355  23.83883
 Alpha virt. eigenvalues --   23.90823  23.95940  23.99201  23.99822  24.10212
 Alpha virt. eigenvalues --   24.16531  35.51680  35.61360  49.98290  50.00593
 Alpha virt. eigenvalues --   50.08583 189.62140
          Condensed to atoms (all electrons):
               1          2          3          4          5          6
     1  C    5.371878   0.308787  -0.355454   0.446799   0.396201  -0.036532
     2  C    0.308787   5.339529  -0.210288  -0.092215  -0.023541   0.403223
     3  C   -0.355454  -0.210288   6.832999   0.130018   0.013327   0.008810
     4  N    0.446799  -0.092215   0.130018   6.138829  -0.036038   0.013258
     5  H    0.396201  -0.023541   0.013327  -0.036038   0.517156  -0.001513
     6  H   -0.036532   0.403223   0.008810   0.013258  -0.001513   0.515311
     7  H    0.011368  -0.003168   0.403413  -0.038968  -0.000032  -0.000003
     8  C   -0.062007  -0.019017  -0.146086   0.298611  -0.002330   0.001086
     9  H    0.004384  -0.000014  -0.010665  -0.035094  -0.000037   0.000015
    10  H   -0.004548  -0.002520  -0.026673  -0.003398   0.000276  -0.000007
    11  H   -0.011607   0.012260   0.026600  -0.058480   0.002122  -0.000013
    12  N   -0.038807   0.410461   0.166359   0.053108   0.009496  -0.033224
    13  C   -0.062852   0.041710  -0.354112   0.021949   0.000878   0.001085
    14  H    0.007103  -0.015809   0.032857  -0.001860  -0.000010   0.000576
    15  H   -0.000861   0.001958  -0.018700  -0.000448   0.000015   0.000083
    16  C    0.092094  -0.124398  -0.057899  -0.011900  -0.000278   0.002891
    17  H    0.000017   0.000962  -0.002796   0.000002  -0.000001  -0.000181
    18  H    0.002411   0.010914  -0.016487  -0.000870   0.000010  -0.000051
    19  C   -0.045857   0.042684   0.201744   0.000460  -0.000089  -0.003063
    20  H   -0.001218   0.001332   0.004232   0.000231   0.000000  -0.000001
    21  H    0.000884   0.000562  -0.004464  -0.000148  -0.000000   0.000001
    22  S    0.005124   0.020020  -0.266028   0.011745  -0.000016   0.000925
    23  O   -0.001576   0.001007   0.022454  -0.001885  -0.000000  -0.000003
    24  O    0.016515   0.017683  -0.055936   0.013443   0.000015   0.000043
    25  O    0.019451  -0.014940  -0.043942   0.013227   0.000023   0.000009
               7          8          9         10         11         12
     1  C    0.011368  -0.062007   0.004384  -0.004548  -0.011607  -0.038807
     2  C   -0.003168  -0.019017  -0.000014  -0.002520   0.012260   0.410461
     3  C    0.403413  -0.146086  -0.010665  -0.026673   0.026600   0.166359
     4  N   -0.038968   0.298611  -0.035094  -0.003398  -0.058480   0.053108
     5  H   -0.000032  -0.002330  -0.000037   0.000276   0.002122   0.009496
     6  H   -0.000003   0.001086   0.000015  -0.000007  -0.000013  -0.033224
     7  H    0.405832  -0.004553   0.002341   0.000224  -0.000242  -0.034258
     8  C   -0.004553   4.987140   0.408194   0.417169   0.393865   0.000550
     9  H    0.002341   0.408194   0.515289  -0.025076  -0.019147   0.000241
    10  H    0.000224   0.417169  -0.025076   0.464896  -0.029965   0.005732
    11  H   -0.000242   0.393865  -0.019147  -0.029965   0.551804  -0.005324
    12  N   -0.034258   0.000550   0.000241   0.005732  -0.005324   6.121084
    13  C   -0.007286   0.002794  -0.000594   0.001009  -0.000269   0.203744
    14  H    0.000014   0.000221  -0.000007   0.000001  -0.000003  -0.042651
    15  H    0.002191  -0.000220  -0.000013   0.000007  -0.000003  -0.054798
    16  C    0.021979   0.004500   0.000501  -0.000325  -0.000297  -0.011743
    17  H   -0.000042  -0.000077  -0.000000   0.000001  -0.000000  -0.003750
    18  H    0.000464  -0.000576   0.000000   0.000000  -0.000002   0.006420
    19  C   -0.010273  -0.007157   0.000060   0.000081   0.000066   0.025549
    20  H   -0.000189   0.000228  -0.000000  -0.000000   0.000000  -0.001081
    21  H    0.000318  -0.000096   0.000000  -0.000001  -0.000000   0.001003
    22  S    0.000059  -0.016390   0.001146   0.000515  -0.000200   0.019846
    23  O   -0.001695  -0.000837   0.000071  -0.000109   0.000003  -0.002099
    24  O   -0.023105   0.001687  -0.001684   0.002924   0.000172   0.024694
    25  O    0.029569   0.005905  -0.000282   0.000048  -0.000056  -0.005966
              13         14         15         16         17         18
     1  C   -0.062852   0.007103  -0.000861   0.092094   0.000017   0.002411
     2  C    0.041710  -0.015809   0.001958  -0.124398   0.000962   0.010914
     3  C   -0.354112   0.032857  -0.018700  -0.057899  -0.002796  -0.016487
     4  N    0.021949  -0.001860  -0.000448  -0.011900   0.000002  -0.000870
     5  H    0.000878  -0.000010   0.000015  -0.000278  -0.000001   0.000010
     6  H    0.001085   0.000576   0.000083   0.002891  -0.000181  -0.000051
     7  H   -0.007286   0.000014   0.002191   0.021979  -0.000042   0.000464
     8  C    0.002794   0.000221  -0.000220   0.004500  -0.000077  -0.000576
     9  H   -0.000594  -0.000007  -0.000013   0.000501  -0.000000   0.000000
    10  H    0.001009   0.000001   0.000007  -0.000325   0.000001   0.000000
    11  H   -0.000269  -0.000003  -0.000003  -0.000297  -0.000000  -0.000002
    12  N    0.203744  -0.042651  -0.054798  -0.011743  -0.003750   0.006420
    13  C    5.996744   0.370433   0.501230  -0.236191  -0.008935  -0.065027
    14  H    0.370433   0.584551  -0.022997  -0.040463  -0.012650   0.000792
    15  H    0.501230  -0.022997   0.468512  -0.064048   0.001532   0.005190
    16  C   -0.236191  -0.040463  -0.064048   6.253967   0.382224   0.459341
    17  H   -0.008935  -0.012650   0.001532   0.382224   0.611182  -0.036254
    18  H   -0.065027   0.000792   0.005190   0.459341  -0.036254   0.554147
    19  C   -0.105647   0.014092  -0.007496  -0.747551  -0.022474  -0.054548
    20  H    0.028280  -0.000198  -0.000059  -0.101817  -0.003675  -0.007220
    21  H   -0.020785  -0.000034   0.002740  -0.040295  -0.008690   0.007832
    22  S    0.052793  -0.005081  -0.005778   0.217944  -0.002972   0.009357
    23  O   -0.000728  -0.000015  -0.000852  -0.004958  -0.000840   0.000547
    24  O   -0.006983   0.000216   0.000367  -0.020738   0.000066  -0.000860
    25  O   -0.045482   0.002146   0.006494   0.026162  -0.000711   0.000375
              19         20         21         22         23         24
     1  C   -0.045857  -0.001218   0.000884   0.005124  -0.001576   0.016515
     2  C    0.042684   0.001332   0.000562   0.020020   0.001007   0.017683
     3  C    0.201744   0.004232  -0.004464  -0.266028   0.022454  -0.055936
     4  N    0.000460   0.000231  -0.000148   0.011745  -0.001885   0.013443
     5  H   -0.000089   0.000000  -0.000000  -0.000016  -0.000000   0.000015
     6  H   -0.003063  -0.000001   0.000001   0.000925  -0.000003   0.000043
     7  H   -0.010273  -0.000189   0.000318   0.000059  -0.001695  -0.023105
     8  C   -0.007157   0.000228  -0.000096  -0.016390  -0.000837   0.001687
     9  H    0.000060  -0.000000   0.000000   0.001146   0.000071  -0.001684
    10  H    0.000081  -0.000000  -0.000001   0.000515  -0.000109   0.002924
    11  H    0.000066   0.000000  -0.000000  -0.000200   0.000003   0.000172
    12  N    0.025549  -0.001081   0.001003   0.019846  -0.002099   0.024694
    13  C   -0.105647   0.028280  -0.020785   0.052793  -0.000728  -0.006983
    14  H    0.014092  -0.000198  -0.000034  -0.005081  -0.000015   0.000216
    15  H   -0.007496  -0.000059   0.002740  -0.005778  -0.000852   0.000367
    16  C   -0.747551  -0.101817  -0.040295   0.217944  -0.004958  -0.020738
    17  H   -0.022474  -0.003675  -0.008690  -0.002972  -0.000840   0.000066
    18  H   -0.054548  -0.007220   0.007832   0.009357   0.000547  -0.000860
    19  C    6.640238   0.486947   0.434746  -0.188851  -0.111298  -0.016071
    20  H    0.486947   0.526475  -0.033858  -0.075231   0.014349   0.007962
    21  H    0.434746  -0.033858   0.534288  -0.042705   0.008985  -0.004253
    22  S   -0.188851  -0.075231  -0.042705  13.943553   0.459863   0.285922
    23  O   -0.111298   0.014349   0.008985   0.459863   8.237706  -0.046730
    24  O   -0.016071   0.007962  -0.004253   0.285922  -0.046730   8.556301
    25  O   -0.041349  -0.004381   0.009870   0.273560  -0.045653  -0.039224
              25
     1  C    0.019451
     2  C   -0.014940
     3  C   -0.043942
     4  N    0.013227
     5  H    0.000023
     6  H    0.000009
     7  H    0.029569
     8  C    0.005905
     9  H   -0.000282
    10  H    0.000048
    11  H   -0.000056
    12  N   -0.005966
    13  C   -0.045482
    14  H    0.002146
    15  H    0.006494
    16  C    0.026162
    17  H   -0.000711
    18  H    0.000375
    19  C   -0.041349
    20  H   -0.004381
    21  H    0.009870
    22  S    0.273560
    23  O   -0.045653
    24  O   -0.039224
    25  O    8.603155
 Mulliken charges:
               1
     1  C   -0.061696
     2  C   -0.107180
     3  C   -0.273282
     4  N    0.139622
     5  H    0.124366
     6  H    0.127274
     7  H    0.246043
     8  C   -0.262603
     9  H    0.160371
    10  H    0.199737
    11  H    0.138715
    12  N    0.185413
    13  C   -0.307757
    14  H    0.128774
    15  H    0.185955
    16  C    0.001297
    17  H    0.108063
    18  H    0.124094
    19  C   -0.484942
    20  H    0.158891
    21  H    0.154103
    22  S    1.300881
    23  O   -0.525707
    24  O   -0.712425
    25  O   -0.748007
 Sum of Mulliken charges =  -0.00000
 Mulliken charges with hydrogens summed into heavy atoms:
               1
     1  C    0.062670
     2  C    0.020094
     3  C   -0.027240
     4  N    0.139622
     8  C    0.236220
    12  N    0.185413
    13  C    0.006972
    16  C    0.233454
    19  C   -0.171947
    22  S    1.300881
    23  O   -0.525707
    24  O   -0.712425
    25  O   -0.748007
 Electronic spatial extent (au):  <R**2>=           2532.9514
 Charge=             -0.0000 electrons
 Dipole moment (field-independent basis, Debye):
    X=             10.5117    Y=              5.3669    Z=              0.1856  Tot=             11.8040
 Quadrupole moment (field-independent basis, Debye-Ang):
   XX=            -82.8110   YY=            -75.9702   ZZ=            -88.2486
   XY=            -16.9913   XZ=             -2.2383   YZ=             -2.0257
 Traceless Quadrupole moment (field-independent basis, Debye-Ang):
   XX=             -0.4677   YY=              6.3731   ZZ=             -5.9054
   XY=            -16.9913   XZ=             -2.2383   YZ=             -2.0257
 Octapole moment (field-independent basis, Debye-Ang**2):
  XXX=             78.0369  YYY=              2.0392  ZZZ=             -1.3701  XYY=             30.2931
  XXY=             13.2157  XXZ=            -15.2613  XZZ=              7.7570  YZZ=              4.1395
  YYZ=              3.0349  XYZ=             -2.1834
 Hexadecapole moment (field-independent basis, Debye-Ang**3):
 XXXX=          -2015.3348 YYYY=           -923.8191 ZZZZ=           -328.5215 XXXY=           -134.5373
 XXXZ=            -74.4920 YYYX=            -31.6766 YYYZ=             -3.7943 ZZZX=              9.2864
 ZZZY=              3.0035 XXYY=           -487.3201 XXZZ=           -387.7307 YYZZ=           -216.6387
 XXYZ=            -16.2311 YYXZ=            -10.5582 ZZXY=            -11.0855
 N-N= 1.030399454672D+03 E-N=-4.431730199310D+03  KE= 1.004610250756D+03
 No NMR shielding tensors so no spin-rotation constants.
 Leave Link  601 at Wed Oct 11 15:29:15 2023, MaxMem=  6710886400 cpu:               4.2 elap:               0.2
 (Enter /data0/home/software/g16/l701.exe)
 ... and contract with generalized density number  0.
 Compute integral first derivatives.
 R6Disp: Adding Grimme-D3(BJ) dispersion energy 1st derivatives to the gradient.
 Leave Link  701 at Wed Oct 11 15:29:15 2023, MaxMem=  6710886400 cpu:               4.5 elap:               0.2
 (Enter /data0/home/software/g16/l702.exe)
 L702 exits ... SP integral derivatives will be done elsewhere.
 Leave Link  702 at Wed Oct 11 15:29:15 2023, MaxMem=  6710886400 cpu:               0.4 elap:               0.0
 (Enter /data0/home/software/g16/l703.exe)
 Integral derivatives from FoFJK, PRISM(SPDF).
 Compute integral first derivatives, UseDBF=F ICtDFT=           0.
 Calling FoFJK, ICntrl=      2127 FMM=F ISym2X=0 I1Cent= 0 IOpClX= 0 NMat=1 NMatS=1 NMatT=0.
 FoFJK:  IHMeth= 1 ICntrl=    2127 DoSepK=F KAlg= 0 I1Cent=           0 FoldK=F
 IRaf=         0 NMat=       1 IRICut=       1 DoRegI=T DoRafI=F ISym2E= 0 IDoP0=0 IntGTp=1.
 FoFCou: FMM=F IPFlag=           0 FMFlag=      100000 FMFlg1=         800
         NFxFlg=           0 DoJE=F BraDBF=F KetDBF=F FulRan=T
         wScrn=  0.000000 ICntrl=      2127 IOpCl=  0 I1Cent=           0 NGrid=           0
         NMat0=    1 NMatS0=      1 NMatT0=    0 NMatD0=    1 NMtDS0=    0 NMtDT0=    0
 Symmetry not used in FoFCou.
 Leave Link  703 at Wed Oct 11 15:29:26 2023, MaxMem=  6710886400 cpu:             261.9 elap:              11.0
 (Enter /data0/home/software/g16/l716.exe)
 Dipole        = 4.13562861D+00 2.11148182D+00 7.30100408D-02
 ***** Axes restored to original set *****
 -------------------------------------------------------------------
 Center     Atomic                   Forces (Hartrees/Bohr)
 Number     Number              X              Y              Z
 -------------------------------------------------------------------
      1        6           0.000823618    0.000232247   -0.000680367
      2        6           0.000196693    0.000919292   -0.000607358
      3        6          -0.002477445   -0.001167316    0.000938038
      4        7           0.000043974   -0.000423261    0.000077505
      5        1          -0.000163580    0.000052636    0.000111256
      6        1           0.000023819   -0.000184671    0.000074250
      7        1          -0.000546652    0.000162860   -0.000235790
      8        6           0.000006141    0.000137863   -0.000040557
      9        1           0.000016788    0.000272489   -0.000176587
     10        1           0.000144597    0.000002845    0.000127026
     11        1          -0.000225932    0.000128887    0.000034229
     12        7          -0.000466911    0.000348914   -0.000038579
     13        6          -0.000268062   -0.000283211   -0.000471964
     14        1          -0.000150085   -0.000223502   -0.000169131
     15        1           0.000280131    0.000003018   -0.000284269
     16        6           0.000228032   -0.000768430    0.000450234
     17        1           0.000133590   -0.000232850    0.000123228
     18        1          -0.000060242    0.000126284    0.000251705
     19        6           0.000726410   -0.000789196    0.000268599
     20        1           0.000257259    0.000090885    0.000187093
     21        1           0.000063401    0.000047186   -0.000262372
     22       16           0.001138657    0.001500489    0.000296986
     23        8           0.000753632    0.000284444    0.000255380
     24        8          -0.000724133   -0.000008978    0.000624913
     25        8           0.000246298   -0.000228923   -0.000853469
 -------------------------------------------------------------------
 Cartesian Forces:  Max     0.002477445 RMS     0.000531868
 Leave Link  716 at Wed Oct 11 15:29:26 2023, MaxMem=  6710886400 cpu:               0.5 elap:               0.0
 (Enter /data0/home/software/g16/l103.exe)

 GradGradGradGradGradGradGradGradGradGradGradGradGradGradGradGradGradGrad
 Berny optimization.
 FormGI is forming the generalized inverse of G from B-inverse, IUseBI=4.
 Internal  Forces:  Max     0.004862978 RMS     0.000986353
 Search for a local minimum.
 Step number   1 out of a maximum of  139
 All quantities printed in internal units (Hartrees-Bohrs-Radians)
 RMS Force = .98635D-03 SwitMx=.10000D-02 MixMth= 2
 Mixed Optimization -- En-DIIS/RFO-DIIS
 Second derivative matrix not updated -- first step.
 ITU=  0
     Eigenvalues ---    0.00230   0.00230   0.00369   0.00709   0.00903
     Eigenvalues ---    0.01621   0.01789   0.02157   0.02212   0.02436
     Eigenvalues ---    0.02466   0.02603   0.03158   0.03344   0.04167
     Eigenvalues ---    0.04726   0.04732   0.05199   0.07635   0.07719
     Eigenvalues ---    0.08665   0.08909   0.09466   0.09971   0.10446
     Eigenvalues ---    0.12405   0.12622   0.12758   0.15892   0.15997
     Eigenvalues ---    0.15999   0.16000   0.16000   0.16000   0.22007
     Eigenvalues ---    0.22013   0.22029   0.22728   0.23374   0.23985
     Eigenvalues ---    0.24148   0.24148   0.25000   0.25000   0.25000
     Eigenvalues ---    0.28101   0.29422   0.34344   0.34607   0.34707
     Eigenvalues ---    0.34792   0.34813   0.34828   0.35004   0.35029
     Eigenvalues ---    0.35088   0.35235   0.35490   0.36563   0.36564
     Eigenvalues ---    0.37008   0.43278   0.46565   0.49992   0.56806
     Eigenvalues ---    0.57446   0.80118   0.81595   0.93847
 RFO step:  Lambda=-1.51087770D-03 EMin= 2.30000000D-03
 Linear search not attempted -- first point.
 Iteration  1 RMS(Cart)=  0.16829056 RMS(Int)=  0.00455516
 Iteration  2 RMS(Cart)=  0.00815589 RMS(Int)=  0.00006720
 Iteration  3 RMS(Cart)=  0.00002165 RMS(Int)=  0.00006648
 Iteration  4 RMS(Cart)=  0.00000000 RMS(Int)=  0.00006648
 ITry= 1 IFail=0 DXMaxC= 7.93D-01 DCOld= 1.00D+10 DXMaxT= 3.00D-01 DXLimC= 3.00D+00 Rises=F
 Variable       Old X    -DE/DX   Delta X   Delta X   Delta X     New X
                                 (Linear)    (Quad)   (Total)
    R1        2.56151   0.00019   0.00000   0.00028   0.00028   2.56179
    R2        2.61466   0.00114   0.00000   0.00226   0.00225   2.61691
    R3        2.03210  -0.00020   0.00000  -0.00056  -0.00056   2.03154
    R4        2.03208  -0.00019   0.00000  -0.00053  -0.00053   2.03155
    R5        2.61413   0.00045   0.00000   0.00094   0.00095   2.61508
    R6        2.51704   0.00062   0.00000   0.00108   0.00108   2.51812
    R7        2.04886   0.00017   0.00000   0.00047   0.00047   2.04933
    R8        2.51737   0.00013   0.00000   0.00031   0.00032   2.51769
    R9        2.75835  -0.00054   0.00000  -0.00146  -0.00146   2.75689
   R10        2.05533  -0.00027   0.00000  -0.00078  -0.00078   2.05455
   R11        2.05979  -0.00017   0.00000  -0.00050  -0.00050   2.05929
   R12        2.05668  -0.00024   0.00000  -0.00069  -0.00069   2.05599
   R13        2.78595  -0.00225   0.00000  -0.00635  -0.00635   2.77959
   R14        2.06014  -0.00029   0.00000  -0.00084  -0.00084   2.05931
   R15        2.05627  -0.00036   0.00000  -0.00101  -0.00101   2.05526
   R16        2.91918  -0.00282   0.00000  -0.00998  -0.00998   2.90920
   R17        2.06754  -0.00027   0.00000  -0.00078  -0.00078   2.06675
   R18        2.06317  -0.00027   0.00000  -0.00077  -0.00077   2.06241
   R19        2.89132  -0.00246   0.00000  -0.00831  -0.00831   2.88301
   R20        2.05954  -0.00029   0.00000  -0.00083  -0.00083   2.05871
   R21        2.06153  -0.00023   0.00000  -0.00065  -0.00065   2.06088
   R22        3.45125  -0.00113   0.00000  -0.00466  -0.00466   3.44658
   R23        2.74909  -0.00083   0.00000  -0.00088  -0.00088   2.74821
   R24        2.80767  -0.00094   0.00000  -0.00115  -0.00115   2.80652
   R25        2.81552  -0.00076   0.00000  -0.00094  -0.00094   2.81458
    A1        1.86477  -0.00006   0.00000  -0.00016  -0.00018   1.86460
    A2        2.28598   0.00001   0.00000  -0.00001  -0.00001   2.28597
    A3        2.13233   0.00005   0.00000   0.00023   0.00023   2.13256
    A4        2.28200   0.00025   0.00000   0.00089   0.00089   2.28288
    A5        1.87027  -0.00058   0.00000  -0.00229  -0.00229   1.86798
    A6        2.13087   0.00032   0.00000   0.00135   0.00135   2.13222
    A7        2.22501   0.00092   0.00000   0.00431   0.00431   2.22932
    A8        1.89680  -0.00106   0.00000  -0.00414  -0.00414   1.89266
    A9        2.15721   0.00013   0.00000  -0.00046  -0.00047   2.15674
   A10        1.89783   0.00046   0.00000   0.00212   0.00211   1.89994
   A11        2.20258  -0.00031   0.00000  -0.00154  -0.00153   2.20105
   A12        2.15851  -0.00015   0.00000  -0.00078  -0.00078   2.15774
   A13        1.90429  -0.00026   0.00000  -0.00172  -0.00172   1.90257
   A14        1.90162   0.00019   0.00000   0.00133   0.00133   1.90295
   A15        1.90826  -0.00013   0.00000  -0.00086  -0.00086   1.90740
   A16        1.90673   0.00006   0.00000   0.00049   0.00049   1.90723
   A17        1.91023   0.00013   0.00000   0.00051   0.00051   1.91074
   A18        1.93246   0.00000   0.00000   0.00021   0.00021   1.93268
   A19        1.89458   0.00124   0.00000   0.00421   0.00415   1.89873
   A20        2.18366   0.00132   0.00000   0.00403   0.00393   2.18759
   A21        2.18256  -0.00264   0.00000  -0.01235  -0.01239   2.17017
   A22        1.85542   0.00169   0.00000   0.01780   0.01788   1.87330
   A23        1.86919   0.00031   0.00000  -0.01209  -0.01236   1.85683
   A24        1.95926  -0.00319   0.00000  -0.01605  -0.01621   1.94305
   A25        1.90134  -0.00037   0.00000   0.00365   0.00373   1.90507
   A26        1.93473   0.00122   0.00000   0.01488   0.01494   1.94967
   A27        1.94038   0.00040   0.00000  -0.00756  -0.00784   1.93253
   A28        1.87637   0.00144   0.00000   0.01239   0.01253   1.88890
   A29        1.89625   0.00137   0.00000  -0.00251  -0.00281   1.89344
   A30        2.03240  -0.00486   0.00000  -0.02411  -0.02421   2.00819
   A31        1.86497  -0.00069   0.00000   0.00444   0.00444   1.86941
   A32        1.88331   0.00200   0.00000   0.01736   0.01749   1.90080
   A33        1.90361   0.00100   0.00000  -0.00496  -0.00523   1.89837
   A34        1.91715   0.00108   0.00000   0.00610   0.00613   1.92328
   A35        1.95198   0.00096   0.00000   0.00162   0.00156   1.95355
   A36        2.00948  -0.00412   0.00000  -0.02023  -0.02025   1.98924
   A37        1.89317  -0.00059   0.00000   0.00316   0.00312   1.89630
   A38        1.85042   0.00147   0.00000   0.00771   0.00774   1.85816
   A39        1.83518   0.00133   0.00000   0.00274   0.00267   1.83785
   A40        1.84524   0.00026   0.00000   0.00137   0.00137   1.84660
   A41        1.82790   0.00022   0.00000   0.00049   0.00049   1.82839
   A42        1.80607   0.00069   0.00000   0.00283   0.00282   1.80889
   A43        2.01508  -0.00024   0.00000  -0.00109  -0.00109   2.01399
   A44        2.00398  -0.00019   0.00000   0.00023   0.00023   2.00420
   A45        1.94021  -0.00052   0.00000  -0.00292  -0.00293   1.93729
    D1        3.12812   0.00015   0.00000   0.00326   0.00328   3.13141
    D2       -0.00332   0.00021   0.00000   0.00836   0.00836   0.00504
    D3        0.00167   0.00002   0.00000  -0.00120  -0.00118   0.00049
    D4       -3.12978   0.00009   0.00000   0.00390   0.00389  -3.12588
    D5        0.02078  -0.00005   0.00000  -0.00154  -0.00155   0.01922
    D6        2.93296  -0.00006   0.00000  -0.00252  -0.00252   2.93043
    D7       -3.13432   0.00006   0.00000   0.00243   0.00243  -3.13189
    D8       -0.22214   0.00005   0.00000   0.00145   0.00146  -0.22068
    D9       -0.01523  -0.00031   0.00000  -0.01236  -0.01239  -0.02762
   D10       -2.93986   0.00045   0.00000   0.00893   0.00904  -2.93082
   D11        3.13544  -0.00025   0.00000  -0.00780  -0.00785   3.12759
   D12        0.21080   0.00050   0.00000   0.01349   0.01358   0.22438
   D13        3.01497  -0.00020   0.00000  -0.00966  -0.00963   3.00534
   D14        0.09572  -0.00016   0.00000  -0.00857  -0.00856   0.08716
   D15       -0.03062  -0.00012   0.00000  -0.00614  -0.00612  -0.03674
   D16       -2.94987  -0.00008   0.00000  -0.00505  -0.00505  -2.95492
   D17        0.02846   0.00027   0.00000   0.01143   0.01145   0.03990
   D18        2.95326   0.00012   0.00000  -0.00731  -0.00723   2.94603
   D19       -3.02169   0.00029   0.00000   0.01446   0.01444  -3.00724
   D20       -0.09688   0.00015   0.00000  -0.00429  -0.00423  -0.10111
   D21        2.76774  -0.00005   0.00000   0.00108   0.00107   2.76881
   D22       -1.43501  -0.00002   0.00000   0.00145   0.00144  -1.43357
   D23        0.67912   0.00002   0.00000   0.00201   0.00200   0.68112
   D24       -0.63561   0.00000   0.00000   0.00029   0.00029  -0.63532
   D25        1.44482   0.00003   0.00000   0.00066   0.00066   1.44549
   D26       -2.72423   0.00008   0.00000   0.00122   0.00122  -2.72301
   D27       -0.85114   0.00029   0.00000   0.04153   0.04155  -0.80960
   D28       -2.88174  -0.00027   0.00000   0.03444   0.03457  -2.84718
   D29        1.26705   0.00101   0.00000   0.06207   0.06199   1.32904
   D30        2.54240   0.00058   0.00000   0.06381   0.06377   2.60617
   D31        0.51179   0.00003   0.00000   0.05671   0.05679   0.56859
   D32       -1.62259   0.00131   0.00000   0.08434   0.08422  -1.53837
   D33       -2.47824  -0.00133   0.00000  -0.14310  -0.14306  -2.62129
   D34       -0.46591  -0.00069   0.00000  -0.13271  -0.13269  -0.59860
   D35        1.69081  -0.00179   0.00000  -0.15913  -0.15902   1.53179
   D36       -0.40616  -0.00047   0.00000  -0.12110  -0.12112  -0.52728
   D37        1.60617   0.00017   0.00000  -0.11071  -0.11075   1.49542
   D38       -2.52030  -0.00094   0.00000  -0.13713  -0.13708  -2.65738
   D39        1.71149   0.00017   0.00000  -0.11142  -0.11149   1.60000
   D40       -2.55937   0.00081   0.00000  -0.10103  -0.10112  -2.66050
   D41       -0.40265  -0.00029   0.00000  -0.12745  -0.12746  -0.53010
   D42       -3.02249   0.00070   0.00000   0.03538   0.03531  -2.98718
   D43        1.15760   0.00009   0.00000   0.02620   0.02613   1.18373
   D44       -0.93565   0.00061   0.00000   0.03615   0.03605  -0.89959
   D45        1.15025   0.00055   0.00000   0.02206   0.02209   1.17234
   D46       -0.95285  -0.00006   0.00000   0.01288   0.01291  -0.93994
   D47       -3.04610   0.00046   0.00000   0.02282   0.02284  -3.02326
[...]
 00026582,-0.00222244,-0.00098983,-0.00025120,0.00191023,-0.00002937,0.
 00039784,-0.00003653,0.00016311,0.08686135,-0.26949842,0.00992847,-0.0
 8895319,0.29388342,-0.00019236,0.00067190,0.00000341,0.00030343,-0.000
 13603,-0.00036961,-0.00044402,-0.00050952,-0.00030288,-0.00049088,0.00
 022807,0.00062220,0.00002803,0.00002570,0.00003180,-0.00004785,-0.0000
 7343,-0.00005144,-0.00026348,-0.00007482,-0.00000077,0.00002243,-0.000
 12147,0.00008881,-0.00000387,-0.00000268,-0.00001203,-0.00001790,0.000
 05491,0.00000180,-0.00000283,0.00001903,0.00000881,-0.00225665,0.00127
 483,-0.00323841,-0.01125615,0.02211355,-0.00251378,-0.00008949,0.00030
 098,0.00192324,0.00002563,-0.00009517,-0.00104171,-0.00251124,0.008571
 56,-0.04869596,0.00764341,-0.00935764,0.04992381,-0.00014139,0.0000819
 4,0.00009435,-0.00030038,-0.00017413,0.00003422,0.00003655,0.00021033,
 0.00008250,0.00008019,-0.00003813,-0.00008897,-0.00005396,-0.00002475,
 -0.00006974,-0.00030203,-0.00002498,-0.00013951,-0.00004838,-0.0000568
 5,-0.00001621,0.00000300,0.00004253,0.00001517,-0.00000053,-0.00000945
 ,-0.00000042,-0.00000380,-0.00000370,0.00000343,0.00000481,-0.00000730
 ,0.00000328,0.00174740,-0.00032844,-0.00109267,0.00816428,-0.00256012,
 -0.02136517,-0.00022236,-0.00015386,0.00022333,-0.00263178,0.00009314,
 -0.00273505,-0.10703800,0.02291736,0.10840250,-0.00556000,0.00208508,0
 .00917792,0.12480823,0.00000754,0.00004834,0.00001390,0.00040617,0.000
 36391,-0.00016800,0.00014391,-0.00016224,0.00034998,-0.00019320,0.0000
 0905,0.00006791,0.00001179,0.00001449,0.00000915,-0.00019643,-0.000040
 20,-0.00005138,0.00000691,0.00002516,0.00002135,-0.00000875,-0.0000342
 6,0.00002661,0.00000483,-0.00000490,0.00000168,0.00003009,-0.00002055,
 -0.00000388,-0.00001212,0.00000533,-0.00000484,-0.00055274,0.00097335,
 0.00084482,0.00030314,-0.00098838,0.00447341,-0.00017706,-0.00002245,-
 0.00008104,0.00056718,-0.00015935,0.00125812,0.02363831,-0.05463970,-0
 .04389769,0.01416865,-0.00515906,-0.02671570,-0.02334264,0.05654693,-0
 .00024371,0.00057941,0.00016713,-0.00019432,0.00016368,0.00040522,-0.0
 0003517,0.00045760,0.00000826,-0.00010584,-0.00052699,0.00020380,0.000
 00602,0.00002497,0.00002291,-0.00023745,-0.00024160,-0.00013023,0.0001
 7459,-0.00005373,-0.00009283,-0.00014711,0.00012237,-0.00009020,0.0000
 0808,-0.00002100,0.00000357,0.00002360,-0.00005904,-0.00000905,0.00000
 911,0.00000149,0.00000242,0.00233342,-0.00107098,0.00183631,0.00952276
 ,-0.00327974,-0.02508333,-0.00066958,0.00006959,-0.00064762,-0.0032836
 4,-0.00079811,-0.00201462,0.10659536,-0.03882749,-0.23849924,-0.001203
 63,-0.00049778,0.00266356,-0.11415100,0.04437583,0.26062035,0.00014845
 ,-0.00011603,-0.00006200,-0.00033718,0.00004576,0.00022748,0.00021266,
 0.00082857,0.00013532,0.00005841,-0.00003412,-0.00016455,0.00002038,-0
 .00000707,0.00001334,-0.00000430,0.00004678,0.00000067,0.00015737,0.00
 019675,0.00003159,0.00001863,0.00008074,0.00007365,0.00002574,-0.00002
 307,0.00002597,0.00017017,-0.00010736,-0.00003422,-0.00004965,-0.00005
 709,-0.00003643,0.00008537,-0.00070644,-0.00019141,-0.01750414,-0.0113
 0699,-0.00277853,-0.00065905,0.00020665,-0.00082858,0.00171540,-0.0002
 5462,0.00140496,-0.14254458,-0.05346916,0.00949052,0.00723272,0.004451
 18,-0.00021869,-0.01614181,-0.01196882,0.00179389,0.49777298,0.0000205
 3,0.00011922,0.00002709,-0.00015815,-0.00023142,0.00021681,0.00012400,
 0.00086015,-0.00018169,-0.00014803,-0.00009211,0.00009040,0.00001118,-
 0.00000991,0.00000921,-0.00003980,-0.00005536,-0.00003911,-0.00008400,
 -0.00008327,-0.00005424,-0.00008521,-0.00004587,-0.00010697,-0.0000148
 9,-0.00000136,0.00000362,0.00002765,-0.00001080,0.00005004,0.00001043,
 0.00001145,0.00000551,0.00136036,-0.00084834,0.00031423,-0.00090873,0.
 00279064,-0.00638747,0.00053261,0.00101196,0.00111645,0.00002595,0.000
 23278,0.00030657,-0.04246191,-0.11316603,0.00904173,-0.02828135,-0.022
 24193,0.00463383,0.00295092,0.00327504,0.00051883,0.00537788,0.3644585
 8,-0.00026179,0.00058756,0.00022261,0.00041361,0.00013531,-0.00027463,
 -0.00093561,-0.00148189,-0.00094288,-0.00040818,-0.00013952,0.00067242
 ,-0.00000708,0.00002150,0.00004190,-0.00019434,-0.00012324,-0.00014934
 ,0.00165864,0.00058374,-0.00051929,-0.00002535,-0.00002392,-0.00010909
 ,0.00002645,-0.00001984,-0.00001433,-0.00019988,0.00014172,0.00001113,
 0.00002947,0.00004941,0.00006149,-0.00040029,0.00050863,-0.00012192,-0
 .02066015,-0.01936256,0.00001635,-0.00399218,-0.00014420,-0.00360811,-
 0.00024007,-0.00011186,0.00189709,0.00744588,0.00797797,-0.08081071,0.
 00197770,0.00099444,0.00002804,0.02242830,0.01897278,-0.00158857,-0.00
 545263,0.02439395,0.59443778,-0.00006202,0.00016394,0.00002869,0.00016
 892,0.00006581,-0.00016489,-0.00003553,-0.00048228,-0.00015033,-0.0002
 4917,0.00014246,0.00015673,-0.00000985,0.00001255,-0.00000685,-0.00000
 635,-0.00001073,-0.00003688,-0.00000466,-0.00002924,0.00001618,0.00000
 870,-0.00008070,0.00001012,-0.00000282,0.00000346,-0.00000190,-0.00000
 988,0.00003280,0.00000279,-0.00000270,0.00001442,0.00000340,0.00008748
 ,0.00030508,0.00000468,-0.00237503,-0.00437408,0.00106399,-0.00093071,
 0.00003793,-0.00097016,0.00008906,0.00014408,0.00025835,-0.01537597,0.
 00102601,-0.02114238,0.00077185,-0.00007443,0.00008550,0.00063033,0.00
 087420,-0.00016782,-0.11821677,0.00531541,-0.11906730,0.12810758,-0.00
 003341,0.00015074,-0.00001061,0.00019517,0.00014558,-0.00024065,0.0000
 5465,-0.00053297,0.00000172,-0.00016496,0.00022348,0.00006938,0.000004
 07,0.00002883,-0.00000543,0.00001691,0.00000648,-0.00002888,-0.0008221
 1,-0.00024772,0.00022804,0.00002034,-0.00005134,0.00005769,-0.00002485
 ,0.00001414,-0.00001489,-0.00002141,0.00002046,0.00000011,0.00000682,0
 .00001645,-0.00000496,-0.00048988,0.00016301,-0.00011233,-0.00246201,-
 0.00264764,0.00093827,-0.00071160,-0.00009968,-0.00069955,0.00009422,-
 0.00015732,0.00032066,-0.01164982,0.00093708,-0.01742105,0.00077526,0.
 00038187,-0.00031113,0.00041115,0.00104945,0.00025845,0.00675512,-0.04
 320617,0.00920674,-0.00196452,0.04907516,-0.00001059,-0.00004705,0.000
 02810,-0.00007206,0.00002073,0.00001367,0.00003964,0.00007164,-0.00002
 214,-0.00000068,-0.00003057,-0.00000116,0.00000102,-0.00000101,0.00000
 429,0.00000353,0.00000402,0.00000676,0.00028143,0.00006816,-0.00007885
 ,0.00000311,-0.00001390,-0.00001684,0.00000845,-0.00000379,0.00000423,
 0.00000624,-0.00000186,-0.00000055,-0.00000532,-0.00000230,0.00000277,
 -0.00013107,-0.00012726,0.00009920,0.00130293,0.00079579,0.00084017,0.
 00010094,0.00010265,0.00027974,0.00025030,0.00010012,0.00025661,0.0034
 1092,0.00007346,0.00352999,-0.00037563,-0.00048955,0.00000892,-0.00013
 828,-0.00026140,0.00102774,-0.11930509,0.00772026,-0.24487704,0.128846
 32,-0.00993635,0.26108766,0.00007474,-0.00011760,-0.00006724,-0.000045
 06,-0.00005552,-0.00002298,0.00014763,0.00006838,0.00012291,-0.0000150
 0,0.00011921,-0.00009618,0.00000762,-0.00000723,-0.00000261,0.00006671
 ,0.00004160,0.00004128,-0.00025453,-0.00004174,0.00009072,0.00002833,-
 0.00003932,0.00002981,-0.00000218,0.00000537,0.00000122,0.00003297,-0.
 00000790,0.00000404,-0.00000631,-0.00000478,-0.00000649,0.00023541,0.0
 0017241,-0.00020888,0.00076367,0.00038625,0.00139171,0.00018608,0.0000
 1096,-0.00008869,-0.00047126,0.00012759,-0.00078708,-0.01569853,0.0057
 1924,0.01881534,0.00124342,0.00010846,-0.00041660,-0.00304507,-0.00322
 490,0.00003499,-0.14197278,0.03819271,0.12067893,0.01141026,-0.0051713
 9,-0.01237561,0.15276140,-0.00010789,-0.00004384,-0.00000372,0.0000832
 9,0.00000513,-0.00013138,-0.00052937,-0.00045032,-0.00045856,0.0000774
 9,0.00008577,0.00013037,-0.00000397,0.00000246,-0.00000062,0.00007246,
 0.00003760,0.00002072,0.00019264,0.00004815,-0.00009408,0.00000488,-0.
 00004502,-0.00005386,-0.00001016,0.00000873,-0.00001514,-0.00010614,0.
 00007330,0.00002699,0.00002722,0.00002836,0.00002474,-0.00001258,0.000
 30651,0.00015867,0.00098261,0.00017474,0.00047697,0.00006654,-0.000028
 51,0.00006060,0.00025822,0.00016640,-0.00037208,-0.01435483,0.00401039
 ,0.01760485,0.00065574,0.00118661,0.00014108,-0.00411642,-0.00256562,-
 0.00006440,0.04073955,-0.06109423,-0.05477210,-0.00144976,0.00025956,0
 .00171357,-0.04029658,0.06848513,0.00002108,-0.00000782,-0.00002653,-0
 .00005636,-0.00000015,-0.00000604,0.00000854,0.00008976,0.00001218,0.0
 0001730,-0.00004113,-0.00000913,-0.00000012,-0.00000302,0.00000255,-0.
 00000413,-0.00000536,-0.00000543,0.00005456,0.00001371,0.00000475,-0.0
 0001100,0.00002865,-0.00000098,0.00000011,-0.00000130,0.00000137,0.000
 00871,-0.00000680,-0.00000058,0.00000127,-0.00000339,-0.00000228,-0.00
 000639,-0.00001169,-0.00003788,-0.00016498,0.00035519,0.00100458,0.000
 11464,-0.00000566,0.00007413,0.00033265,-0.00002892,0.00009268,-0.0003
 6102,0.00034941,-0.00025697,0.00024222,0.00061452,0.00023718,-0.000355
 71,0.00033130,0.00131777,0.12088783,-0.05328951,-0.20095190,0.01649666
 ,-0.00759527,-0.01874772,-0.13257154,0.05536284,0.21448696,-0.00059594
 ,0.00159293,-0.00109198,0.00098324,-0.00039861,-0.00130631,-0.01690771
 ,-0.00577936,-0.00796809,0.00206787,-0.00090224,0.00267690,-0.00009016
 ,0.00011048,0.00002886,0.00029971,-0.00006498,-0.00010350,-0.00385240,
 -0.00063714,-0.00495084,-0.00084946,0.00149205,-0.00066499,-0.00024413
 ,0.00008971,-0.00021278,-0.00100474,0.00045197,0.00033374,0.00051580,0
 .00019437,0.00016277,-0.00052330,0.00368617,0.00295092,0.00297813,-0.0
 0605270,-0.00224577,-0.00056866,0.00082663,-0.00064721,-0.00047902,-0.
 00062466,-0.00057799,0.01113675,-0.02241754,0.00366826,-0.00588270,-0.
 00390248,0.00162500,-0.00176497,-0.00254660,0.00159353,-0.06400911,0.0
 1450467,-0.00318927,-0.00526003,0.01378589,-0.00263521,-0.00684261,0.0
 1738338,-0.00193659,0.87828236,0.00108886,-0.00073859,-0.00005593,-0.0
 0113579,-0.00055179,0.00185537,0.00141769,0.00604840,0.00291215,0.0004
 7128,-0.00174671,-0.00161707,0.00002396,-0.00014689,0.00004881,-0.0003
 5849,-0.00008050,0.00000585,0.00100986,0.00092604,-0.00008860,0.000063
 66,0.00081638,-0.00006911,0.00023726,-0.00003559,0.00023189,0.00035875
 ,-0.00021153,-0.00021186,-0.00007967,-0.00023400,-0.00000402,-0.000781
 52,-0.00395871,-0.00231707,-0.00394659,0.00168648,-0.00062224,0.001519
 85,-0.00003993,0.00103686,-0.00046187,-0.00019470,-0.00074295,-0.00958
 029,-0.01971598,0.00135068,0.00189331,0.00296553,0.00003443,0.00224538
 ,0.00134913,-0.00110264,0.01738597,-0.12436119,0.01024541,0.00020966,0
 .00143856,-0.00183582,0.00273468,-0.00490982,0.00244478,0.12050634,0.5
 5134112,0.00282589,-0.00027332,-0.00123176,0.00065760,0.00102512,0.000
 04850,0.01579586,0.00441572,0.01139441,-0.00289585,0.00400309,-0.00529
 092,0.00014610,0.00027501,-0.00036128,0.00026862,0.00009726,-0.0000492
 2,-0.02741153,-0.00384798,0.00368061,0.00049528,-0.00044899,0.00152994
 ,-0.00034744,0.00025968,-0.00003092,0.00130436,-0.00075093,-0.00003673
 ,-0.00013200,-0.00018941,-0.00043895,-0.00264275,-0.00523043,-0.005137
 26,-0.00150745,0.00096276,0.00533794,0.00086546,0.00085299,-0.00198406
 ,-0.00221011,-0.00415125,-0.00207495,0.00224016,-0.00122980,-0.0000720
 9,-0.00060085,-0.00156369,-0.00038675,0.00069138,0.00257286,-0.0013957
 8,-0.00499281,0.01117435,-0.05696495,-0.00758255,0.02566942,-0.0068103
 3,0.00742563,-0.02413172,0.00023228,0.02661900,0.05863006,0.75070408,0
 .00011329,-0.00017514,0.00042046,0.00005972,0.00025109,0.00021965,0.00
 279559,0.00124330,0.00300441,-0.00134805,0.00020464,-0.00085636,0.0000
 0238,-0.00005442,-0.00001282,-0.00002010,0.00003293,0.00001411,0.00199
 551,0.00009005,-0.00037904,0.00043582,-0.00093837,0.00021949,0.0000649
 5,-0.00003419,0.00001863,0.00028912,-0.00013853,-0.00001938,-0.0001662
 8,-0.00000491,-0.00003106,-0.00062292,-0.00091081,-0.00121829,-0.00012
 761,0.00103945,0.00033962,-0.00002694,-0.00023558,0.00025807,0.0001549
 0,0.00046137,0.00022723,0.00237065,-0.00154909,0.00014503,-0.00072044,
 -0.00071578,-0.00022413,0.00033753,0.00068320,-0.00032338,-0.00180070,
 0.00381387,-0.00386305,0.00039554,-0.00143972,0.00185086,0.00073417,-0
 .00305622,-0.00053277,-0.38406079,-0.18983158,-0.08808866,0.41275854,-
 0.00036183,0.00007410,0.00022270,0.00033836,0.00022748,-0.00041876,-0.
 00019952,-0.00114494,0.00014421,-0.00059910,0.00051637,0.00017017,-0.0
 0000878,0.00000515,-0.00000314,0.00012028,0.00003679,0.00000445,0.0010
 6728,-0.00006198,-0.00017888,0.00015236,-0.00067786,0.00005980,-0.0000
 5427,-0.00001207,-0.00006668,-0.00005966,0.00002789,0.00005967,-0.0000
 3289,0.00008216,0.00000788,-0.00048104,0.00108598,0.00013179,0.0014233
 2,-0.00067696,0.00039668,-0.00040522,0.00008953,-0.00028322,-0.0000198
 5,0.00019078,-0.00004127,0.00646087,-0.00697233,0.00012717,-0.00285547
 ,-0.00213935,0.00032781,-0.00040874,0.00003276,0.00024595,-0.02912734,
 -0.00940728,-0.00595700,-0.00139327,0.00109504,-0.00024500,-0.00015080
 ,-0.00053324,-0.00052398,-0.19392091,-0.21335662,-0.05447850,0.2230768
 0,0.19621944,-0.00058555,0.00005615,0.00022917,-0.00011103,-0.00016466
 ,-0.00005482,-0.00293058,-0.00045314,-0.00153237,0.00026081,-0.0007524
 4,0.00098572,-0.00003048,-0.00006401,0.00006496,-0.00003363,-0.0000117
 2,0.00000547,0.00491414,0.00022399,-0.00113137,-0.00004639,-0.00005264
 ,-0.00023397,0.00007302,-0.00004891,0.00001396,-0.00017181,0.00010937,
 -0.00002920,-0.00001434,0.00002469,0.00005829,0.00043269,0.00106766,0.
 00090334,0.00049486,-0.00014245,-0.00083235,-0.00013984,-0.00015018,0.
 00037406,0.00029310,0.00072587,0.00029718,0.00056278,-0.00012683,0.001
 16928,-0.00019926,-0.00004036,0.00000836,-0.00016372,-0.00032809,0.000
 18165,-0.00185202,0.00306357,0.00643788,0.00129325,-0.00262790,0.00155
 732,-0.00048431,0.00245496,0.00008223,-0.08714921,-0.05321487,-0.10398
 162,0.10007540,0.06384752,0.09324494,0.00187506,-0.00162906,0.00097967
 ,-0.00120346,0.00069799,0.00248188,0.00776549,0.00471727,0.00617157,-0
 .00516793,0.00135270,-0.00628598,0.00005010,-0.00009007,-0.00014884,-0
 .00020054,0.00004255,-0.00001442,-0.00686449,-0.00151813,-0.00030103,0
 .00090300,-0.00200658,0.00080718,0.00003042,0.00005480,0.00010707,0.00
 111775,-0.00062661,-0.00018459,-0.00038088,-0.00014388,-0.00025675,-0.
 00213745,-0.00606749,-0.00697229,-0.00337043,0.00408796,0.00204601,0.0
 0088960,-0.00024018,0.00009474,-0.00025317,-0.00074919,-0.00037422,-0.
 00248806,0.00043258,0.00060643,0.00196941,0.00061064,-0.00059105,0.000
 97898,0.00099839,-0.00121012,-0.00881745,-0.00156460,0.01640094,0.0001
 6251,-0.00015776,-0.00013435,-0.00049659,0.00582335,-0.00184443,-0.295
 27731,0.05003765,0.14968262,-0.02856526,0.00231533,0.02332628,0.326776
 75,-0.00069261,-0.00036458,0.00107950,0.00120271,0.00079344,-0.0014230
 9,-0.00126913,-0.00441376,-0.00115287,0.00019177,0.00102623,-0.0000862
 6,-0.00002251,0.00003995,-0.00006049,0.00007938,0.00003967,0.00002792,
 0.00005280,-0.00045847,-0.00035261,0.00015362,-0.00090855,-0.00026195,
 -0.00022972,0.00008827,-0.00027426,-0.00078691,0.00046029,0.00038858,0
 .00020182,0.00034249,0.00015847,-0.00273388,-0.00023240,-0.00171796,0.
 00062829,0.00009794,0.00093809,-0.00030197,0.00006712,-0.00019552,-0.0
 0007890,-0.00004526,0.00002529,0.00159042,0.00180292,0.00009993,0.0000
 3483,-0.00035798,-0.00082209,0.00045750,0.00047667,-0.00070896,0.02109
 072,-0.00053587,-0.01695742,0.00048619,-0.00073453,0.00004672,0.002690
 57,-0.00733964,0.00123197,0.05467846,-0.10384743,-0.03851229,-0.019980
 34,0.01853979,0.00708806,-0.05651316,0.07621465,-0.00122645,-0.0016756
 7,0.00164283,-0.00120107,0.00005479,0.00101751,-0.00158171,-0.00140149
 ,-0.00526476,0.00036670,0.00029319,-0.00020130,-0.00017387,-0.00011558
 ,-0.00007554,-0.00017665,-0.00006383,-0.00007514,0.00384475,-0.0000065
 9,-0.00240644,0.00016098,-0.00044345,-0.00061832,0.00012232,0.00000445
 ,0.00012034,-0.00065352,0.00068673,-0.00017081,0.00006463,0.00014393,0
 .00021255,-0.00027593,0.00023669,-0.00097700,-0.00032345,0.00014425,-0
 .00087656,-0.00024050,-0.00015980,0.00028546,0.00055772,0.00087066,0.0
 0046230,0.00093836,0.00131259,-0.00110777,-0.00054745,0.00011525,0.000
 59742,-0.00101711,-0.00126390,0.00072612,0.00544920,0.00277712,0.00282
 087,0.00152216,-0.00317434,0.00070868,-0.00002887,-0.00013545,0.001751
 32,0.15888025,-0.03666979,-0.20057983,-0.00414948,-0.00312674,0.012642
 14,-0.18979979,0.05141902,0.22165841,-0.00121219,-0.00051421,0.0016408
 5,-0.00123786,-0.00072222,0.00151248,-0.01642931,0.00180922,-0.0008888
 4,-0.00124075,-0.00351392,0.00179570,0.00001140,-0.00037743,0.00038432
 ,-0.00026160,-0.00000183,0.00018274,0.00415502,0.00089139,0.00108159,0
 .00027462,-0.00115677,-0.00040478,0.00019632,-0.00016616,0.00004636,-0
 .00009670,0.00014756,-0.00001699,-0.00017232,0.00010198,0.00012863,0.0
 0072185,0.00008856,0.00049522,-0.00171570,0.00056106,-0.00067556,0.000
 08895,-0.00048841,0.00076764,-0.00040405,-0.00018633,0.00087262,-0.002
 87050,0.00209354,-0.00154377,0.00137655,0.00082016,0.00011583,0.000463
 17,0.00037894,-0.00012259,0.00443927,0.00147852,-0.01216278,0.00070925
 ,0.00299382,-0.00092181,0.00115752,-0.00232346,-0.00034055,-0.10805081
 ,0.00497166,-0.07060597,-0.00504862,-0.00487592,-0.03781418,0.01270394
 ,-0.00092996,0.02948877,0.11244255,-0.00050236,0.00046287,0.00018270,0
 .00064069,0.00064689,-0.00090284,0.00002202,0.00080134,-0.00097306,-0.
 00109412,0.00067453,0.00055261,-0.00000291,0.00006378,-0.00000517,0.00
 015197,0.00003260,-0.00007572,-0.00448146,-0.00339824,0.00099382,0.000
 05392,-0.00068719,0.00020962,-0.00022700,0.00005483,-0.00015628,-0.000
 15415,0.00012608,0.00014165,0.00006221,0.00015706,-0.00003013,0.000981
 18,0.00098978,0.00005320,0.00050267,-0.00350453,-0.00239817,-0.0010087
 4,-0.00040833,0.00106951,-0.00006151,-0.00029268,0.00204105,0.00091574
 ,0.00207201,-0.00056300,-0.00045793,-0.00009173,-0.00017799,-0.0002458
 2,-0.00037291,0.00043431,0.00997243,0.00263129,0.02527437,0.00102500,-
 0.00732851,0.00227874,-0.00125967,0.00213140,0.00070187,0.00794418,-0.
 09244166,0.02486999,-0.01183203,0.01675937,-0.02048363,0.00013550,0.01
 924902,-0.00982206,-0.00107980,0.06167292,-0.00113993,-0.00003160,0.00
 076163,-0.00046748,-0.00056523,0.00046756,-0.00630209,-0.00074561,-0.0
 0187109,0.00050786,-0.00197942,0.00181492,-0.00016193,-0.00021053,0.00
 007803,-0.00023886,-0.00007758,-0.00000225,0.01311600,0.00211977,-0.00
 669243,-0.00017551,-0.00003142,-0.00075037,0.00019728,-0.00014664,0.00
 001143,-0.00047926,0.00032027,0.00002066,0.00002121,0.00006868,0.00018
 979,0.00054313,0.00067290,0.00162032,-0.00027535,-0.00109977,-0.002558
 13,-0.00014366,-0.00043075,0.00114346,0.00107708,0.00228638,0.00057494
 ,-0.00340390,0.00108067,-0.00090868,0.00129849,0.00108876,0.00046600,0
 .00017718,-0.00054378,0.00036466,-0.00361747,-0.00540457,-0.01571481,-
 0.00049776,0.00543289,0.00109877,-0.00147950,0.00205673,0.00074547,-0.
 08385951,0.01975567,-0.38610037,-0.00709456,-0.00042261,-0.01046026,0.
 00541347,0.00002220,-0.03229247,0.08698504,-0.02321540,0.44799323\\-0.
 00000351,0.00000174,-0.00000200,0.00000654,0.00000128,0.00000779,0.000
 00328,0.00000473,0.00001197,-0.00000199,0.00000038,-0.00000474,-0.0000
 0017,0.00000063,-0.00000075,-0.00000002,0.00000073,0.00000024,0.000000
 98,0.00000071,-0.00000207,-0.00000116,0.00000199,0.00000141,0.00000119
 ,0.00000009,0.00000092,0.00000216,-0.00000017,-0.00000077,0.00000080,0
 .00000085,-0.00000038,-0.00000536,-0.00000381,-0.00000879,0.00000200,-
 0.00000241,-0.00000273,0.00000026,-0.00000018,0.00000053,-0.00000110,-
 0.00000040,0.00000050,-0.00000257,-0.00000255,0.00000346,0.,0.00000118
 ,-0.00000099,-0.00000069,0.00000069,-0.00000191,0.00000078,-0.00000219
 ,-0.00000055,-0.00000099,0.00000040,-0.00000059,-0.00000106,-0.0000006
 0,-0.00000067,0.00000286,0.00000627,-0.00000461,0.00000263,-0.00000309
 ,0.00000076,-0.00000441,-0.00000316,0.00000379,-0.00000041,-0.00000310
 ,0.00000019\\\@


 TRUST EVERYONE, BUT CUT THE CARDS.
 Job cpu time:       0 days  2 hours 56 minutes 49.2 seconds.
 Elapsed time:       0 days  0 hours  7 minutes 33.3 seconds.
 File lengths (MBytes):  RWF=    410 Int=      0 D2E=      0 Chk=     16 Scr=      1
 Normal termination of Gaussian 16 at Wed Oct 11 15:49:20 2023.
