 Entering Gaussian System, Link 0=g16
 Initial command:
 /data0/home/software/g16/l1.exe "/data0/home/software/g16/scratch/Gau-3827196.inp" -scrdir="/data0/home/software/g16/scratch/"
 Default is to use a total of  22 processors:
                               22 via shared-memory
                                1 via Linda
 Entering Link 1 = /data0/home/software/g16/l1.exe PID=   3827197.
  
 Copyright (c) 1988,1990,1992,1993,1995,1998,2003,2009,2016,
            Gaussian, Inc.  All Rights Reserved.
  
 This is part of the Gaussian(R) 16 program.  It is based on
 the Gaussian(R) 09 system (copyright 2009, Gaussian, Inc.),
 the Gaussian(R) 03 system (copyright 2003, Gaussian, Inc.),
 the Gaussian(R) 98 system (copyright 1998, Gaussian, Inc.),
 the Gaussian(R) 94 system (copyright 1995, Gaussian, Inc.),
 the Gaussian 92(TM) system (copyright 1992, Gaussian, Inc.),
 the Gaussian 90(TM) system (copyright 1990, Gaussian, Inc.),
 the Gaussian 88(TM) system (copyright 1988, Gaussian, Inc.),
 the Gaussian 86(TM) system (copyright 1986, Carnegie Mellon
 University), and the Gaussian 82(TM) system (copyright 1983,
 Carnegie Mellon University). Gaussian is a federally registered
 trademark of Gaussian, Inc.
  
 This software contains proprietary and confidential information,
 including trade secrets, belonging to Gaussian, Inc.
  
 This software is provided under written license and may be
 used, copied, transmitted, or stored only in accord with that
 written license.
  
 The following legend is applicable only to US Government
 contracts under FAR:
  
                    RESTRICTED RIGHTS LEGEND
  
 Use, reproduction and disclosure by the US Government is
 subject to restrictions as set forth in subparagraphs (a)
 and (c) of the Commercial Computer Software - Restricted
 Rights clause in FAR 52.227-19.
  
 Gaussian, Inc.
 340 Quinnipiac St., Bldg. 40, Wallingford CT 06492
  
  
 ---------------------------------------------------------------
 Warning -- This program may not be used in any manner that
 competes with the business of Gaussian, Inc. or will provide
 assistance to any competitor of Gaussian, Inc.  The licensee
 of this program is prohibited from giving any competitor of
 Gaussian, Inc. access to this program.  By using this program,
 the user acknowledges that Gaussian, Inc. is engaged in the
 business of creating and licensing software in the field of
 computational chemistry and represents and warrants to the
 licensee that it is not a competitor of Gaussian, Inc. and that
 it will not use this program in any manner prohibited above.
 ---------------------------------------------------------------
  

 Cite this work as:
 Gaussian 16, Revision A.03,
 M. J. Frisch, G. W. Trucks, H. B. Schlegel, G. E. Scuseria, 
 M. A. Robb, J. R. Cheeseman, G. Scalmani, V. Barone, 
 G. A. Petersson, H. Nakatsuji, X. Li, M. Caricato, A. V. Marenich, 
 J. Bloino, B. G. Janesko, R. Gomperts, B. Mennucci, H. P. Hratchian, 
 J. V. Ortiz, A. F. Izmaylov, J. L. Sonnenberg, D. Williams-Young, 
 F. Ding, F. Lipparini, F. Egidi, J. Goings, B. Peng, A. Petrone, 
 T. Henderson, D. Ranasinghe, V. G. Zakrzewski, J. Gao, N. Rega, 
 G. Zheng, W. Liang, M. Hada, M. Ehara, K. Toyota, R. Fukuda, 
 J. Hasegawa, M. Ishida, T. Nakajima, Y. Honda, O. Kitao, H. Nakai, 
 T. Vreven, K. Throssell, J. A. Montgomery, Jr., J. E. Peralta, 
 F. Ogliaro, M. J. Bearpark, J. J. Heyd, E. N. Brothers, K. N. Kudin, 
 V. N. Staroverov, T. A. Keith, R. Kobayashi, J. Normand, 
 K. Raghavachari, A. P. Rendell, J. C. Burant, S. S. Iyengar, 
 J. Tomasi, M. Cossi, J. M. Millam, M. Klene, C. Adamo, R. Cammi, 
 J. W. Ochterski, R. L. Martin, K. Morokuma, O. Farkas, 
 J. B. Foresman, and D. J. Fox, Gaussian, Inc., Wallingford CT, 2016.
 
 ******************************************
 Gaussian 16:  ES64L-G16RevA.03 25-Dec-2016
                17-Dec-2022 
 ******************************************
 %nproc=24
 Will use up to   24 processors via shared memory.
 %mem=10GB
 ---------------------------------------------------
 #p M062X/6-311+G(2d,p) nosymm em=GD3 counterpoise=2
 ---------------------------------------------------
 1/38=1,62=2,172=1/1;
 2/12=2,15=1,17=6,18=5,40=1/2;
 1/38=1,53=2,62=2,63=1/22;
 3/5=4,6=6,7=112,11=2,25=1,30=1,74=-55,124=31/1,2,3;
 4//1;
 5/5=2,38=5/2;
 6/7=2,8=2,9=2,10=2,28=1/1;
 1/53=2,62=2,63=1/22;
 3/5=7,6=11,7=112,11=2,25=1,30=1,74=-55,82=7,124=31/1,2,3;
 4//1;
 5/5=2,38=5/2;
 6/7=2,8=2,9=2,10=2,28=1/1;
 1/53=2,62=2,63=1/22(-4);
 99/5=1,9=1/99;
 Leave Link    1 at Sat Dec 17 23:25:20 2022, MaxMem=  1342177280 cpu:               0.7 elap:               0.0
 (Enter /data0/home/software/g16/l101.exe)
 -------------------
 Title Card Required
 -------------------
 Symbolic Z-matrix:
 Charge =  0 Multiplicity = 1 in supermolecule
 Charge =  0 Multiplicity = 1 in fragment      1.
 Charge =  0 Multiplicity = 1 in fragment      2.
 C                     6.0143    15.45363   10.0561    
 C                     6.76949   16.56374   10.56765    
 C                     6.4526    17.86869   10.18178    
 C                     5.39162   18.03881   9.30828    
 C                     4.64625   16.9448   8.8214     
 C                     4.94309   15.63985   9.18085    
 H                     7.03446   18.70792   10.55892    
 H                     5.11636   19.04235   8.98432    
 H                     3.81404   17.14043   8.14444    
 H                     4.3648    14.80116   8.80822    
 H                     6.3767    13.37158   10.36462    
 C                     7.66333   14.74186   11.41061    
 H                     8.31104   14.05352   11.9396    
 N                     6.58527   14.30912   10.62398    
 N                     7.77784   16.07467   11.40873    
 O                     7.32006   16.316    6.79349    
 H                     7.37411   15.35493   6.8102     
 H                     6.70864   16.54042   7.50534    
 
 ITRead=  0  0  0  0  0  0  0  0  0  0  0  0  0  0  0  0  0  0
 MicOpt= -1 -1 -1 -1 -1 -1 -1 -1 -1 -1 -1 -1 -1 -1 -1 -1 -1 -1
 NAtoms=     18 NQM=       18 NQMF=       0 NMMI=      0 NMMIF=      0
                NMic=       0 NMicF=      0.
                    Isotopes and Nuclear Properties:
 (Nuclear quadrupole moments (NQMom) in fm**2, nuclear magnetic moments (NMagM)
  in nuclear magnetons)

  Atom         1           2           3           4           5           6           7           8           9          10
 IAtWgt=          12          12          12          12          12          12           1           1           1           1
 AtmWgt=  12.0000000  12.0000000  12.0000000  12.0000000  12.0000000  12.0000000   1.0078250   1.0078250   1.0078250   1.0078250
 NucSpn=           0           0           0           0           0           0           1           1           1           1
 AtZEff=  -0.0000000  -0.0000000  -0.0000000  -0.0000000  -0.0000000  -0.0000000  -0.0000000  -0.0000000  -0.0000000  -0.0000000
 NQMom=    0.0000000   0.0000000   0.0000000   0.0000000   0.0000000   0.0000000   0.0000000   0.0000000   0.0000000   0.0000000
 NMagM=    0.0000000   0.0000000   0.0000000   0.0000000   0.0000000   0.0000000   2.7928460   2.7928460   2.7928460   2.7928460
 AtZNuc=   6.0000000   6.0000000   6.0000000   6.0000000   6.0000000   6.0000000   1.0000000   1.0000000   1.0000000   1.0000000

  Atom        11          12          13          14          15          16          17          18
 IAtWgt=           1          12           1          14          14          16           1           1
 AtmWgt=   1.0078250  12.0000000   1.0078250  14.0030740  14.0030740  15.9949146   1.0078250   1.0078250
 NucSpn=           1           0           1           2           2           0           1           1
 AtZEff=  -0.0000000  -0.0000000  -0.0000000  -0.0000000  -0.0000000  -0.0000000  -0.0000000  -0.0000000
 NQMom=    0.0000000   0.0000000   0.0000000   2.0440000   2.0440000   0.0000000   0.0000000   0.0000000
 NMagM=    2.7928460   0.0000000   2.7928460   0.4037610   0.4037610   0.0000000   2.7928460   2.7928460
 AtZNuc=   1.0000000   6.0000000   1.0000000   7.0000000   7.0000000   8.0000000   1.0000000   1.0000000
 Leave Link  101 at Sat Dec 17 23:25:20 2022, MaxMem=  1342177280 cpu:               2.0 elap:               0.1
 (Enter /data0/home/software/g16/l202.exe)
                          Input orientation:                          
 ---------------------------------------------------------------------
 Center     Atomic      Atomic             Coordinates (Angstroms)
 Number     Number       Type             X           Y           Z
 ---------------------------------------------------------------------
      1          6           0        6.014304   15.453632   10.056102
      2          6           0        6.769488   16.563738   10.567654
      3          6           0        6.452596   17.868695   10.181783
      4          6           0        5.391618   18.038807    9.308282
      5          6           0        4.646254   16.944797    8.821396
      6          6           0        4.943093   15.639853    9.180851
      7          1           0        7.034465   18.707921   10.558920
      8          1           0        5.116360   19.042345    8.984315
      9          1           0        3.814044   17.140429    8.144441
     10          1           0        4.364800   14.801158    8.808218
     11          1           0        6.376698   13.371582   10.364622
     12          6           0        7.663334   14.741858   11.410615
     13          1           0        8.311038   14.053522   11.939598
     14          7           0        6.585271   14.309117   10.623981
     15          7           0        7.777840   16.074670   11.408732
     16          8           0        7.320063   16.316002    6.793492
     17          1           0        7.374105   15.354932    6.810202
     18          1           0        6.708641   16.540421    7.505339
 ---------------------------------------------------------------------
                    Distance matrix (angstroms):
                    1          2          3          4          5
     1  C    0.000000
     2  C    1.436775   0.000000
     3  C    2.457728   1.397222   0.000000
     4  C    2.762264   2.379154   1.384780   0.000000
     5  C    2.370576   2.775382   2.442767   1.410490   0.000000
     6  C    1.395792   2.472348   2.871968   2.443848   1.385713
     7  H    3.447311   2.160511   1.088625   2.170427   3.439644
     8  H    3.851479   3.373913   2.144041   1.089867   2.155748
     9  H    3.367622   3.865124   3.412197   2.156467   1.090465
    10  H    2.168825   3.461911   3.956685   3.433190   2.162077
    11  H    2.135754   3.222633   4.501468   4.885614   4.259560
    12  C    2.249584   2.197451   3.571138   4.522209   4.545302
    13  H    3.283725   3.249583   4.593394   5.597261   5.613671
    14  N    1.399430   2.262835   3.589392   4.131157   3.735761
    15  N    2.307673   1.401204   2.545624   3.736814   4.154306
    16  O    3.618468   3.822147   3.826731   3.607094   3.414240
    17  H    3.520606   3.993147   4.305316   4.168194   3.743493
    18  H    2.858252   3.063008   2.998870   2.688924   2.479711
                    6          7          8          9         10
     6  C    0.000000
     7  H    3.960549   0.000000
     8  H    3.412565   2.504066   0.000000
     9  H    2.144907   4.319474   2.453304   0.000000
    10  H    1.084752   5.045282   4.310861   2.493215   0.000000
    11  H    2.932847   5.380234   5.970867   5.069577   2.917844
    12  C    3.630145   4.104938   5.555915   5.589103   4.201942
    13  H    4.633593   5.019894   6.620273   6.644935   5.092867
    14  N    2.559342   4.422158   5.220120   4.673772   2.910256
    15  N    3.631571   2.865100   4.665658   5.244341   4.475863
    16  O    3.436080   4.470044   4.133879   3.846675   3.884257
    17  H    3.407488   5.040910   4.839545   4.200265   3.654401
    18  H    2.595289   3.758800   3.313963   3.024426   3.196267
                   11         12         13         14         15
    11  H    0.000000
    12  C    2.151090   0.000000
    13  H    2.585974   1.083120   0.000000
    14  N    0.994858   1.402953   2.185051   0.000000
    15  N    3.218703   1.337723   2.156654   2.270514   0.000000
    16  O    4.723613   4.890152   5.708174   4.386360   4.644162
    17  H    4.190752   4.650087   5.374218   4.032480   4.671991
    18  H    4.281031   4.404253   5.330572   3.836648   4.073891
                   16         17         18
    16  O    0.000000
    17  H    0.962733   0.000000
    18  H    0.964846   1.526906   0.000000
 Symmetry turned off by external request.
 Stoichiometry    C7H8N2O
 Framework group  C1[X(C7H8N2O)]
 Deg. of freedom    48
 Full point group                 C1      NOp   1
 Rotational constants (GHZ):           1.8178820           1.0834082           0.9851330
 Leave Link  202 at Sat Dec 17 23:25:20 2022, MaxMem=  1342177280 cpu:               0.1 elap:               0.0
 (Enter /data0/home/software/g16/l122.exe)
 Counterpoise: doing full-system calculation.
 Leave Link  122 at Sat Dec 17 23:25:20 2022, MaxMem=  1342177280 cpu:               0.0 elap:               0.0
 (Enter /data0/home/software/g16/l301.exe)
 Standard basis: 6-311+G(2d,p) (5D, 7F)
 Ernie: Thresh=  0.10000D-02 Tol=  0.10000D-05 Strict=F.
   318 basis functions,   484 primitive gaussians,   338 cartesian basis functions
    36 alpha electrons       36 beta electrons
       nuclear repulsion energy       495.3219677536 Hartrees.
 IExCor= 4336 DFT=T Ex+Corr=M062X ExCW=0 ScaHFX=  0.540000
 ScaDFX=  1.000000  1.000000  1.000000  1.000000 ScalE2=  1.000000  1.000000
 IRadAn=      5 IRanWt=     -1 IRanGd=            0 ICorTp=0 IEmpDi=131
 NAtoms=   18 NActive=   18 NUniq=   18 SFac= 1.00D+00 NAtFMM=   60 NAOKFM=F Big=F
 Integral buffers will be    131072 words long.
 Raffenetti 2 integral format.
 Two-electron integral symmetry is turned off.
 R6Disp:  Grimme-D3 Dispersion energy=       -0.0005850878 Hartrees.
 Nuclear repulsion after empirical dispersion term =      495.3213826658 Hartrees.
 Leave Link  301 at Sat Dec 17 23:25:20 2022, MaxMem=  1342177280 cpu:               1.1 elap:               0.1
 (Enter /data0/home/software/g16/l302.exe)
 NPDir=0 NMtPBC=     1 NCelOv=     1 NCel=       1 NClECP=     1 NCelD=      1
         NCelK=      1 NCelE2=     1 NClLst=     1 CellRange=     0.0.
 One-electron integrals computed using PRISM.
 NBasis=   318 RedAO= T EigKep=  1.40D-06  NBF=   318
 NBsUse=   318 1.00D-06 EigRej= -1.00D+00 NBFU=   318
 Precomputing XC quadrature grid using
 IXCGrd= 4 IRadAn=           5 IRanWt=          -1 IRanGd=           0 AccXCQ= 0.00D+00.
 Generated NRdTot=       0 NPtTot=           0 NUsed=           0 NTot=          32
 NSgBfM=   338   338   338   338   338 MxSgAt=    18 MxSgA2=    18.
 Leave Link  302 at Sat Dec 17 23:25:21 2022, MaxMem=  1342177280 cpu:               5.0 elap:               0.2
 (Enter /data0/home/software/g16/l303.exe)
 DipDrv:  MaxL=1.
 Leave Link  303 at Sat Dec 17 23:25:21 2022, MaxMem=  1342177280 cpu:               0.7 elap:               0.0
 (Enter /data0/home/software/g16/l401.exe)
 ExpMin= 4.38D-02 ExpMax= 8.59D+03 ExpMxC= 1.30D+03 IAcc=3 IRadAn=         5 AccDes= 0.00D+00
 Harris functional with IExCor= 1009 and IRadAn=       5 diagonalized for initial guess.
 HarFok:  IExCor= 1009 AccDes= 0.00D+00 IRadAn=         5 IDoV= 1 UseB2=F ITyADJ=14
 ICtDFT=  3500011 ScaDFX=  1.000000  1.000000  1.000000  1.000000
 FoFCou: FMM=F IPFlag=           0 FMFlag=      100000 FMFlg1=           0
         NFxFlg=           0 DoJE=T BraDBF=F KetDBF=T FulRan=T
         wScrn=  0.000000 ICntrl=       500 IOpCl=  0 I1Cent=   200000004 NGrid=           0
         NMat0=    1 NMatS0=      1 NMatT0=    0 NMatD0=    1 NMtDS0=    0 NMtDT0=    0
 Symmetry not used in FoFCou.
 Harris En= -456.028410089033    
 JPrj=0 DoOrth=F DoCkMO=F.
 Leave Link  401 at Sat Dec 17 23:25:21 2022, MaxMem=  1342177280 cpu:              18.5 elap:               0.8
 (Enter /data0/home/software/g16/l502.exe)
 Two-electron integral symmetry not used.
 Closed shell SCF:
 Using DIIS extrapolation, IDIIS=  1040.
 NGot=  1342177280 LenX=  1341938296 LenY=  1341823611
 Requested convergence on RMS density matrix=1.00D-08 within 128 cycles.
 Requested convergence on MAX density matrix=1.00D-06.
 Requested convergence on             energy=1.00D-06.
 No special actions if energy rises.
 Fock matrices will be formed incrementally for  20 cycles.

 Cycle   1  Pass 1  IDiag  1:
 FoFJK:  IHMeth= 1 ICntrl=       0 DoSepK=F KAlg= 0 I1Cent=           0 FoldK=F
 IRaf= 950000000 NMat=       1 IRICut=       1 DoRegI=T DoRafI=F ISym2E= 0 IDoP0=0 IntGTp=1.
 FoFCou: FMM=F IPFlag=           0 FMFlag=      100000 FMFlg1=           0
         NFxFlg=           0 DoJE=F BraDBF=F KetDBF=F FulRan=T
         wScrn=  0.000000 ICntrl=         0 IOpCl=  0 I1Cent=           0 NGrid=           0
         NMat0=    1 NMatS0=      1 NMatT0=    0 NMatD0=    1 NMtDS0=    0 NMtDT0=    0
 Symmetry not used in FoFCou.
 E= -455.972542817985    
 DIIS: error= 2.87D-02 at cycle   1 NSaved=   1.
 NSaved= 1 IEnMin= 1 EnMin= -455.972542817985     IErMin= 1 ErrMin= 2.87D-02
 ErrMax= 2.87D-02  0.00D+00 EMaxC= 1.00D-01 BMatC= 3.63D-01 BMatP= 3.63D-01
 IDIUse=3 WtCom= 7.13D-01 WtEn= 2.87D-01
 Coeff-Com:  0.100D+01
 Coeff-En:   0.100D+01
 Coeff:      0.100D+01
 Gap=     0.308 Goal=   None    Shift=    0.000
 GapD=    0.308 DampG=1.000 DampE=0.500 DampFc=0.5000 IDamp=-1.
 Damping current iteration by 5.00D-01
 RMSDP=1.36D-01 MaxDP=1.73D+01              OVMax= 2.09D-01

 Cycle   2  Pass 1  IDiag  1:
 RMSU=  5.15D-02    CP:  2.66D+00
 E= -456.097160515894     Delta-E=       -0.124617697909 Rises=F Damp=T
 DIIS: error= 6.68D-03 at cycle   2 NSaved=   2.
 NSaved= 2 IEnMin= 2 EnMin= -456.097160515894     IErMin= 2 ErrMin= 6.68D-03
 ErrMax= 6.68D-03  0.00D+00 EMaxC= 1.00D-01 BMatC= 3.12D-02 BMatP= 3.63D-01
 IDIUse=3 WtCom= 9.33D-01 WtEn= 6.68D-02
 Coeff-Com: -0.231D-01 0.102D+01
 Coeff-En:   0.316D-01 0.968D+00
 Coeff:     -0.194D-01 0.102D+01
 Gap=     0.299 Goal=   None    Shift=    0.000
 RMSDP=4.42D-02 MaxDP=4.61D+00 DE=-1.25D-01 OVMax= 1.64D-01

 Cycle   3  Pass 1  IDiag  1:
 RMSU=  8.71D-03    CP:  1.60D+00  3.69D-01
 E= -456.231305795925     Delta-E=       -0.134145280030 Rises=F Damp=F
 DIIS: error= 5.61D-03 at cycle   3 NSaved=   3.
 NSaved= 3 IEnMin= 3 EnMin= -456.231305795925     IErMin= 3 ErrMin= 5.61D-03
 ErrMax= 5.61D-03  0.00D+00 EMaxC= 1.00D-01 BMatC= 1.54D-02 BMatP= 3.12D-02
 IDIUse=3 WtCom= 9.44D-01 WtEn= 5.61D-02
 Coeff-Com: -0.904D-01 0.431D+00 0.659D+00
 Coeff-En:   0.000D+00 0.000D+00 0.100D+01
 Coeff:     -0.853D-01 0.407D+00 0.678D+00
 Gap=     0.280 Goal=   None    Shift=    0.000
 RMSDP=5.84D-03 MaxDP=7.20D-01 DE=-1.34D-01 OVMax= 5.46D-02

 Cycle   4  Pass 1  IDiag  1:
 RMSU=  2.25D-03    CP:  1.70D+00  4.56D-01  9.09D-01
 E= -456.241938798303     Delta-E=       -0.010633002379 Rises=F Damp=F
 DIIS: error= 2.86D-03 at cycle   4 NSaved=   4.
 NSaved= 4 IEnMin= 4 EnMin= -456.241938798303     IErMin= 4 ErrMin= 2.86D-03
 ErrMax= 2.86D-03  0.00D+00 EMaxC= 1.00D-01 BMatC= 3.32D-03 BMatP= 1.54D-02
 IDIUse=3 WtCom= 9.71D-01 WtEn= 2.86D-02
 Coeff-Com: -0.450D-01 0.129D+00 0.376D+00 0.540D+00
 Coeff-En:   0.000D+00 0.000D+00 0.162D+00 0.838D+00
 Coeff:     -0.437D-01 0.125D+00 0.370D+00 0.549D+00
 Gap=     0.280 Goal=   None    Shift=    0.000
 RMSDP=1.03D-03 MaxDP=1.42D-01 DE=-1.06D-02 OVMax= 1.73D-02

 Cycle   5  Pass 1  IDiag  1:
 RMSU=  4.45D-04    CP:  1.69D+00  4.46D-01  9.08D-01  7.31D-01
 E= -456.244775112238     Delta-E=       -0.002836313935 Rises=F Damp=F
 DIIS: error= 7.02D-04 at cycle   5 NSaved=   5.
 NSaved= 5 IEnMin= 5 EnMin= -456.244775112238     IErMin= 5 ErrMin= 7.02D-04
 ErrMax= 7.02D-04  0.00D+00 EMaxC= 1.00D-01 BMatC= 1.65D-04 BMatP= 3.32D-03
 IDIUse=3 WtCom= 9.93D-01 WtEn= 7.02D-03
 Coeff-Com: -0.154D-01 0.329D-01 0.134D+00 0.266D+00 0.582D+00
 Coeff-En:   0.000D+00 0.000D+00 0.000D+00 0.000D+00 0.100D+01
 Coeff:     -0.153D-01 0.327D-01 0.133D+00 0.265D+00 0.585D+00
 Gap=     0.280 Goal=   None    Shift=    0.000
 RMSDP=7.87D-04 MaxDP=1.01D-01 DE=-2.84D-03 OVMax= 3.88D-03

 Cycle   6  Pass 1  IDiag  1:
 RMSU=  1.60D-04    CP:  1.67D+00  4.34D-01  9.15D-01  6.37D-01  8.33D-01
 E= -456.244916458946     Delta-E=       -0.000141346708 Rises=F Damp=F
 DIIS: error= 1.26D-04 at cycle   6 NSaved=   6.
 NSaved= 6 IEnMin= 6 EnMin= -456.244916458946     IErMin= 6 ErrMin= 1.26D-04
 ErrMax= 1.26D-04  0.00D+00 EMaxC= 1.00D-01 BMatC= 8.46D-06 BMatP= 1.65D-04
 IDIUse=3 WtCom= 9.99D-01 WtEn= 1.26D-03
 Coeff-Com: -0.223D-02 0.253D-02 0.221D-01 0.533D-01 0.229D+00 0.695D+00
 Coeff-En:   0.000D+00 0.000D+00 0.000D+00 0.000D+00 0.000D+00 0.100D+01
 Coeff:     -0.222D-02 0.253D-02 0.221D-01 0.532D-01 0.229D+00 0.696D+00
 Gap=     0.280 Goal=   None    Shift=    0.000
 RMSDP=1.67D-04 MaxDP=2.01D-02 DE=-1.41D-04 OVMax= 1.17D-03

 Cycle   7  Pass 1  IDiag  1:
 RMSU=  3.55D-05    CP:  1.67D+00  4.32D-01  9.13D-01  6.48D-01  8.32D-01
                    CP:  8.99D-01
 E= -456.244924949039     Delta-E=       -0.000008490093 Rises=F Damp=F
 DIIS: error= 6.88D-05 at cycle   7 NSaved=   7.
 NSaved= 7 IEnMin= 7 EnMin= -456.244924949039     IErMin= 7 ErrMin= 6.88D-05
 ErrMax= 6.88D-05  0.00D+00 EMaxC= 1.00D-01 BMatC= 6.30D-07 BMatP= 8.46D-06
 IDIUse=1 WtCom= 1.00D+00 WtEn= 0.00D+00
 Coeff-Com:  0.661D-03-0.209D-02-0.343D-02-0.698D-02 0.234D-01 0.197D+00
 Coeff-Com:  0.791D+00
 Coeff:      0.661D-03-0.209D-02-0.343D-02-0.698D-02 0.234D-01 0.197D+00
 Coeff:      0.791D+00
 Gap=     0.280 Goal=   None    Shift=    0.000
 RMSDP=1.11D-04 MaxDP=1.47D-02 DE=-8.49D-06 OVMax= 4.16D-04

 Cycle   8  Pass 1  IDiag  1:
 RMSU=  8.89D-06    CP:  1.66D+00  4.30D-01  9.14D-01  6.38D-01  8.44D-01
                    CP:  9.63D-01  1.16D+00
 E= -456.244925697700     Delta-E=       -0.000000748661 Rises=F Damp=F
 DIIS: error= 2.16D-05 at cycle   8 NSaved=   8.
 NSaved= 8 IEnMin= 8 EnMin= -456.244925697700     IErMin= 8 ErrMin= 2.16D-05
 ErrMax= 2.16D-05  0.00D+00 EMaxC= 1.00D-01 BMatC= 2.46D-07 BMatP= 6.30D-07
 IDIUse=1 WtCom= 1.00D+00 WtEn= 0.00D+00
 Coeff-Com:  0.788D-03-0.162D-02-0.561D-02-0.140D-01-0.282D-01-0.228D-01
 Coeff-Com:  0.436D+00 0.636D+00
 Coeff:      0.788D-03-0.162D-02-0.561D-02-0.140D-01-0.282D-01-0.228D-01
 Coeff:      0.436D+00 0.636D+00
 Gap=     0.280 Goal=   None    Shift=    0.000
 RMSDP=4.92D-05 MaxDP=7.03D-03 DE=-7.49D-07 OVMax= 2.70D-04

 Cycle   9  Pass 1  IDiag  1:
 RMSU=  5.32D-06    CP:  1.66D+00  4.29D-01  9.14D-01  6.34D-01  8.44D-01
                    CP:  9.88D-01  1.20D+00  8.59D-01
 E= -456.244926012793     Delta-E=       -0.000000315093 Rises=F Damp=F
 DIIS: error= 1.15D-05 at cycle   9 NSaved=   9.
 NSaved= 9 IEnMin= 9 EnMin= -456.244926012793     IErMin= 9 ErrMin= 1.15D-05
 ErrMax= 1.15D-05  0.00D+00 EMaxC= 1.00D-01 BMatC= 7.09D-09 BMatP= 2.46D-07
 IDIUse=1 WtCom= 1.00D+00 WtEn= 0.00D+00
 Coeff-Com: -0.195D-04 0.815D-04 0.178D-03-0.193D-03-0.167D-02-0.167D-01
 Coeff-Com: -0.516D-01 0.548D-01 0.102D+01
 Coeff:     -0.195D-04 0.815D-04 0.178D-03-0.193D-03-0.167D-02-0.167D-01
 Coeff:     -0.516D-01 0.548D-01 0.102D+01
 Gap=     0.280 Goal=   None    Shift=    0.000
 RMSDP=5.69D-06 MaxDP=5.97D-04 DE=-3.15D-07 OVMax= 8.80D-05

 Cycle  10  Pass 1  IDiag  1:
 RMSU=  1.17D-06    CP:  1.66D+00  4.29D-01  9.14D-01  6.32D-01  8.44D-01
                    CP:  9.91D-01  1.20D+00  9.44D-01  1.19D+00
 E= -456.244926031468     Delta-E=       -0.000000018675 Rises=F Damp=F
 DIIS: error= 3.68D-06 at cycle  10 NSaved=  10.
 NSaved=10 IEnMin=10 EnMin= -456.244926031468     IErMin=10 ErrMin= 3.68D-06
 ErrMax= 3.68D-06  0.00D+00 EMaxC= 1.00D-01 BMatC= 1.59D-09 BMatP= 7.09D-09
 IDIUse=1 WtCom= 1.00D+00 WtEn= 0.00D+00
 Coeff-Com: -0.770D-04 0.177D-03 0.592D-03 0.111D-02 0.192D-02-0.496D-02
 Coeff-Com: -0.617D-01-0.305D-01 0.412D+00 0.682D+00
 Coeff:     -0.770D-04 0.177D-03 0.592D-03 0.111D-02 0.192D-02-0.496D-02
 Coeff:     -0.617D-01-0.305D-01 0.412D+00 0.682D+00
 Gap=     0.280 Goal=   None    Shift=    0.000
 RMSDP=1.72D-06 MaxDP=2.79D-04 DE=-1.87D-08 OVMax= 2.96D-05

 Cycle  11  Pass 1  IDiag  1:
 RMSU=  5.05D-07    CP:  1.66D+00  4.29D-01  9.14D-01  6.32D-01  8.44D-01
                    CP:  9.88D-01  1.20D+00  9.92D-01  1.22D+00  1.06D+00
 E= -456.244926034027     Delta-E=       -0.000000002559 Rises=F Damp=F
 DIIS: error= 1.86D-06 at cycle  11 NSaved=  11.
 NSaved=11 IEnMin=11 EnMin= -456.244926034027     IErMin=11 ErrMin= 1.86D-06
 ErrMax= 1.86D-06  0.00D+00 EMaxC= 1.00D-01 BMatC= 2.65D-10 BMatP= 1.59D-09
 IDIUse=1 WtCom= 1.00D+00 WtEn= 0.00D+00
 Coeff-Com: -0.276D-04 0.579D-04 0.225D-03 0.504D-03 0.111D-02 0.566D-03
 Coeff-Com: -0.194D-01-0.238D-01-0.658D-02 0.296D+00 0.752D+00
 Coeff:     -0.276D-04 0.579D-04 0.225D-03 0.504D-03 0.111D-02 0.566D-03
 Coeff:     -0.194D-01-0.238D-01-0.658D-02 0.296D+00 0.752D+00
 Gap=     0.280 Goal=   None    Shift=    0.000
 RMSDP=4.24D-07 MaxDP=5.61D-05 DE=-2.56D-09 OVMax= 1.47D-05

 Cycle  12  Pass 1  IDiag  1:
 RMSU=  1.68D-07    CP:  1.66D+00  4.29D-01  9.14D-01  6.32D-01  8.44D-01
                    CP:  9.89D-01  1.20D+00  9.94D-01  1.24D+00  1.14D+00
                    CP:  9.34D-01
 E= -456.244926034544     Delta-E=       -0.000000000517 Rises=F Damp=F
 DIIS: error= 3.94D-07 at cycle  12 NSaved=  12.
 NSaved=12 IEnMin=12 EnMin= -456.244926034544     IErMin=12 ErrMin= 3.94D-07
 ErrMax= 3.94D-07  0.00D+00 EMaxC= 1.00D-01 BMatC= 1.34D-11 BMatP= 2.65D-10
 IDIUse=1 WtCom= 1.00D+00 WtEn= 0.00D+00
 Coeff-Com:  0.646D-05-0.144D-04-0.418D-04-0.641D-04-0.123D-03 0.734D-03
 Coeff-Com:  0.511D-02-0.549D-04-0.505D-01-0.408D-01 0.102D+00 0.984D+00
 Coeff:      0.646D-05-0.144D-04-0.418D-04-0.641D-04-0.123D-03 0.734D-03
 Coeff:      0.511D-02-0.549D-04-0.505D-01-0.408D-01 0.102D+00 0.984D+00
 Gap=     0.280 Goal=   None    Shift=    0.000
 RMSDP=3.92D-07 MaxDP=4.62D-05 DE=-5.17D-10 OVMax= 5.49D-06

 Cycle  13  Pass 1  IDiag  1:
 RMSU=  7.29D-08    CP:  1.66D+00  4.29D-01  9.14D-01  6.32D-01  8.45D-01
                    CP:  9.89D-01  1.20D+00  9.94D-01  1.22D+00  1.17D+00
                    CP:  1.02D+00  1.27D+00
 E= -456.244926034583     Delta-E=       -0.000000000040 Rises=F Damp=F
 DIIS: error= 9.26D-08 at cycle  13 NSaved=  13.
 NSaved=13 IEnMin=13 EnMin= -456.244926034583     IErMin=13 ErrMin= 9.26D-08
 ErrMax= 9.26D-08  0.00D+00 EMaxC= 1.00D-01 BMatC= 2.04D-12 BMatP= 1.34D-11
 IDIUse=1 WtCom= 1.00D+00 WtEn= 0.00D+00
 Coeff-Com:  0.380D-05-0.826D-05-0.279D-04-0.514D-04-0.127D-03 0.205D-03
 Coeff-Com:  0.294D-02 0.169D-02-0.122D-01-0.318D-01-0.321D-01 0.264D+00
 Coeff-Com:  0.808D+00
 Coeff:      0.380D-05-0.826D-05-0.279D-04-0.514D-04-0.127D-03 0.205D-03
 Coeff:      0.294D-02 0.169D-02-0.122D-01-0.318D-01-0.321D-01 0.264D+00
 Coeff:      0.808D+00
 Gap=     0.280 Goal=   None    Shift=    0.000
 RMSDP=5.22D-08 MaxDP=4.37D-06 DE=-3.97D-11 OVMax= 1.64D-06

 Cycle  14  Pass 1  IDiag  1:
 RMSU=  1.62D-08    CP:  1.66D+00  4.29D-01  9.14D-01  6.32D-01  8.45D-01
                    CP:  9.89D-01  1.20D+00  9.93D-01  1.22D+00  1.17D+00
                    CP:  1.01D+00  1.38D+00  1.18D+00
 E= -456.244926034597     Delta-E=       -0.000000000013 Rises=F Damp=F
 DIIS: error= 4.19D-08 at cycle  14 NSaved=  14.
 NSaved=14 IEnMin=14 EnMin= -456.244926034597     IErMin=14 ErrMin= 4.19D-08
 ErrMax= 4.19D-08  0.00D+00 EMaxC= 1.00D-01 BMatC= 5.89D-13 BMatP= 2.04D-12
 IDIUse=1 WtCom= 1.00D+00 WtEn= 0.00D+00
 Coeff-Com:  0.248D-06-0.612D-06-0.374D-05-0.653D-05-0.307D-04-0.369D-04
 Coeff-Com:  0.194D-03 0.561D-03 0.427D-02-0.484D-02-0.331D-01-0.921D-01
 Coeff-Com:  0.363D+00 0.762D+00
 Coeff:      0.248D-06-0.612D-06-0.374D-05-0.653D-05-0.307D-04-0.369D-04
 Coeff:      0.194D-03 0.561D-03 0.427D-02-0.484D-02-0.331D-01-0.921D-01
 Coeff:      0.363D+00 0.762D+00
 Gap=     0.280 Goal=   None    Shift=    0.000
 RMSDP=3.28D-08 MaxDP=3.30D-06 DE=-1.32D-11 OVMax= 7.14D-07

 Cycle  15  Pass 1  IDiag  1:
 RMSU=  7.14D-09    CP:  1.66D+00  4.29D-01  9.14D-01  6.32D-01  8.45D-01
                    CP:  9.89D-01  1.20D+00  9.93D-01  1.22D+00  1.17D+00
                    CP:  1.02D+00  1.40D+00  1.32D+00  1.20D+00
 E= -456.244926034591     Delta-E=        0.000000000006 Rises=F Damp=F
 DIIS: error= 1.03D-08 at cycle  15 NSaved=  15.
 NSaved=15 IEnMin=14 EnMin= -456.244926034597     IErMin=15 ErrMin= 1.03D-08
 ErrMax= 1.03D-08  0.00D+00 EMaxC= 1.00D-01 BMatC= 4.67D-14 BMatP= 5.89D-13
 IDIUse=1 WtCom= 1.00D+00 WtEn= 0.00D+00
 Coeff-Com: -0.226D-06 0.450D-06 0.523D-06 0.145D-05-0.314D-05-0.330D-04
 Coeff-Com: -0.155D-03 0.107D-03 0.275D-02 0.784D-03-0.100D-01-0.611D-01
 Coeff-Com:  0.844D-01 0.301D+00 0.683D+00
 Coeff:     -0.226D-06 0.450D-06 0.523D-06 0.145D-05-0.314D-05-0.330D-04
 Coeff:     -0.155D-03 0.107D-03 0.275D-02 0.784D-03-0.100D-01-0.611D-01
 Coeff:      0.844D-01 0.301D+00 0.683D+00
 Gap=     0.280 Goal=   None    Shift=    0.000
 RMSDP=7.88D-09 MaxDP=9.22D-07 DE= 6.03D-12 OVMax= 1.71D-07

 SCF Done:  E(RM062X) =  -456.244926035     A.U. after   15 cycles
            NFock= 15  Conv=0.79D-08     -V/T= 2.0045
 KE= 4.541810958244D+02 PE=-2.053815448087D+03 EE= 6.480680435626D+02
 Leave Link  502 at Sat Dec 17 23:25:53 2022, MaxMem=  1342177280 cpu:             751.8 elap:              31.4
 (Enter /data0/home/software/g16/l601.exe)
 Copying SCF densities to generalized density rwf, IOpCl= 0 IROHF=0.

 **********************************************************************

            Population analysis using the SCF density.

 **********************************************************************

 Alpha  occ. eigenvalues --  -19.60568 -14.81988 -14.75157 -10.63151 -10.59921
 Alpha  occ. eigenvalues --  -10.58091 -10.56425 -10.55699 -10.55522 -10.55175
 Alpha  occ. eigenvalues --   -1.13060  -1.11470  -0.99112  -0.96257  -0.85604
 Alpha  occ. eigenvalues --   -0.84364  -0.72893  -0.71879  -0.69071  -0.63706
 Alpha  occ. eigenvalues --   -0.59186  -0.58258  -0.56903  -0.52857  -0.52316
 Alpha  occ. eigenvalues --   -0.51704  -0.49568  -0.45941  -0.44122  -0.43178
 Alpha  occ. eigenvalues --   -0.42283  -0.38450  -0.37994  -0.35340  -0.29846
 Alpha  occ. eigenvalues --   -0.29204
 Alpha virt. eigenvalues --   -0.01214  -0.00664   0.01332   0.02443   0.02565
 Alpha virt. eigenvalues --    0.03437   0.04276   0.04438   0.05102   0.05215
 Alpha virt. eigenvalues --    0.06503   0.08148   0.08298   0.09161   0.09810
 Alpha virt. eigenvalues --    0.10460   0.12182   0.12529   0.13088   0.13825
 Alpha virt. eigenvalues --    0.14506   0.15904   0.16076   0.16505   0.17183
 Alpha virt. eigenvalues --    0.17675   0.17944   0.18612   0.19037   0.19902
 Alpha virt. eigenvalues --    0.20346   0.20712   0.20829   0.22037   0.22693
 Alpha virt. eigenvalues --    0.22912   0.23127   0.23827   0.24700   0.24943
 Alpha virt. eigenvalues --    0.25500   0.25555   0.26088   0.26480   0.27201
 Alpha virt. eigenvalues --    0.27854   0.28173   0.28564   0.29257   0.30557
 Alpha virt. eigenvalues --    0.31879   0.32881   0.34276   0.35873   0.36698
 Alpha virt. eigenvalues --    0.37977   0.39026   0.43540   0.44860   0.46388
 Alpha virt. eigenvalues --    0.49434   0.51843   0.53575   0.53940   0.55272
 Alpha virt. eigenvalues --    0.55364   0.55801   0.57206   0.57856   0.58949
 Alpha virt. eigenvalues --    0.59265   0.59704   0.61029   0.63439   0.63791
 Alpha virt. eigenvalues --    0.65403   0.65816   0.66532   0.66786   0.68563
 Alpha virt. eigenvalues --    0.70150   0.70272   0.70776   0.72062   0.73668
 Alpha virt. eigenvalues --    0.74991   0.75985   0.76601   0.77757   0.79564
 Alpha virt. eigenvalues --    0.81075   0.82548   0.82930   0.83863   0.84274
 Alpha virt. eigenvalues --    0.84515   0.85745   0.86293   0.86822   0.87202
 Alpha virt. eigenvalues --    0.88843   0.89263   0.91827   0.92660   0.93697
 Alpha virt. eigenvalues --    0.95742   0.96755   0.97986   1.00822   1.01607
 Alpha virt. eigenvalues --    1.05114   1.07646   1.09316   1.10958   1.13249
 Alpha virt. eigenvalues --    1.14985   1.16074   1.17399   1.19337   1.21184
 Alpha virt. eigenvalues --    1.22676   1.25022   1.25719   1.26796   1.28310
 Alpha virt. eigenvalues --    1.32912   1.33349   1.33891   1.34981   1.37135
 Alpha virt. eigenvalues --    1.37564   1.40073   1.41610   1.42107   1.43681
 Alpha virt. eigenvalues --    1.45119   1.46480   1.48966   1.51020   1.53045
 Alpha virt. eigenvalues --    1.55354   1.56101   1.57621   1.60003   1.61909
 Alpha virt. eigenvalues --    1.63188   1.64576   1.68066   1.68753   1.73989
 Alpha virt. eigenvalues --    1.75303   1.76719   1.77655   1.81009   1.83701
 Alpha virt. eigenvalues --    1.85240   1.87852   1.90259   1.91851   1.95374
 Alpha virt. eigenvalues --    1.98024   1.98678   2.04657   2.07567   2.09078
 Alpha virt. eigenvalues --    2.10922   2.11806   2.16842   2.19260   2.28626
 Alpha virt. eigenvalues --    2.32561   2.35818   2.43489   2.45689   2.48347
 Alpha virt. eigenvalues --    2.53116   2.58626   2.61181   2.62019   2.64417
 Alpha virt. eigenvalues --    2.69784   2.70885   2.76693   2.78368   2.79392
 Alpha virt. eigenvalues --    2.80062   2.81979   2.82797   2.87139   2.89131
 Alpha virt. eigenvalues --    2.91023   2.92453   2.93473   2.96187   2.97284
 Alpha virt. eigenvalues --    3.05597   3.08262   3.10107   3.12719   3.15234
 Alpha virt. eigenvalues --    3.16002   3.20438   3.21883   3.27826   3.28460
 Alpha virt. eigenvalues --    3.29005   3.30081   3.32038   3.34635   3.36954
 Alpha virt. eigenvalues --    3.37425   3.37859   3.40678   3.41981   3.44634
 Alpha virt. eigenvalues --    3.46980   3.47589   3.48940   3.52063   3.54567
 Alpha virt. eigenvalues --    3.57143   3.58146   3.59064   3.59968   3.61665
 Alpha virt. eigenvalues --    3.63242   3.66000   3.70277   3.71521   3.73950
 Alpha virt. eigenvalues --    3.76602   3.77427   3.81912   3.86380   3.91060
 Alpha virt. eigenvalues --    3.93243   3.94552   3.95032   3.98667   3.99719
 Alpha virt. eigenvalues --    4.00814   4.03359   4.07262   4.08780   4.24288
 Alpha virt. eigenvalues --    4.42864   4.57179   4.64218   4.70325   4.74221
 Alpha virt. eigenvalues --    4.90334   4.97983   5.01687   5.02517   5.04251
 Alpha virt. eigenvalues --    5.08905   5.11582   5.18482   5.22268   5.27178
 Alpha virt. eigenvalues --    5.30639   5.40927   5.45001   5.53454   5.55198
 Alpha virt. eigenvalues --    5.64503   5.98226   6.81377   6.82826   6.91362
 Alpha virt. eigenvalues --    6.93910   7.13673  23.78129  24.01661  24.06324
 Alpha virt. eigenvalues --   24.11260  24.12391  24.23120  24.26816  35.73601
 Alpha virt. eigenvalues --   35.80796  50.02261
          Condensed to atoms (all electrons):
               1          2          3          4          5          6
     1  C   21.141658  -8.979594   1.638543  -2.467452   1.951225  -7.598049
     2  C   -8.979594  15.339713  -4.259944   1.840499  -1.897602   2.783882
     3  C    1.638543  -4.259944  12.043336  -0.988979   1.320641  -2.745402
     4  C   -2.467452   1.840499  -0.988979   5.892524  -0.084244   1.567520
     5  C    1.951225  -1.897602   1.320641  -0.084244   6.287663  -1.615714
     6  C   -7.598049   2.783882  -2.745402   1.567520  -1.615714  13.778011
     7  H    0.017229  -0.010143   0.365005  -0.025430   0.011829  -0.012019
     8  H    0.001180   0.034144  -0.054883   0.392498  -0.041224   0.015893
     9  H    0.053680  -0.007343   0.016154  -0.040489   0.410049  -0.080580
    10  H   -0.000569  -0.049081  -0.009467   0.014082   0.039253   0.354730
    11  H   -0.068351   0.142841   0.022920  -0.002304  -0.006873  -0.110608
    12  C   -0.425670   0.046170   0.050592  -0.006378  -0.009649  -0.079637
    13  H   -0.025049   0.042564   0.033651  -0.000853   0.002068  -0.005987
    14  N   -0.368516   0.393467  -0.212456   0.086242  -0.104752   0.229579
    15  N    0.802085   0.177394  -0.859895  -0.044753  -0.026790   0.046598
    16  O    0.028514  -0.041237   0.015213   0.024149  -0.050746   0.064441
    17  H    0.054509  -0.029684   0.015651  -0.011700  -0.004733  -0.015099
    18  H    0.122852  -0.074511   0.049613  -0.034395  -0.005598  -0.075762
               7          8          9         10         11         12
     1  C    0.017229   0.001180   0.053680  -0.000569  -0.068351  -0.425670
     2  C   -0.010143   0.034144  -0.007343  -0.049081   0.142841   0.046170
     3  C    0.365005  -0.054883   0.016154  -0.009467   0.022920   0.050592
     4  C   -0.025430   0.392498  -0.040489   0.014082  -0.002304  -0.006378
     5  C    0.011829  -0.041224   0.410049   0.039253  -0.006873  -0.009649
     6  C   -0.012019   0.015893  -0.080580   0.354730  -0.110608  -0.079637
     7  H    0.509689  -0.004796  -0.000217   0.000075   0.000015   0.000232
     8  H   -0.004796   0.532865  -0.005161  -0.000251  -0.000001   0.000721
     9  H   -0.000217  -0.005161   0.529719  -0.004790  -0.000008   0.000302
    10  H    0.000075  -0.000251  -0.004790   0.528193   0.001985   0.002229
    11  H    0.000015  -0.000001  -0.000008   0.001985   0.404940  -0.022574
    12  C    0.000232   0.000721   0.000302   0.002229  -0.022574   5.082696
    13  H   -0.000031  -0.000000  -0.000000  -0.000011  -0.000988   0.420573
    14  N   -0.000852   0.000296  -0.000739  -0.005925   0.380990   0.370511
    15  N    0.005726  -0.000199   0.000248   0.000482  -0.009540   0.408754
    16  O    0.000003  -0.000044  -0.000551  -0.000963   0.000139  -0.002751
    17  H   -0.000003   0.000011   0.000029  -0.000083   0.000070   0.000398
    18  H   -0.000041   0.000042   0.000179  -0.000023   0.000082  -0.001004
              13         14         15         16         17         18
     1  C   -0.025049  -0.368516   0.802085   0.028514   0.054509   0.122852
     2  C    0.042564   0.393467   0.177394  -0.041237  -0.029684  -0.074511
     3  C    0.033651  -0.212456  -0.859895   0.015213   0.015651   0.049613
     4  C   -0.000853   0.086242  -0.044753   0.024149  -0.011700  -0.034395
     5  C    0.002068  -0.104752  -0.026790  -0.050746  -0.004733  -0.005598
     6  C   -0.005987   0.229579   0.046598   0.064441  -0.015099  -0.075762
     7  H   -0.000031  -0.000852   0.005726   0.000003  -0.000003  -0.000041
     8  H   -0.000000   0.000296  -0.000199  -0.000044   0.000011   0.000042
     9  H   -0.000000  -0.000739   0.000248  -0.000551   0.000029   0.000179
    10  H   -0.000011  -0.005925   0.000482  -0.000963  -0.000083  -0.000023
    11  H   -0.000988   0.380990  -0.009540   0.000139   0.000070   0.000082
    12  C    0.420573   0.370511   0.408754  -0.002751   0.000398  -0.001004
    13  H    0.497867  -0.053970  -0.061463  -0.000009  -0.000001   0.000002
    14  N   -0.053970   6.587477   0.004939  -0.008776  -0.003090  -0.002305
    15  N   -0.061463   0.004939   6.887317  -0.000584   0.000507   0.001092
    16  O   -0.000009  -0.008776  -0.000584   7.865817   0.318393   0.322338
    17  H   -0.000001  -0.003090   0.000507   0.318393   0.440882  -0.029512
    18  H    0.000002  -0.002305   0.001092   0.322338  -0.029512   0.391508
 Mulliken charges:
               1
     1  C    0.121772
     2  C    0.548465
     3  C   -0.440293
     4  C   -0.110538
     5  C   -0.174805
     6  C   -0.501795
     7  H    0.143729
     8  H    0.128910
     9  H    0.129519
    10  H    0.130134
    11  H    0.267265
    12  C    0.164484
    13  H    0.151639
    14  N   -0.292120
    15  N   -0.331918
    16  O   -0.533346
    17  H    0.263454
    18  H    0.335442
 Sum of Mulliken charges =  -0.00000
 Mulliken charges with hydrogens summed into heavy atoms:
               1
     1  C    0.121772
     2  C    0.548465
     3  C   -0.296564
     4  C    0.018372
     5  C   -0.045286
     6  C   -0.371661
    12  C    0.316124
    14  N   -0.024855
    15  N   -0.331918
    16  O    0.065550
         Mulliken charges condensed to fragments:
      1     -0.065550
      2      0.065550
 Electronic spatial extent (au):  <R**2>=         103353.0844
 Charge=             -0.0000 electrons
 Dipole moment (field-independent basis, Debye):
    X=             -2.2082    Y=             -4.1246    Z=              0.7726  Tot=              4.7419
 Quadrupole moment (field-independent basis, Debye-Ang):
   XX=            -89.9685   YY=           -176.4426   ZZ=            -55.1919
   XY=            -66.3871   XZ=            -11.4942   YZ=            -27.6880
 Traceless Quadrupole moment (field-independent basis, Debye-Ang):
   XX=             17.2325   YY=            -69.2416   ZZ=             52.0091
   XY=            -66.3871   XZ=            -11.4942   YZ=            -27.6880
 Octapole moment (field-independent basis, Debye-Ang**2):
  XXX=          -1456.7362  YYY=          -5347.8575  ZZZ=          -1810.4274  XYY=          -1837.4400
  XXY=          -1688.8567  XXZ=           -785.9441  XZZ=           -473.0158  YZZ=          -1307.8063
  YYZ=          -1512.8207  XYZ=           -484.4698
 Hexadecapole moment (field-independent basis, Debye-Ang**3):
 XXXX=         -17996.1249 YYYY=        -139324.5355 ZZZZ=         -37140.5791 XXXY=         -25298.0533
 XXXZ=         -13556.7507 YYYX=         -46484.7879 YYYZ=         -48567.8870 ZZZX=         -12517.9878
 ZZZY=         -33665.8864 XXYY=         -32921.5159 XXZZ=          -9979.0679 YYZZ=         -32067.8870
 XXYZ=         -14968.4384 YYXZ=         -15253.8529 ZZXY=         -10720.5199
 N-N= 4.953213826658D+02 E-N=-2.053815447948D+03  KE= 4.541810958244D+02
 No NMR shielding tensors so no spin-rotation constants.
 Leave Link  601 at Sat Dec 17 23:25:53 2022, MaxMem=  1342177280 cpu:               2.4 elap:               0.1
 (Enter /data0/home/software/g16/l122.exe)
 CPIOFr:  IOpCl= 0 IRwI=-1 IRwCP=  731 ICalc= -1 LCPTot=      156626 Len1MO=      410928 IndFrg=      156626
 CPIOFr:  IOpCl= 0 IRwI=-1 IRwCP=  731 ICalc=  0 LCPTot=      156626 Len1MO=      410928 IndFrg=      567554
 Counterpoise: doing calculation for fragment   1 using the basis set of the full-system, NewBq=T
 Leave Link  122 at Sat Dec 17 23:25:53 2022, MaxMem=  1342177280 cpu:               0.2 elap:               0.0
 (Enter /data0/home/software/g16/l301.exe)
 Basis read from rwf:  (5D, 7F)
 No pseudopotential information found on rwf file.
   318 basis functions,   484 primitive gaussians,   338 cartesian basis functions
    31 alpha electrons       31 beta electrons
       nuclear repulsion energy       401.4527627218 Hartrees.
 IExCor= 4336 DFT=T Ex+Corr=M062X ExCW=0 ScaHFX=  0.540000
 ScaDFX=  1.000000  1.000000  1.000000  1.000000 ScalE2=  1.000000  1.000000
 IRadAn=      5 IRanWt=     -1 IRanGd=            0 ICorTp=0 IEmpDi=131
 NAtoms=   18 NActive=   18 NUniq=   18 SFac= 1.00D+00 NAtFMM=   60 NAOKFM=F Big=F
 Integral buffers will be    131072 words long.
 Raffenetti 2 integral format.
 Two-electron integral symmetry is turned off.
 R6Disp:  Grimme-D3 Dispersion energy=       -0.0002903344 Hartrees.
 Nuclear repulsion after empirical dispersion term =      401.4524723874 Hartrees.
 No density basis found on file   718.
 Leave Link  301 at Sat Dec 17 23:25:53 2022, MaxMem=  1342177280 cpu:               1.3 elap:               0.1
 (Enter /data0/home/software/g16/l302.exe)
 NPDir=0 NMtPBC=     1 NCelOv=     1 NCel=       1 NClECP=     1 NCelD=      1
         NCelK=      1 NCelE2=     1 NClLst=     1 CellRange=     0.0.
 One-electron integrals computed using PRISM.
 NBasis=   318 RedAO= T EigKep=  1.40D-06  NBF=   318
 NBsUse=   318 1.00D-06 EigRej= -1.00D+00 NBFU=   318
 Precomputing XC quadrature grid using
 IXCGrd= 4 IRadAn=           5 IRanWt=          -1 IRanGd=           0 AccXCQ= 0.00D+00.
 Generated NRdTot=       0 NPtTot=           0 NUsed=           0 NTot=          32
 NSgBfM=   338   338   338   338   338 MxSgAt=    18 MxSgA2=    18.
 Leave Link  302 at Sat Dec 17 23:25:53 2022, MaxMem=  1342177280 cpu:               4.9 elap:               0.2
 (Enter /data0/home/software/g16/l303.exe)
 DipDrv:  MaxL=1.
 Leave Link  303 at Sat Dec 17 23:25:53 2022, MaxMem=  1342177280 cpu:               0.7 elap:               0.0
 (Enter /data0/home/software/g16/l401.exe)
 ExpMin= 4.38D-02 ExpMax= 8.59D+03 ExpMxC= 1.30D+03 IAcc=3 IRadAn=         5 AccDes= 0.00D+00
 Harris functional with IExCor= 1009 and IRadAn=       5 diagonalized for initial guess.
 HarFok:  IExCor= 1009 AccDes= 0.00D+00 IRadAn=         5 IDoV= 1 UseB2=F ITyADJ=14
 ICtDFT=  3500011 ScaDFX=  1.000000  1.000000  1.000000  1.000000
 FoFCou: FMM=F IPFlag=           0 FMFlag=      100000 FMFlg1=           0
         NFxFlg=           0 DoJE=T BraDBF=F KetDBF=T FulRan=T
         wScrn=  0.000000 ICntrl=       500 IOpCl=  0 I1Cent=   200000004 NGrid=           0
         NMat0=    1 NMatS0=      1 NMatT0=    0 NMatD0=    1 NMtDS0=    0 NMtDT0=    0
 Symmetry not used in FoFCou.
 Harris En= -379.613268734095    
 JPrj=0 DoOrth=F DoCkMO=F.
 Leave Link  401 at Sat Dec 17 23:25:54 2022, MaxMem=  1342177280 cpu:              18.4 elap:               0.8
 (Enter /data0/home/software/g16/l502.exe)
 Two-electron integral symmetry not used.
 Closed shell SCF:
 Using DIIS extrapolation, IDIIS=  1040.
 NGot=  1342177280 LenX=  1341938296 LenY=  1341823611
 Requested convergence on RMS density matrix=1.00D-08 within 128 cycles.
 Requested convergence on MAX density matrix=1.00D-06.
 Requested convergence on             energy=1.00D-06.
 No special actions if energy rises.
 Fock matrices will be formed incrementally for  20 cycles.

 Cycle   1  Pass 1  IDiag  1:
 FoFJK:  IHMeth= 1 ICntrl=       0 DoSepK=F KAlg= 0 I1Cent=           0 FoldK=F
 IRaf= 950000000 NMat=       1 IRICut=       1 DoRegI=T DoRafI=F ISym2E= 0 IDoP0=0 IntGTp=1.
 FoFCou: FMM=F IPFlag=           0 FMFlag=      100000 FMFlg1=           0
         NFxFlg=           0 DoJE=F BraDBF=F KetDBF=F FulRan=T
         wScrn=  0.000000 ICntrl=         0 IOpCl=  0 I1Cent=           0 NGrid=           0
         NMat0=    1 NMatS0=      1 NMatT0=    0 NMatD0=    1 NMtDS0=    0 NMtDT0=    0
 Symmetry not used in FoFCou.
 E= -379.612499478894    
 DIIS: error= 2.10D-02 at cycle   1 NSaved=   1.
 NSaved= 1 IEnMin= 1 EnMin= -379.612499478894     IErMin= 1 ErrMin= 2.10D-02
 ErrMax= 2.10D-02  0.00D+00 EMaxC= 1.00D-01 BMatC= 2.48D-01 BMatP= 2.48D-01
 IDIUse=3 WtCom= 7.90D-01 WtEn= 2.10D-01
 Coeff-Com:  0.100D+01
 Coeff-En:   0.100D+01
 Coeff:      0.100D+01
 Gap=     0.307 Goal=   None    Shift=    0.000
 GapD=    0.307 DampG=1.000 DampE=0.500 DampFc=0.5000 IDamp=-1.
 Damping current iteration by 5.00D-01
 RMSDP=1.86D-02 MaxDP=2.09D+00              OVMax= 2.13D-01

 Cycle   2  Pass 1  IDiag  1:
 RMSU=  8.50D-03    CP:  1.18D+00
 E= -379.708866211487     Delta-E=       -0.096366732593 Rises=F Damp=T
 DIIS: error= 6.47D-03 at cycle   2 NSaved=   2.
 NSaved= 2 IEnMin= 2 EnMin= -379.708866211487     IErMin= 2 ErrMin= 6.47D-03
 ErrMax= 6.47D-03  0.00D+00 EMaxC= 1.00D-01 BMatC= 2.62D-02 BMatP= 2.48D-01
 IDIUse=3 WtCom= 9.35D-01 WtEn= 6.47D-02
 Coeff-Com: -0.944D-01 0.109D+01
 Coeff-En:   0.000D+00 0.100D+01
 Coeff:     -0.883D-01 0.109D+01
 Gap=     0.304 Goal=   None    Shift=    0.000
 RMSDP=4.94D-03 MaxDP=4.50D-01 DE=-9.64D-02 OVMax= 1.74D-01

 Cycle   3  Pass 1  IDiag  1:
 RMSU=  4.11D-03    CP:  1.05D+00  1.05D+00
 E= -379.800333512489     Delta-E=       -0.091467301002 Rises=F Damp=F
 DIIS: error= 6.45D-03 at cycle   3 NSaved=   3.
 NSaved= 3 IEnMin= 3 EnMin= -379.800333512489     IErMin= 3 ErrMin= 6.45D-03
 ErrMax= 6.45D-03  0.00D+00 EMaxC= 1.00D-01 BMatC= 1.73D-02 BMatP= 2.62D-02
 IDIUse=3 WtCom= 9.36D-01 WtEn= 6.45D-02
 Coeff-Com: -0.138D+00 0.537D+00 0.601D+00
 Coeff-En:   0.000D+00 0.000D+00 0.100D+01
 Coeff:     -0.129D+00 0.502D+00 0.627D+00
 Gap=     0.281 Goal=   None    Shift=    0.000
 RMSDP=1.66D-03 MaxDP=2.39D-01 DE=-9.15D-02 OVMax= 6.04D-02

 Cycle   4  Pass 1  IDiag  1:
 RMSU=  1.39D-03    CP:  1.02D+00  9.83D-01  9.51D-01
 E= -379.814804407657     Delta-E=       -0.014470895168 Rises=F Damp=F
 DIIS: error= 2.44D-03 at cycle   4 NSaved=   4.
 NSaved= 4 IEnMin= 4 EnMin= -379.814804407657     IErMin= 4 ErrMin= 2.44D-03
 ErrMax= 2.44D-03  0.00D+00 EMaxC= 1.00D-01 BMatC= 2.58D-03 BMatP= 1.73D-02
 IDIUse=3 WtCom= 9.76D-01 WtEn= 2.44D-02
 Coeff-Com: -0.571D-01 0.147D+00 0.335D+00 0.575D+00
 Coeff-En:   0.000D+00 0.000D+00 0.806D-01 0.919D+00
 Coeff:     -0.557D-01 0.144D+00 0.329D+00 0.583D+00
 Gap=     0.279 Goal=   None    Shift=    0.000
 RMSDP=6.94D-04 MaxDP=9.13D-02 DE=-1.45D-02 OVMax= 1.35D-02

 Cycle   5  Pass 1  IDiag  1:
 RMSU=  3.58D-04    CP:  1.02D+00  9.99D-01  9.38D-01  5.91D-01
 E= -379.817005865963     Delta-E=       -0.002201458306 Rises=F Damp=F
 DIIS: error= 5.32D-04 at cycle   5 NSaved=   5.
 NSaved= 5 IEnMin= 5 EnMin= -379.817005865963     IErMin= 5 ErrMin= 5.32D-04
 ErrMax= 5.32D-04  0.00D+00 EMaxC= 1.00D-01 BMatC= 9.94D-05 BMatP= 2.58D-03
 IDIUse=3 WtCom= 9.95D-01 WtEn= 5.32D-03
 Coeff-Com: -0.193D-01 0.413D-01 0.120D+00 0.266D+00 0.592D+00
 Coeff-En:   0.000D+00 0.000D+00 0.000D+00 0.000D+00 0.100D+01
 Coeff:     -0.192D-01 0.411D-01 0.119D+00 0.265D+00 0.594D+00
 Gap=     0.279 Goal=   None    Shift=    0.000
 RMSDP=1.13D-04 MaxDP=1.04D-02 DE=-2.20D-03 OVMax= 3.98D-03

 Cycle   6  Pass 1  IDiag  1:
 RMSU=  8.95D-05    CP:  1.03D+00  1.00D+00  9.40D-01  5.89D-01  9.45D-01
 E= -379.817097014665     Delta-E=       -0.000091148702 Rises=F Damp=F
 DIIS: error= 2.09D-04 at cycle   6 NSaved=   6.
 NSaved= 6 IEnMin= 6 EnMin= -379.817097014665     IErMin= 6 ErrMin= 2.09D-04
 ErrMax= 2.09D-04  0.00D+00 EMaxC= 1.00D-01 BMatC= 1.13D-05 BMatP= 9.94D-05
 IDIUse=3 WtCom= 9.98D-01 WtEn= 2.09D-03
 Coeff-Com: -0.262D-02 0.313D-02 0.192D-01 0.550D-01 0.285D+00 0.641D+00
 Coeff-En:   0.000D+00 0.000D+00 0.000D+00 0.000D+00 0.202D-01 0.980D+00
 Coeff:     -0.262D-02 0.312D-02 0.191D-01 0.549D-01 0.284D+00 0.641D+00
 Gap=     0.279 Goal=   None    Shift=    0.000
 RMSDP=5.79D-05 MaxDP=5.27D-03 DE=-9.11D-05 OVMax= 1.45D-03

 Cycle   7  Pass 1  IDiag  1:
 RMSU=  3.35D-05    CP:  1.02D+00  1.00D+00  9.41D-01  5.96D-01  9.39D-01
                    CP:  9.45D-01
 E= -379.817109473379     Delta-E=       -0.000012458714 Rises=F Damp=F
 DIIS: error= 6.40D-05 at cycle   7 NSaved=   7.
 NSaved= 7 IEnMin= 7 EnMin= -379.817109473379     IErMin= 7 ErrMin= 6.40D-05
 ErrMax= 6.40D-05  0.00D+00 EMaxC= 1.00D-01 BMatC= 4.09D-07 BMatP= 1.13D-05
 IDIUse=1 WtCom= 1.00D+00 WtEn= 0.00D+00
 Coeff-Com:  0.137D-02-0.342D-02-0.637D-02-0.156D-01-0.789D-03 0.103D+00
 Coeff-Com:  0.922D+00
 Coeff:      0.137D-02-0.342D-02-0.637D-02-0.156D-01-0.789D-03 0.103D+00
 Coeff:      0.922D+00
 Gap=     0.279 Goal=   None    Shift=    0.000
 RMSDP=1.93D-05 MaxDP=1.76D-03 DE=-1.25D-05 OVMax= 4.57D-04

 Cycle   8  Pass 1  IDiag  1:
 RMSU=  6.92D-06    CP:  1.03D+00  1.00D+00  9.42D-01  5.88D-01  9.65D-01
                    CP:  1.03D+00  1.20D+00
 E= -379.817110112847     Delta-E=       -0.000000639468 Rises=F Damp=F
 DIIS: error= 2.24D-05 at cycle   8 NSaved=   8.
 NSaved= 8 IEnMin= 8 EnMin= -379.817110112847     IErMin= 8 ErrMin= 2.24D-05
 ErrMax= 2.24D-05  0.00D+00 EMaxC= 1.00D-01 BMatC= 1.80D-07 BMatP= 4.09D-07
 IDIUse=1 WtCom= 1.00D+00 WtEn= 0.00D+00
 Coeff-Com:  0.103D-02-0.214D-02-0.528D-02-0.148D-01-0.328D-01-0.211D-01
 Coeff-Com:  0.494D+00 0.581D+00
 Coeff:      0.103D-02-0.214D-02-0.528D-02-0.148D-01-0.328D-01-0.211D-01
 Coeff:      0.494D+00 0.581D+00
 Gap=     0.279 Goal=   None    Shift=    0.000
 RMSDP=4.95D-06 MaxDP=4.40D-04 DE=-6.39D-07 OVMax= 2.17D-04

 Cycle   9  Pass 1  IDiag  1:
 RMSU=  3.61D-06    CP:  1.02D+00  1.00D+00  9.42D-01  5.88D-01  9.66D-01
                    CP:  1.05D+00  1.24D+00  1.07D+00
 E= -379.817110335561     Delta-E=       -0.000000222714 Rises=F Damp=F
 DIIS: error= 1.28D-05 at cycle   9 NSaved=   9.
 NSaved= 9 IEnMin= 9 EnMin= -379.817110335561     IErMin= 9 ErrMin= 1.28D-05
 ErrMax= 1.28D-05  0.00D+00 EMaxC= 1.00D-01 BMatC= 8.28D-09 BMatP= 1.80D-07
 IDIUse=1 WtCom= 1.00D+00 WtEn= 0.00D+00
 Coeff-Com: -0.537D-04 0.167D-03 0.422D-03 0.335D-03-0.265D-02-0.149D-01
 Coeff-Com: -0.673D-01 0.101D+00 0.983D+00
 Coeff:     -0.537D-04 0.167D-03 0.422D-03 0.335D-03-0.265D-02-0.149D-01
 Coeff:     -0.673D-01 0.101D+00 0.983D+00
 Gap=     0.279 Goal=   None    Shift=    0.000
 RMSDP=4.05D-06 MaxDP=5.15D-04 DE=-2.23D-07 OVMax= 9.28D-05

 Cycle  10  Pass 1  IDiag  1:
 RMSU=  9.23D-07    CP:  1.02D+00  1.00D+00  9.42D-01  5.86D-01  9.68D-01
                    CP:  1.05D+00  1.25D+00  1.27D+00  1.19D+00
 E= -379.817110356858     Delta-E=       -0.000000021297 Rises=F Damp=F
 DIIS: error= 2.90D-06 at cycle  10 NSaved=  10.
 NSaved=10 IEnMin=10 EnMin= -379.817110356858     IErMin=10 ErrMin= 2.90D-06
 ErrMax= 2.90D-06  0.00D+00 EMaxC= 1.00D-01 BMatC= 9.41D-10 BMatP= 8.28D-09
 IDIUse=1 WtCom= 1.00D+00 WtEn= 0.00D+00
 Coeff-Com: -0.960D-04 0.216D-03 0.592D-03 0.127D-02 0.164D-02-0.262D-02
 Coeff-Com: -0.620D-01-0.225D-01 0.281D+00 0.802D+00
 Coeff:     -0.960D-04 0.216D-03 0.592D-03 0.127D-02 0.164D-02-0.262D-02
 Coeff:     -0.620D-01-0.225D-01 0.281D+00 0.802D+00
 Gap=     0.279 Goal=   None    Shift=    0.000
 RMSDP=9.29D-07 MaxDP=7.54D-05 DE=-2.13D-08 OVMax= 3.51D-05

 Cycle  11  Pass 1  IDiag  1:
 RMSU=  3.06D-07    CP:  1.02D+00  1.00D+00  9.42D-01  5.86D-01  9.68D-01
                    CP:  1.05D+00  1.25D+00  1.31D+00  1.25D+00  1.04D+00
 E= -379.817110358933     Delta-E=       -0.000000002075 Rises=F Damp=F
 DIIS: error= 1.52D-06 at cycle  11 NSaved=  11.
 NSaved=11 IEnMin=11 EnMin= -379.817110358933     IErMin=11 ErrMin= 1.52D-06
 ErrMax= 1.52D-06  0.00D+00 EMaxC= 1.00D-01 BMatC= 2.59D-10 BMatP= 9.41D-10
 IDIUse=1 WtCom= 1.00D+00 WtEn= 0.00D+00
 Coeff-Com: -0.314D-04 0.664D-04 0.204D-03 0.504D-03 0.981D-03 0.894D-03
 Coeff-Com: -0.192D-01-0.272D-01-0.122D-01 0.384D+00 0.672D+00
 Coeff:     -0.314D-04 0.664D-04 0.204D-03 0.504D-03 0.981D-03 0.894D-03
 Coeff:     -0.192D-01-0.272D-01-0.122D-01 0.384D+00 0.672D+00
 Gap=     0.279 Goal=   None    Shift=    0.000
 RMSDP=1.77D-07 MaxDP=1.15D-05 DE=-2.07D-09 OVMax= 1.44D-05

 Cycle  12  Pass 1  IDiag  1:
 RMSU=  1.28D-07    CP:  1.02D+00  1.00D+00  9.42D-01  5.86D-01  9.68D-01
                    CP:  1.05D+00  1.25D+00  1.32D+00  1.26D+00  1.11D+00
                    CP:  9.71D-01
 E= -379.817110359335     Delta-E=       -0.000000000402 Rises=F Damp=F
 DIIS: error= 3.31D-07 at cycle  12 NSaved=  12.
 NSaved=12 IEnMin=12 EnMin= -379.817110359335     IErMin=12 ErrMin= 3.31D-07
 ErrMax= 3.31D-07  0.00D+00 EMaxC= 1.00D-01 BMatC= 1.48D-11 BMatP= 2.59D-10
 IDIUse=1 WtCom= 1.00D+00 WtEn= 0.00D+00
 Coeff-Com:  0.823D-05-0.188D-04-0.467D-04-0.794D-04-0.722D-04 0.713D-03
 Coeff-Com:  0.565D-02-0.427D-02-0.458D-01-0.306D-01 0.135D+00 0.939D+00
 Coeff:      0.823D-05-0.188D-04-0.467D-04-0.794D-04-0.722D-04 0.713D-03
 Coeff:      0.565D-02-0.427D-02-0.458D-01-0.306D-01 0.135D+00 0.939D+00
 Gap=     0.279 Goal=   None    Shift=    0.000
 RMSDP=1.34D-07 MaxDP=1.30D-05 DE=-4.02D-10 OVMax= 6.17D-06

 Cycle  13  Pass 1  IDiag  1:
 RMSU=  5.81D-08    CP:  1.02D+00  1.00D+00  9.42D-01  5.86D-01  9.68D-01
                    CP:  1.05D+00  1.25D+00  1.31D+00  1.25D+00  1.13D+00
                    CP:  1.04D+00  1.42D+00
 E= -379.817110359397     Delta-E=       -0.000000000063 Rises=F Damp=F
 DIIS: error= 1.41D-07 at cycle  13 NSaved=  13.
 NSaved=13 IEnMin=13 EnMin= -379.817110359397     IErMin=13 ErrMin= 1.41D-07
 ErrMax= 1.41D-07  0.00D+00 EMaxC= 1.00D-01 BMatC= 3.11D-12 BMatP= 1.48D-11
 IDIUse=1 WtCom= 1.00D+00 WtEn= 0.00D+00
 Coeff-Com:  0.531D-05-0.118D-04-0.337D-04-0.663D-04-0.114D-03 0.223D-03
 Coeff-Com:  0.365D-02 0.477D-03-0.139D-01-0.396D-01-0.205D-01 0.336D+00
 Coeff-Com:  0.734D+00
 Coeff:      0.531D-05-0.118D-04-0.337D-04-0.663D-04-0.114D-03 0.223D-03
 Coeff:      0.365D-02 0.477D-03-0.139D-01-0.396D-01-0.205D-01 0.336D+00
 Coeff:      0.734D+00
 Gap=     0.279 Goal=   None    Shift=    0.000
 RMSDP=4.60D-08 MaxDP=2.94D-06 DE=-6.26D-11 OVMax= 1.85D-06

 Cycle  14  Pass 1  IDiag  1:
 RMSU=  1.42D-08    CP:  1.02D+00  1.00D+00  9.42D-01  5.86D-01  9.68D-01
                    CP:  1.05D+00  1.25D+00  1.31D+00  1.25D+00  1.14D+00
                    CP:  1.03D+00  1.54D+00  1.16D+00
 E= -379.817110359408     Delta-E=       -0.000000000010 Rises=F Damp=F
 DIIS: error= 4.33D-08 at cycle  14 NSaved=  14.
 NSaved=14 IEnMin=14 EnMin= -379.817110359408     IErMin=14 ErrMin= 4.33D-08
 ErrMax= 4.33D-08  0.00D+00 EMaxC= 1.00D-01 BMatC= 7.61D-13 BMatP= 3.11D-12
 IDIUse=1 WtCom= 1.00D+00 WtEn= 0.00D+00
 Coeff-Com:  0.240D-06-0.575D-06-0.390D-05-0.732D-05-0.356D-04-0.492D-04
 Coeff-Com:  0.198D-03 0.966D-03 0.505D-02-0.837D-02-0.484D-01-0.806D-01
 Coeff-Com:  0.337D+00 0.794D+00
 Coeff:      0.240D-06-0.575D-06-0.390D-05-0.732D-05-0.356D-04-0.492D-04
 Coeff:      0.198D-03 0.966D-03 0.505D-02-0.837D-02-0.484D-01-0.806D-01
 Coeff:      0.337D+00 0.794D+00
 Gap=     0.279 Goal=   None    Shift=    0.000
 RMSDP=2.64D-08 MaxDP=1.84D-06 DE=-1.02D-11 OVMax= 7.85D-07

 Cycle  15  Pass 1  IDiag  1:
 RMSU=  6.63D-09    CP:  1.02D+00  1.00D+00  9.42D-01  5.86D-01  9.68D-01
                    CP:  1.05D+00  1.25D+00  1.31D+00  1.25D+00  1.14D+00
                    CP:  1.02D+00  1.61D+00  1.27D+00  1.20D+00
 E= -379.817110359406     Delta-E=        0.000000000002 Rises=F Damp=F
 DIIS: error= 9.68D-09 at cycle  15 NSaved=  15.
 NSaved=15 IEnMin=14 EnMin= -379.817110359408     IErMin=15 ErrMin= 9.68D-09
 ErrMax= 9.68D-09  0.00D+00 EMaxC= 1.00D-01 BMatC= 4.00D-14 BMatP= 7.61D-13
 IDIUse=1 WtCom= 1.00D+00 WtEn= 0.00D+00
 Coeff-Com: -0.244D-06 0.514D-06 0.456D-06 0.140D-05-0.858D-05-0.291D-04
 Coeff-Com: -0.133D-03 0.270D-03 0.270D-02-0.252D-03-0.177D-01-0.477D-01
 Coeff-Com:  0.858D-01 0.290D+00 0.687D+00
 Coeff:     -0.244D-06 0.514D-06 0.456D-06 0.140D-05-0.858D-05-0.291D-04
 Coeff:     -0.133D-03 0.270D-03 0.270D-02-0.252D-03-0.177D-01-0.477D-01
 Coeff:      0.858D-01 0.290D+00 0.687D+00
 Gap=     0.279 Goal=   None    Shift=    0.000
 RMSDP=2.68D-09 MaxDP=2.27D-07 DE= 1.82D-12 OVMax= 1.29D-07

 SCF Done:  E(RM062X) =  -379.817110359     A.U. after   15 cycles
            NFock= 15  Conv=0.27D-08     -V/T= 2.0049
 KE= 3.779646494088D+02 PE=-1.685637437099D+03 EE= 5.264032049430D+02
 Leave Link  502 at Sat Dec 17 23:26:26 2022, MaxMem=  1342177280 cpu:             749.8 elap:              31.4
 (Enter /data0/home/software/g16/l601.exe)
 Copying SCF densities to generalized density rwf, IOpCl= 0 IROHF=0.

 **********************************************************************

            Population analysis using the SCF density.

 **********************************************************************

 Alpha  occ. eigenvalues --  -14.81079 -14.74344 -10.62285 -10.58833 -10.57060
 Alpha  occ. eigenvalues --  -10.55271 -10.54606 -10.54496 -10.54141  -1.12136
 Alpha  occ. eigenvalues --   -0.98225  -0.95074  -0.84508  -0.83317  -0.71909
 Alpha  occ. eigenvalues --   -0.70966  -0.68072  -0.62708  -0.57338  -0.55952
 Alpha  occ. eigenvalues --   -0.51859  -0.51284  -0.50688  -0.48627  -0.43143
 Alpha  occ. eigenvalues --   -0.42217  -0.41442  -0.37341  -0.34529  -0.28712
 Alpha  occ. eigenvalues --   -0.28122
 Alpha virt. eigenvalues --   -0.00180   0.00131   0.01728   0.02795   0.03614
 Alpha virt. eigenvalues --    0.03816   0.04562   0.04914   0.05680   0.06049
 Alpha virt. eigenvalues --    0.06830   0.08152   0.08837   0.09705   0.10092
 Alpha virt. eigenvalues --    0.10822   0.12672   0.12896   0.13619   0.14202
 Alpha virt. eigenvalues --    0.14901   0.16413   0.16473   0.16920   0.17498
 Alpha virt. eigenvalues --    0.17913   0.18357   0.19208   0.19493   0.20359
 Alpha virt. eigenvalues --    0.21047   0.21560   0.22123   0.22957   0.23192
 Alpha virt. eigenvalues --    0.23677   0.24052   0.24992   0.25036   0.25320
 Alpha virt. eigenvalues --    0.25804   0.26122   0.26538   0.26932   0.27486
 Alpha virt. eigenvalues --    0.28251   0.29299   0.29945   0.31594   0.31983
 Alpha virt. eigenvalues --    0.33535   0.33894   0.34896   0.36600   0.37231
 Alpha virt. eigenvalues --    0.39061   0.39633   0.44157   0.45812   0.47213
 Alpha virt. eigenvalues --    0.50333   0.53121   0.54673   0.54814   0.56115
 Alpha virt. eigenvalues --    0.56558   0.57108   0.58194   0.59275   0.59702
 Alpha virt. eigenvalues --    0.60323   0.61612   0.64291   0.65167   0.66502
 Alpha virt. eigenvalues --    0.67064   0.67311   0.68287   0.69323   0.70808
 Alpha virt. eigenvalues --    0.71002   0.71461   0.72235   0.73703   0.74486
 Alpha virt. eigenvalues --    0.75881   0.76924   0.77525   0.78439   0.78994
 Alpha virt. eigenvalues --    0.79419   0.82600   0.83319   0.83588   0.84731
 Alpha virt. eigenvalues --    0.85124   0.85612   0.86214   0.86993   0.87874
 Alpha virt. eigenvalues --    0.88535   0.89718   0.90232   0.92937   0.93387
 Alpha virt. eigenvalues --    0.94833   0.96433   0.97332   0.99964   1.01818
 Alpha virt. eigenvalues --    1.02757   1.05110   1.05844   1.07813   1.10966
 Alpha virt. eigenvalues --    1.13855   1.14930   1.17927   1.18962   1.21493
 Alpha virt. eigenvalues --    1.22588   1.23838   1.27196   1.27462   1.34159
 Alpha virt. eigenvalues --    1.34855   1.35266   1.35887   1.37200   1.37798
 Alpha virt. eigenvalues --    1.41784   1.42551   1.43925   1.46457   1.47637
 Alpha virt. eigenvalues --    1.49164   1.52636   1.55058   1.56989   1.58571
 Alpha virt. eigenvalues --    1.61025   1.62788   1.64338   1.65396   1.69392
 Alpha virt. eigenvalues --    1.69691   1.74709   1.75714   1.77236   1.83488
 Alpha virt. eigenvalues --    1.84524   1.85673   1.86636   1.89458   1.92425
 Alpha virt. eigenvalues --    1.95139   1.96404   1.99347   1.99464   2.05506
 Alpha virt. eigenvalues --    2.09213   2.11047   2.12617   2.20069   2.24479
 Alpha virt. eigenvalues --    2.25324   2.30178   2.32848   2.36702   2.44291
 Alpha virt. eigenvalues --    2.47375   2.49198   2.52673   2.59073   2.59950
 Alpha virt. eigenvalues --    2.62027   2.63144   2.65233   2.66559   2.69299
 Alpha virt. eigenvalues --    2.71327   2.72191   2.78090   2.79169   2.80257
 Alpha virt. eigenvalues --    2.82248   2.82884   2.85642   2.89151   2.89979
 Alpha virt. eigenvalues --    2.91511   2.93319   2.93823   2.96323   2.97065
 Alpha virt. eigenvalues --    3.02043   3.06624   3.09662   3.11693   3.16431
 Alpha virt. eigenvalues --    3.17088   3.20258   3.22878   3.28795   3.29536
 Alpha virt. eigenvalues --    3.30178   3.30649   3.32895   3.35615   3.38056
 Alpha virt. eigenvalues --    3.38295   3.38893   3.41562   3.42937   3.44761
 Alpha virt. eigenvalues --    3.47269   3.48417   3.49756   3.52042   3.53060
 Alpha virt. eigenvalues --    3.55645   3.57913   3.58902   3.60242   3.60781
 Alpha virt. eigenvalues --    3.62894   3.64225   3.64886   3.67863   3.71279
 Alpha virt. eigenvalues --    3.73270   3.75068   3.77542   3.78593   3.83978
 Alpha virt. eigenvalues --    3.87526   3.92122   3.94345   3.95707   3.96070
 Alpha virt. eigenvalues --    3.99626   4.00810   4.01726   4.04230   4.08168
 Alpha virt. eigenvalues --    4.09877   4.25328   4.43939   4.57344   4.59385
 Alpha virt. eigenvalues --    4.65119   4.71368   4.75386   4.91249   4.98866
 Alpha virt. eigenvalues --    5.02577   5.03392   5.05064   5.09732   5.14193
 Alpha virt. eigenvalues --    5.19675   5.23309   5.28122   5.31531   5.41940
 Alpha virt. eigenvalues --    5.45816   5.56106   5.65354   9.98261  10.01047
 Alpha virt. eigenvalues --   10.08173  10.14119  10.30817  13.10876  13.49842
 Alpha virt. eigenvalues --   14.01316  18.07054  23.79188  24.02604  24.07378
 Alpha virt. eigenvalues --   24.12340  24.13458  24.24168  24.27887  35.74474
 Alpha virt. eigenvalues --   35.81647 137.64407
          Condensed to atoms (all electrons):
               1          2          3          4          5          6
     1  C   10.551055  -3.360318  -1.808112  -0.488329   0.132351   0.174279
     2  C   -3.360318  11.361331  -1.480449   0.347878  -0.900437  -1.035167
     3  C   -1.808112  -1.480449   9.914873   0.226505   0.511155  -0.423602
     4  C   -0.488329   0.347878   0.226505   5.089255   0.443151   0.169155
     5  C    0.132351  -0.900437   0.511155   0.443151   5.280798   0.376641
     6  C    0.174279  -1.035167  -0.423602   0.169155   0.376641   7.327957
     7  H    0.022994  -0.010849   0.365609  -0.031716   0.012185  -0.013595
     8  H   -0.007397   0.042354  -0.063972   0.393379  -0.042169   0.021353
     9  H    0.043019  -0.000607   0.011077  -0.033779   0.386598  -0.060992
    10  H   -0.041131  -0.028112  -0.017672   0.018630   0.025694   0.383847
    11  H   -0.115403   0.163736   0.017886  -0.000127  -0.012042  -0.083349
    12  C   -0.437202   0.073608   0.051703   0.001721   0.020881  -0.112907
    13  H   -0.025953   0.042491   0.033423  -0.000848   0.001690  -0.005210
    14  N    0.271848   0.096554  -0.054326   0.014017  -0.014829  -0.236106
    15  N    0.687359   0.283134  -0.909197  -0.017521  -0.009249   0.092258
    16  O    0.016767   0.000583  -0.000786   0.006181   0.018561  -0.016517
    17  H   -0.001271   0.000087  -0.000018  -0.000525  -0.001043   0.003514
    18  H   -0.036141   0.000441   0.008504  -0.008750  -0.039419   0.019246
               7          8          9         10         11         12
     1  C    0.022994  -0.007397   0.043019  -0.041131  -0.115403  -0.437202
     2  C   -0.010849   0.042354  -0.000607  -0.028112   0.163736   0.073608
     3  C    0.365609  -0.063972   0.011077  -0.017672   0.017886   0.051703
     4  C   -0.031716   0.393379  -0.033779   0.018630  -0.000127   0.001721
     5  C    0.012185  -0.042169   0.386598   0.025694  -0.012042   0.020881
     6  C   -0.013595   0.021353  -0.060992   0.383847  -0.083349  -0.112907
     7  H    0.515558  -0.004721  -0.000250   0.000082   0.000016   0.000364
     8  H   -0.004721   0.542996  -0.005020  -0.000295  -0.000001   0.000636
     9  H   -0.000250  -0.005020   0.542951  -0.004800  -0.000010   0.000328
    10  H    0.000082  -0.000295  -0.004800   0.537593   0.001900   0.002612
    11  H    0.000016  -0.000001  -0.000010   0.001900   0.406368  -0.022283
    12  C    0.000364   0.000636   0.000328   0.002612  -0.022283   5.073511
    13  H   -0.000031  -0.000000  -0.000000  -0.000015  -0.001032   0.421049
    14  N   -0.001058   0.000382  -0.000545  -0.002397   0.388342   0.372200
    15  N    0.006051  -0.000384   0.000245   0.000392  -0.009881   0.396805
    16  O    0.000026  -0.000018  -0.000171   0.000122   0.000023   0.003058
    17  H   -0.000001  -0.000003   0.000013   0.000012   0.000007  -0.000387
    18  H   -0.000045  -0.000059   0.000086  -0.000227   0.000026  -0.004562
              13         14         15         16         17         18
     1  C   -0.025953   0.271848   0.687359   0.016767  -0.001271  -0.036141
     2  C    0.042491   0.096554   0.283134   0.000583   0.000087   0.000441
     3  C    0.033423  -0.054326  -0.909197  -0.000786  -0.000018   0.008504
     4  C   -0.000848   0.014017  -0.017521   0.006181  -0.000525  -0.008750
     5  C    0.001690  -0.014829  -0.009249   0.018561  -0.001043  -0.039419
     6  C   -0.005210  -0.236106   0.092258  -0.016517   0.003514   0.019246
     7  H   -0.000031  -0.001058   0.006051   0.000026  -0.000001  -0.000045
     8  H   -0.000000   0.000382  -0.000384  -0.000018  -0.000003  -0.000059
     9  H   -0.000000  -0.000545   0.000245  -0.000171   0.000013   0.000086
    10  H   -0.000015  -0.002397   0.000392   0.000122   0.000012  -0.000227
    11  H   -0.001032   0.388342  -0.009881   0.000023   0.000007   0.000026
    12  C    0.421049   0.372200   0.396805   0.003058  -0.000387  -0.004562
    13  H    0.501771  -0.054121  -0.061543  -0.000014   0.000000   0.000007
    14  N   -0.054121   6.526235   0.005084   0.000545  -0.000322   0.001484
    15  N   -0.061543   0.005084   6.877726   0.000393  -0.000033  -0.001382
    16  O   -0.000014   0.000545   0.000393   0.013133  -0.001436  -0.013826
    17  H    0.000000  -0.000322  -0.000033  -0.001436   0.000494   0.000948
    18  H    0.000007   0.001484  -0.001382  -0.013826   0.000948   0.017870
 Mulliken charges:
               1
     1  C    0.421585
     2  C    0.403743
     3  C   -0.382599
     4  C   -0.128276
     5  C   -0.190518
     6  C   -0.580804
     7  H    0.139384
     8  H    0.122939
     9  H    0.121857
    10  H    0.123766
    11  H    0.265826
    12  C    0.158866
    13  H    0.148337
    14  N   -0.312988
    15  N   -0.340257
    16  O   -0.026625
    17  H   -0.000036
    18  H    0.055799
 Sum of Mulliken charges =  -0.00000
 Mulliken charges with hydrogens summed into heavy atoms:
               1
     1  C    0.421585
     2  C    0.403743
     3  C   -0.243215
     4  C   -0.005337
     5  C   -0.068660
     6  C   -0.457038
    12  C    0.307203
    14  N   -0.047162
    15  N   -0.340257
    16  O    0.029138
         Mulliken charges condensed to fragments:
      1     -0.029138
      2      0.029138
 Electronic spatial extent (au):  <R**2>=          90328.9437
 Charge=             -0.0000 electrons
 Dipole moment (field-independent basis, Debye):
    X=             -1.2046    Y=             -3.0564    Z=             -1.0247  Tot=              3.4413
 Quadrupole moment (field-independent basis, Debye-Ang):
   XX=            -69.3384   YY=           -137.3018   ZZ=            -76.0331
   XY=            -41.2549   XZ=            -16.4512   YZ=            -50.5236
 Traceless Quadrupole moment (field-independent basis, Debye-Ang):
   XX=             24.8860   YY=            -43.0773   ZZ=             18.1913
   XY=            -41.2549   XZ=            -16.4512   YZ=            -50.5236
 Octapole moment (field-independent basis, Debye-Ang**2):
  XXX=          -1162.3543  YYY=          -4285.7345  ZZZ=          -2000.1238  XYY=          -1252.5864
  XXY=          -1282.5919  XXZ=           -724.6664  XZZ=           -559.2824  YZZ=          -1609.8573
  YYZ=          -1753.0874  XYZ=           -510.3441
 Hexadecapole moment (field-independent basis, Debye-Ang**3):
 XXXX=         -14440.8571 YYYY=        -113966.1333 ZZZZ=         -38841.6753 XXXY=         -19950.9275
 XXXZ=         -12093.4250 YYYX=         -33571.2656 YYYZ=         -49904.6490 ZZZX=         -13373.1453
 ZZZY=         -36548.3937 XXYY=         -24919.0849 XXZZ=          -9896.7902 YYZZ=         -36224.2605
 XXYZ=         -13521.4803 YYXZ=         -14578.9449 ZZXY=         -11787.8940
 N-N= 4.014524723874D+02 E-N=-1.685637436771D+03  KE= 3.779646494088D+02
 No NMR shielding tensors so no spin-rotation constants.
 Leave Link  601 at Sat Dec 17 23:26:26 2022, MaxMem=  1342177280 cpu:               2.5 elap:               0.1
 (Enter /data0/home/software/g16/l122.exe)
 CPIOFr:  IOpCl= 0 IRwI=-1 IRwCP=  731 ICalc=  1 LCPTot=      156626 Len1MO=      410928 IndFrg=      978482
 Counterpoise: doing calculation for fragment   2 using the basis set of the full-system, NewBq=T
 Leave Link  122 at Sat Dec 17 23:26:26 2022, MaxMem=  1342177280 cpu:               0.1 elap:               0.0
 (Enter /data0/home/software/g16/l301.exe)
 Basis read from rwf:  (5D, 7F)
 No pseudopotential information found on rwf file.
   318 basis functions,   484 primitive gaussians,   338 cartesian basis functions
     5 alpha electrons        5 beta electrons
       nuclear repulsion energy         9.1315223821 Hartrees.
 IExCor= 4336 DFT=T Ex+Corr=M062X ExCW=0 ScaHFX=  0.540000
 ScaDFX=  1.000000  1.000000  1.000000  1.000000 ScalE2=  1.000000  1.000000
 IRadAn=      5 IRanWt=     -1 IRanGd=            0 ICorTp=0 IEmpDi=131
 NAtoms=   18 NActive=   18 NUniq=   18 SFac= 1.00D+00 NAtFMM=   60 NAOKFM=F Big=F
 Integral buffers will be    131072 words long.
 Raffenetti 2 integral format.
 Two-electron integral symmetry is turned off.
 R6Disp:  Grimme-D3 Dispersion energy=       -0.0000000077 Hartrees.
 Nuclear repulsion after empirical dispersion term =        9.1315223744 Hartrees.
 No density basis found on file   718.
 Leave Link  301 at Sat Dec 17 23:26:26 2022, MaxMem=  1342177280 cpu:               1.3 elap:               0.1
 (Enter /data0/home/software/g16/l302.exe)
 NPDir=0 NMtPBC=     1 NCelOv=     1 NCel=       1 NClECP=     1 NCelD=      1
         NCelK=      1 NCelE2=     1 NClLst=     1 CellRange=     0.0.
 One-electron integrals computed using PRISM.
 NBasis=   318 RedAO= T EigKep=  1.40D-06  NBF=   318
 NBsUse=   318 1.00D-06 EigRej= -1.00D+00 NBFU=   318
 Precomputing XC quadrature grid using
 IXCGrd= 4 IRadAn=           5 IRanWt=          -1 IRanGd=           0 AccXCQ= 0.00D+00.
 Generated NRdTot=       0 NPtTot=           0 NUsed=           0 NTot=          32
 NSgBfM=   338   338   338   338   338 MxSgAt=    18 MxSgA2=    18.
 Leave Link  302 at Sat Dec 17 23:26:26 2022, MaxMem=  1342177280 cpu:               5.0 elap:               0.2
 (Enter /data0/home/software/g16/l303.exe)
 DipDrv:  MaxL=1.
 Leave Link  303 at Sat Dec 17 23:26:26 2022, MaxMem=  1342177280 cpu:               0.7 elap:               0.0
 (Enter /data0/home/software/g16/l401.exe)
 ExpMin= 4.38D-02 ExpMax= 8.59D+03 ExpMxC= 1.30D+03 IAcc=3 IRadAn=         5 AccDes= 0.00D+00
 Harris functional with IExCor= 1009 and IRadAn=       5 diagonalized for initial guess.
 HarFok:  IExCor= 1009 AccDes= 0.00D+00 IRadAn=         5 IDoV= 1 UseB2=F ITyADJ=14
 ICtDFT=  3500011 ScaDFX=  1.000000  1.000000  1.000000  1.000000
 FoFCou: FMM=F IPFlag=           0 FMFlag=      100000 FMFlg1=           0
         NFxFlg=           0 DoJE=T BraDBF=F KetDBF=T FulRan=T
         wScrn=  0.000000 ICntrl=       500 IOpCl=  0 I1Cent=   200000004 NGrid=           0
         NMat0=    1 NMatS0=      1 NMatT0=    0 NMatD0=    1 NMtDS0=    0 NMtDT0=    0
 Symmetry not used in FoFCou.
 Harris En= -76.4175897213210    
 JPrj=0 DoOrth=F DoCkMO=F.
 Leave Link  401 at Sat Dec 17 23:26:27 2022, MaxMem=  1342177280 cpu:              17.8 elap:               0.8
 (Enter /data0/home/software/g16/l502.exe)
 Two-electron integral symmetry not used.
 Closed shell SCF:
 Using DIIS extrapolation, IDIIS=  1040.
 NGot=  1342177280 LenX=  1341938296 LenY=  1341823611
 Requested convergence on RMS density matrix=1.00D-08 within 128 cycles.
 Requested convergence on MAX density matrix=1.00D-06.
 Requested convergence on             energy=1.00D-06.
 No special actions if energy rises.
 Fock matrices will be formed incrementally for  20 cycles.

 Cycle   1  Pass 1  IDiag  1:
 FoFJK:  IHMeth= 1 ICntrl=       0 DoSepK=F KAlg= 0 I1Cent=           0 FoldK=F
 IRaf= 950000000 NMat=       1 IRICut=       1 DoRegI=T DoRafI=F ISym2E= 0 IDoP0=0 IntGTp=1.
 FoFCou: FMM=F IPFlag=           0 FMFlag=      100000 FMFlg1=           0
         NFxFlg=           0 DoJE=F BraDBF=F KetDBF=F FulRan=T
         wScrn=  0.000000 ICntrl=         0 IOpCl=  0 I1Cent=           0 NGrid=           0
         NMat0=    1 NMatS0=      1 NMatT0=    0 NMatD0=    1 NMtDS0=    0 NMtDT0=    0
 Symmetry not used in FoFCou.
 E= -76.3471922896186    
 DIIS: error= 2.76D-02 at cycle   1 NSaved=   1.
 NSaved= 1 IEnMin= 1 EnMin= -76.3471922896186     IErMin= 1 ErrMin= 2.76D-02
 ErrMax= 2.76D-02  0.00D+00 EMaxC= 1.00D-01 BMatC= 1.21D-01 BMatP= 1.21D-01
 IDIUse=3 WtCom= 7.24D-01 WtEn= 2.76D-01
 Coeff-Com:  0.100D+01
 Coeff-En:   0.100D+01
 Coeff:      0.100D+01
 Gap=     0.264 Goal=   None    Shift=    0.000
 GapD=    0.264 DampG=1.000 DampE=0.500 DampFc=0.5000 IDamp=-1.
 Damping current iteration by 5.00D-01
 RMSDP=7.36D-02 MaxDP=9.75D+00              OVMax= 1.72D-01

 Cycle   2  Pass 1  IDiag  1:
 RMSU=  2.44D-02    CP:  3.00D+00
 E= -76.3783804715197     Delta-E=       -0.031188181901 Rises=F Damp=T
 DIIS: error= 6.50D-03 at cycle   2 NSaved=   2.
 NSaved= 2 IEnMin= 2 EnMin= -76.3783804715197     IErMin= 2 ErrMin= 6.50D-03
 ErrMax= 6.50D-03  0.00D+00 EMaxC= 1.00D-01 BMatC= 4.94D-03 BMatP= 1.21D-01
 IDIUse=3 WtCom= 9.35D-01 WtEn= 6.50D-02
 Coeff-Com:  0.848D-01 0.915D+00
 Coeff-En:   0.194D+00 0.806D+00
 Coeff:      0.919D-01 0.908D+00
 Gap=     0.390 Goal=   None    Shift=    0.000
 RMSDP=1.63D-02 MaxDP=2.15D+00 DE=-3.12D-02 OVMax= 1.04D-01

 Cycle   3  Pass 1  IDiag  1:
 RMSU=  5.11D-03    CP:  2.76D+00  4.38D-01
 E= -76.4227508165206     Delta-E=       -0.044370345001 Rises=F Damp=F
 DIIS: error= 9.72D-04 at cycle   3 NSaved=   3.
 NSaved= 3 IEnMin= 3 EnMin= -76.4227508165206     IErMin= 3 ErrMin= 9.72D-04
 ErrMax= 9.72D-04  0.00D+00 EMaxC= 1.00D-01 BMatC= 1.44D-04 BMatP= 4.94D-03
 IDIUse=3 WtCom= 9.90D-01 WtEn= 9.72D-03
 Coeff-Com: -0.271D-01 0.491D-01 0.978D+00
 Coeff-En:   0.000D+00 0.000D+00 0.100D+01
 Coeff:     -0.268D-01 0.486D-01 0.978D+00
 Gap=     0.392 Goal=   None    Shift=    0.000
 RMSDP=4.09D-04 MaxDP=5.61D-02 DE=-4.44D-02 OVMax= 3.85D-03

 Cycle   4  Pass 1  IDiag  1:
 RMSU=  1.59D-04    CP:  2.72D+00  4.30D-01  9.86D-01
 E= -76.4228668525450     Delta-E=       -0.000116036024 Rises=F Damp=F
 DIIS: error= 1.14D-04 at cycle   4 NSaved=   4.
 NSaved= 4 IEnMin= 4 EnMin= -76.4228668525450     IErMin= 4 ErrMin= 1.14D-04
 ErrMax= 1.14D-04  0.00D+00 EMaxC= 1.00D-01 BMatC= 2.65D-06 BMatP= 1.44D-04
 IDIUse=3 WtCom= 9.99D-01 WtEn= 1.14D-03
 Coeff-Com: -0.265D-02-0.165D-03 0.140D+00 0.863D+00
 Coeff-En:   0.000D+00 0.000D+00 0.000D+00 0.100D+01
 Coeff:     -0.265D-02-0.165D-03 0.140D+00 0.863D+00
 Gap=     0.393 Goal=   None    Shift=    0.000
 RMSDP=2.21D-04 MaxDP=3.04D-02 DE=-1.16D-04 OVMax= 5.18D-04

 Cycle   5  Pass 1  IDiag  1:
 RMSU=  2.16D-05    CP:  2.71D+00  4.25D-01  9.76D-01  1.20D+00
 E= -76.4228685661270     Delta-E=       -0.000001713582 Rises=F Damp=F
 DIIS: error= 2.55D-05 at cycle   5 NSaved=   5.
 NSaved= 5 IEnMin= 5 EnMin= -76.4228685661270     IErMin= 5 ErrMin= 2.55D-05
 ErrMax= 2.55D-05  0.00D+00 EMaxC= 1.00D-01 BMatC= 7.49D-08 BMatP= 2.65D-06
 IDIUse=1 WtCom= 1.00D+00 WtEn= 0.00D+00
 Coeff-Com:  0.142D-02-0.222D-02-0.361D-01-0.411D-01 0.108D+01
 Coeff:      0.142D-02-0.222D-02-0.361D-01-0.411D-01 0.108D+01
 Gap=     0.393 Goal=   None    Shift=    0.000
 RMSDP=1.61D-04 MaxDP=2.15D-02 DE=-1.71D-06 OVMax= 2.05D-04

 Cycle   6  Pass 1  IDiag  1:
 RMSU=  7.35D-06    CP:  2.69D+00  4.22D-01  9.68D-01  1.26D+00  1.28D+00
 E= -76.4228686964491     Delta-E=       -0.000000130322 Rises=F Damp=F
 DIIS: error= 3.81D-06 at cycle   6 NSaved=   6.
 NSaved= 6 IEnMin= 6 EnMin= -76.4228686964491     IErMin= 6 ErrMin= 3.81D-06
 ErrMax= 3.81D-06  0.00D+00 EMaxC= 1.00D-01 BMatC= 1.74D-09 BMatP= 7.49D-08
 IDIUse=1 WtCom= 1.00D+00 WtEn= 0.00D+00
 Coeff-Com: -0.271D-03 0.383D-03 0.364D-02-0.861D-02-0.154D+00 0.116D+01
 Coeff:     -0.271D-03 0.383D-03 0.364D-02-0.861D-02-0.154D+00 0.116D+01
 Gap=     0.393 Goal=   None    Shift=    0.000
 RMSDP=1.59D-05 MaxDP=2.14D-03 DE=-1.30D-07 OVMax= 3.94D-05

 Cycle   7  Pass 1  IDiag  1:
 RMSU=  6.75D-07    CP:  2.69D+00  4.21D-01  9.68D-01  1.27D+00  1.33D+00
                    CP:  1.13D+00
 E= -76.4228686999513     Delta-E=       -0.000000003502 Rises=F Damp=F
 DIIS: error= 4.45D-07 at cycle   7 NSaved=   7.
 NSaved= 7 IEnMin= 7 EnMin= -76.4228686999513     IErMin= 7 ErrMin= 4.45D-07
 ErrMax= 4.45D-07  0.00D+00 EMaxC= 1.00D-01 BMatC= 1.99D-11 BMatP= 1.74D-09
 IDIUse=1 WtCom= 1.00D+00 WtEn= 0.00D+00
 Coeff-Com:  0.323D-04-0.272D-04-0.370D-03 0.221D-02 0.470D-02-0.156D+00
 Coeff-Com:  0.115D+01
 Coeff:      0.323D-04-0.272D-04-0.370D-03 0.221D-02 0.470D-02-0.156D+00
 Coeff:      0.115D+01
 Gap=     0.393 Goal=   None    Shift=    0.000
 RMSDP=2.35D-06 MaxDP=3.05D-04 DE=-3.50D-09 OVMax= 5.16D-06

 Cycle   8  Pass 1  IDiag  1:
 RMSU=  1.14D-07    CP:  2.69D+00  4.21D-01  9.68D-01  1.27D+00  1.33D+00
                    CP:  1.15D+00  1.15D+00
 E= -76.4228687000001     Delta-E=       -0.000000000049 Rises=F Damp=F
 DIIS: error= 6.47D-08 at cycle   8 NSaved=   8.
 NSaved= 8 IEnMin= 8 EnMin= -76.4228687000001     IErMin= 8 ErrMin= 6.47D-08
 ErrMax= 6.47D-08  0.00D+00 EMaxC= 1.00D-01 BMatC= 5.53D-13 BMatP= 1.99D-11
 IDIUse=1 WtCom= 1.00D+00 WtEn= 0.00D+00
 Coeff-Com:  0.529D-05-0.856D-05-0.378D-04 0.262D-03 0.265D-02-0.219D-01
 Coeff-Com:  0.551D-02 0.101D+01
[...]
    14  N   -0.001011   0.000433  -0.000481  -0.003688   0.380241   0.377341
    15  N    0.005947  -0.000369   0.000292   0.000359  -0.010711   0.397751
              13         14         15
     1  C   -0.028185   0.277188   0.662472
     2  C    0.041779   0.061256   0.288563
     3  C    0.032343  -0.062666  -0.931171
     4  C   -0.000839   0.011025  -0.015878
     5  C    0.001688  -0.007445  -0.016034
     6  C   -0.004814  -0.213671   0.110850
     7  H   -0.000031  -0.001011   0.005947
     8  H   -0.000000   0.000433  -0.000369
     9  H   -0.000001  -0.000481   0.000292
    10  H   -0.000014  -0.003688   0.000359
    11  H   -0.001225   0.380241  -0.010711
    12  C    0.422562   0.377341   0.397751
    13  H    0.501061  -0.052506  -0.060621
    14  N   -0.052506   6.536189   0.010074
    15  N   -0.060621   0.010074   6.899966
 Mulliken charges:
               1
     1  C    0.419983
     2  C    0.447569
     3  C   -0.397242
     4  C   -0.145007
     5  C   -0.191187
     6  C   -0.569549
     7  H    0.138999
     8  H    0.123994
     9  H    0.123965
    10  H    0.123743
    11  H    0.266509
    12  C    0.163188
    13  H    0.148803
    14  N   -0.312278
    15  N   -0.341489
    16  O    0.000000
    17  H    0.000000
    18  H    0.000000
 Sum of Mulliken charges =  -0.00000
 Mulliken charges with hydrogens summed into heavy atoms:
               1
     1  C    0.419983
     2  C    0.447569
     3  C   -0.258243
     4  C   -0.021013
     5  C   -0.067222
     6  C   -0.445806
    12  C    0.311991
    14  N   -0.045770
    15  N   -0.341489
    16  O    0.000000
         Mulliken charges condensed to fragments:
      1     -0.000000
      2      0.000000
 Electronic spatial extent (au):  <R**2>=          90329.1011
 Charge=             -0.0000 electrons
 Dipole moment (field-independent basis, Debye):
    X=             -1.2221    Y=             -3.0545    Z=             -1.0312  Tot=              3.4478
 Quadrupole moment (field-independent basis, Debye-Ang):
   XX=            -69.5316   YY=           -137.1853   ZZ=            -76.1682
   XY=            -41.5353   XZ=            -16.6128   YZ=            -50.6190
 Traceless Quadrupole moment (field-independent basis, Debye-Ang):
   XX=             24.7634   YY=            -42.8903   ZZ=             18.1269
   XY=            -41.5353   XZ=            -16.6128   YZ=            -50.6190
 Octapole moment (field-independent basis, Debye-Ang**2):
  XXX=          -1164.0597  YYY=          -4281.4603  ZZZ=          -2002.2774  XYY=          -1256.7739
  XXY=          -1285.7247  XXZ=           -726.3123  XZZ=           -560.8977  YZZ=          -1612.0274
  YYZ=          -1753.9945  XYZ=           -512.9300
 Hexadecapole moment (field-independent basis, Debye-Ang**3):
 XXXX=         -14455.0385 YYYY=        -113839.9388 ZZZZ=         -38872.5750 XXXY=         -19978.6931
 XXXZ=         -12108.0877 YYYX=         -33628.2227 YYYZ=         -49900.3595 ZZZX=         -13390.7422
 ZZZY=         -36583.8508 XXYY=         -24968.3209 XXZZ=          -9911.7896 YYZZ=         -36254.8961
 XXYZ=         -13548.0344 YYXZ=         -14617.8165 ZZXY=         -11813.8342
 N-N= 4.014524723874D+02 E-N=-1.685638775754D+03  KE= 3.779662989692D+02
 No NMR shielding tensors so no spin-rotation constants.
 Leave Link  601 at Sat Dec 17 23:27:10 2022, MaxMem=  1342177280 cpu:               2.3 elap:               0.1
 (Enter /data0/home/software/g16/l122.exe)
 CPIOFr:  IOpCl= 0 IRwI=-1 IRwCP=  731 ICalc=  3 LCPTot=      156626 Len1MO=      410928 IndFrg=     1800338
 Counterpoise: doing calculation for fragment   2 using the basis set of the fragment.
 Leave Link  122 at Sat Dec 17 23:27:10 2022, MaxMem=  1342177280 cpu:               0.1 elap:               0.0
 (Enter /data0/home/software/g16/l301.exe)
 Basis read from rwf:  (5D, 7F)
 No pseudopotential information found on rwf file.
    39 basis functions,    58 primitive gaussians,    41 cartesian basis functions
     5 alpha electrons        5 beta electrons
       nuclear repulsion energy         9.1315223821 Hartrees.
 IExCor= 4336 DFT=T Ex+Corr=M062X ExCW=0 ScaHFX=  0.540000
 ScaDFX=  1.000000  1.000000  1.000000  1.000000 ScalE2=  1.000000  1.000000
 IRadAn=      5 IRanWt=     -1 IRanGd=            0 ICorTp=0 IEmpDi=131
 NAtoms=   18 NActive=    3 NUniq=    3 SFac= 1.00D+00 NAtFMM=   60 NAOKFM=F Big=F
 Integral buffers will be    131072 words long.
 Raffenetti 2 integral format.
 Two-electron integral symmetry is turned off.
 R6Disp:  Grimme-D3 Dispersion energy=       -0.0000000077 Hartrees.
 Nuclear repulsion after empirical dispersion term =        9.1315223744 Hartrees.
 No density basis found on file   718.
 Leave Link  301 at Sat Dec 17 23:27:10 2022, MaxMem=  1342177280 cpu:               1.3 elap:               0.1
 (Enter /data0/home/software/g16/l302.exe)
 NPDir=0 NMtPBC=     1 NCelOv=     1 NCel=       1 NClECP=     1 NCelD=      1
         NCelK=      1 NCelE2=     1 NClLst=     1 CellRange=     0.0.
 One-electron integrals computed using PRISM.
 NBasis=    39 RedAO= T EigKep=  3.03D-03  NBF=    39
 NBsUse=    39 1.00D-06 EigRej= -1.00D+00 NBFU=    39
 Precomputing XC quadrature grid using
 IXCGrd= 4 IRadAn=           5 IRanWt=          -1 IRanGd=           0 AccXCQ= 0.00D+00.
 Generated NRdTot=       0 NPtTot=           0 NUsed=           0 NTot=          32
 NSgBfM=    41    41    41    41    41 MxSgAt=     3 MxSgA2=     3.
 Leave Link  302 at Sat Dec 17 23:27:10 2022, MaxMem=  1342177280 cpu:               2.2 elap:               0.1
 (Enter /data0/home/software/g16/l303.exe)
 DipDrv:  MaxL=1.
 Leave Link  303 at Sat Dec 17 23:27:10 2022, MaxMem=  1342177280 cpu:               0.4 elap:               0.0
 (Enter /data0/home/software/g16/l401.exe)
 ExpMin= 8.45D-02 ExpMax= 8.59D+03 ExpMxC= 1.30D+03 IAcc=3 IRadAn=         5 AccDes= 0.00D+00
 Harris functional with IExCor= 1009 and IRadAn=       5 diagonalized for initial guess.
 HarFok:  IExCor= 1009 AccDes= 0.00D+00 IRadAn=         5 IDoV= 1 UseB2=F ITyADJ=14
 ICtDFT=  3500011 ScaDFX=  1.000000  1.000000  1.000000  1.000000
 FoFCou: FMM=F IPFlag=           0 FMFlag=      100000 FMFlg1=           0
         NFxFlg=           0 DoJE=T BraDBF=F KetDBF=T FulRan=T
         wScrn=  0.000000 ICntrl=       500 IOpCl=  0 I1Cent=   200000004 NGrid=           0
         NMat0=    1 NMatS0=      1 NMatT0=    0 NMatD0=    1 NMtDS0=    0 NMtDT0=    0
 Symmetry not used in FoFCou.
 Harris En= -76.4170046059082    
 JPrj=0 DoOrth=F DoCkMO=F.
 Leave Link  401 at Sat Dec 17 23:27:11 2022, MaxMem=  1342177280 cpu:               2.8 elap:               0.1
 (Enter /data0/home/software/g16/l502.exe)
 Keep R1 ints in memory in canonical form, NReq=21038691.
 FoFCou: FMM=F IPFlag=           0 FMFlag=           0 FMFlg1=           0
         NFxFlg=           0 DoJE=F BraDBF=F KetDBF=F FulRan=T
         wScrn=  0.000000 ICntrl=       600 IOpCl=  0 I1Cent=           0 NGrid=           0
         NMat0=    1 NMatS0=    780 NMatT0=    0 NMatD0=    1 NMtDS0=    0 NMtDT0=    0
 Symmetry not used in FoFCou.
 Two-electron integral symmetry not used.
 Closed shell SCF:
 Using DIIS extrapolation, IDIIS=  1040.
 NGot=  1342177280 LenX=  1341867445 LenY=  1341865323
 Requested convergence on RMS density matrix=1.00D-08 within 128 cycles.
 Requested convergence on MAX density matrix=1.00D-06.
 Requested convergence on             energy=1.00D-06.
 No special actions if energy rises.
 Integral accuracy reduced to 1.0D-05 until final iterations.

 Cycle   1  Pass 0  IDiag  1:
 E= -76.3462026205988    
 DIIS: error= 7.06D-02 at cycle   1 NSaved=   1.
 NSaved= 1 IEnMin= 1 EnMin= -76.3462026205988     IErMin= 1 ErrMin= 7.06D-02
 ErrMax= 7.06D-02  0.00D+00 EMaxC= 1.00D-01 BMatC= 1.21D-01 BMatP= 1.21D-01
 IDIUse=3 WtCom= 2.94D-01 WtEn= 7.06D-01
 Coeff-Com:  0.100D+01
 Coeff-En:   0.100D+01
 Coeff:      0.100D+01
 Gap=     0.326 Goal=   None    Shift=    0.000
 GapD=    0.326 DampG=1.000 DampE=0.500 DampFc=0.5000 IDamp=-1.
 Damping current iteration by 5.00D-01
 RMSDP=7.88D-03 MaxDP=1.01D-01              OVMax= 1.69D-01

 Cycle   2  Pass 0  IDiag  1:
 E= -76.3778962397156     Delta-E=       -0.031693619117 Rises=F Damp=T
 DIIS: error= 1.16D-02 at cycle   2 NSaved=   2.
 NSaved= 2 IEnMin= 2 EnMin= -76.3778962397156     IErMin= 2 ErrMin= 1.16D-02
 ErrMax= 1.16D-02  0.00D+00 EMaxC= 1.00D-01 BMatC= 4.79D-03 BMatP= 1.21D-01
 IDIUse=3 WtCom= 8.84D-01 WtEn= 1.16D-01
 Coeff-Com:  0.806D-01 0.919D+00
 Coeff-En:   0.185D+00 0.815D+00
 Coeff:      0.927D-01 0.907D+00
 Gap=     0.458 Goal=   None    Shift=    0.000
 RMSDP=9.32D-04 MaxDP=1.38D-02 DE=-3.17D-02 OVMax= 1.01D-01

 Cycle   3  Pass 0  IDiag  1:
 E= -76.4219236661375     Delta-E=       -0.044027426422 Rises=F Damp=F
 DIIS: error= 2.17D-03 at cycle   3 NSaved=   3.
 NSaved= 3 IEnMin= 3 EnMin= -76.4219236661375     IErMin= 3 ErrMin= 2.17D-03
 ErrMax= 2.17D-03  0.00D+00 EMaxC= 1.00D-01 BMatC= 9.02D-05 BMatP= 4.79D-03
 IDIUse=3 WtCom= 9.78D-01 WtEn= 2.17D-02
 Coeff-Com: -0.199D-01 0.393D-01 0.981D+00
 Coeff-En:   0.000D+00 0.000D+00 0.100D+01
 Coeff:     -0.195D-01 0.384D-01 0.981D+00
 Gap=     0.463 Goal=   None    Shift=    0.000
 RMSDP=1.14D-04 MaxDP=1.01D-03 DE=-4.40D-02 OVMax= 3.28D-03

 Cycle   4  Pass 0  IDiag  1:
 E= -76.4220004307705     Delta-E=       -0.000076764633 Rises=F Damp=F
 DIIS: error= 4.08D-04 at cycle   4 NSaved=   4.
 NSaved= 4 IEnMin= 4 EnMin= -76.4220004307705     IErMin= 4 ErrMin= 4.08D-04
 ErrMax= 4.08D-04  0.00D+00 EMaxC= 1.00D-01 BMatC= 3.24D-06 BMatP= 9.02D-05
 IDIUse=3 WtCom= 9.96D-01 WtEn= 4.08D-03
 Coeff-Com: -0.187D-02-0.219D-02 0.162D+00 0.842D+00
 Coeff-En:   0.000D+00 0.000D+00 0.000D+00 0.100D+01
 Coeff:     -0.186D-02-0.218D-02 0.162D+00 0.842D+00
 Gap=     0.463 Goal=   None    Shift=    0.000
 RMSDP=2.19D-05 MaxDP=3.51D-04 DE=-7.68D-05 OVMax= 5.27D-04

 Cycle   5  Pass 0  IDiag  1:
 E= -76.4220024242290     Delta-E=       -0.000001993459 Rises=F Damp=F
 DIIS: error= 8.77D-05 at cycle   5 NSaved=   5.
 NSaved= 5 IEnMin= 5 EnMin= -76.4220024242290     IErMin= 5 ErrMin= 8.77D-05
 ErrMax= 8.77D-05  0.00D+00 EMaxC= 1.00D-01 BMatC= 8.09D-08 BMatP= 3.24D-06
 IDIUse=1 WtCom= 1.00D+00 WtEn= 0.00D+00
 Coeff-Com:  0.116D-02-0.176D-02-0.361D-01-0.652D-01 0.110D+01
 Coeff:      0.116D-02-0.176D-02-0.361D-01-0.652D-01 0.110D+01
 Gap=     0.463 Goal=   None    Shift=    0.000
 RMSDP=8.86D-06 MaxDP=1.02D-04 DE=-1.99D-06 OVMax= 1.98D-04

 Initial convergence to 1.0D-05 achieved.  Increase integral accuracy.
 Cycle   6  Pass 1  IDiag  1:
 E= -76.4220178566238     Delta-E=       -0.000015432395 Rises=F Damp=F
 DIIS: error= 1.44D-05 at cycle   1 NSaved=   1.
 NSaved= 1 IEnMin= 1 EnMin= -76.4220178566238     IErMin= 1 ErrMin= 1.44D-05
 ErrMax= 1.44D-05  0.00D+00 EMaxC= 1.00D-01 BMatC= 1.82D-08 BMatP= 1.82D-08
 IDIUse=1 WtCom= 1.00D+00 WtEn= 0.00D+00
 Coeff-Com:  0.100D+01
 Coeff:      0.100D+01
 Gap=     0.463 Goal=   None    Shift=    0.000
 RMSDP=8.86D-06 MaxDP=1.02D-04 DE=-1.54D-05 OVMax= 3.16D-05

 Cycle   7  Pass 1  IDiag  1:
 E= -76.4220178697850     Delta-E=       -0.000000013161 Rises=F Damp=F
 DIIS: error= 2.05D-06 at cycle   2 NSaved=   2.
 NSaved= 2 IEnMin= 2 EnMin= -76.4220178697850     IErMin= 2 ErrMin= 2.05D-06
 ErrMax= 2.05D-06  0.00D+00 EMaxC= 1.00D-01 BMatC= 1.69D-10 BMatP= 1.82D-08
 IDIUse=1 WtCom= 1.00D+00 WtEn= 0.00D+00
 Coeff-Com: -0.737D-01 0.107D+01
 Coeff:     -0.737D-01 0.107D+01
 Gap=     0.463 Goal=   None    Shift=    0.000
 RMSDP=5.32D-07 MaxDP=3.63D-06 DE=-1.32D-08 OVMax= 6.75D-06

 Cycle   8  Pass 1  IDiag  1:
 E= -76.4220178700048     Delta-E=       -0.000000000220 Rises=F Damp=F
 DIIS: error= 4.09D-07 at cycle   3 NSaved=   3.
 NSaved= 3 IEnMin= 3 EnMin= -76.4220178700048     IErMin= 3 ErrMin= 4.09D-07
 ErrMax= 4.09D-07  0.00D+00 EMaxC= 1.00D-01 BMatC= 5.18D-12 BMatP= 1.69D-10
 IDIUse=1 WtCom= 1.00D+00 WtEn= 0.00D+00
 Coeff-Com: -0.530D-02 0.223D-01 0.983D+00
 Coeff:     -0.530D-02 0.223D-01 0.983D+00
 Gap=     0.463 Goal=   None    Shift=    0.000
 RMSDP=9.68D-08 MaxDP=7.21D-07 DE=-2.20D-10 OVMax= 1.46D-06

 Cycle   9  Pass 1  IDiag  1:
 E= -76.4220178700127     Delta-E=       -0.000000000008 Rises=F Damp=F
 DIIS: error= 1.26D-07 at cycle   4 NSaved=   4.
 NSaved= 4 IEnMin= 4 EnMin= -76.4220178700127     IErMin= 4 ErrMin= 1.26D-07
 ErrMax= 1.26D-07  0.00D+00 EMaxC= 1.00D-01 BMatC= 6.77D-13 BMatP= 5.18D-12
 IDIUse=1 WtCom= 1.00D+00 WtEn= 0.00D+00
 Coeff-Com:  0.547D-03-0.247D-01 0.138D+00 0.886D+00
 Coeff:      0.547D-03-0.247D-01 0.138D+00 0.886D+00
 Gap=     0.463 Goal=   None    Shift=    0.000
 RMSDP=3.87D-08 MaxDP=2.79D-07 DE=-7.87D-12 OVMax= 5.70D-07

 Cycle  10  Pass 1  IDiag  1:
 E= -76.4220178700136     Delta-E=       -0.000000000001 Rises=F Damp=F
 DIIS: error= 1.40D-07 at cycle   5 NSaved=   5.
 NSaved= 5 IEnMin= 5 EnMin= -76.4220178700136     IErMin= 4 ErrMin= 1.26D-07
 ErrMax= 1.40D-07  0.00D+00 EMaxC= 1.00D-01 BMatC= 3.32D-13 BMatP= 6.77D-13
 IDIUse=1 WtCom= 1.00D+00 WtEn= 0.00D+00
 Coeff-Com:  0.134D-02-0.189D-01-0.497D-01 0.409D+00 0.658D+00
 Coeff:      0.134D-02-0.189D-01-0.497D-01 0.409D+00 0.658D+00
 Gap=     0.463 Goal=   None    Shift=    0.000
 RMSDP=1.35D-08 MaxDP=1.27D-07 DE=-9.38D-13 OVMax= 2.71D-07

 Cycle  11  Pass 1  IDiag  1:
 E= -76.4220178700139     Delta-E=       -0.000000000000 Rises=F Damp=F
 DIIS: error= 1.87D-08 at cycle   6 NSaved=   6.
 NSaved= 6 IEnMin= 6 EnMin= -76.4220178700139     IErMin= 6 ErrMin= 1.87D-08
 ErrMax= 1.87D-08  0.00D+00 EMaxC= 1.00D-01 BMatC= 1.69D-14 BMatP= 3.32D-13
 IDIUse=1 WtCom= 1.00D+00 WtEn= 0.00D+00
 Coeff-Com:  0.879D-04 0.803D-03-0.370D-01-0.212D-01 0.177D+00 0.880D+00
 Coeff:      0.879D-04 0.803D-03-0.370D-01-0.212D-01 0.177D+00 0.880D+00
 Gap=     0.463 Goal=   None    Shift=    0.000
 RMSDP=4.83D-09 MaxDP=3.93D-08 DE=-2.84D-13 OVMax= 8.72D-08

 SCF Done:  E(RM062X) =  -76.4220178700     A.U. after   11 cycles
            NFock= 11  Conv=0.48D-08     -V/T= 2.0028
 KE= 7.620568154664D+01 PE=-1.991195233700D+02 EE= 3.736030157904D+01
 Leave Link  502 at Sat Dec 17 23:27:11 2022, MaxMem=  1342177280 cpu:               8.5 elap:               0.4
 (Enter /data0/home/software/g16/l601.exe)
 Copying SCF densities to generalized density rwf, IOpCl= 0 IROHF=0.

 **********************************************************************

            Population analysis using the SCF density.

 **********************************************************************

 Alpha  occ. eigenvalues --  -19.62530  -1.13444  -0.60996  -0.47440  -0.39997
 Alpha virt. eigenvalues --    0.06350   0.13370   0.17379   0.17946   0.18948
 Alpha virt. eigenvalues --    0.23218   0.51639   0.53378   0.97821   1.00132
 Alpha virt. eigenvalues --    1.06052   1.18885   1.19893   1.32618   1.33714
 Alpha virt. eigenvalues --    1.69594   1.74226   1.75969   2.08633   2.08814
 Alpha virt. eigenvalues --    2.35230   2.42843   2.54385   2.89129   3.01349
 Alpha virt. eigenvalues --    5.05714   5.48059   5.94045   6.78210   6.80307
 Alpha virt. eigenvalues --    6.86973   6.91540   7.09368  49.96165
          Condensed to atoms (all electrons):
              16         17         18
    16  O    7.912753   0.322527   0.322170
    17  H    0.322527   0.423667  -0.024758
    18  H    0.322170  -0.024758   0.423702
 Mulliken charges:
               1
     1  C    0.000000
     2  C    0.000000
     3  C    0.000000
     4  C    0.000000
     5  C    0.000000
     6  C    0.000000
     7  H    0.000000
     8  H    0.000000
     9  H    0.000000
    10  H    0.000000
    11  H    0.000000
    12  C    0.000000
    13  H    0.000000
    14  N    0.000000
    15  N    0.000000
    16  O   -0.557450
    17  H    0.278563
    18  H    0.278886
 Sum of Mulliken charges =  -0.00000
 Mulliken charges with hydrogens summed into heavy atoms:
               1
     1  C    0.000000
     2  C    0.000000
     3  C    0.000000
     4  C    0.000000
     5  C    0.000000
     6  C    0.000000
    12  C    0.000000
    14  N    0.000000
    15  N    0.000000
    16  O   -0.000000
         Mulliken charges condensed to fragments:
      1      0.000000
      2     -0.000000
 Electronic spatial extent (au):  <R**2>=          13038.2628
 Charge=              0.0000 electrons
 Dipole moment (field-independent basis, Debye):
    X=             -0.9968    Y=             -1.3191    Z=              1.3030  Tot=              2.1051
 Quadrupole moment (field-independent basis, Debye-Ang):
   XX=            -21.2746   YY=            -48.0231   ZZ=             11.3735
   XY=            -26.5131   XZ=              1.5591   YZ=             12.7763
 Traceless Quadrupole moment (field-independent basis, Debye-Ang):
   XX=             -1.9665   YY=            -28.7151   ZZ=             30.6815
   XY=            -26.5131   XZ=              1.5591   YZ=             12.7763
 Octapole moment (field-independent basis, Debye-Ang**2):
  XXX=           -306.7031  YYY=          -1298.0268  ZZZ=             51.1739  XYY=           -635.9850
  XXY=           -426.0042  XXZ=            -92.1582  XZZ=             20.4525  YZZ=            131.7300
  YYZ=             35.9886  XYZ=            -40.9074
 Hexadecapole moment (field-independent basis, Debye-Ang**3):
 XXXX=          -3711.6861 YYYY=         -30931.9163 ZZZZ=           -131.7573 XXXY=          -5606.4314
 XXXZ=          -1761.7756 YYYX=         -14291.7362 YYYZ=          -2787.9659 ZZZX=           -113.4309
 ZZZY=            498.9857 XXYY=          -8503.0114 XXZZ=           -617.3440 YYZZ=           1035.5708
 XXYZ=          -2016.8892 YYXZ=          -1997.2024 ZZXY=            -90.8006
 N-N= 9.131522374352D+00 E-N=-1.991195227039D+02  KE= 7.620568154664D+01
 No NMR shielding tensors so no spin-rotation constants.
 Leave Link  601 at Sat Dec 17 23:27:11 2022, MaxMem=  1342177280 cpu:               1.7 elap:               0.1
 (Enter /data0/home/software/g16/l122.exe)
 CPIOFr:  IOpCl= 0 IRwI=-1 IRwCP=  731 ICalc=  4 LCPTot=      156626 Len1MO=      410928 IndFrg=     2211266
 Restoring MOs from calculation   1 to rwf.
 CPIOFr:  IOpCl= 0 IRwI=-2 IRwCP=  731 ICalc=  0 LCPTot=      156626 Len1MO=      410928 IndFrg=      567554
 Counterpoise corrected energy =    -456.243811211743
                   BSSE energy =       0.001114822848
              sum of fragments =    -456.238864236559
           complexation energy =      -3.80 kcal/mole (raw)
           complexation energy =      -3.10 kcal/mole (corrected)
 Leave Link  122 at Sat Dec 17 23:27:11 2022, MaxMem=  1342177280 cpu:               0.2 elap:               0.0
 (Enter /data0/home/software/g16/l9999.exe)
 1\1\GINC-LOCALHOST\SP\RM062X\6-311+G(2d,p)\C7H8N2O1\WUHANYU\17-Dec-202
 2\0\\#p M062X/6-311+G(2d,p) nosymm em=GD3 counterpoise=2\\Title Card R
 equired\\0,1\C,0,6.014304,15.453632,10.056102\C,0,6.769488,16.563738,1
 0.567654\C,0,6.452596,17.868695,10.181783\C,0,5.391618,18.038807,9.308
 282\C,0,4.646254,16.944797,8.821396\C,0,4.943093,15.639853,9.180851\H,
 0,7.034465,18.707921,10.55892\H,0,5.11636,19.042345,8.984315\H,0,3.814
 044,17.140429,8.144441\H,0,4.3648,14.801158,8.808218\H,0,6.376698,13.3
 71582,10.364622\C,0,7.663334,14.741858,11.410615\H,0,8.311038,14.05352
 2,11.939598\N,0,6.585271,14.309117,10.623981\N,0,7.77784,16.07467,11.4
 08732\O,0,7.320063,16.316002,6.793492\H,0,7.374105,15.354932,6.810202\
 H,0,6.708641,16.540421,7.505339\\Version=ES64L-G16RevA.03\HF=-76.42201
 79\RMSD=4.828e-09\Dipole=-0.8970572,-1.642738,0.330892\Quadrupole=12.5
 013547,-52.2578968,39.7565421,-50.5001988,-8.551242,-20.0287408\PG=C01
  [X(C7H8N2O1)]\\@


 FLOATING POINT NUMBERS ARE LIKE SANDPILES:
 EVERY TIME THAT YOU MOVE ONE, YOU LOSE A LITTLE SAND 
 AND YOU PICK UP A LITTLE DIRT.
 Job cpu time:       0 days  0 hours 43 minutes 56.5 seconds.
 Elapsed time:       0 days  0 hours  1 minutes 51.0 seconds.
 File lengths (MBytes):  RWF=     81 Int=      0 D2E=      0 Chk=     24 Scr=      1
 Normal termination of Gaussian 16 at Sat Dec 17 23:27:11 2022.
