 Entering Gaussian System, Link 0=g16
 Initial command:
 /data0/hywu0/study/g16/l1.exe "/data0/hywu0/study/g16/scratch/Gau-517399.inp" -scrdir="/data0/hywu0/study/g16/scratch/"
 Default is to use a total of  16 processors:
                               16 via shared-memory
                                1 via Linda
 Entering Link 1 = /data0/hywu0/study/g16/l1.exe PID=    517400.
  
 Copyright (c) 1988,1990,1992,1993,1995,1998,2003,2009,2016,
            Gaussian, Inc.  All Rights Reserved.
  
 This is part of the Gaussian(R) 16 program.  It is based on
 the Gaussian(R) 09 system (copyright 2009, Gaussian, Inc.),
 the Gaussian(R) 03 system (copyright 2003, Gaussian, Inc.),
 the Gaussian(R) 98 system (copyright 1998, Gaussian, Inc.),
 the Gaussian(R) 94 system (copyright 1995, Gaussian, Inc.),
 the Gaussian 92(TM) system (copyright 1992, Gaussian, Inc.),
 the Gaussian 90(TM) system (copyright 1990, Gaussian, Inc.),
 the Gaussian 88(TM) system (copyright 1988, Gaussian, Inc.),
 the Gaussian 86(TM) system (copyright 1986, Carnegie Mellon
 University), and the Gaussian 82(TM) system (copyright 1983,
 Carnegie Mellon University). Gaussian is a federally registered
 trademark of Gaussian, Inc.
  
 This software contains proprietary and confidential information,
 including trade secrets, belonging to Gaussian, Inc.
  
 This software is provided under written license and may be
 used, copied, transmitted, or stored only in accord with that
 written license.
  
 The following legend is applicable only to US Government
 contracts under FAR:
  
                    RESTRICTED RIGHTS LEGEND
  
 Use, reproduction and disclosure by the US Government is
 subject to restrictions as set forth in subparagraphs (a)
 and (c) of the Commercial Computer Software - Restricted
 Rights clause in FAR 52.227-19.
  
 Gaussian, Inc.
 340 Quinnipiac St., Bldg. 40, Wallingford CT 06492
  
  
 ---------------------------------------------------------------
 Warning -- This program may not be used in any manner that
 competes with the business of Gaussian, Inc. or will provide
 assistance to any competitor of Gaussian, Inc.  The licensee
 of this program is prohibited from giving any competitor of
 Gaussian, Inc. access to this program.  By using this program,
 the user acknowledges that Gaussian, Inc. is engaged in the
 business of creating and licensing software in the field of
 computational chemistry and represents and warrants to the
 licensee that it is not a competitor of Gaussian, Inc. and that
 it will not use this program in any manner prohibited above.
 ---------------------------------------------------------------
  

 Cite this work as:
 Gaussian 16, Revision A.03,
 M. J. Frisch, G. W. Trucks, H. B. Schlegel, G. E. Scuseria, 
 M. A. Robb, J. R. Cheeseman, G. Scalmani, V. Barone, 
 G. A. Petersson, H. Nakatsuji, X. Li, M. Caricato, A. V. Marenich, 
 J. Bloino, B. G. Janesko, R. Gomperts, B. Mennucci, H. P. Hratchian, 
 J. V. Ortiz, A. F. Izmaylov, J. L. Sonnenberg, D. Williams-Young, 
 F. Ding, F. Lipparini, F. Egidi, J. Goings, B. Peng, A. Petrone, 
 T. Henderson, D. Ranasinghe, V. G. Zakrzewski, J. Gao, N. Rega, 
 G. Zheng, W. Liang, M. Hada, M. Ehara, K. Toyota, R. Fukuda, 
 J. Hasegawa, M. Ishida, T. Nakajima, Y. Honda, O. Kitao, H. Nakai, 
 T. Vreven, K. Throssell, J. A. Montgomery, Jr., J. E. Peralta, 
 F. Ogliaro, M. J. Bearpark, J. J. Heyd, E. N. Brothers, K. N. Kudin, 
 V. N. Staroverov, T. A. Keith, R. Kobayashi, J. Normand, 
 K. Raghavachari, A. P. Rendell, J. C. Burant, S. S. Iyengar, 
 J. Tomasi, M. Cossi, J. M. Millam, M. Klene, C. Adamo, R. Cammi, 
 J. W. Ochterski, R. L. Martin, K. Morokuma, O. Farkas, 
 J. B. Foresman, and D. J. Fox, Gaussian, Inc., Wallingford CT, 2016.
 
 ******************************************
 Gaussian 16:  ES64L-G16RevA.03 25-Dec-2016
                16-May-2022 
 ******************************************
 %nproc=16
 Will use up to   16 processors via shared memory.
 %mem=20GB
 ---------------------------------------------------
 #p M062X/6-311+G(2d,p) nosymm em=GD3 counterpoise=6
 ---------------------------------------------------
 1/38=1,62=6,172=1/1;
 2/12=2,15=1,17=6,18=5,40=1/2;
 1/38=1,53=2,62=6,63=1/22;
 3/5=4,6=6,7=112,11=2,25=1,30=1,74=-55,124=31/1,2,3;
 4//1;
 5/5=2,38=5/2;
 6/7=2,8=2,9=2,10=2,28=1/1;
 1/53=2,62=6,63=1/22;
 3/5=7,6=11,7=112,11=2,25=1,30=1,74=-55,82=7,124=31/1,2,3;
 4//1;
 5/5=2,38=5/2;
 6/7=2,8=2,9=2,10=2,28=1/1;
 1/53=2,62=6,63=1/22(-4);
 99/5=1,9=1/99;
 Leave Link    1 at Mon May 16 21:21:31 2022, MaxMem=  2684354560 cpu:               0.7 elap:               0.0
 (Enter /data0/hywu0/study/g16/l101.exe)
 -------------------
 Title Card Required
 -------------------
 Symbolic Z-matrix:
 Charge =  0 Multiplicity = 1 in supermolecule
 Charge =  0 Multiplicity = 1 in fragment      1.
 Charge =  0 Multiplicity = 1 in fragment      2.
 Charge =  0 Multiplicity = 1 in fragment      3.
 Charge =  0 Multiplicity = 1 in fragment      4.
 Charge =  0 Multiplicity = 1 in fragment      5.
 Charge =  0 Multiplicity = 1 in fragment      6.
 C                     8.17535   10.46677   11.16925    
 C                     9.07256   10.40825   12.23516    
 C                     9.83792   9.26603   12.443     
 C                     9.7077    8.18938   11.55271    
 C                     8.82069   8.29422   10.48062    
 H                     10.54226   9.21239   13.28081    
 H                     7.55567   11.36547   10.9911    
 H                     9.18484   11.28729   12.87931    
 H                     8.75034   7.49968   9.72822    
 C                     10.52816   6.96032   11.69328    
 H                     9.92286   6.05006   11.77148    
 H                     11.201    6.83992   10.81828    
 H                     11.19783   6.9942    12.56729    
 N                     8.04692   9.40856   10.31922    
 C                     7.07876   9.49502   9.19841    
 H                     6.21539   8.83478   9.44372    
 H                     6.67378   10.54332   9.1461     
 C                     7.65419   9.11391   7.82002    
 H                     8.24635   8.17473   7.88233    
 H                     6.79724   8.86726   7.15453    
 C                     8.48382   10.21385   7.16529    
 H                     7.88295   11.13382   7.02434    
 H                     8.79617   9.90999   6.14922    
 S                     9.94044   10.61047   8.14798    
 O                     10.93148   11.29547   7.32109    
 O                     10.3601   9.30226   8.72161    
 O                     9.36153   11.50691   9.21148    
 P                     13.06715   9.93405   11.01217    
 O                     11.95602   10.56747   11.7358    
 O                     14.06462   10.85555   10.20384    
 H                     13.53585   11.62322   9.70219    
 O                     14.05078   9.21134   12.04363    
 H                     14.84823   8.84377   11.50298    
 O                     12.69943   8.73947   10.04213    
 H                     11.80387   8.96269   9.51951    
 O                     12.71764   12.87933   8.87883    
 H                     12.04526   13.16591   9.51047    
 H                     12.20993   12.42041   8.17835    
 O                     6.99193   12.9123   9.4976     
 H                     7.19314   13.3285   10.34345    
 H                     7.85363   12.54191   9.23185    
 O                     10.58533   13.09787   10.95596    
 H                     11.09303   12.41998   11.42137    
 H                     10.12284   12.56715   10.25021    
 O                     8.15789   13.52612   12.07272    
 H                     8.13765   14.4187   12.40107    
 H                     9.06952   13.40995   11.71003    
 
 ITRead=  0  0  0  0  0  0  0  0  0  0  0  0  0  0  0  0  0  0  0  0
 ITRead=  0  0  0  0  0  0  0  0  0  0  0  0  0  0  0  0  0  0  0  0
 ITRead=  0  0  0  0  0  0  0
 MicOpt= -1 -1 -1 -1 -1 -1 -1 -1 -1 -1 -1 -1 -1 -1 -1 -1 -1 -1 -1 -1
 MicOpt= -1 -1 -1 -1 -1 -1 -1 -1 -1 -1 -1 -1 -1 -1 -1 -1 -1 -1 -1 -1
 MicOpt= -1 -1 -1 -1 -1 -1 -1
 NAtoms=     47 NQM=       47 NQMF=       0 NMMI=      0 NMMIF=      0
                NMic=       0 NMicF=      0.
                    Isotopes and Nuclear Properties:
 (Nuclear quadrupole moments (NQMom) in fm**2, nuclear magnetic moments (NMagM)
  in nuclear magnetons)

  Atom         1           2           3           4           5           6           7           8           9          10
 IAtWgt=          12          12          12          12          12           1           1           1           1          12
 AtmWgt=  12.0000000  12.0000000  12.0000000  12.0000000  12.0000000   1.0078250   1.0078250   1.0078250   1.0078250  12.0000000
 NucSpn=           0           0           0           0           0           1           1           1           1           0
 AtZEff=  -0.0000000  -0.0000000  -0.0000000  -0.0000000  -0.0000000  -0.0000000  -0.0000000  -0.0000000  -0.0000000  -0.0000000
 NQMom=    0.0000000   0.0000000   0.0000000   0.0000000   0.0000000   0.0000000   0.0000000   0.0000000   0.0000000   0.0000000
 NMagM=    0.0000000   0.0000000   0.0000000   0.0000000   0.0000000   2.7928460   2.7928460   2.7928460   2.7928460   0.0000000
 AtZNuc=   6.0000000   6.0000000   6.0000000   6.0000000   6.0000000   1.0000000   1.0000000   1.0000000   1.0000000   6.0000000

  Atom        11          12          13          14          15          16          17          18          19          20
 IAtWgt=           1           1           1          14          12           1           1          12           1           1
 AtmWgt=   1.0078250   1.0078250   1.0078250  14.0030740  12.0000000   1.0078250   1.0078250  12.0000000   1.0078250   1.0078250
 NucSpn=           1           1           1           2           0           1           1           0           1           1
 AtZEff=  -0.0000000  -0.0000000  -0.0000000  -0.0000000  -0.0000000  -0.0000000  -0.0000000  -0.0000000  -0.0000000  -0.0000000
 NQMom=    0.0000000   0.0000000   0.0000000   2.0440000   0.0000000   0.0000000   0.0000000   0.0000000   0.0000000   0.0000000
 NMagM=    2.7928460   2.7928460   2.7928460   0.4037610   0.0000000   2.7928460   2.7928460   0.0000000   2.7928460   2.7928460
 AtZNuc=   1.0000000   1.0000000   1.0000000   7.0000000   6.0000000   1.0000000   1.0000000   6.0000000   1.0000000   1.0000000

  Atom        21          22          23          24          25          26          27          28          29          30
 IAtWgt=          12           1           1          32          16          16          16          31          16          16
 AtmWgt=  12.0000000   1.0078250   1.0078250  31.9720718  15.9949146  15.9949146  15.9949146  30.9737634  15.9949146  15.9949146
 NucSpn=           0           1           1           0           0           0           0           1           0           0
 AtZEff=  -0.0000000  -0.0000000  -0.0000000  -0.0000000  -0.0000000  -0.0000000  -0.0000000  -0.0000000  -0.0000000  -0.0000000
 NQMom=    0.0000000   0.0000000   0.0000000   0.0000000   0.0000000   0.0000000   0.0000000   0.0000000   0.0000000   0.0000000
 NMagM=    0.0000000   2.7928460   2.7928460   0.0000000   0.0000000   0.0000000   0.0000000   1.1316000   0.0000000   0.0000000
 AtZNuc=   6.0000000   1.0000000   1.0000000  16.0000000   8.0000000   8.0000000   8.0000000  15.0000000   8.0000000   8.0000000

  Atom        31          32          33          34          35          36          37          38          39          40
 IAtWgt=           1          16           1          16           1          16           1           1          16           1
 AtmWgt=   1.0078250  15.9949146   1.0078250  15.9949146   1.0078250  15.9949146   1.0078250   1.0078250  15.9949146   1.0078250
 NucSpn=           1           0           1           0           1           0           1           1           0           1
 AtZEff=  -0.0000000  -0.0000000  -0.0000000  -0.0000000  -0.0000000  -0.0000000  -0.0000000  -0.0000000  -0.0000000  -0.0000000
 NQMom=    0.0000000   0.0000000   0.0000000   0.0000000   0.0000000   0.0000000   0.0000000   0.0000000   0.0000000   0.0000000
 NMagM=    2.7928460   0.0000000   2.7928460   0.0000000   2.7928460   0.0000000   2.7928460   2.7928460   0.0000000   2.7928460
 AtZNuc=   1.0000000   8.0000000   1.0000000   8.0000000   1.0000000   8.0000000   1.0000000   1.0000000   8.0000000   1.0000000

  Atom        41          42          43          44          45          46          47
 IAtWgt=           1          16           1           1          16           1           1
 AtmWgt=   1.0078250  15.9949146   1.0078250   1.0078250  15.9949146   1.0078250   1.0078250
 NucSpn=           1           0           1           1           0           1           1
 AtZEff=  -0.0000000  -0.0000000  -0.0000000  -0.0000000  -0.0000000  -0.0000000  -0.0000000
 NQMom=    0.0000000   0.0000000   0.0000000   0.0000000   0.0000000   0.0000000   0.0000000
 NMagM=    2.7928460   0.0000000   2.7928460   2.7928460   0.0000000   2.7928460   2.7928460
 AtZNuc=   1.0000000   8.0000000   1.0000000   1.0000000   8.0000000   1.0000000   1.0000000
 Leave Link  101 at Mon May 16 21:21:32 2022, MaxMem=  2684354560 cpu:               4.0 elap:               0.3
 (Enter /data0/hywu0/study/g16/l202.exe)
                          Input orientation:                          
 ---------------------------------------------------------------------
 Center     Atomic      Atomic             Coordinates (Angstroms)
 Number     Number       Type             X           Y           Z
 ---------------------------------------------------------------------
      1          6           0        8.175345   10.466769   11.169255
      2          6           0        9.072563   10.408252   12.235161
      3          6           0        9.837915    9.266034   12.443004
      4          6           0        9.707700    8.189379   11.552713
      5          6           0        8.820692    8.294221   10.480620
      6          1           0       10.542256    9.212386   13.280805
      7          1           0        7.555671   11.365472   10.991104
      8          1           0        9.184838   11.287287   12.879314
      9          1           0        8.750344    7.499684    9.728224
     10          6           0       10.528162    6.960324   11.693283
     11          1           0        9.922861    6.050058   11.771480
     12          1           0       11.200996    6.839920   10.818276
     13          1           0       11.197826    6.994199   12.567287
     14          7           0        8.046919    9.408556   10.319220
     15          6           0        7.078757    9.495020    9.198412
     16          1           0        6.215387    8.834780    9.443723
     17          1           0        6.673783   10.543322    9.146104
     18          6           0        7.654190    9.113907    7.820019
     19          1           0        8.246355    8.174729    7.882331
     20          1           0        6.797244    8.867256    7.154531
     21          6           0        8.483817   10.213852    7.165290
     22          1           0        7.882947   11.133817    7.024340
     23          1           0        8.796165    9.909985    6.149224
     24         16           0        9.940442   10.610466    8.147975
     25          8           0       10.931477   11.295469    7.321094
     26          8           0       10.360100    9.302262    8.721606
     27          8           0        9.361534   11.506914    9.211485
     28         15           0       13.067150    9.934052   11.012170
     29          8           0       11.956018   10.567469   11.735798
     30          8           0       14.064622   10.855554   10.203841
     31          1           0       13.535845   11.623217    9.702193
     32          8           0       14.050778    9.211341   12.043625
     33          1           0       14.848232    8.843774   11.502980
     34          8           0       12.699427    8.739469   10.042133
     35          1           0       11.803868    8.962693    9.519510
     36          8           0       12.717640   12.879331    8.878825
     37          1           0       12.045258   13.165905    9.510469
     38          1           0       12.209927   12.420413    8.178345
     39          8           0        6.991930   12.912301    9.497603
     40          1           0        7.193136   13.328503   10.343448
     41          1           0        7.853634   12.541908    9.231850
     42          8           0       10.585334   13.097865   10.955961
     43          1           0       11.093028   12.419983   11.421373
     44          1           0       10.122836   12.567151   10.250209
     45          8           0        8.157890   13.526117   12.072719
     46          1           0        8.137648   14.418704   12.401065
     47          1           0        9.069524   13.409953   11.710028
 ---------------------------------------------------------------------
                    Distance matrix (angstroms):
                    1          2          3          4          5
     1  C    0.000000
     2  C    1.394482   0.000000
     3  C    2.414196   1.390548   0.000000
     4  C    2.771580   2.406768   1.403125   0.000000
     5  C    2.368682   2.758800   2.414563   1.395406   0.000000
     6  H    3.410922   2.164131   1.095849   2.174702   3.412894
     7  H    1.106074   2.182867   3.424075   3.877396   3.360574
     8  H    2.148634   1.095555   2.168488   3.410321   3.852892
     9  H    3.348251   3.853353   3.416553   2.172779   1.096512
    10  C    4.255057   3.781614   2.520877   1.484417   2.483000
    11  H    4.787883   4.464511   3.286436   2.161214   2.813781
    12  H    4.736220   4.389850   3.222384   2.142515   2.809778
    13  H    4.811302   4.035196   2.650668   2.162936   3.419796
    14  N    1.363403   2.392105   2.781805   2.401269   1.366205
    15  C    2.455814   3.745811   4.265298   3.762814   2.473927
    16  H    3.079332   4.293180   4.722751   4.130452   2.855691
    17  H    2.520652   3.913395   4.744760   4.531828   3.383579
    18  C    3.649551   4.814623   5.115055   4.359433   3.018511
    19  H    4.007787   4.961691   4.952146   3.950626   2.663690
    20  H    4.536035   5.776205   6.113317   5.317356   3.935172
    21  C    4.023786   5.107642   5.530480   4.984562   3.845761
    22  H    4.208417   5.393912   6.055777   5.701368   4.570399
    23  H    5.088825   6.112552   6.411831   5.743612   4.623017
    24  S    3.502049   4.183204   4.501698   4.184265   3.472760
    25  O    4.805346   5.328299   5.616800   5.389993   4.842056
    26  O    3.481410   3.902055   3.758030   3.111158   2.545595
    27  O    2.514321   3.230043   3.961212   4.075195   3.496371
    28  P    4.923233   4.204438   3.594648   3.823869   4.583012
    29  O    3.824212   2.930704   2.584615   3.277768   4.071044
    30  O    5.980532   5.408049   5.040385   5.283059   5.842588
    31  H    5.676672   5.273799   5.171368   5.465378   5.824159
    32  O    6.071354   5.123661   4.232105   4.488622   5.535151
    33  H    6.875530   6.028435   5.115196   5.182256   6.138279
    34  O    4.972051   4.555036   3.772228   3.396304   3.928753
    35  H    4.260291   4.113931   3.536072   3.020902   3.204673
    36  O    5.630184   5.536949   5.835418   6.181025   6.226972
    37  H    5.001313   4.885234   5.355476   5.865215   5.922189
    38  H    5.388889   5.509047   5.810668   5.962311   5.814881
    39  O    3.189909   4.253648   5.483638   5.822789   5.063334
    40  H    3.136274   3.954578   5.282674   5.847730   5.292613
    41  H    2.857138   3.880484   4.998023   5.269580   4.531829
    42  O    3.574382   3.340486   4.177662   5.021911   5.139543
    43  H    3.520154   2.965062   3.544916   4.453582   4.803170
    44  H    3.008151   3.115117   3.973274   4.586256   4.472874
    45  O    3.190010   3.253321   4.594334   5.581495   5.508795
    46  H    4.139634   4.121324   5.426110   6.479912   6.454762
    47  H    3.123191   3.047291   4.277820   5.261788   5.267264
                    6          7          8          9         10
     6  H    0.000000
     7  H    4.335689   0.000000
     8  H    2.511771   2.495122   0.000000
     9  H    4.331874   4.238682   4.946119   0.000000
    10  C    2.755396   5.360419   4.683353   2.704256   0.000000
    11  H    3.558375   5.870792   5.403753   2.766063   1.095942
    12  H    3.482324   5.813681   5.300174   2.762100   1.110333
    13  H    2.420585   5.904039   4.751851   3.782322   1.101581
    14  N    3.877651   2.126564   3.373214   2.118461   3.746793
    15  C    5.361123   2.634347   4.604002   2.656364   4.954539
    16  H    5.795479   3.255019   5.160980   2.879137   5.212882
    17  H    5.816548   2.204015   4.560234   3.730241   5.846557
    18  C    6.178253   3.890377   5.715149   2.729197   5.282027
    19  H    5.957467   4.508032   5.961427   2.029042   4.604865
    20  H    7.188565   4.640645   6.658100   3.508383   6.177087
    21  C    6.529903   4.101772   5.856088   3.742509   5.938646
    22  H    7.064501   3.986978   5.999933   4.611972   6.798105
    23  H    7.375292   5.205869   6.880562   4.315193   6.514361
    24  S    5.353761   3.786892   4.838863   3.686527   5.122320
    25  O    6.325258   4.986977   5.826202   4.995958   6.170266
    26  O    4.563722   4.155993   4.754798   2.617992   3.787319
    27  O    4.818540   2.539329   3.678645   4.086375   5.309597
    28  P    3.470244   5.694366   4.515509   5.119519   3.969059
    29  O    2.494398   4.533700   3.083051   4.870113   3.879700
    30  O    4.957295   6.576188   5.581831   6.303144   5.467888
    31  H    5.251680   6.122925   5.397982   6.317058   5.895182
    32  O    3.720261   6.923474   5.355866   6.032035   4.195073
    33  H    4.673111   7.733203   6.319738   6.491577   4.716631
    34  O    3.919953   5.852748   5.185876   4.151007   3.256692
    35  H    3.975091   5.097658   4.852972   3.392339   3.219037
    36  O    6.128312   5.779223   5.569489   6.738065   6.910111
    37  H    5.666106   5.058679   4.802117   6.558196   6.750962
    38  H    6.253612   5.539550   5.703880   6.211635   6.707883
    39  O    6.372347   2.222843   4.345743   5.695755   7.263056
    40  H    6.065236   2.098662   3.816288   6.064530   7.314243
    41  H    5.891387   2.137231   4.080462   5.145338   6.660768
    42  O    4.528101   3.490169   2.989794   6.017820   6.181935
    43  H    3.748268   3.716183   2.655142   5.706511   5.495533
    44  H    4.540360   2.929726   3.070844   5.275929   5.803728
    45  O    5.074736   2.490170   2.591829   6.493501   6.990837
    46  H    5.801882   3.413050   3.336331   7.442601   7.864029
    47  H    4.717610   2.643578   2.426157   6.241851   6.612535
                   11         12         13         14         15
    11  H    0.000000
    12  H    1.779356   0.000000
    13  H    1.774893   1.755805   0.000000
    14  N    4.111901   4.098189   4.561923   0.000000
    15  C    5.155324   5.163949   5.879639   1.483585   0.000000
    16  H    5.188303   5.543028   6.161906   2.109555   1.114227
    17  H    6.135025   6.083338   6.690869   2.132932   1.125023
    18  C    5.490727   5.171112   6.291826   2.546971   1.541537
    19  H    4.738183   4.373945   5.661594   2.738710   2.199664
    20  H    6.246784   6.076689   7.222977   3.445279   2.156568
    21  C    6.373776   5.666638   6.849349   3.284304   2.573810
    22  H    7.248530   6.621250   7.671318   3.722855   2.838832
    23  H    6.912181   6.083466   7.447235   4.266341   3.524093
    24  S    5.824725   4.789209   5.847112   3.121590   3.246056
    25  O    6.952523   5.670524   6.789286   4.568356   4.648590
    26  O    4.479926   3.341595   4.562697   2.813268   3.321402
    27  O    6.053589   5.267469   5.915908   2.712636   3.042854
    28  P    5.054554   3.618533   3.815167   5.095002   6.272425
    29  O    4.953989   3.912356   3.746263   4.316344   5.601442
    30  O    6.534866   4.970231   5.358587   6.190304   7.187785
    31  H    6.956702   5.438482   5.924770   5.950946   6.817404
    32  O    5.206484   3.904661   3.650928   6.249703   7.535568
    33  H    5.668882   4.217414   4.228373   6.926624   8.130184
    34  O    4.234724   2.540862   3.417188   4.708533   5.733642
    35  H    4.134368   2.560549   3.678478   3.866910   4.765832
    36  O    7.925731   6.521976   7.109808   5.994719   6.584277
    37  H    7.762217   6.514693   6.939181   5.546031   6.183762
    38  H    7.663075   6.255324   7.052018   5.566441   5.993944
    39  O    7.800721   7.505613   7.882668   3.750238   3.431452
    40  H    7.903571   7.641342   7.817059   4.011922   4.002472
    41  H    7.271557   6.799577   7.286003   3.322292   3.144055
    42  O    7.125695   6.289664   6.342417   4.523272   5.325932
    43  H    6.485970   5.613598   5.546461   4.422919   5.441630
    44  H    6.695279   5.855451   6.130436   3.780333   4.450919
    45  O    7.687479   7.452473   7.221618   4.476760   5.067140
    46  H    8.580070   8.326301   8.032160   5.426223   5.968325
    47  H    7.409454   6.964462   6.813697   4.357895   5.059453
                   16         17         18         19         20
    16  H    0.000000
    17  H    1.793828   0.000000
    18  C    2.187346   2.182413   0.000000
    19  H    2.645457   3.111324   1.112024   0.000000
    20  H    2.362205   2.605917   1.112685   1.763295   0.000000
    21  C    3.498410   2.703405   1.525395   2.174525   2.158232
    22  H    3.730917   2.512498   2.182996   3.102324   2.516545
    23  H    4.320903   3.726515   2.174719   2.513377   2.468524
    24  S    4.325281   3.416406   2.752125   2.978811   3.728995
    25  O    5.727307   4.693010   3.968469   4.154983   4.797483
    26  O    4.233041   3.912718   2.858371   2.538431   3.916490
    27  O    4.134305   2.856009   3.252335   3.756825   4.215974
    28  P    7.114428   6.687941   6.337397   6.010921   7.438491
    29  O    6.419553   5.882950   5.995990   5.859694   7.105750
    30  O    8.140749   7.472670   7.057590   6.813843   8.128124
    31  H    7.837812   6.968738   6.665814   6.571352   7.713277
    32  O    8.264057   8.036781   7.665812   7.216804   8.754164
    33  H    8.875057   8.675537   8.086496   7.559200   9.150299
    34  O    6.512292   6.353357   5.525614   4.981318   6.571936
    35  H    5.590458   5.381040   4.486754   3.994639   5.537916
    36  O    7.678333   6.485105   6.398282   6.566481   7.356699
    37  H    7.262954   5.988610   6.209492   6.480304   7.181259
    38  H    7.098764   5.925278   5.640578   5.815785   6.555170
    39  O    4.151156   2.415953   4.204839   5.160162   4.678705
    40  H    4.686048   3.075808   4.933871   5.807560   5.498058
    41  H    4.058515   2.322444   3.712713   4.587775   4.351354
    42  O    6.289451   5.010140   5.856420   6.257419   6.833634
    43  H    6.368372   5.313044   5.977081   6.216956   7.020083
    44  H    5.463439   4.148602   4.891312   5.331172   5.859352
    45  O    5.717830   4.434492   6.148721   6.797391   6.909770
    46  H    6.604632   5.268421   7.025709   7.708307   7.755087
    47  H    5.849311   4.531099   5.965849   6.537312   6.822896
                   21         22         23         24         25
    21  C    0.000000
    22  H    1.107812   0.000000
    23  H    1.105571   1.759989   0.000000
    24  S    1.801313   2.402028   2.407291   0.000000
    25  O    2.680524   3.067202   2.802214   1.461202   0.000000
    26  O    2.602605   3.517327   3.071216   1.488813   2.502155
    27  O    2.574745   2.666275   3.499610   1.506588   2.466376
    28  P    5.990302   6.649676   6.472259   4.293885   4.476449
    29  O    5.750719   6.253678   6.451881   4.115443   4.590129
    30  O    6.386702   6.956994   6.714958   4.614706   4.280228
    31  H    5.826249   6.274206   6.166305   4.045761   3.543979
    32  O    7.469554   8.181154   7.927359   5.833395   6.031246
    33  H    7.822944   8.591723   8.150278   6.201908   6.232170
    34  O    5.312382   6.167532   5.635628   3.834118   4.130719
    35  H    4.257991   5.129647   4.615460   2.840532   3.322039
    36  O    5.288311   5.464448   5.625451   3.659880   2.850530
    37  H    5.186361   5.256905   5.696981   3.580071   3.087459
    38  H    4.447369   4.659379   4.698229   2.902997   1.906518
    39  O    3.866140   3.173948   4.845700   3.976640   4.782402
    40  H    4.633314   4.038436   5.643357   4.444718   5.219487
    41  H    3.176105   2.618526   4.161486   3.043028   3.831151
    42  O    5.206063   5.159266   6.038909   3.806288   4.071941
    43  H    5.457952   5.593992   6.274649   3.913814   4.254752
    44  H    4.212021   4.180643   5.063464   2.877720   3.294054
    45  O    5.929603   5.593284   6.969333   5.204049   5.936878
    46  H    6.724132   6.305912   7.736130   5.986779   6.585301
    47  H    5.586838   5.342699   6.576248   4.613442   5.215425
                   26         27         28         29         30
    26  O    0.000000
    27  O    2.469333   0.000000
    28  P    3.601939   4.409983   0.000000
    29  O    3.637727   3.739794   1.469513   0.000000
    30  O    4.281731   4.850575   1.580352   2.622231   0.000000
    31  H    4.053855   4.204663   2.188377   2.783165   1.058566
    32  O    4.966405   5.939670   1.598041   2.514331   2.467475
    33  H    5.299961   6.515145   2.145193   3.374942   2.519735
    34  O    2.744627   4.414777   1.582157   2.600527   2.523435
    35  H    1.684169   3.540189   2.183450   2.740509   3.026919
    36  O    4.286973   3.641104   3.653490   3.753274   2.768700
    37  H    4.288333   3.169230   3.707323   3.422269   3.145841
    38  H    3.666041   3.164680   3.866185   4.019122   3.160904
    39  O    4.997912   2.769837   6.933410   5.928737   7.399456
    40  H    5.373141   3.049832   6.817149   5.678644   7.304265
    41  H    4.127714   1.829041   6.095179   5.195933   6.508835
    42  O    4.410179   2.659325   4.021478   2.981581   4.207028
    43  H    4.188808   2.952181   3.200696   2.067710   3.572141
    44  H    3.612814   1.668122   4.022783   3.092937   4.297603
    45  O    5.824143   3.703053   6.174830   4.826271   6.746413
    46  H    6.682491   4.488857   6.807431   5.463931   7.256228
    47  H    5.241124   3.154290   5.343211   4.051201   5.809007
                   31         32         33         34         35
    31  H    0.000000
    32  O    3.400677   0.000000
    33  H    3.562372   1.031182   0.000000
    34  O    3.021780   2.460647   2.600445   0.000000
    35  H    3.179859   3.388449   3.635443   1.060655   0.000000
    36  O    1.710326   5.024676   5.264155   4.300241   4.072531
    37  H    2.153716   5.106620   5.523367   4.505989   4.210148
    38  H    2.171565   5.350445   5.550333   4.154836   3.730876
    39  O    6.672812   8.366999   9.071710   7.091161   6.225322
    40  H    6.599179   8.177339   8.947503   7.174208   6.402970
    41  H    5.775183   7.576500   8.231563   6.212633   5.338340
    42  O    3.528744   5.319529   6.047216   4.929512   4.543992
    43  H    3.091564   4.408046   5.186279   4.246057   4.009393
    44  H    3.583289   5.468686   6.145107   4.618795   4.043749
    45  O    6.177606   7.303716   8.185940   6.903683   6.374706
    46  H    6.651255   7.887300   8.770310   7.656899   7.177227
    47  H    5.212662   6.523229   7.367925   6.145851   5.661548
                   36         37         38         39         40
    36  O    0.000000
    37  H    0.966021   0.000000
    38  H    0.979311   1.535392   0.000000
    39  O    5.759143   5.059704   5.404617   0.000000
    40  H    5.732977   4.925787   5.538997   0.963930   0.000000
    41  H    4.888459   4.246965   4.483517   0.974859   1.513486
    42  O    2.984791   2.055591   3.288373   3.882498   3.454761
    43  H    3.052035   2.261569   3.429970   4.556564   4.146865
    44  H    2.951467   2.145094   2.944504   3.238536   3.028447
    45  O    5.604517   4.669744   5.727804   2.892655   1.990020
    46  H    5.979312   5.019409   6.197418   3.465835   2.512853
    47  H    4.648228   3.708451   4.828468   3.075529   2.322715
                   41         42         43         44         45
    41  H    0.000000
    42  O    3.277778   0.000000
    43  H    3.911847   0.966378   0.000000
    44  H    2.487362   0.996819   1.527925   0.000000
    45  O    3.021883   2.706110   3.203564   2.846431   0.000000
    46  H    3.694178   3.134343   3.699859   3.463438   0.951279
    47  H    2.893658   1.721539   2.271108   1.987675   0.987986
                   46         47
    46  H    0.000000
    47  H    1.537369   0.000000
 Symmetry turned off by external request.
 Stoichiometry    C9H24NO11PS
 Framework group  C1[X(C9H24NO11PS)]
 Deg. of freedom   135
 Full point group                 C1      NOp   1
 Rotational constants (GHZ):           0.2662464           0.1853625           0.1732978
 Leave Link  202 at Mon May 16 21:21:32 2022, MaxMem=  2684354560 cpu:               0.1 elap:               0.0
 (Enter /data0/hywu0/study/g16/l122.exe)
 Counterpoise: doing full-system calculation.
 Leave Link  122 at Mon May 16 21:21:32 2022, MaxMem=  2684354560 cpu:               0.0 elap:               0.0
 (Enter /data0/hywu0/study/g16/l301.exe)
 Standard basis: 6-311+G(2d,p) (5D, 7F)
 Ernie: Thresh=  0.10000D-02 Tol=  0.10000D-05 Strict=F.
   781 basis functions,  1186 primitive gaussians,   827 cartesian basis functions
   102 alpha electrons      102 beta electrons
       nuclear repulsion energy      2941.9768845885 Hartrees.
 IExCor= 4336 DFT=T Ex+Corr=M062X ExCW=0 ScaHFX=  0.540000
 ScaDFX=  1.000000  1.000000  1.000000  1.000000 ScalE2=  1.000000  1.000000
 IRadAn=      5 IRanWt=     -1 IRanGd=            0 ICorTp=0 IEmpDi=131
 NAtoms=   47 NActive=   47 NUniq=   47 SFac= 1.00D+00 NAtFMM=   60 NAOKFM=F Big=F
 Integral buffers will be    131072 words long.
 Raffenetti 2 integral format.
 Two-electron integral symmetry is turned off.
 R6Disp:  Grimme-D3 Dispersion energy=       -0.0048802145 Hartrees.
 Nuclear repulsion after empirical dispersion term =     2941.9720043740 Hartrees.
 Leave Link  301 at Mon May 16 21:21:32 2022, MaxMem=  2684354560 cpu:               0.8 elap:               0.0
 (Enter /data0/hywu0/study/g16/l302.exe)
 NPDir=0 NMtPBC=     1 NCelOv=     1 NCel=       1 NClECP=     1 NCelD=      1
         NCelK=      1 NCelE2=     1 NClLst=     1 CellRange=     0.0.
 One-electron integrals computed using PRISM.
 NBasis=   781 RedAO= T EigKep=  1.08D-06  NBF=   781
 NBsUse=   781 1.00D-06 EigRej= -1.00D+00 NBFU=   781
 Precomputing XC quadrature grid using
 IXCGrd= 4 IRadAn=           5 IRanWt=          -1 IRanGd=           0 AccXCQ= 0.00D+00.
 Generated NRdTot=       0 NPtTot=           0 NUsed=           0 NTot=          32
 NSgBfM=   809   809   809   809   809 MxSgAt=    47 MxSgA2=    47.
 Leave Link  302 at Mon May 16 21:21:33 2022, MaxMem=  2684354560 cpu:              25.3 elap:               1.6
 (Enter /data0/hywu0/study/g16/l303.exe)
 DipDrv:  MaxL=1.
 Leave Link  303 at Mon May 16 21:21:33 2022, MaxMem=  2684354560 cpu:               2.2 elap:               0.1
 (Enter /data0/hywu0/study/g16/l401.exe)
 ExpMin= 3.48D-02 ExpMax= 9.34D+04 ExpMxC= 3.17D+03 IAcc=3 IRadAn=         5 AccDes= 0.00D+00
 Harris functional with IExCor= 1009 and IRadAn=       5 diagonalized for initial guess.
 HarFok:  IExCor= 1009 AccDes= 0.00D+00 IRadAn=         5 IDoV= 1 UseB2=F ITyADJ=14
 ICtDFT=  3500011 ScaDFX=  1.000000  1.000000  1.000000  1.000000
 FoFCou: FMM=F IPFlag=           0 FMFlag=      100000 FMFlg1=           0
         NFxFlg=           0 DoJE=T BraDBF=F KetDBF=T FulRan=T
         wScrn=  0.000000 ICntrl=       500 IOpCl=  0 I1Cent=   200000004 NGrid=           0
         NMat0=    1 NMatS0=      1 NMatT0=    0 NMatD0=    1 NMtDS0=    0 NMtDT0=    0
 Symmetry not used in FoFCou.
 Harris En= -1978.50249216040    
 JPrj=0 DoOrth=F DoCkMO=F.
 Leave Link  401 at Mon May 16 21:21:41 2022, MaxMem=  2684354560 cpu:             128.1 elap:               8.0
 (Enter /data0/hywu0/study/g16/l502.exe)
 Two-electron integral symmetry not used.
 Closed shell SCF:
 Using DIIS extrapolation, IDIIS=  1040.
 NGot=  2684354560 LenX=  2682967706 LenY=  2682282950
 Requested convergence on RMS density matrix=1.00D-08 within 128 cycles.
 Requested convergence on MAX density matrix=1.00D-06.
 Requested convergence on             energy=1.00D-06.
 No special actions if energy rises.
 Fock matrices will be formed incrementally for  20 cycles.

 Cycle   1  Pass 1  IDiag  1:
 FoFJK:  IHMeth= 1 ICntrl=       0 DoSepK=F KAlg= 0 I1Cent=           0 FoldK=F
 IRaf= 820000000 NMat=       1 IRICut=       1 DoRegI=T DoRafI=F ISym2E= 0 IDoP0=0 IntGTp=1.
 FoFCou: FMM=F IPFlag=           0 FMFlag=      100000 FMFlg1=           0
         NFxFlg=           0 DoJE=F BraDBF=F KetDBF=F FulRan=T
         wScrn=  0.000000 ICntrl=         0 IOpCl=  0 I1Cent=           0 NGrid=           0
         NMat0=    1 NMatS0=      1 NMatT0=    0 NMatD0=    1 NMtDS0=    0 NMtDT0=    0
 Symmetry not used in FoFCou.
 E= -1978.27132229999    
 DIIS: error= 2.46D-02 at cycle   1 NSaved=   1.
 NSaved= 1 IEnMin= 1 EnMin= -1978.27132229999     IErMin= 1 ErrMin= 2.46D-02
 ErrMax= 2.46D-02  0.00D+00 EMaxC= 1.00D-01 BMatC= 1.64D+00 BMatP= 1.64D+00
 IDIUse=3 WtCom= 7.54D-01 WtEn= 2.46D-01
 Coeff-Com:  0.100D+01
 Coeff-En:   0.100D+01
 Coeff:      0.100D+01
 Gap=     0.240 Goal=   None    Shift=    0.000
 GapD=    0.240 DampG=1.000 DampE=0.500 DampFc=0.5000 IDamp=-1.
 Damping current iteration by 5.00D-01
 RMSDP=1.52D-02 MaxDP=3.16D+00              OVMax= 2.18D-01

 Cycle   2  Pass 1  IDiag  1:
 RMSU=  6.60D-03    CP:  1.09D+00
 E= -1978.69657799382     Delta-E=       -0.425255693826 Rises=F Damp=T
 DIIS: error= 4.30D-03 at cycle   2 NSaved=   2.
 NSaved= 2 IEnMin= 2 EnMin= -1978.69657799382     IErMin= 2 ErrMin= 4.30D-03
 ErrMax= 4.30D-03  0.00D+00 EMaxC= 1.00D-01 BMatC= 9.53D-02 BMatP= 1.64D+00
 IDIUse=3 WtCom= 9.57D-01 WtEn= 4.30D-02
 Coeff-Com:  0.386D-01 0.961D+00
 Coeff-En:   0.139D+00 0.861D+00
 Coeff:      0.429D-01 0.957D+00
 Gap=     0.344 Goal=   None    Shift=    0.000
 RMSDP=9.06D-03 MaxDP=2.15D+00 DE=-4.25D-01 OVMax= 1.83D-01

 Cycle   3  Pass 1  IDiag  1:
 RMSU=  3.64D-03    CP:  8.93D-01  9.40D-01
 E= -1979.22032080216     Delta-E=       -0.523742808342 Rises=F Damp=F
 DIIS: error= 4.55D-03 at cycle   3 NSaved=   3.
 NSaved= 3 IEnMin= 3 EnMin= -1979.22032080216     IErMin= 2 ErrMin= 4.30D-03
 ErrMax= 4.55D-03  0.00D+00 EMaxC= 1.00D-01 BMatC= 4.11D-02 BMatP= 9.53D-02
 IDIUse=3 WtCom= 9.54D-01 WtEn= 4.55D-02
 Coeff-Com: -0.406D-01 0.367D+00 0.674D+00
 Coeff-En:   0.000D+00 0.000D+00 0.100D+01
 Coeff:     -0.388D-01 0.350D+00 0.689D+00
 Gap=     0.269 Goal=   None    Shift=    0.000
 RMSDP=1.56D-03 MaxDP=3.26D-01 DE=-5.24D-01 OVMax= 5.90D-02

 Cycle   4  Pass 1  IDiag  1:
 RMSU=  1.20D-03    CP:  8.77D-01  9.32D-01  8.02D-01
 E= -1979.24358858236     Delta-E=       -0.023267780200 Rises=F Damp=F
 DIIS: error= 2.89D-03 at cycle   4 NSaved=   4.
 NSaved= 4 IEnMin= 4 EnMin= -1979.24358858236     IErMin= 4 ErrMin= 2.89D-03
 ErrMax= 2.89D-03  0.00D+00 EMaxC= 1.00D-01 BMatC= 1.37D-02 BMatP= 4.11D-02
 IDIUse=3 WtCom= 9.71D-01 WtEn= 2.89D-02
 Coeff-Com: -0.274D-01 0.813D-01 0.401D+00 0.545D+00
 Coeff-En:   0.000D+00 0.000D+00 0.259D+00 0.741D+00
 Coeff:     -0.266D-01 0.790D-01 0.396D+00 0.551D+00
 Gap=     0.270 Goal=   None    Shift=    0.000
 RMSDP=7.24D-04 MaxDP=1.22D-01 DE=-2.33D-02 OVMax= 2.85D-02

 Cycle   5  Pass 1  IDiag  1:
 RMSU=  3.31D-04    CP:  8.79D-01  9.60D-01  8.89D-01  5.64D-01
 E= -1979.25482364645     Delta-E=       -0.011235064092 Rises=F Damp=F
 DIIS: error= 4.15D-04 at cycle   5 NSaved=   5.
 NSaved= 5 IEnMin= 5 EnMin= -1979.25482364645     IErMin= 5 ErrMin= 4.15D-04
 ErrMax= 4.15D-04  0.00D+00 EMaxC= 1.00D-01 BMatC= 4.12D-04 BMatP= 1.37D-02
 IDIUse=3 WtCom= 9.96D-01 WtEn= 4.15D-03
 Coeff-Com: -0.889D-02 0.176D-01 0.139D+00 0.243D+00 0.609D+00
 Coeff-En:   0.000D+00 0.000D+00 0.000D+00 0.000D+00 0.100D+01
 Coeff:     -0.885D-02 0.175D-01 0.139D+00 0.242D+00 0.610D+00
 Gap=     0.270 Goal=   None    Shift=    0.000
 RMSDP=1.12D-04 MaxDP=1.52D-02 DE=-1.12D-02 OVMax= 5.05D-03

 Cycle   6  Pass 1  IDiag  1:
 RMSU=  6.87D-05    CP:  8.79D-01  9.58D-01  8.85D-01  6.00D-01  7.86D-01
 E= -1979.25516573302     Delta-E=       -0.000342086569 Rises=F Damp=F
 DIIS: error= 1.09D-04 at cycle   6 NSaved=   6.
 NSaved= 6 IEnMin= 6 EnMin= -1979.25516573302     IErMin= 6 ErrMin= 1.09D-04
 ErrMax= 1.09D-04  0.00D+00 EMaxC= 1.00D-01 BMatC= 4.02D-05 BMatP= 4.12D-04
 IDIUse=3 WtCom= 9.99D-01 WtEn= 1.09D-03
 Coeff-Com: -0.165D-02 0.961D-03 0.295D-01 0.630D-01 0.287D+00 0.621D+00
 Coeff-En:   0.000D+00 0.000D+00 0.000D+00 0.000D+00 0.000D+00 0.100D+01
 Coeff:     -0.165D-02 0.960D-03 0.295D-01 0.630D-01 0.287D+00 0.621D+00
 Gap=     0.270 Goal=   None    Shift=    0.000
 RMSDP=4.92D-05 MaxDP=1.01D-02 DE=-3.42D-04 OVMax= 1.16D-03

 Cycle   7  Pass 1  IDiag  1:
 RMSU=  3.39D-05    CP:  8.79D-01  9.55D-01  8.88D-01  6.01D-01  8.20D-01
                    CP:  8.99D-01
 E= -1979.25519624925     Delta-E=       -0.000030516225 Rises=F Damp=F
 DIIS: error= 3.34D-05 at cycle   7 NSaved=   7.
 NSaved= 7 IEnMin= 7 EnMin= -1979.25519624925     IErMin= 7 ErrMin= 3.34D-05
 ErrMax= 3.34D-05  0.00D+00 EMaxC= 1.00D-01 BMatC= 3.36D-06 BMatP= 4.02D-05
 IDIUse=1 WtCom= 1.00D+00 WtEn= 0.00D+00
 Coeff-Com:  0.266D-03-0.135D-02-0.256D-02-0.826D-06 0.658D-01 0.258D+00
 Coeff-Com:  0.679D+00
 Coeff:      0.266D-03-0.135D-02-0.256D-02-0.826D-06 0.658D-01 0.258D+00
 Coeff:      0.679D+00
 Gap=     0.270 Goal=   None    Shift=    0.000
 RMSDP=2.34D-05 MaxDP=6.15D-03 DE=-3.05D-05 OVMax= 3.15D-04

 Cycle   8  Pass 1  IDiag  1:
 RMSU=  1.26D-05    CP:  8.79D-01  9.57D-01  8.89D-01  5.99D-01  8.22D-01
                    CP:  9.60D-01  9.26D-01
 E= -1979.25519874875     Delta-E=       -0.000002499507 Rises=F Damp=F
 DIIS: error= 1.17D-05 at cycle   8 NSaved=   8.
 NSaved= 8 IEnMin= 8 EnMin= -1979.25519874875     IErMin= 8 ErrMin= 1.17D-05
 ErrMax= 1.17D-05  0.00D+00 EMaxC= 1.00D-01 BMatC= 4.75D-07 BMatP= 3.36D-06
 IDIUse=1 WtCom= 1.00D+00 WtEn= 0.00D+00
 Coeff-Com:  0.318D-03-0.662D-03-0.516D-02-0.891D-02-0.901D-02 0.138D-01
 Coeff-Com:  0.289D+00 0.721D+00
 Coeff:      0.318D-03-0.662D-03-0.516D-02-0.891D-02-0.901D-02 0.138D-01
 Coeff:      0.289D+00 0.721D+00
 Gap=     0.270 Goal=   None    Shift=    0.000
 RMSDP=1.03D-05 MaxDP=3.03D-03 DE=-2.50D-06 OVMax= 1.15D-04

 Cycle   9  Pass 1  IDiag  1:
 RMSU=  3.68D-06    CP:  8.79D-01  9.56D-01  8.89D-01  5.98D-01  8.33D-01
                    CP:  9.56D-01  9.79D-01  7.42D-01
 E= -1979.25519913482     Delta-E=       -0.000000386065 Rises=F Damp=F
 DIIS: error= 3.92D-06 at cycle   9 NSaved=   9.
 NSaved= 9 IEnMin= 9 EnMin= -1979.25519913482     IErMin= 9 ErrMin= 3.92D-06
 ErrMax= 3.92D-06  0.00D+00 EMaxC= 1.00D-01 BMatC= 6.09D-08 BMatP= 4.75D-07
 IDIUse=1 WtCom= 1.00D+00 WtEn= 0.00D+00
 Coeff-Com:  0.127D-03-0.208D-03-0.235D-02-0.450D-02-0.931D-02-0.150D-01
 Coeff-Com:  0.868D-01 0.348D+00 0.596D+00
 Coeff:      0.127D-03-0.208D-03-0.235D-02-0.450D-02-0.931D-02-0.150D-01
 Coeff:      0.868D-01 0.348D+00 0.596D+00
 Gap=     0.270 Goal=   None    Shift=    0.000
 RMSDP=2.55D-06 MaxDP=5.66D-04 DE=-3.86D-07 OVMax= 3.32D-05

 Cycle  10  Pass 1  IDiag  1:
 RMSU=  9.64D-07    CP:  8.79D-01  9.56D-01  8.89D-01  5.98D-01  8.32D-01
                    CP:  9.65D-01  1.00D+00  8.03D-01  9.11D-01
 E= -1979.25519918270     Delta-E=       -0.000000047878 Rises=F Damp=F
 DIIS: error= 1.58D-06 at cycle  10 NSaved=  10.
 NSaved=10 IEnMin=10 EnMin= -1979.25519918270     IErMin=10 ErrMin= 1.58D-06
 ErrMax= 1.58D-06  0.00D+00 EMaxC= 1.00D-01 BMatC= 5.78D-09 BMatP= 6.09D-08
 IDIUse=1 WtCom= 1.00D+00 WtEn= 0.00D+00
 Coeff-Com:  0.871D-05 0.230D-05-0.293D-03-0.718D-03-0.245D-02-0.840D-02
 Coeff-Com: -0.199D-02 0.479D-01 0.246D+00 0.720D+00
 Coeff:      0.871D-05 0.230D-05-0.293D-03-0.718D-03-0.245D-02-0.840D-02
 Coeff:     -0.199D-02 0.479D-01 0.246D+00 0.720D+00
 Gap=     0.270 Goal=   None    Shift=    0.000
 RMSDP=5.37D-07 MaxDP=1.10D-04 DE=-4.79D-08 OVMax= 2.20D-05

 Cycle  11  Pass 1  IDiag  1:
 RMSU=  4.04D-07    CP:  8.79D-01  9.56D-01  8.89D-01  5.98D-01  8.32D-01
                    CP:  9.65D-01  1.00D+00  8.16D-01  9.35D-01  8.89D-01
 E= -1979.25519918809     Delta-E=       -0.000000005395 Rises=F Damp=F
 DIIS: error= 4.96D-07 at cycle  11 NSaved=  11.
 NSaved=11 IEnMin=11 EnMin= -1979.25519918809     IErMin=11 ErrMin= 4.96D-07
 ErrMax= 4.96D-07  0.00D+00 EMaxC= 1.00D-01 BMatC= 7.44D-10 BMatP= 5.78D-09
 IDIUse=1 WtCom= 1.00D+00 WtEn= 0.00D+00
 Coeff-Com: -0.137D-04 0.284D-04 0.215D-03 0.321D-03 0.288D-03-0.157D-02
 Coeff-Com: -0.135D-01-0.323D-01 0.725D-02 0.280D+00 0.759D+00
 Coeff:     -0.137D-04 0.284D-04 0.215D-03 0.321D-03 0.288D-03-0.157D-02
 Coeff:     -0.135D-01-0.323D-01 0.725D-02 0.280D+00 0.759D+00
 Gap=     0.270 Goal=   None    Shift=    0.000
 RMSDP=3.39D-07 MaxDP=7.03D-05 DE=-5.40D-09 OVMax= 1.06D-05

 Cycle  12  Pass 1  IDiag  1:
 RMSU=  1.40D-07    CP:  8.79D-01  9.56D-01  8.89D-01  5.98D-01  8.32D-01
                    CP:  9.64D-01  1.00D+00  8.15D-01  9.77D-01  9.62D-01
                    CP:  9.73D-01
 E= -1979.25519918903     Delta-E=       -0.000000000935 Rises=F Damp=F
 DIIS: error= 1.63D-07 at cycle  12 NSaved=  12.
 NSaved=12 IEnMin=12 EnMin= -1979.25519918903     IErMin=12 ErrMin= 1.63D-07
 ErrMax= 1.63D-07  0.00D+00 EMaxC= 1.00D-01 BMatC= 6.36D-11 BMatP= 7.44D-10
 IDIUse=1 WtCom= 1.00D+00 WtEn= 0.00D+00
 Coeff-Com: -0.418D-05 0.782D-05 0.929D-04 0.151D-03 0.312D-03 0.222D-03
 Coeff-Com: -0.382D-02-0.136D-01-0.195D-01 0.308D-01 0.256D+00 0.750D+00
 Coeff:     -0.418D-05 0.782D-05 0.929D-04 0.151D-03 0.312D-03 0.222D-03
 Coeff:     -0.382D-02-0.136D-01-0.195D-01 0.308D-01 0.256D+00 0.750D+00
 Gap=     0.270 Goal=   None    Shift=    0.000
 RMSDP=7.48D-08 MaxDP=1.05D-05 DE=-9.35D-10 OVMax= 4.56D-06

 Cycle  13  Pass 1  IDiag  1:
 RMSU=  5.73D-08    CP:  8.79D-01  9.56D-01  8.89D-01  5.98D-01  8.32D-01
                    CP:  9.64D-01  1.00D+00  8.16D-01  9.77D-01  9.79D-01
                    CP:  9.83D-01  1.01D+00
 E= -1979.25519918916     Delta-E=       -0.000000000130 Rises=F Damp=F
 DIIS: error= 9.47D-08 at cycle  13 NSaved=  13.
 NSaved=13 IEnMin=13 EnMin= -1979.25519918916     IErMin=13 ErrMin= 9.47D-08
 ErrMax= 9.47D-08  0.00D+00 EMaxC= 1.00D-01 BMatC= 1.45D-11 BMatP= 6.36D-11
 IDIUse=1 WtCom= 1.00D+00 WtEn= 0.00D+00
 Coeff-Com:  0.268D-06-0.986D-06 0.125D-04 0.219D-04 0.103D-03 0.312D-03
 Coeff-Com:  0.116D-03-0.161D-02-0.104D-01-0.280D-01-0.391D-02 0.338D+00
 Coeff-Com:  0.705D+00
 Coeff:      0.268D-06-0.986D-06 0.125D-04 0.219D-04 0.103D-03 0.312D-03
 Coeff:      0.116D-03-0.161D-02-0.104D-01-0.280D-01-0.391D-02 0.338D+00
 Coeff:      0.705D+00
 Gap=     0.270 Goal=   None    Shift=    0.000
 RMSDP=4.92D-08 MaxDP=9.43D-06 DE=-1.30D-10 OVMax= 2.11D-06

 Cycle  14  Pass 1  IDiag  1:
 RMSU=  2.18D-08    CP:  8.79D-01  9.56D-01  8.89D-01  5.98D-01  8.32D-01
                    CP:  9.64D-01  1.00D+00  8.16D-01  9.77D-01  9.83D-01
                    CP:  1.01D+00  1.14D+00  1.09D+00
 E= -1979.25519918919     Delta-E=       -0.000000000035 Rises=F Damp=F
 DIIS: error= 3.07D-08 at cycle  14 NSaved=  14.
 NSaved=14 IEnMin=14 EnMin= -1979.25519918919     IErMin=14 ErrMin= 3.07D-08
 ErrMax= 3.07D-08  0.00D+00 EMaxC= 1.00D-01 BMatC= 1.78D-12 BMatP= 1.45D-11
 IDIUse=1 WtCom= 1.00D+00 WtEn= 0.00D+00
 Coeff-Com:  0.793D-06-0.161D-05-0.887D-05-0.148D-04-0.442D-05 0.929D-04
 Coeff-Com:  0.667D-03 0.157D-02-0.114D-02-0.165D-01-0.436D-01 0.356D-01
 Coeff-Com:  0.299D+00 0.724D+00
 Coeff:      0.793D-06-0.161D-05-0.887D-05-0.148D-04-0.442D-05 0.929D-04
 Coeff:      0.667D-03 0.157D-02-0.114D-02-0.165D-01-0.436D-01 0.356D-01
 Coeff:      0.299D+00 0.724D+00
 Gap=     0.270 Goal=   None    Shift=    0.000
 RMSDP=1.71D-08 MaxDP=3.54D-06 DE=-3.55D-11 OVMax= 1.04D-06

 Cycle  15  Pass 1  IDiag  1:
 RMSU=  7.71D-09    CP:  8.79D-01  9.56D-01  8.89D-01  5.98D-01  8.32D-01
                    CP:  9.64D-01  1.00D+00  8.16D-01  9.77D-01  9.82D-01
                    CP:  1.00D+00  1.18D+00  1.23D+00  1.10D+00
 E= -1979.25519918909     Delta-E=        0.000000000106 Rises=F Damp=F
 DIIS: error= 1.47D-08 at cycle  15 NSaved=  15.
 NSaved=15 IEnMin=14 EnMin= -1979.25519918919     IErMin=15 ErrMin= 1.47D-08
 ErrMax= 1.47D-08  0.00D+00 EMaxC= 1.00D-01 BMatC= 2.70D-13 BMatP= 1.78D-12
 IDIUse=1 WtCom= 1.00D+00 WtEn= 0.00D+00
 Coeff-Com:  0.240D-06-0.473D-06-0.496D-05-0.827D-05-0.138D-04-0.515D-05
 Coeff-Com:  0.239D-03 0.809D-03 0.102D-02-0.253D-02-0.174D-01-0.355D-01
 Coeff-Com:  0.101D-01 0.299D+00 0.745D+00
 Coeff:      0.240D-06-0.473D-06-0.496D-05-0.827D-05-0.138D-04-0.515D-05
 Coeff:      0.239D-03 0.809D-03 0.102D-02-0.253D-02-0.174D-01-0.355D-01
 Coeff:      0.101D-01 0.299D+00 0.745D+00
 Gap=     0.270 Goal=   None    Shift=    0.000
 RMSDP=8.07D-09 MaxDP=1.84D-06 DE= 1.06D-10 OVMax= 3.85D-07

 Cycle  16  Pass 1  IDiag  1:
 RMSU=  2.94D-09    CP:  8.79D-01  9.56D-01  8.89D-01  5.98D-01  8.32D-01
                    CP:  9.64D-01  1.00D+00  8.16D-01  9.77D-01  9.82D-01
                    CP:  1.00D+00  1.20D+00  1.28D+00  1.23D+00  1.08D+00
 E= -1979.25519918917     Delta-E=       -0.000000000081 Rises=F Damp=F
 DIIS: error= 4.47D-09 at cycle  16 NSaved=  16.
 NSaved=16 IEnMin=14 EnMin= -1979.25519918919     IErMin=16 ErrMin= 4.47D-09
 ErrMax= 4.47D-09  0.00D+00 EMaxC= 1.00D-01 BMatC= 3.21D-14 BMatP= 2.70D-13
 IDIUse=1 WtCom= 1.00D+00 WtEn= 0.00D+00
 Coeff-Com: -0.418D-07 0.828D-07-0.505D-06-0.904D-06-0.444D-05-0.169D-04
 Coeff-Com: -0.136D-04 0.656D-04 0.589D-03 0.166D-02 0.229D-03-0.183D-01
 Coeff-Com: -0.415D-01 0.110D-01 0.269D+00 0.778D+00
 Coeff:     -0.418D-07 0.828D-07-0.505D-06-0.904D-06-0.444D-05-0.169D-04
 Coeff:     -0.136D-04 0.656D-04 0.589D-03 0.166D-02 0.229D-03-0.183D-01
 Coeff:     -0.415D-01 0.110D-01 0.269D+00 0.778D+00
 Gap=     0.270 Goal=   None    Shift=    0.000
 RMSDP=2.13D-09 MaxDP=5.44D-07 DE=-8.09D-11 OVMax= 1.80D-07

 SCF Done:  E(RM062X) =  -1979.25519919     A.U. after   16 cycles
            NFock= 16  Conv=0.21D-08     -V/T= 2.0030
 KE= 1.973393939911D+03 PE=-1.055354672759D+04 EE= 3.658925584119D+03
 Leave Link  502 at Mon May 16 21:33:00 2022, MaxMem=  2684354560 cpu:           10819.7 elap:             678.8
 (Enter /data0/hywu0/study/g16/l601.exe)
 Copying SCF densities to generalized density rwf, IOpCl= 0 IROHF=0.

 **********************************************************************

            Population analysis using the SCF density.

 **********************************************************************

 Alpha  occ. eigenvalues --  -90.11768 -78.14845 -19.65283 -19.63919 -19.63277
 Alpha  occ. eigenvalues --  -19.62969 -19.62232 -19.62207 -19.62091 -19.61906
 Alpha  occ. eigenvalues --  -19.61848 -19.59714 -19.58891 -14.87826 -10.64263
 Alpha  occ. eigenvalues --  -10.63426 -10.63082 -10.59872 -10.59559 -10.59474
 Alpha  occ. eigenvalues --  -10.59392 -10.58208 -10.55830  -8.45243  -6.95558
 Alpha  occ. eigenvalues --   -6.37522  -6.37502  -6.37442  -5.07487  -5.07394
 Alpha  occ. eigenvalues --   -5.07325  -1.26240  -1.21109  -1.15502  -1.14249
 Alpha  occ. eigenvalues --   -1.13466  -1.13377  -1.12568  -1.12379  -1.12165
 Alpha  occ. eigenvalues --   -1.11610  -1.10606  -1.09028  -0.97830  -0.93764
 Alpha  occ. eigenvalues --   -0.91908  -0.85461  -0.83179  -0.78308  -0.74576
 Alpha  occ. eigenvalues --   -0.72803  -0.70295  -0.69014  -0.64879  -0.62668
 Alpha  occ. eigenvalues --   -0.62050  -0.61576  -0.61527  -0.61292  -0.60885
 Alpha  occ. eigenvalues --   -0.59731  -0.59373  -0.58837  -0.58511  -0.57377
 Alpha  occ. eigenvalues --   -0.55816  -0.55611  -0.55219  -0.53780  -0.52938
 Alpha  occ. eigenvalues --   -0.51679  -0.50830  -0.50548  -0.50253  -0.49562
 Alpha  occ. eigenvalues --   -0.48980  -0.48692  -0.48235  -0.47431  -0.46846
 Alpha  occ. eigenvalues --   -0.46419  -0.45963  -0.45669  -0.45197  -0.44612
 Alpha  occ. eigenvalues --   -0.44477  -0.44084  -0.43409  -0.43294  -0.40554
 Alpha  occ. eigenvalues --   -0.40296  -0.40105  -0.39887  -0.39606  -0.39027
 Alpha  occ. eigenvalues --   -0.38826  -0.38099  -0.37894  -0.37823  -0.37441
 Alpha  occ. eigenvalues --   -0.35498  -0.32930
 Alpha virt. eigenvalues --   -0.05950  -0.02199  -0.01124   0.00302   0.00676
 Alpha virt. eigenvalues --    0.01112   0.02036   0.02480   0.02904   0.03560
 Alpha virt. eigenvalues --    0.04515   0.05018   0.05060   0.05661   0.06004
 Alpha virt. eigenvalues --    0.06146   0.07221   0.07339   0.07719   0.08339
 Alpha virt. eigenvalues --    0.08507   0.08932   0.09292   0.09979   0.10124
 Alpha virt. eigenvalues --    0.10381   0.10867   0.11108   0.11460   0.11648
 Alpha virt. eigenvalues --    0.12304   0.12595   0.13161   0.13470   0.13602
 Alpha virt. eigenvalues --    0.13883   0.14530   0.14810   0.14953   0.15260
 Alpha virt. eigenvalues --    0.15589   0.15964   0.16189   0.16578   0.16858
 Alpha virt. eigenvalues --    0.16975   0.17512   0.17675   0.17772   0.17916
 Alpha virt. eigenvalues --    0.18489   0.18824   0.19144   0.19363   0.19462
 Alpha virt. eigenvalues --    0.19913   0.20161   0.20607   0.20672   0.21195
 Alpha virt. eigenvalues --    0.21391   0.21797   0.21865   0.22035   0.22520
 Alpha virt. eigenvalues --    0.22977   0.23196   0.23377   0.23640   0.24134
 Alpha virt. eigenvalues --    0.24337   0.24623   0.24985   0.25293   0.25575
 Alpha virt. eigenvalues --    0.26082   0.26323   0.26391   0.26681   0.27043
 Alpha virt. eigenvalues --    0.27361   0.27726   0.27856   0.28403   0.28962
 Alpha virt. eigenvalues --    0.29043   0.29380   0.29540   0.29772   0.30021
 Alpha virt. eigenvalues --    0.30234   0.30419   0.30716   0.31096   0.31261
 Alpha virt. eigenvalues --    0.31558   0.32036   0.32445   0.32725   0.33132
 Alpha virt. eigenvalues --    0.33236   0.33738   0.33846   0.34377   0.34573
 Alpha virt. eigenvalues --    0.34801   0.35476   0.35676   0.36093   0.36280
 Alpha virt. eigenvalues --    0.36817   0.36973   0.37509   0.37925   0.38205
 Alpha virt. eigenvalues --    0.38347   0.39064   0.39436   0.39999   0.40341
 Alpha virt. eigenvalues --    0.41022   0.41508   0.41673   0.42114   0.42724
 Alpha virt. eigenvalues --    0.43399   0.43841   0.44437   0.44823   0.45496
 Alpha virt. eigenvalues --    0.46688   0.46890   0.47510   0.48071   0.48581
 Alpha virt. eigenvalues --    0.49141   0.49516   0.50684   0.50832   0.51031
 Alpha virt. eigenvalues --    0.51358   0.53143   0.53506   0.54014   0.54227
 Alpha virt. eigenvalues --    0.55143   0.55472   0.56131   0.56352   0.57003
 Alpha virt. eigenvalues --    0.57606   0.58197   0.58596   0.59356   0.59475
 Alpha virt. eigenvalues --    0.59818   0.60464   0.60739   0.61045   0.61389
 Alpha virt. eigenvalues --    0.62098   0.62445   0.63446   0.63860   0.64287
 Alpha virt. eigenvalues --    0.64723   0.65454   0.66009   0.66564   0.66858
 Alpha virt. eigenvalues --    0.67789   0.68108   0.68938   0.69134   0.69615
 Alpha virt. eigenvalues --    0.69980   0.70185   0.70703   0.71435   0.71755
 Alpha virt. eigenvalues --    0.72568   0.72717   0.73415   0.73789   0.74520
 Alpha virt. eigenvalues --    0.74923   0.75860   0.76561   0.77323   0.77457
 Alpha virt. eigenvalues --    0.77655   0.78600   0.78907   0.79941   0.80249
 Alpha virt. eigenvalues --    0.81494   0.82229   0.82365   0.83401   0.83984
 Alpha virt. eigenvalues --    0.84388   0.85012   0.85492   0.86210   0.86886
 Alpha virt. eigenvalues --    0.87560   0.88526   0.89231   0.89337   0.90420
 Alpha virt. eigenvalues --    0.91074   0.92469   0.92632   0.93647   0.94523
 Alpha virt. eigenvalues --    0.95033   0.96221   0.96822   0.98170   0.98320
 Alpha virt. eigenvalues --    1.00470   1.00939   1.01328   1.03020   1.03839
 Alpha virt. eigenvalues --    1.05897   1.05991   1.06515   1.07541   1.08582
 Alpha virt. eigenvalues --    1.09008   1.09608   1.10337   1.11295   1.11936
 Alpha virt. eigenvalues --    1.12355   1.13662   1.14480   1.14702   1.14824
 Alpha virt. eigenvalues --    1.15585   1.16056   1.16450   1.17238   1.17900
 Alpha virt. eigenvalues --    1.18693   1.19015   1.19575   1.20253   1.20372
 Alpha virt. eigenvalues --    1.20766   1.21279   1.21802   1.22370   1.22599
 Alpha virt. eigenvalues --    1.23405   1.23857   1.24573   1.25104   1.25795
 Alpha virt. eigenvalues --    1.26553   1.26868   1.27037   1.27288   1.28064
 Alpha virt. eigenvalues --    1.28512   1.28721   1.29478   1.30465   1.31897
 Alpha virt. eigenvalues --    1.32057   1.32246   1.32617   1.33104   1.33812
 Alpha virt. eigenvalues --    1.34097   1.34507   1.34658   1.35143   1.36100
 Alpha virt. eigenvalues --    1.36949   1.37413   1.37765   1.38251   1.38879
 Alpha virt. eigenvalues --    1.39070   1.40305   1.40885   1.40944   1.41394
 Alpha virt. eigenvalues --    1.41931   1.42503   1.42924   1.43132   1.43903
 Alpha virt. eigenvalues --    1.44195   1.44892   1.45478   1.45822   1.46141
 Alpha virt. eigenvalues --    1.47277   1.48729   1.49108   1.49375   1.50174
 Alpha virt. eigenvalues --    1.51394   1.52963   1.53423   1.53672   1.54499
 Alpha virt. eigenvalues --    1.54921   1.55728   1.57194   1.57856   1.58124
 Alpha virt. eigenvalues --    1.59109   1.59408   1.60014   1.60655   1.61894
 Alpha virt. eigenvalues --    1.62784   1.63080   1.63526   1.64297   1.65410
 Alpha virt. eigenvalues --    1.65663   1.66251   1.66745   1.68232   1.68944
 Alpha virt. eigenvalues --    1.69611   1.70237   1.70743   1.73546   1.74214
 Alpha virt. eigenvalues --    1.75137   1.75868   1.76246   1.76953   1.77366
 Alpha virt. eigenvalues --    1.77681   1.78868   1.79623   1.80654   1.81497
 Alpha virt. eigenvalues --    1.82078   1.82580   1.83814   1.84045   1.84696
 Alpha virt. eigenvalues --    1.85847   1.86289   1.86611   1.88249   1.90308
 Alpha virt. eigenvalues --    1.90806   1.91335   1.91815   1.92924   1.93753
 Alpha virt. eigenvalues --    1.94077   1.94782   1.95796   1.96623   1.97312
 Alpha virt. eigenvalues --    1.98214   1.98443   1.98569   2.00641   2.00845
 Alpha virt. eigenvalues --    2.01851   2.02103   2.02615   2.03691   2.05283
 Alpha virt. eigenvalues --    2.06485   2.07468   2.07943   2.08760   2.09523
 Alpha virt. eigenvalues --    2.10915   2.11625   2.11963   2.12997   2.13690
 Alpha virt. eigenvalues --    2.14442   2.15406   2.15985   2.16811   2.17455
 Alpha virt. eigenvalues --    2.19411   2.19946   2.19964   2.21182   2.21415
 Alpha virt. eigenvalues --    2.22488   2.23262   2.23702   2.25018   2.25562
 Alpha virt. eigenvalues --    2.27474   2.27947   2.29109   2.30141   2.31908
 Alpha virt. eigenvalues --    2.32364   2.32719   2.33473   2.34369   2.34591
 Alpha virt. eigenvalues --    2.36159   2.36483   2.37302   2.37885   2.39045
 Alpha virt. eigenvalues --    2.39689   2.40159   2.41263   2.42358   2.43836
 Alpha virt. eigenvalues --    2.44144   2.45336   2.46776   2.46899   2.48463
 Alpha virt. eigenvalues --    2.49881   2.51519   2.52938   2.55045   2.55651
 Alpha virt. eigenvalues --    2.57400   2.57859   2.59240   2.60875   2.61904
 Alpha virt. eigenvalues --    2.65097   2.65438   2.66051   2.67785   2.69023
 Alpha virt. eigenvalues --    2.70776   2.72090   2.72621   2.73356   2.74162
 Alpha virt. eigenvalues --    2.74738   2.76046   2.77477   2.78981   2.79467
 Alpha virt. eigenvalues --    2.80010   2.81477   2.82253   2.82824   2.83774
 Alpha virt. eigenvalues --    2.85737   2.86681   2.88307   2.88774   2.90198
 Alpha virt. eigenvalues --    2.90771   2.91656   2.92904   2.94268   2.95234
 Alpha virt. eigenvalues --    2.96769   2.97298   2.98890   2.99507   3.00508
 Alpha virt. eigenvalues --    3.00795   3.02972   3.04631   3.05129   3.06165
 Alpha virt. eigenvalues --    3.07653   3.09569   3.10231   3.12087   3.13749
 Alpha virt. eigenvalues --    3.15078   3.15623   3.17408   3.19882   3.20553
 Alpha virt. eigenvalues --    3.22357   3.24510   3.25091   3.26518   3.27637
 Alpha virt. eigenvalues --    3.28779   3.29460   3.31330   3.32947   3.33265
 Alpha virt. eigenvalues --    3.34253   3.35111   3.37293   3.38262   3.40635
 Alpha virt. eigenvalues --    3.44263   3.44602   3.45592   3.47217   3.48214
 Alpha virt. eigenvalues --    3.48936   3.51076   3.51566   3.52709   3.54636
 Alpha virt. eigenvalues --    3.55695   3.56693   3.58606   3.59278   3.60122
 Alpha virt. eigenvalues --    3.61680   3.63142   3.63964   3.65023   3.66726
 Alpha virt. eigenvalues --    3.68288   3.69401   3.69877   3.72140   3.73235
 Alpha virt. eigenvalues --    3.74328   3.76472   3.78490   3.81264   3.84443
 Alpha virt. eigenvalues --    3.86049   3.87705   3.88736   3.90395   3.94827
 Alpha virt. eigenvalues --    3.97146   4.01190   4.04541   4.08682   4.10646
 Alpha virt. eigenvalues --    4.15141   4.16653   4.17000   4.19128   4.20158
 Alpha virt. eigenvalues --    4.23590   4.32181   4.35950   4.46536   4.53549
 Alpha virt. eigenvalues --    4.65363   4.72993   4.97735   5.05128   5.07096
 Alpha virt. eigenvalues --    5.12136   5.13270   5.13336   5.15191   5.18375
 Alpha virt. eigenvalues --    5.19036   5.19684   5.19988   5.22255   5.23364
 Alpha virt. eigenvalues --    5.27223   5.28304   5.28962   5.32852   5.34176
 Alpha virt. eigenvalues --    5.34718   5.37616   5.39712   5.41168   5.44978
 Alpha virt. eigenvalues --    5.47513   5.48771   5.53245   5.53532   5.56368
 Alpha virt. eigenvalues --    5.58081   5.59145   5.60355   5.62380   5.64103
 Alpha virt. eigenvalues --    5.65475   5.65832   5.67985   5.78561   5.96432
 Alpha virt. eigenvalues --    5.97474   5.99069   6.00678   6.76837   6.77001
 Alpha virt. eigenvalues --    6.78541   6.78778   6.78811   6.80010   6.80227
 Alpha virt. eigenvalues --    6.81613   6.82022   6.83355   6.83798   6.84324
 Alpha virt. eigenvalues --    6.85221   6.86345   6.86860   6.87206   6.88092
 Alpha virt. eigenvalues --    6.88396   6.89230   6.89929   6.90068   6.91320
 Alpha virt. eigenvalues --    6.92048   6.92904   6.94076   6.95424   6.95635
 Alpha virt. eigenvalues --    6.95999   6.97399   6.98014   6.98850   7.00539
 Alpha virt. eigenvalues --    7.00644   7.03117   7.03754   7.06931   7.08444
 Alpha virt. eigenvalues --    7.11376   7.12632   7.13330   7.17088   7.17920
 Alpha virt. eigenvalues --    7.19852   7.22118   7.22641   7.23643   7.27228
 Alpha virt. eigenvalues --    7.28778   7.29968   7.31622   7.35993   7.39405
 Alpha virt. eigenvalues --    7.41375   7.41811   7.46771   7.73440   8.64732
 Alpha virt. eigenvalues --   14.30376  14.33266  14.43700  17.75361  17.78268
 Alpha virt. eigenvalues --   17.85877  23.87772  23.95277  23.99105  24.00260
 Alpha virt. eigenvalues --   24.04755  24.09652  24.12937  24.14018  24.26894
 Alpha virt. eigenvalues --   35.71900  50.04442  50.05136  50.06350  50.07244
 Alpha virt. eigenvalues --   50.08606  50.09678  50.10009  50.11040  50.14538
 Alpha virt. eigenvalues --   50.15209  50.19404 164.00162 189.96857
          Condensed to atoms (all electrons):
               1          2          3          4          5          6
     1  C   17.313342 -11.913322   6.222540  -5.127626   0.847701  -0.007607
     2  C  -11.913322  23.506423 -11.240756   8.487100  -3.690175   0.068671
     3  C    6.222540 -11.240756  20.478655 -10.989277   3.096464   0.265919
     4  C   -5.127626   8.487100 -10.989277  21.579118  -9.675914   0.051550
     5  C    0.847701  -3.690175   3.096464  -9.675914  17.403236  -0.014030
     6  H   -0.007607   0.068671   0.265919   0.051550  -0.014030   0.484343
     7  H   -0.038865   0.328689  -0.091994   0.085803  -0.066087  -0.000119
     8  H    0.091486   0.184643   0.117355  -0.073187   0.015164  -0.004591
     9  H   -0.021903   0.040640  -0.044530   0.190520   0.165592  -0.000056
    10  C   -0.225783   0.469518  -1.025807   0.963309  -1.217730  -0.009065
    11  H    0.001131  -0.013045   0.092027  -0.097838  -0.013984  -0.000222
    12  H   -0.001384   0.007523  -0.082878   0.093585  -0.019975   0.000454
    13  H    0.018497   0.015772   0.064290  -0.227635   0.063450   0.003125
    14  N   -0.693085   0.404082  -0.357518   0.121032  -0.173016  -0.001956
    15  C    0.418702  -0.923743   0.461715  -0.875195   0.627598  -0.002043
    16  H   -0.012520   0.015101   0.001516   0.017105  -0.007673  -0.000000
    17  H    0.033422   0.025060  -0.008271   0.013250  -0.039250  -0.000003
    18  C   -0.407068   0.262817  -0.316653   0.674955  -1.068516   0.000709
    19  H    0.016618  -0.007900  -0.002090  -0.011670  -0.016275  -0.000002
    20  H    0.001010   0.003300  -0.000875  -0.005643   0.015995   0.000000
    21  C    0.467127  -0.366495   0.260148  -0.634399   0.938502  -0.000307
    22  H    0.000671   0.004546  -0.002375   0.003928  -0.016842   0.000000
    23  H    0.000569   0.001413  -0.001179   0.003129  -0.003540   0.000000
    24  S   -0.317022   0.514655  -0.398705   0.803371  -0.934210   0.001232
    25  O    0.023122   0.013542   0.010797   0.043112  -0.015169   0.000013
    26  O   -0.061455   0.078285  -0.098757   0.163896  -0.168870   0.000031
    27  O   -0.461697   0.222091  -0.075294   0.055979  -0.032264  -0.000211
    28  P    0.110758  -0.075436  -0.050327   0.074604  -0.041153   0.005373
    29  O   -0.053900  -0.023820  -0.020119  -0.020768   0.058201  -0.018049
    30  O   -0.019099   0.022204  -0.025689   0.013948   0.003473   0.000084
    31  H    0.005139  -0.004763   0.013388  -0.008161  -0.001287  -0.000049
    32  O    0.006230  -0.004306  -0.002949   0.024802  -0.009947  -0.000222
    33  H    0.000017  -0.000312  -0.009785   0.007144  -0.000825   0.000148
    34  O    0.033643  -0.042285   0.064899  -0.055305  -0.038938  -0.001780
    35  H   -0.049949   0.050823  -0.105451   0.103854   0.020651   0.000656
    36  O   -0.035782   0.021788  -0.027156   0.024869  -0.006156   0.000041
    37  H    0.002536  -0.003611   0.014209  -0.007181   0.001801  -0.000024
    38  H    0.010446  -0.003903   0.005337  -0.005871   0.002810  -0.000003
    39  O   -0.143799   0.039555  -0.011086   0.014860  -0.026798  -0.000001
    40  H   -0.054209   0.060163  -0.014733   0.010496  -0.007914   0.000009
    41  H    0.078624  -0.073030   0.014742  -0.010277   0.010556  -0.000012
    42  O    0.049221   0.225104  -0.285446   0.084999  -0.060792   0.001511
    43  H   -0.104445   0.044706   0.072257  -0.021026   0.022721  -0.000927
    44  H    0.036741  -0.134030   0.140813  -0.073641   0.057660  -0.000427
    45  O    0.168187  -0.172871   0.000682  -0.013469   0.004480  -0.000066
    46  H   -0.007962   0.007225   0.001873   0.000750   0.000222  -0.000001
    47  H   -0.147494   0.170027  -0.027040   0.021223  -0.011894   0.000147
               7          8          9         10         11         12
     1  C   -0.038865   0.091486  -0.021903  -0.225783   0.001131  -0.001384
     2  C    0.328689   0.184643   0.040640   0.469518  -0.013045   0.007523
     3  C   -0.091994   0.117355  -0.044530  -1.025807   0.092027  -0.082878
     4  C    0.085803  -0.073187   0.190520   0.963309  -0.097838   0.093585
     5  C   -0.066087   0.015164   0.165592  -1.217730  -0.013984  -0.019975
     6  H   -0.000119  -0.004591  -0.000056  -0.009065  -0.000222   0.000454
     7  H    0.509291  -0.006063  -0.000036   0.003684   0.000002  -0.000000
     8  H   -0.006063   0.473046  -0.000025  -0.001372   0.000010   0.000002
     9  H   -0.000036  -0.000025   0.491559   0.033406   0.000947   0.000201
    10  C    0.003684  -0.001372   0.033406   6.677693   0.385249   0.373306
    11  H    0.000002   0.000010   0.000947   0.385249   0.503170  -0.031508
    12  H   -0.000000   0.000002   0.000201   0.373306  -0.031508   0.462163
    13  H   -0.000005   0.000014  -0.000285   0.430418  -0.017768  -0.020259
    14  N    0.006952   0.005061  -0.040104  -0.013820   0.003159  -0.000013
    15  C   -0.023262   0.004360   0.009540  -0.143272   0.001199   0.000190
    16  H    0.001355   0.000002   0.001040  -0.000893  -0.000022   0.000001
    17  H    0.004088  -0.000061   0.000234   0.000705   0.000000  -0.000001
    18  C    0.035305  -0.000505   0.003472   0.097838   0.000257  -0.001234
    19  H   -0.000115   0.000000   0.006082   0.002837   0.000033  -0.000001
    20  H   -0.000119  -0.000000  -0.000609  -0.000494  -0.000000   0.000001
    21  C   -0.026336   0.000974  -0.013648  -0.040788  -0.000055   0.001185
    22  H    0.000331  -0.000005   0.000095   0.000355  -0.000000   0.000000
    23  H    0.000005  -0.000000   0.000082   0.000181  -0.000000  -0.000001
    24  S    0.012084  -0.002307   0.014154   0.034383  -0.000190  -0.001218
    25  O   -0.001271   0.000008   0.000242   0.000683  -0.000002  -0.000102
    26  O    0.004405  -0.000728  -0.008174  -0.007165  -0.000302   0.001530
    27  O    0.025908  -0.002189   0.000413   0.008680   0.000011  -0.000044
    28  P   -0.001173  -0.000504   0.000574  -0.000190   0.002096  -0.007398
    29  O    0.000662  -0.000574  -0.000095   0.001003  -0.000116  -0.000420
    30  O    0.000010   0.000030  -0.000023   0.000204  -0.000002   0.000129
    31  H   -0.000002   0.000003   0.000003  -0.000049   0.000000  -0.000019
    32  O   -0.000009  -0.000038   0.000009  -0.006399  -0.000026   0.000556
    33  H   -0.000000  -0.000003  -0.000001   0.002958  -0.000008   0.000035
    34  O   -0.000066   0.000098   0.000525   0.027851   0.000908  -0.005791
    35  H    0.000121  -0.000125  -0.000970  -0.007327  -0.000105   0.002676
    36  O    0.000046  -0.000070  -0.000003   0.000835  -0.000000   0.000004
    37  H   -0.000016   0.000036  -0.000000  -0.000108   0.000000  -0.000001
    38  H   -0.000022   0.000003  -0.000001  -0.000282   0.000000  -0.000001
    39  O    0.053342   0.000043  -0.000020  -0.000003  -0.000000   0.000001
    40  H    0.012204  -0.000331   0.000007   0.000338  -0.000000  -0.000000
    41  H   -0.011429   0.000226  -0.000009   0.000192   0.000000  -0.000000
    42  O   -0.003974  -0.006082   0.000071   0.003918  -0.000004  -0.000003
    43  H    0.000596  -0.002281  -0.000010  -0.003300   0.000002   0.000002
    44  H   -0.001691   0.001112  -0.000102  -0.001503   0.000001   0.000006
    45  O   -0.010055   0.004193  -0.000011  -0.000832  -0.000000   0.000000
    46  H    0.001380  -0.000211  -0.000000   0.000087   0.000000  -0.000000
    47  H    0.009463  -0.006425   0.000004   0.000783   0.000000  -0.000000
              13         14         15         16         17         18
     1  C    0.018497  -0.693085   0.418702  -0.012520   0.033422  -0.407068
     2  C    0.015772   0.404082  -0.923743   0.015101   0.025060   0.262817
     3  C    0.064290  -0.357518   0.461715   0.001516  -0.008271  -0.316653
     4  C   -0.227635   0.121032  -0.875195   0.017105   0.013250   0.674955
     5  C    0.063450  -0.173016   0.627598  -0.007673  -0.039250  -1.068516
     6  H    0.003125  -0.001956  -0.002043  -0.000000  -0.000003   0.000709
     7  H   -0.000005   0.006952  -0.023262   0.001355   0.004088   0.035305
     8  H    0.000014   0.005061   0.004360   0.000002  -0.000061  -0.000505
     9  H   -0.000285  -0.040104   0.009540   0.001040   0.000234   0.003472
    10  C    0.430418  -0.013820  -0.143272  -0.000893   0.000705   0.097838
    11  H   -0.017768   0.003159   0.001199  -0.000022   0.000000   0.000257
    12  H   -0.020259  -0.000013   0.000190   0.000001  -0.000001  -0.001234
    13  H    0.489307  -0.000805   0.001517  -0.000002  -0.000001  -0.000151
    14  N   -0.000805   7.106810   0.054606  -0.060561  -0.082775   0.415865
    15  C    0.001517   0.054606   6.759641   0.430323   0.433419  -0.919192
    16  H   -0.000002  -0.060561   0.430323   0.496087  -0.018708  -0.053779
    17  H   -0.000001  -0.082775   0.433419  -0.018708   0.407794  -0.020502
    18  C   -0.000151   0.415865  -0.919192  -0.053779  -0.020502   7.716370
    19  H   -0.000002  -0.017609  -0.006787  -0.002882   0.003513   0.421197
    20  H   -0.000000  -0.001799  -0.013191  -0.005720  -0.002283   0.374835
    21  C    0.000219  -0.177392   0.138926   0.002638  -0.012620  -1.137157
    22  H   -0.000000   0.000208  -0.009001  -0.000070   0.000715   0.008325
    23  H   -0.000000   0.003653   0.006128  -0.000045  -0.000217  -0.050509
    24  S   -0.000406  -0.079987   0.009136   0.005231   0.003223   0.116740
    25  O   -0.000004  -0.059557   0.009277   0.000001   0.000563  -0.138152
    26  O   -0.000131   0.044256  -0.029308   0.000665  -0.002356   0.159627
    27  O   -0.000065   0.044332  -0.019025   0.001544   0.006271   0.090266
    28  P    0.000468  -0.007552  -0.001871  -0.000044  -0.000045  -0.007895
    29  O   -0.001655   0.004690   0.001574   0.000005  -0.000031   0.004312
    30  O   -0.000024   0.001836   0.000827   0.000000  -0.000000   0.000910
    31  H    0.000004  -0.001356  -0.000957   0.000000   0.000001  -0.000276
    32  O    0.000524  -0.000264   0.000280  -0.000000  -0.000001  -0.000363
    33  H   -0.000012   0.000014   0.000022  -0.000000  -0.000000  -0.000017
    34  O   -0.001746  -0.008827   0.002689   0.000012   0.000009  -0.008882
    35  H   -0.000342   0.013491   0.000425  -0.000018  -0.000015   0.010894
    36  O   -0.000003   0.006883   0.008923  -0.000001  -0.000037   0.000072
    37  H    0.000000  -0.001576  -0.002320   0.000000   0.000010  -0.000302
    38  H    0.000000  -0.001408  -0.003880   0.000000   0.000010   0.000454
    39  O    0.000000   0.037078  -0.028436   0.000179   0.007836   0.057599
    40  H   -0.000000   0.000241  -0.015547   0.000073   0.000728   0.007441
    41  H   -0.000000   0.000606   0.024386   0.000122  -0.001743  -0.044330
    42  O   -0.000010  -0.009653  -0.001805  -0.000005  -0.000105   0.010366
    43  H    0.000009  -0.001132   0.001113   0.000002   0.000015  -0.004071
    44  H    0.000001   0.005702   0.003214  -0.000005   0.000472  -0.018635
    45  O   -0.000000   0.000894   0.011772  -0.000022  -0.000993  -0.007266
    46  H   -0.000000   0.000755  -0.000603   0.000001   0.000002   0.000396
    47  H    0.000000  -0.000116  -0.006434   0.000005   0.000110   0.003572
              19         20         21         22         23         24
     1  C    0.016618   0.001010   0.467127   0.000671   0.000569  -0.317022
     2  C   -0.007900   0.003300  -0.366495   0.004546   0.001413   0.514655
     3  C   -0.002090  -0.000875   0.260148  -0.002375  -0.001179  -0.398705
     4  C   -0.011670  -0.005643  -0.634399   0.003928   0.003129   0.803371
     5  C   -0.016275   0.015995   0.938502  -0.016842  -0.003540  -0.934210
     6  H   -0.000002   0.000000  -0.000307   0.000000   0.000000   0.001232
     7  H   -0.000115  -0.000119  -0.026336   0.000331   0.000005   0.012084
     8  H    0.000000  -0.000000   0.000974  -0.000005  -0.000000  -0.002307
     9  H    0.006082  -0.000609  -0.013648   0.000095   0.000082   0.014154
    10  C    0.002837  -0.000494  -0.040788   0.000355   0.000181   0.034383
    11  H    0.000033  -0.000000  -0.000055  -0.000000  -0.000000  -0.000190
    12  H   -0.000001   0.000001   0.001185   0.000000  -0.000001  -0.001218
    13  H   -0.000002  -0.000000   0.000219  -0.000000  -0.000000  -0.000406
    14  N   -0.017609  -0.001799  -0.177392   0.000208   0.003653  -0.079987
    15  C   -0.006787  -0.013191   0.138926  -0.009001   0.006128   0.009136
    16  H   -0.002882  -0.005720   0.002638  -0.000070  -0.000045   0.005231
    17  H    0.003513  -0.002283  -0.012620   0.000715  -0.000217   0.003223
    18  C    0.421197   0.374835  -1.137157   0.008325  -0.050509   0.116740
    19  H    0.501630  -0.028828  -0.031715   0.003943  -0.005583   0.010231
    20  H   -0.028828   0.503120  -0.013374  -0.005379  -0.004393  -0.000674
    21  C   -0.031715  -0.013374   7.717268   0.413877   0.397685  -0.831956
    22  H    0.003943  -0.005379   0.413877   0.427472  -0.023396  -0.062554
    23  H   -0.005583  -0.004393   0.397685  -0.023396   0.459377  -0.020970
    24  S    0.010231  -0.000674  -0.831956  -0.062554  -0.020970  15.287441
    25  O    0.001517   0.000046  -0.025626  -0.002246   0.007361   0.376826
    26  O   -0.012909  -0.000253  -0.354573  -0.000978   0.012783   0.205482
    27  O    0.002685   0.000097  -0.182619   0.022687  -0.003526   0.105380
    28  P    0.000135   0.000010   0.012242  -0.000173   0.000186  -0.007633
    29  O   -0.000058   0.000000  -0.010880  -0.000000   0.000002  -0.000773
    30  O    0.000000   0.000000  -0.002175   0.000008   0.000002   0.006010
    31  H   -0.000000  -0.000000   0.003882  -0.000004  -0.000005   0.006290
    32  O    0.000000  -0.000000   0.000040  -0.000000   0.000000  -0.001306
    33  H    0.000000  -0.000000   0.000101   0.000000  -0.000000   0.000742
    34  O    0.000107  -0.000009   0.006396  -0.000033  -0.000023  -0.048304
    35  H   -0.000484   0.000017   0.002127   0.000104   0.000040   0.059218
    36  O    0.000015   0.000002  -0.030690   0.000140   0.000109  -0.045841
    37  H   -0.000001  -0.000000   0.006023  -0.000014  -0.000017   0.018200
    38  H   -0.000015  -0.000001   0.019077  -0.000116  -0.000050   0.028655
    39  O   -0.000501  -0.000103  -0.009441  -0.000227  -0.000023  -0.018778
    40  H   -0.000002  -0.000004  -0.005653   0.000108   0.000006   0.003305
    41  H    0.000285  -0.000054  -0.007522   0.000309   0.000267   0.028388
    42  O   -0.000006  -0.000006  -0.028515   0.000097   0.000090  -0.038774
    43  H    0.000006   0.000000   0.004030  -0.000009  -0.000005   0.001918
    44  H    0.000010   0.000016   0.038895  -0.000283  -0.000110   0.011229
    45  O   -0.000000   0.000003   0.002281  -0.000035   0.000002  -0.010184
    46  H   -0.000000  -0.000000  -0.000102   0.000002   0.000000   0.000112
    47  H   -0.000002  -0.000001  -0.002848   0.000036  -0.000000   0.009910
              25         26         27         28         29         30
     1  C    0.023122  -0.061455  -0.461697   0.110758  -0.053900  -0.019099
     2  C    0.013542   0.078285   0.222091  -0.075436  -0.023820   0.022204
     3  C    0.010797  -0.098757  -0.075294  -0.050327  -0.020119  -0.025689
     4  C    0.043112   0.163896   0.055979   0.074604  -0.020768   0.013948
     5  C   -0.015169  -0.168870  -0.032264  -0.041153   0.058201   0.003473
     6  H    0.000013   0.000031  -0.000211   0.005373  -0.018049   0.000084
     7  H   -0.001271   0.004405   0.025908  -0.001173   0.000662   0.000010
     8  H    0.000008  -0.000728  -0.002189  -0.000504  -0.000574   0.000030
     9  H    0.000242  -0.008174   0.000413   0.000574  -0.000095  -0.000023
    10  C    0.000683  -0.007165   0.008680  -0.000190   0.001003   0.000204
    11  H   -0.000002  -0.000302   0.000011   0.002096  -0.000116  -0.000002
    12  H   -0.000102   0.001530  -0.000044  -0.007398  -0.000420   0.000129
    13  H   -0.000004  -0.000131  -0.000065   0.000468  -0.001655  -0.000024
    14  N   -0.059557   0.044256   0.044332  -0.007552   0.004690   0.001836
    15  C    0.009277  -0.029308  -0.019025  -0.001871   0.001574   0.000827
    16  H    0.000001   0.000665   0.001544  -0.000044   0.000005   0.000000
    17  H    0.000563  -0.002356   0.006271  -0.000045  -0.000031  -0.000000
    18  C   -0.138152   0.159627   0.090266  -0.007895   0.004312   0.000910
    19  H    0.001517  -0.012909   0.002685   0.000135  -0.000058   0.000000
    20  H    0.000046  -0.000253   0.000097   0.000010   0.000000   0.000000
    21  C   -0.025626  -0.354573  -0.182619   0.012242  -0.010880  -0.002175
    22  H   -0.002246  -0.000978   0.022687  -0.000173  -0.000000   0.000008
    23  H    0.007361   0.012783  -0.003526   0.000186   0.000002   0.000002
[...]
 Quadrupole moment (field-independent basis, Debye-Ang):
   XX=             -4.4949   YY=            -61.3194   ZZ=            -14.6533
   XY=            -21.5232   XZ=             -1.7002   YZ=            -28.4193
 Traceless Quadrupole moment (field-independent basis, Debye-Ang):
   XX=             22.3276   YY=            -34.4969   ZZ=             12.1692
   XY=            -21.5232   XZ=             -1.7002   YZ=            -28.4193
 Octapole moment (field-independent basis, Debye-Ang**2):
  XXX=           -173.3478  YYY=          -1318.4425  ZZZ=           -335.4265  XYY=           -640.9129
  XXY=           -302.4838  XXZ=            -60.7954  XZZ=           -109.3081  YZZ=           -444.0212
  YYZ=           -738.4035  XYZ=           -270.6402
 Hexadecapole moment (field-independent basis, Debye-Ang**3):
 XXXX=          -3892.7143 YYYY=         -25005.8667 ZZZZ=          -6291.2630 XXXY=          -4882.9063
 XXXZ=          -1840.5631 YYYX=         -13894.2715 YYYZ=         -15293.6209 ZZZX=          -2861.7533
 ZZZY=          -7147.8752 XXYY=          -7803.2851 XXZZ=          -1444.3524 YYZZ=          -9815.4141
 XXYZ=          -3466.9854 YYXZ=          -7469.1512 ZZXY=          -4150.0871
 N-N= 8.973973160206D+00 E-N=-1.987761825804D+02  KE= 7.614884953185D+01
 No NMR shielding tensors so no spin-rotation constants.
 Leave Link  601 at Mon May 16 22:19:01 2022, MaxMem=  2684354560 cpu:               2.6 elap:               0.2
 (Enter /data0/hywu0/study/g16/l122.exe)
 CPIOFr:  IOpCl= 0 IRwI=-1 IRwCP=  731 ICalc= 11 LCPTot=      933817 Len1MO=     2456107 IndFrg=    30407101
 Counterpoise: doing calculation for fragment   6 using the basis set of the fragment.
 Leave Link  122 at Mon May 16 22:19:01 2022, MaxMem=  2684354560 cpu:               0.5 elap:               0.0
 (Enter /data0/hywu0/study/g16/l301.exe)
 Basis read from rwf:  (5D, 7F)
 No pseudopotential information found on rwf file.
    39 basis functions,    58 primitive gaussians,    41 cartesian basis functions
     5 alpha electrons        5 beta electrons
       nuclear repulsion energy         9.0793442529 Hartrees.
 IExCor= 4336 DFT=T Ex+Corr=M062X ExCW=0 ScaHFX=  0.540000
 ScaDFX=  1.000000  1.000000  1.000000  1.000000 ScalE2=  1.000000  1.000000
 IRadAn=      5 IRanWt=     -1 IRanGd=            0 ICorTp=0 IEmpDi=131
 NAtoms=   47 NActive=    3 NUniq=    3 SFac= 1.00D+00 NAtFMM=   60 NAOKFM=F Big=F
 Integral buffers will be    131072 words long.
 Raffenetti 2 integral format.
 Two-electron integral symmetry is turned off.
 R6Disp:  Grimme-D3 Dispersion energy=       -0.0000000082 Hartrees.
 Nuclear repulsion after empirical dispersion term =        9.0793442448 Hartrees.
 No density basis found on file   718.
 Leave Link  301 at Mon May 16 22:19:01 2022, MaxMem=  2684354560 cpu:               0.9 elap:               0.1
 (Enter /data0/hywu0/study/g16/l302.exe)
 NPDir=0 NMtPBC=     1 NCelOv=     1 NCel=       1 NClECP=     1 NCelD=      1
         NCelK=      1 NCelE2=     1 NClLst=     1 CellRange=     0.0.
 One-electron integrals computed using PRISM.
 NBasis=    39 RedAO= T EigKep=  3.10D-03  NBF=    39
 NBsUse=    39 1.00D-06 EigRej= -1.00D+00 NBFU=    39
 Precomputing XC quadrature grid using
 IXCGrd= 4 IRadAn=           5 IRanWt=          -1 IRanGd=           0 AccXCQ= 0.00D+00.
 Generated NRdTot=       0 NPtTot=           0 NUsed=           0 NTot=          32
 NSgBfM=    41    41    41    41    41 MxSgAt=     3 MxSgA2=     3.
 Leave Link  302 at Mon May 16 22:19:01 2022, MaxMem=  2684354560 cpu:               6.7 elap:               0.5
 (Enter /data0/hywu0/study/g16/l303.exe)
 DipDrv:  MaxL=1.
 Leave Link  303 at Mon May 16 22:19:01 2022, MaxMem=  2684354560 cpu:               0.6 elap:               0.0
 (Enter /data0/hywu0/study/g16/l401.exe)
 ExpMin= 8.45D-02 ExpMax= 8.59D+03 ExpMxC= 1.30D+03 IAcc=3 IRadAn=         5 AccDes= 0.00D+00
 Harris functional with IExCor= 1009 and IRadAn=       5 diagonalized for initial guess.
 HarFok:  IExCor= 1009 AccDes= 0.00D+00 IRadAn=         5 IDoV= 1 UseB2=F ITyADJ=14
 ICtDFT=  3500011 ScaDFX=  1.000000  1.000000  1.000000  1.000000
 FoFCou: FMM=F IPFlag=           0 FMFlag=      100000 FMFlg1=           0
         NFxFlg=           0 DoJE=T BraDBF=F KetDBF=T FulRan=T
         wScrn=  0.000000 ICntrl=       500 IOpCl=  0 I1Cent=   200000004 NGrid=           0
         NMat0=    1 NMatS0=      1 NMatT0=    0 NMatD0=    1 NMtDS0=    0 NMtDT0=    0
 Symmetry not used in FoFCou.
 Harris En= -76.4160292992053    
 JPrj=0 DoOrth=F DoCkMO=F.
 Leave Link  401 at Mon May 16 22:19:01 2022, MaxMem=  2684354560 cpu:               2.1 elap:               0.1
 (Enter /data0/hywu0/study/g16/l502.exe)
 Keep R1 ints in memory in canonical form, NReq=14139100.
 FoFCou: FMM=F IPFlag=           0 FMFlag=           0 FMFlg1=           0
         NFxFlg=           0 DoJE=F BraDBF=F KetDBF=F FulRan=T
         wScrn=  0.000000 ICntrl=       600 IOpCl=  0 I1Cent=           0 NGrid=           0
         NMat0=    1 NMatS0=    780 NMatT0=    0 NMatD0=    1 NMtDS0=    0 NMtDT0=    0
 Symmetry not used in FoFCou.
 Two-electron integral symmetry not used.
 Closed shell SCF:
 Using DIIS extrapolation, IDIIS=  1040.
 NGot=  2684354560 LenX=  2684044118 LenY=  2684041996
 Requested convergence on RMS density matrix=1.00D-08 within 128 cycles.
 Requested convergence on MAX density matrix=1.00D-06.
 Requested convergence on             energy=1.00D-06.
 No special actions if energy rises.
 Integral accuracy reduced to 1.0D-05 until final iterations.

 Cycle   1  Pass 0  IDiag  1:
 E= -76.3458181244494    
 DIIS: error= 7.01D-02 at cycle   1 NSaved=   1.
 NSaved= 1 IEnMin= 1 EnMin= -76.3458181244494     IErMin= 1 ErrMin= 7.01D-02
 ErrMax= 7.01D-02  0.00D+00 EMaxC= 1.00D-01 BMatC= 1.21D-01 BMatP= 1.21D-01
 IDIUse=3 WtCom= 2.99D-01 WtEn= 7.01D-01
 Coeff-Com:  0.100D+01
 Coeff-En:   0.100D+01
 Coeff:      0.100D+01
 Gap=     0.324 Goal=   None    Shift=    0.000
 GapD=    0.324 DampG=1.000 DampE=0.500 DampFc=0.5000 IDamp=-1.
 Damping current iteration by 5.00D-01
 RMSDP=7.88D-03 MaxDP=1.01D-01              OVMax= 1.68D-01

 Cycle   2  Pass 0  IDiag  1:
 E= -76.3771706423397     Delta-E=       -0.031352517890 Rises=F Damp=T
 DIIS: error= 1.12D-02 at cycle   2 NSaved=   2.
 NSaved= 2 IEnMin= 2 EnMin= -76.3771706423397     IErMin= 2 ErrMin= 1.12D-02
 ErrMax= 1.12D-02  0.00D+00 EMaxC= 1.00D-01 BMatC= 4.87D-03 BMatP= 1.21D-01
 IDIUse=3 WtCom= 8.88D-01 WtEn= 1.12D-01
 Coeff-Com:  0.834D-01 0.917D+00
 Coeff-En:   0.189D+00 0.811D+00
 Coeff:      0.952D-01 0.905D+00
 Gap=     0.456 Goal=   None    Shift=    0.000
 RMSDP=9.45D-04 MaxDP=1.41D-02 DE=-3.14D-02 OVMax= 1.01D-01

 Cycle   3  Pass 0  IDiag  1:
 E= -76.4211736201214     Delta-E=       -0.044002977782 Rises=F Damp=F
 DIIS: error= 2.21D-03 at cycle   3 NSaved=   3.
 NSaved= 3 IEnMin= 3 EnMin= -76.4211736201214     IErMin= 3 ErrMin= 2.21D-03
 ErrMax= 2.21D-03  0.00D+00 EMaxC= 1.00D-01 BMatC= 9.42D-05 BMatP= 4.87D-03
 IDIUse=3 WtCom= 9.78D-01 WtEn= 2.21D-02
 Coeff-Com: -0.201D-01 0.409D-01 0.979D+00
 Coeff-En:   0.000D+00 0.000D+00 0.100D+01
 Coeff:     -0.197D-01 0.400D-01 0.980D+00
 Gap=     0.461 Goal=   None    Shift=    0.000
 RMSDP=1.16D-04 MaxDP=1.04D-03 DE=-4.40D-02 OVMax= 3.35D-03

 Cycle   4  Pass 0  IDiag  1:
 E= -76.4212536860805     Delta-E=       -0.000080065959 Rises=F Damp=F
 DIIS: error= 4.19D-04 at cycle   4 NSaved=   4.
 NSaved= 4 IEnMin= 4 EnMin= -76.4212536860805     IErMin= 4 ErrMin= 4.19D-04
 ErrMax= 4.19D-04  0.00D+00 EMaxC= 1.00D-01 BMatC= 3.41D-06 BMatP= 9.42D-05
 IDIUse=3 WtCom= 9.96D-01 WtEn= 4.19D-03
 Coeff-Com: -0.202D-02-0.207D-02 0.166D+00 0.838D+00
 Coeff-En:   0.000D+00 0.000D+00 0.000D+00 0.100D+01
 Coeff:     -0.201D-02-0.207D-02 0.165D+00 0.839D+00
 Gap=     0.461 Goal=   None    Shift=    0.000
 RMSDP=2.23D-05 MaxDP=3.55D-04 DE=-8.01D-05 OVMax= 5.40D-04

 Cycle   5  Pass 0  IDiag  1:
 E= -76.4212557891584     Delta-E=       -0.000002103078 Rises=F Damp=F
 DIIS: error= 9.12D-05 at cycle   5 NSaved=   5.
 NSaved= 5 IEnMin= 5 EnMin= -76.4212557891584     IErMin= 5 ErrMin= 9.12D-05
 ErrMax= 9.12D-05  0.00D+00 EMaxC= 1.00D-01 BMatC= 8.64D-08 BMatP= 3.41D-06
 IDIUse=1 WtCom= 1.00D+00 WtEn= 0.00D+00
 Coeff-Com:  0.119D-02-0.183D-02-0.368D-01-0.706D-01 0.111D+01
 Coeff:      0.119D-02-0.183D-02-0.368D-01-0.706D-01 0.111D+01
 Gap=     0.462 Goal=   None    Shift=    0.000
 RMSDP=9.15D-06 MaxDP=1.04D-04 DE=-2.10D-06 OVMax= 2.07D-04

 Initial convergence to 1.0D-05 achieved.  Increase integral accuracy.
 Cycle   6  Pass 1  IDiag  1:
 E= -76.4212453381607     Delta-E=        0.000010450998 Rises=F Damp=F
 DIIS: error= 1.42D-05 at cycle   1 NSaved=   1.
 NSaved= 1 IEnMin= 1 EnMin= -76.4212453381607     IErMin= 1 ErrMin= 1.42D-05
 ErrMax= 1.42D-05  0.00D+00 EMaxC= 1.00D-01 BMatC= 9.18D-09 BMatP= 9.18D-09
 IDIUse=1 WtCom= 1.00D+00 WtEn= 0.00D+00
 Coeff-Com:  0.100D+01
 Coeff:      0.100D+01
 Gap=     0.461 Goal=   None    Shift=    0.000
 RMSDP=9.15D-06 MaxDP=1.04D-04 DE= 1.05D-05 OVMax= 4.78D-05

 Cycle   7  Pass 1  IDiag  1:
 E= -76.4212453456214     Delta-E=       -0.000000007461 Rises=F Damp=F
 DIIS: error= 1.36D-05 at cycle   2 NSaved=   2.
 NSaved= 2 IEnMin= 2 EnMin= -76.4212453456214     IErMin= 2 ErrMin= 1.36D-05
 ErrMax= 1.36D-05  0.00D+00 EMaxC= 1.00D-01 BMatC= 2.54D-09 BMatP= 9.18D-09
 IDIUse=1 WtCom= 1.00D+00 WtEn= 0.00D+00
 Coeff-Com:  0.258D+00 0.742D+00
 Coeff:      0.258D+00 0.742D+00
 Gap=     0.462 Goal=   None    Shift=    0.000
 RMSDP=8.53D-07 MaxDP=1.43D-05 DE=-7.46D-09 OVMax= 2.27D-05

 Cycle   8  Pass 1  IDiag  1:
 E= -76.4212453468270     Delta-E=       -0.000000001206 Rises=F Damp=F
 DIIS: error= 5.55D-06 at cycle   3 NSaved=   3.
 NSaved= 3 IEnMin= 3 EnMin= -76.4212453468270     IErMin= 3 ErrMin= 5.55D-06
 ErrMax= 5.55D-06  0.00D+00 EMaxC= 1.00D-01 BMatC= 9.73D-10 BMatP= 2.54D-09
 IDIUse=1 WtCom= 1.00D+00 WtEn= 0.00D+00
 Coeff-Com: -0.547D-01 0.378D+00 0.677D+00
 Coeff:     -0.547D-01 0.378D+00 0.677D+00
 Gap=     0.462 Goal=   None    Shift=    0.000
 RMSDP=3.69D-07 MaxDP=5.11D-06 DE=-1.21D-09 OVMax= 9.68D-06

 Cycle   9  Pass 1  IDiag  1:
 E= -76.4212453475009     Delta-E=       -0.000000000674 Rises=F Damp=F
 DIIS: error= 4.29D-07 at cycle   4 NSaved=   4.
 NSaved= 4 IEnMin= 4 EnMin= -76.4212453475009     IErMin= 4 ErrMin= 4.29D-07
 ErrMax= 4.29D-07  0.00D+00 EMaxC= 1.00D-01 BMatC= 2.86D-12 BMatP= 9.73D-10
 IDIUse=1 WtCom= 1.00D+00 WtEn= 0.00D+00
 Coeff-Com: -0.330D-03-0.427D-01-0.614D-01 0.110D+01
 Coeff:     -0.330D-03-0.427D-01-0.614D-01 0.110D+01
 Gap=     0.462 Goal=   None    Shift=    0.000
 RMSDP=7.29D-08 MaxDP=5.97D-07 DE=-6.74D-10 OVMax= 1.70D-06

 Cycle  10  Pass 1  IDiag  1:
 E= -76.4212453475085     Delta-E=       -0.000000000008 Rises=F Damp=F
 DIIS: error= 8.86D-08 at cycle   5 NSaved=   5.
 NSaved= 5 IEnMin= 5 EnMin= -76.4212453475085     IErMin= 5 ErrMin= 8.86D-08
 ErrMax= 8.86D-08  0.00D+00 EMaxC= 1.00D-01 BMatC= 2.62D-13 BMatP= 2.86D-12
 IDIUse=1 WtCom= 1.00D+00 WtEn= 0.00D+00
 Coeff-Com:  0.315D-02-0.309D-01-0.504D-01 0.168D+00 0.910D+00
 Coeff:      0.315D-02-0.309D-01-0.504D-01 0.168D+00 0.910D+00
 Gap=     0.462 Goal=   None    Shift=    0.000
 RMSDP=1.77D-08 MaxDP=1.48D-07 DE=-7.53D-12 OVMax= 3.71D-07

 Cycle  11  Pass 1  IDiag  1:
 E= -76.4212453475087     Delta-E=       -0.000000000000 Rises=F Damp=F
 DIIS: error= 1.55D-08 at cycle   6 NSaved=   6.
 NSaved= 6 IEnMin= 6 EnMin= -76.4212453475087     IErMin= 6 ErrMin= 1.55D-08
 ErrMax= 1.55D-08  0.00D+00 EMaxC= 1.00D-01 BMatC= 4.49D-15 BMatP= 2.62D-13
 IDIUse=1 WtCom= 1.00D+00 WtEn= 0.00D+00
 Coeff-Com: -0.205D-04 0.116D-02 0.316D-02-0.298D-01-0.309D-01 0.106D+01
 Coeff:     -0.205D-04 0.116D-02 0.316D-02-0.298D-01-0.309D-01 0.106D+01
 Gap=     0.462 Goal=   None    Shift=    0.000
 RMSDP=2.77D-09 MaxDP=2.48D-08 DE=-2.13D-13 OVMax= 5.73D-08

 SCF Done:  E(RM062X) =  -76.4212453475     A.U. after   11 cycles
            NFock= 11  Conv=0.28D-08     -V/T= 2.0031
 KE= 7.618654692266D+01 PE=-1.990072604537D+02 EE= 3.732012393882D+01
 Leave Link  502 at Mon May 16 22:19:02 2022, MaxMem=  2684354560 cpu:               7.7 elap:               0.5
 (Enter /data0/hywu0/study/g16/l601.exe)
 Copying SCF densities to generalized density rwf, IOpCl= 0 IROHF=0.

 **********************************************************************

            Population analysis using the SCF density.

 **********************************************************************

 Alpha  occ. eigenvalues --  -19.62610  -1.13202  -0.60761  -0.47345  -0.39947
 Alpha virt. eigenvalues --    0.06205   0.13278   0.17397   0.17954   0.18953
 Alpha virt. eigenvalues --    0.23248   0.50471   0.53725   0.97822   1.00374
 Alpha virt. eigenvalues --    1.06034   1.18971   1.19713   1.32586   1.33996
 Alpha virt. eigenvalues --    1.69036   1.73765   1.75851   2.06689   2.09837
 Alpha virt. eigenvalues --    2.34797   2.42510   2.54119   2.87819   3.01094
 Alpha virt. eigenvalues --    5.05679   5.46809   5.92170   6.78201   6.80360
 Alpha virt. eigenvalues --    6.86982   6.91423   7.09827  49.95691
          Condensed to atoms (all electrons):
              45         46         47
    45  O    7.918228   0.323747   0.317541
    46  H    0.323747   0.423666  -0.024380
    47  H    0.317541  -0.024380   0.424290
 Mulliken charges:
               1
     1  C    0.000000
     2  C    0.000000
     3  C    0.000000
     4  C    0.000000
     5  C    0.000000
     6  H    0.000000
     7  H    0.000000
     8  H    0.000000
     9  H    0.000000
    10  C    0.000000
    11  H    0.000000
    12  H    0.000000
    13  H    0.000000
    14  N    0.000000
    15  C    0.000000
    16  H    0.000000
    17  H    0.000000
    18  C    0.000000
    19  H    0.000000
    20  H    0.000000
    21  C    0.000000
    22  H    0.000000
    23  H    0.000000
    24  S    0.000000
    25  O    0.000000
    26  O    0.000000
    27  O    0.000000
    28  P    0.000000
    29  O    0.000000
    30  O    0.000000
    31  H    0.000000
    32  O    0.000000
    33  H    0.000000
    34  O    0.000000
    35  H    0.000000
    36  O    0.000000
    37  H    0.000000
    38  H    0.000000
    39  O    0.000000
    40  H    0.000000
    41  H    0.000000
    42  O    0.000000
    43  H    0.000000
    44  H    0.000000
    45  O   -0.559516
    46  H    0.276967
    47  H    0.282549
 Sum of Mulliken charges =  -0.00000
 Mulliken charges with hydrogens summed into heavy atoms:
               1
     1  C    0.000000
     2  C    0.000000
     3  C    0.000000
     4  C    0.000000
     5  C    0.000000
    10  C    0.000000
    14  N    0.000000
    15  C    0.000000
    18  C    0.000000
    21  C    0.000000
    24  S    0.000000
    25  O    0.000000
    26  O    0.000000
    27  O    0.000000
    28  P    0.000000
    29  O    0.000000
    30  O    0.000000
    32  O    0.000000
    34  O    0.000000
    36  O    0.000000
    39  O    0.000000
    42  O    0.000000
    45  O   -0.000000
         Mulliken charges condensed to fragments:
      1      0.000000
      2      0.000000
      3      0.000000
      4      0.000000
      5      0.000000
      6     -0.000000
 Electronic spatial extent (au):  <R**2>=          14212.6375
 Charge=             -0.0000 electrons
 Dipole moment (field-independent basis, Debye):
    X=              1.5766    Y=              1.3991    Z=             -0.0515  Tot=              2.1085
 Quadrupole moment (field-independent basis, Debye-Ang):
   XX=             20.2487   YY=             32.3927   ZZ=             -8.3021
   XY=             32.3058   XZ=             17.6586   YZ=             17.1720
 Traceless Quadrupole moment (field-independent basis, Debye-Ang):
   XX=              5.4689   YY=             17.6129   ZZ=            -23.0818
   XY=             32.3058   XZ=             17.6586   YZ=             17.1720
 Octapole moment (field-independent basis, Debye-Ang**2):
  XXX=            181.1146  YYY=            547.0218  ZZZ=           -278.1338  XYY=            540.5734
  XXY=            359.3938  XXZ=            224.8410  XZZ=            138.8255  YZZ=            115.0646
  YYZ=            408.6541  XYZ=            379.4578
 Hexadecapole moment (field-independent basis, Debye-Ang**3):
 XXXX=           1242.0115 YYYY=           7880.2544 ZZZZ=          -6540.6806 XXXY=           3109.5376
 XXXZ=           1952.6628 YYYX=           8109.3891 YYYZ=           7036.2113 ZZZX=             81.4799
 ZZZY=           -878.6094 XXYY=           5645.2902 XXZZ=           2002.8178 YYZZ=           3847.6264
 XXYZ=           4139.7954 YYXZ=           6496.6713 ZZXY=           3671.0268
 N-N= 9.079344244750D+00 E-N=-1.990072607351D+02  KE= 7.618654692266D+01
 No NMR shielding tensors so no spin-rotation constants.
 Leave Link  601 at Mon May 16 22:19:02 2022, MaxMem=  2684354560 cpu:               1.3 elap:               0.1
 (Enter /data0/hywu0/study/g16/l122.exe)
 CPIOFr:  IOpCl= 0 IRwI=-1 IRwCP=  731 ICalc= 12 LCPTot=      933817 Len1MO=     2456107 IndFrg=    32863208
 Restoring MOs from calculation   1 to rwf.
 CPIOFr:  IOpCl= 0 IRwI=-2 IRwCP=  731 ICalc=  0 LCPTot=      933817 Len1MO=     2456107 IndFrg=     3389924
 Counterpoise corrected energy =   -1979.244036590126
                   BSSE energy =       0.011162599041
              sum of fragments =   -1979.100627062554
           complexation energy =     -97.00 kcal/mole (raw)
           complexation energy =     -89.99 kcal/mole (corrected)
 Leave Link  122 at Mon May 16 22:19:02 2022, MaxMem=  2684354560 cpu:               0.8 elap:               0.1
 (Enter /data0/hywu0/study/g16/l9999.exe)
 1\1\GINC-LOCALHOST\SP\RM062X\6-311+G(2d,p)\C9H24N1O11P1S1\HYWU0\16-May
 -2022\0\\#p M062X/6-311+G(2d,p) nosymm em=GD3 counterpoise=6\\Title Ca
 rd Required\\0,1\C,0,8.175345,10.466769,11.169255\C,0,9.072563,10.4082
 52,12.235161\C,0,9.837915,9.266034,12.443004\C,0,9.7077,8.189379,11.55
 2713\C,0,8.820692,8.294221,10.48062\H,0,10.542256,9.212386,13.280805\H
 ,0,7.555671,11.365472,10.991104\H,0,9.184838,11.287287,12.879314\H,0,8
 .750344,7.499684,9.728224\C,0,10.528162,6.960324,11.693283\H,0,9.92286
 1,6.050058,11.77148\H,0,11.200996,6.83992,10.818276\H,0,11.197826,6.99
 4199,12.567287\N,0,8.046919,9.408556,10.31922\C,0,7.078757,9.49502,9.1
 98412\H,0,6.215387,8.83478,9.443723\H,0,6.673783,10.543322,9.146104\C,
 0,7.65419,9.113907,7.820019\H,0,8.246355,8.174729,7.882331\H,0,6.79724
 4,8.867256,7.154531\C,0,8.483817,10.213852,7.16529\H,0,7.882947,11.133
 817,7.02434\H,0,8.796165,9.909985,6.149224\S,0,9.940442,10.610466,8.14
 7975\O,0,10.931477,11.295469,7.321094\O,0,10.3601,9.302262,8.721606\O,
 0,9.361534,11.506914,9.211485\P,0,13.06715,9.934052,11.01217\O,0,11.95
 6018,10.567469,11.735798\O,0,14.064622,10.855554,10.203841\H,0,13.5358
 45,11.623217,9.702193\O,0,14.050778,9.211341,12.043625\H,0,14.848232,8
 .843774,11.50298\O,0,12.699427,8.739469,10.042133\H,0,11.803868,8.9626
 93,9.51951\O,0,12.71764,12.879331,8.878825\H,0,12.045258,13.165905,9.5
 10469\H,0,12.209927,12.420413,8.178345\O,0,6.99193,12.912301,9.497603\
 H,0,7.193136,13.328503,10.343448\H,0,7.853634,12.541908,9.23185\O,0,10
 .585334,13.097865,10.955961\H,0,11.093028,12.419983,11.421373\H,0,10.1
 22836,12.567151,10.250209\O,0,8.15789,13.526117,12.072719\H,0,8.137648
 ,14.418704,12.401065\H,0,9.069524,13.409953,11.710028\\Version=ES64L-G
 16RevA.03\HF=-76.4212453\RMSD=2.770e-09\Dipole=-2.2572087,-2.642129,0.
 3401769\Quadrupole=-33.0963789,-41.0361685,74.1325474,-92.1308089,-30.
 8519176,-37.6724765\PG=C01 [X(C9H24N1O11P1S1)]\\@


 IT CANNOT BE MY BEAUTY, FOR I HAVE NONE; AND IT CANNOT BE MY WIT,
 FOR HE HAS NOT ENOUGH TO KNOW THAT I HAVE ANY.
 -- CATHARINE SEDLEY, PUZZLED ABOUT WHY SHE WAS MISTRESS TO JAMES II
 Job cpu time:       0 days 15 hours 15 minutes 56.8 seconds.
 Elapsed time:       0 days  0 hours 57 minutes 29.9 seconds.
 File lengths (MBytes):  RWF=    631 Int=      0 D2E=      0 Chk=    285 Scr=      1
 Normal termination of Gaussian 16 at Mon May 16 22:19:03 2022.
