 Entering Gaussian System, Link 0=g16
 Initial command:
 /data0/home/wuhanyu/software/g16/l1.exe "/data0/home/wuhanyu/software/g16/scratch/Gau-1208019.inp" -scrdir="/data0/home/wuhanyu/software/g16/scratch/"
 Default is to use a total of  26 processors:
                               26 via shared-memory
                                1 via Linda
 Entering Link 1 = /data0/home/wuhanyu/software/g16/l1.exe PID=   1208020.
  
 Copyright (c) 1988,1990,1992,1993,1995,1998,2003,2009,2016,
            Gaussian, Inc.  All Rights Reserved.
  
 This is part of the Gaussian(R) 16 program.  It is based on
 the Gaussian(R) 09 system (copyright 2009, Gaussian, Inc.),
 the Gaussian(R) 03 system (copyright 2003, Gaussian, Inc.),
 the Gaussian(R) 98 system (copyright 1998, Gaussian, Inc.),
 the Gaussian(R) 94 system (copyright 1995, Gaussian, Inc.),
 the Gaussian 92(TM) system (copyright 1992, Gaussian, Inc.),
 the Gaussian 90(TM) system (copyright 1990, Gaussian, Inc.),
 the Gaussian 88(TM) system (copyright 1988, Gaussian, Inc.),
 the Gaussian 86(TM) system (copyright 1986, Carnegie Mellon
 University), and the Gaussian 82(TM) system (copyright 1983,
 Carnegie Mellon University). Gaussian is a federally registered
 trademark of Gaussian, Inc.
  
 This software contains proprietary and confidential information,
 including trade secrets, belonging to Gaussian, Inc.
  
 This software is provided under written license and may be
 used, copied, transmitted, or stored only in accord with that
 written license.
  
 The following legend is applicable only to US Government
 contracts under FAR:
  
                    RESTRICTED RIGHTS LEGEND
  
 Use, reproduction and disclosure by the US Government is
 subject to restrictions as set forth in subparagraphs (a)
 and (c) of the Commercial Computer Software - Restricted
 Rights clause in FAR 52.227-19.
  
 Gaussian, Inc.
 340 Quinnipiac St., Bldg. 40, Wallingford CT 06492
  
  
 ---------------------------------------------------------------
 Warning -- This program may not be used in any manner that
 competes with the business of Gaussian, Inc. or will provide
 assistance to any competitor of Gaussian, Inc.  The licensee
 of this program is prohibited from giving any competitor of
 Gaussian, Inc. access to this program.  By using this program,
 the user acknowledges that Gaussian, Inc. is engaged in the
 business of creating and licensing software in the field of
 computational chemistry and represents and warrants to the
 licensee that it is not a competitor of Gaussian, Inc. and that
 it will not use this program in any manner prohibited above.
 ---------------------------------------------------------------
  

 Cite this work as:
 Gaussian 16, Revision A.03,
 M. J. Frisch, G. W. Trucks, H. B. Schlegel, G. E. Scuseria, 
 M. A. Robb, J. R. Cheeseman, G. Scalmani, V. Barone, 
 G. A. Petersson, H. Nakatsuji, X. Li, M. Caricato, A. V. Marenich, 
 J. Bloino, B. G. Janesko, R. Gomperts, B. Mennucci, H. P. Hratchian, 
 J. V. Ortiz, A. F. Izmaylov, J. L. Sonnenberg, D. Williams-Young, 
 F. Ding, F. Lipparini, F. Egidi, J. Goings, B. Peng, A. Petrone, 
 T. Henderson, D. Ranasinghe, V. G. Zakrzewski, J. Gao, N. Rega, 
 G. Zheng, W. Liang, M. Hada, M. Ehara, K. Toyota, R. Fukuda, 
 J. Hasegawa, M. Ishida, T. Nakajima, Y. Honda, O. Kitao, H. Nakai, 
 T. Vreven, K. Throssell, J. A. Montgomery, Jr., J. E. Peralta, 
 F. Ogliaro, M. J. Bearpark, J. J. Heyd, E. N. Brothers, K. N. Kudin, 
 V. N. Staroverov, T. A. Keith, R. Kobayashi, J. Normand, 
 K. Raghavachari, A. P. Rendell, J. C. Burant, S. S. Iyengar, 
 J. Tomasi, M. Cossi, J. M. Millam, M. Klene, C. Adamo, R. Cammi, 
 J. W. Ochterski, R. L. Martin, K. Morokuma, O. Farkas, 
 J. B. Foresman, and D. J. Fox, Gaussian, Inc., Wallingford CT, 2016.
 
 ******************************************
 Gaussian 16:  ES64L-G16RevA.03 25-Dec-2016
                20-Apr-2022 
 ******************************************
 %chk=MPyPS.chk
 %mem=60000MB
 %nprocshared=16
 Will use up to   16 processors via shared memory.
 -----------------------------------
 #p opt freq B3LYP/6-311G** em=GD3BJ
 -----------------------------------
 1/18=20,19=15,26=3,38=1/1,3;
 2/9=110,12=2,17=6,18=5,40=1/2;
 3/5=4,6=6,7=101,11=2,25=1,30=1,71=1,74=-5,124=41/1,2,3;
 4//1;
 5/5=2,38=5/2;
 6/7=2,8=2,9=2,10=2,28=1/1;
 7//1,2,3,16;
 1/18=20,19=15,26=3/3(2);
 2/9=110/2;
 99//99;
 2/9=110/2;
 3/5=4,6=6,7=101,11=2,25=1,30=1,71=1,74=-5,124=41/1,2,3;
 4/5=5,16=3,69=1/1;
 5/5=2,38=5/2;
 7//1,2,3,16;
 1/18=20,19=15,26=3/3(-5);
 2/9=110/2;
 6/7=2,8=2,9=2,10=2,19=2,28=1/1;
 99/9=1/99;
 Leave Link    1 at Wed Apr 20 08:47:22 2022, MaxMem=  7864320000 cpu:               0.5 elap:               0.0
 (Enter /data0/home/wuhanyu/software/g16/l101.exe)
 -------------------
 Title Card Required
 -------------------
 Symbolic Z-matrix:
 Charge =  0 Multiplicity = 1
 C                    -0.74062   0.76902  -0.77898 
 C                    -1.68595   1.76027  -0.46663 
 C                    -2.91828   1.40072   0.03065 
 C                    -3.21647   0.02915   0.21989 
 C                    -2.26364  -0.91952  -0.10154 
 H                    -3.66596   2.15092   0.29112 
 H                     0.54234   1.03088  -1.11634 
 H                    -1.40162   2.8053   -0.60819 
 H                    -2.43964  -1.98806   0.03625 
 C                    -4.53488  -0.37467   0.77299 
 H                    -4.67798  -1.46363   0.80788 
 H                    -4.6651   -0.00499   1.80462 
 H                    -5.36802   0.03551   0.17987 
 N                    -1.04089  -0.52369  -0.60494 
 C                    -0.03349  -1.56535  -0.91765 
 H                    -0.54937  -2.47959  -1.27928 
 H                     0.59636  -1.2056   -1.77443 
 C                     0.8477   -1.88367   0.30898 
 H                     0.39458  -1.45861   1.23522 
 H                     0.85373  -2.9801    0.47437 
 C                     2.28144  -1.39054   0.15788 
 H                     2.72917  -1.72561  -0.79234 
 H                     2.91952  -1.8188    0.95209 
 S                     2.41317   0.42165   0.2553 
 O                     3.82823   0.72369   0.34805 
 O                     1.51273   0.82492   1.33295 
 O                     1.78312   0.83504  -1.10783 
 
 Add virtual bond connecting atoms C1         and H7         Dist= 2.56D+00.
 Add virtual bond connecting atoms O27        and H7         Dist= 2.37D+00.
 ITRead=  0  0  0  0  0  0  0  0  0  0  0  0  0  0  0  0  0  0  0  0
 ITRead=  0  0  0  0  0  0  0
 MicOpt= -1 -1 -1 -1 -1 -1 -1 -1 -1 -1 -1 -1 -1 -1 -1 -1 -1 -1 -1 -1
 MicOpt= -1 -1 -1 -1 -1 -1 -1
 NAtoms=     27 NQM=       27 NQMF=       0 NMMI=      0 NMMIF=      0
                NMic=       0 NMicF=      0.
                    Isotopes and Nuclear Properties:
 (Nuclear quadrupole moments (NQMom) in fm**2, nuclear magnetic moments (NMagM)
  in nuclear magnetons)

  Atom         1           2           3           4           5           6           7           8           9          10
 IAtWgt=          12          12          12          12          12           1           1           1           1          12
 AtmWgt=  12.0000000  12.0000000  12.0000000  12.0000000  12.0000000   1.0078250   1.0078250   1.0078250   1.0078250  12.0000000
 NucSpn=           0           0           0           0           0           1           1           1           1           0
 AtZEff=  -0.0000000  -0.0000000  -0.0000000  -0.0000000  -0.0000000  -0.0000000  -0.0000000  -0.0000000  -0.0000000  -0.0000000
 NQMom=    0.0000000   0.0000000   0.0000000   0.0000000   0.0000000   0.0000000   0.0000000   0.0000000   0.0000000   0.0000000
 NMagM=    0.0000000   0.0000000   0.0000000   0.0000000   0.0000000   2.7928460   2.7928460   2.7928460   2.7928460   0.0000000
 AtZNuc=   6.0000000   6.0000000   6.0000000   6.0000000   6.0000000   1.0000000   1.0000000   1.0000000   1.0000000   6.0000000

  Atom        11          12          13          14          15          16          17          18          19          20
 IAtWgt=           1           1           1          14          12           1           1          12           1           1
 AtmWgt=   1.0078250   1.0078250   1.0078250  14.0030740  12.0000000   1.0078250   1.0078250  12.0000000   1.0078250   1.0078250
 NucSpn=           1           1           1           2           0           1           1           0           1           1
 AtZEff=  -0.0000000  -0.0000000  -0.0000000  -0.0000000  -0.0000000  -0.0000000  -0.0000000  -0.0000000  -0.0000000  -0.0000000
 NQMom=    0.0000000   0.0000000   0.0000000   2.0440000   0.0000000   0.0000000   0.0000000   0.0000000   0.0000000   0.0000000
 NMagM=    2.7928460   2.7928460   2.7928460   0.4037610   0.0000000   2.7928460   2.7928460   0.0000000   2.7928460   2.7928460
 AtZNuc=   1.0000000   1.0000000   1.0000000   7.0000000   6.0000000   1.0000000   1.0000000   6.0000000   1.0000000   1.0000000

  Atom        21          22          23          24          25          26          27
 IAtWgt=          12           1           1          32          16          16          16
 AtmWgt=  12.0000000   1.0078250   1.0078250  31.9720718  15.9949146  15.9949146  15.9949146
 NucSpn=           0           1           1           0           0           0           0
 AtZEff=  -0.0000000  -0.0000000  -0.0000000  -0.0000000  -0.0000000  -0.0000000  -0.0000000
 NQMom=    0.0000000   0.0000000   0.0000000   0.0000000   0.0000000   0.0000000   0.0000000
 NMagM=    0.0000000   2.7928460   2.7928460   0.0000000   0.0000000   0.0000000   0.0000000
 AtZNuc=   6.0000000   1.0000000   1.0000000  16.0000000   8.0000000   8.0000000   8.0000000
 Leave Link  101 at Wed Apr 20 08:47:23 2022, MaxMem=  7864320000 cpu:               5.1 elap:               0.3
 (Enter /data0/home/wuhanyu/software/g16/l103.exe)

 GradGradGradGradGradGradGradGradGradGradGradGradGradGradGradGradGradGrad
 Berny optimization.
 Initialization pass.
                           ----------------------------
                           !    Initial Parameters    !
                           ! (Angstroms and Degrees)  !
 --------------------------                            --------------------------
 ! Name  Definition              Value          Derivative Info.                !
 --------------------------------------------------------------------------------
 ! R1    R(1,2)                  1.4049         estimate D2E/DX2                !
 ! R2    R(1,7)                  1.3522         estimate D2E/DX2                !
 ! R3    R(1,14)                 1.3385         estimate D2E/DX2                !
 ! R4    R(2,3)                  1.3767         estimate D2E/DX2                !
 ! R5    R(2,8)                  1.0922         estimate D2E/DX2                !
 ! R6    R(3,4)                  1.4163         estimate D2E/DX2                !
 ! R7    R(3,6)                  1.0907         estimate D2E/DX2                !
 ! R8    R(4,5)                  1.3825         estimate D2E/DX2                !
 ! R9    R(4,10)                 1.4857         estimate D2E/DX2                !
 ! R10   R(5,9)                  1.0917         estimate D2E/DX2                !
 ! R11   R(5,14)                 1.3803         estimate D2E/DX2                !
 ! R12   R(7,27)                 1.2562         estimate D2E/DX2                !
 ! R13   R(10,11)                1.0989         estimate D2E/DX2                !
 ! R14   R(10,12)                1.1036         estimate D2E/DX2                !
 ! R15   R(10,13)                1.1019         estimate D2E/DX2                !
 ! R16   R(14,15)                1.4825         estimate D2E/DX2                !
 ! R17   R(15,16)                1.1103         estimate D2E/DX2                !
 ! R18   R(15,17)                1.1226         estimate D2E/DX2                !
 ! R19   R(15,18)                1.5435         estimate D2E/DX2                !
 ! R20   R(18,19)                1.1153         estimate D2E/DX2                !
 ! R21   R(18,20)                1.1088         estimate D2E/DX2                !
 ! R22   R(18,21)                1.5237         estimate D2E/DX2                !
 ! R23   R(21,22)                1.1026         estimate D2E/DX2                !
 ! R24   R(21,23)                1.1051         estimate D2E/DX2                !
 ! R25   R(21,24)                1.8196         estimate D2E/DX2                !
 ! R26   R(24,25)                1.4499         estimate D2E/DX2                !
 ! R27   R(24,26)                1.4611         estimate D2E/DX2                !
 ! R28   R(24,27)                1.5576         estimate D2E/DX2                !
 ! A1    A(2,1,7)              123.867          estimate D2E/DX2                !
 ! A2    A(2,1,14)             120.1033         estimate D2E/DX2                !
 ! A3    A(7,1,14)             115.6158         estimate D2E/DX2                !
 ! A4    A(1,2,3)              119.8919         estimate D2E/DX2                !
 ! A5    A(1,2,8)              118.1046         estimate D2E/DX2                !
 ! A6    A(3,2,8)              121.9876         estimate D2E/DX2                !
 ! A7    A(2,3,4)              119.3179         estimate D2E/DX2                !
 ! A8    A(2,3,6)              121.3486         estimate D2E/DX2                !
 ! A9    A(4,3,6)              119.3307         estimate D2E/DX2                !
 ! A10   A(3,4,5)              119.2335         estimate D2E/DX2                !
 ! A11   A(3,4,10)             119.9872         estimate D2E/DX2                !
 ! A12   A(5,4,10)             120.7754         estimate D2E/DX2                !
 ! A13   A(4,5,9)              122.0877         estimate D2E/DX2                !
 ! A14   A(4,5,14)             119.9053         estimate D2E/DX2                !
 ! A15   A(9,5,14)             118.0053         estimate D2E/DX2                !
 ! A16   A(1,7,27)             154.8649         estimate D2E/DX2                !
 ! A17   A(4,10,11)            113.3751         estimate D2E/DX2                !
 ! A18   A(4,10,12)            111.2032         estimate D2E/DX2                !
 ! A19   A(4,10,13)            111.6794         estimate D2E/DX2                !
 ! A20   A(11,10,12)           106.6732         estimate D2E/DX2                !
 ! A21   A(11,10,13)           106.7094         estimate D2E/DX2                !
 ! A22   A(12,10,13)           106.8135         estimate D2E/DX2                !
 ! A23   A(1,14,5)             121.542          estimate D2E/DX2                !
 ! A24   A(1,14,15)            119.9166         estimate D2E/DX2                !
 ! A25   A(5,14,15)            118.5167         estimate D2E/DX2                !
 ! A26   A(14,15,16)           109.3628         estimate D2E/DX2                !
 ! A27   A(14,15,17)           108.4876         estimate D2E/DX2                !
 ! A28   A(14,15,18)           111.4213         estimate D2E/DX2                !
 ! A29   A(16,15,17)           106.0204         estimate D2E/DX2                !
 ! A30   A(16,15,18)           110.7491         estimate D2E/DX2                !
 ! A31   A(17,15,18)           110.6288         estimate D2E/DX2                !
 ! A32   A(15,18,19)           110.4533         estimate D2E/DX2                !
 ! A33   A(15,18,20)           108.9998         estimate D2E/DX2                !
 ! A34   A(15,18,21)           113.0568         estimate D2E/DX2                !
 ! A35   A(19,18,20)           104.7843         estimate D2E/DX2                !
 ! A36   A(19,18,21)           109.956          estimate D2E/DX2                !
 ! A37   A(20,18,21)           109.25           estimate D2E/DX2                !
 ! A38   A(18,21,22)           111.6672         estimate D2E/DX2                !
 ! A39   A(18,21,23)           110.2807         estimate D2E/DX2                !
 ! A40   A(18,21,24)           112.6526         estimate D2E/DX2                !
 ! A41   A(22,21,23)           105.4931         estimate D2E/DX2                !
 ! A42   A(22,21,24)           108.6272         estimate D2E/DX2                !
 ! A43   A(23,21,24)           107.798          estimate D2E/DX2                !
 ! A44   A(21,24,25)           106.3527         estimate D2E/DX2                !
 ! A45   A(21,24,26)           105.6498         estimate D2E/DX2                !
 ! A46   A(21,24,27)           100.8469         estimate D2E/DX2                !
 ! A47   A(25,24,26)           119.7881         estimate D2E/DX2                !
 ! A48   A(25,24,27)           113.2966         estimate D2E/DX2                !
 ! A49   A(26,24,27)           108.8417         estimate D2E/DX2                !
 ! A50   A(7,27,24)            116.5429         estimate D2E/DX2                !
 ! D1    D(7,1,2,3)           -171.6921         estimate D2E/DX2                !
 ! D2    D(7,1,2,8)              6.8865         estimate D2E/DX2                !
 ! D3    D(14,1,2,3)             0.5926         estimate D2E/DX2                !
 ! D4    D(14,1,2,8)           179.1712         estimate D2E/DX2                !
 ! D5    D(2,1,7,27)           139.6099         estimate D2E/DX2                !
 ! D6    D(14,1,7,27)          -32.9896         estimate D2E/DX2                !
 ! D7    D(2,1,14,5)            -0.9683         estimate D2E/DX2                !
 ! D8    D(2,1,14,15)         -179.1326         estimate D2E/DX2                !
 ! D9    D(7,1,14,5)           171.9305         estimate D2E/DX2                !
 ! D10   D(7,1,14,15)           -6.2339         estimate D2E/DX2                !
 ! D11   D(1,2,3,4)             -0.0499         estimate D2E/DX2                !
 ! D12   D(1,2,3,6)            179.3364         estimate D2E/DX2                !
 ! D13   D(8,2,3,4)           -178.5716         estimate D2E/DX2                !
 ! D14   D(8,2,3,6)              0.8147         estimate D2E/DX2                !
 ! D15   D(2,3,4,5)             -0.1215         estimate D2E/DX2                !
 ! D16   D(2,3,4,10)           179.1687         estimate D2E/DX2                !
 ! D17   D(6,3,4,5)           -179.5204         estimate D2E/DX2                !
 ! D18   D(6,3,4,10)            -0.2302         estimate D2E/DX2                !
 ! D19   D(3,4,5,9)            179.2899         estimate D2E/DX2                !
 ! D20   D(3,4,5,14)            -0.2315         estimate D2E/DX2                !
 ! D21   D(10,4,5,9)             0.0054         estimate D2E/DX2                !
 ! D22   D(10,4,5,14)         -179.5159         estimate D2E/DX2                !
 ! D23   D(3,4,10,11)          175.9188         estimate D2E/DX2                !
 ! D24   D(3,4,10,12)          -63.8866         estimate D2E/DX2                !
 ! D25   D(3,4,10,13)           55.329          estimate D2E/DX2                !
 ! D26   D(5,4,10,11)           -4.8021         estimate D2E/DX2                !
 ! D27   D(5,4,10,12)          115.3925         estimate D2E/DX2                !
 ! D28   D(5,4,10,13)         -125.3919         estimate D2E/DX2                !
 ! D29   D(4,5,14,1)             0.7912         estimate D2E/DX2                !
 ! D30   D(4,5,14,15)          178.9804         estimate D2E/DX2                !
 ! D31   D(9,5,14,1)          -178.7495         estimate D2E/DX2                !
 ! D32   D(9,5,14,15)           -0.5603         estimate D2E/DX2                !
 ! D33   D(1,7,27,24)          -40.1391         estimate D2E/DX2                !
 ! D34   D(1,14,15,16)        -147.7784         estimate D2E/DX2                !
 ! D35   D(1,14,15,17)         -32.568          estimate D2E/DX2                !
 ! D36   D(1,14,15,18)          89.4526         estimate D2E/DX2                !
 ! D37   D(5,14,15,16)          34.0021         estimate D2E/DX2                !
 ! D38   D(5,14,15,17)         149.2124         estimate D2E/DX2                !
 ! D39   D(5,14,15,18)         -88.767          estimate D2E/DX2                !
 ! D40   D(14,15,18,19)         13.9027         estimate D2E/DX2                !
 ! D41   D(14,15,18,20)        128.514          estimate D2E/DX2                !
 ! D42   D(14,15,18,21)       -109.7828         estimate D2E/DX2                !
 ! D43   D(16,15,18,19)       -108.0679         estimate D2E/DX2                !
 ! D44   D(16,15,18,20)          6.5434         estimate D2E/DX2                !
 ! D45   D(16,15,18,21)        128.2466         estimate D2E/DX2                !
 ! D46   D(17,15,18,19)        134.6768         estimate D2E/DX2                !
 ! D47   D(17,15,18,20)       -110.7119         estimate D2E/DX2                !
 ! D48   D(17,15,18,21)         10.9914         estimate D2E/DX2                !
 ! D49   D(15,18,21,22)        -51.2709         estimate D2E/DX2                !
 ! D50   D(15,18,21,23)       -168.2223         estimate D2E/DX2                !
 ! D51   D(15,18,21,24)         71.2921         estimate D2E/DX2                !
 ! D52   D(19,18,21,22)       -175.2295         estimate D2E/DX2                !
 ! D53   D(19,18,21,23)         67.819          estimate D2E/DX2                !
 ! D54   D(19,18,21,24)        -52.6665         estimate D2E/DX2                !
 ! D55   D(20,18,21,22)         70.2915         estimate D2E/DX2                !
 ! D56   D(20,18,21,23)        -46.66           estimate D2E/DX2                !
 ! D57   D(20,18,21,24)       -167.1456         estimate D2E/DX2                !
 ! D58   D(18,21,24,25)        169.6062         estimate D2E/DX2                !
 ! D59   D(18,21,24,26)         41.2997         estimate D2E/DX2                !
 ! D60   D(18,21,24,27)        -71.9768         estimate D2E/DX2                !
 ! D61   D(22,21,24,25)        -66.1397         estimate D2E/DX2                !
 ! D62   D(22,21,24,26)        165.5538         estimate D2E/DX2                !
 ! D63   D(22,21,24,27)         52.2773         estimate D2E/DX2                !
 ! D64   D(23,21,24,25)         47.7054         estimate D2E/DX2                !
 ! D65   D(23,21,24,26)        -80.6012         estimate D2E/DX2                !
 ! D66   D(23,21,24,27)        166.1224         estimate D2E/DX2                !
 ! D67   D(21,24,27,7)          89.9544         estimate D2E/DX2                !
 ! D68   D(25,24,27,7)        -156.803          estimate D2E/DX2                !
 ! D69   D(26,24,27,7)         -20.8759         estimate D2E/DX2                !
 --------------------------------------------------------------------------------
 Trust Radius=3.00D-01 FncErr=1.00D-07 GrdErr=1.00D-06 EigMax=2.50D+02 EigMin=1.00D-04
 Number of steps in this run=    157 maximum allowed number of steps=    162.
 GradGradGradGradGradGradGradGradGradGradGradGradGradGradGradGradGradGrad

 Leave Link  103 at Wed Apr 20 08:47:23 2022, MaxMem=  7864320000 cpu:               0.1 elap:               0.0
 (Enter /data0/home/wuhanyu/software/g16/l202.exe)
                          Input orientation:                          
 ---------------------------------------------------------------------
 Center     Atomic      Atomic             Coordinates (Angstroms)
 Number     Number       Type             X           Y           Z
 ---------------------------------------------------------------------
      1          6           0       -0.740616    0.769021   -0.778982
      2          6           0       -1.685954    1.760272   -0.466631
      3          6           0       -2.918284    1.400721    0.030648
      4          6           0       -3.216468    0.029153    0.219892
      5          6           0       -2.263638   -0.919518   -0.101537
      6          1           0       -3.665956    2.150919    0.291116
      7          1           0        0.542337    1.030878   -1.116339
      8          1           0       -1.401617    2.805301   -0.608185
      9          1           0       -2.439643   -1.988058    0.036246
     10          6           0       -4.534878   -0.374670    0.772985
     11          1           0       -4.677983   -1.463628    0.807877
     12          1           0       -4.665098   -0.004987    1.804619
     13          1           0       -5.368023    0.035510    0.179874
     14          7           0       -1.040894   -0.523687   -0.604935
     15          6           0       -0.033488   -1.565345   -0.917654
     16          1           0       -0.549366   -2.479589   -1.279282
     17          1           0        0.596356   -1.205604   -1.774434
     18          6           0        0.847696   -1.883670    0.308975
     19          1           0        0.394576   -1.458609    1.235217
     20          1           0        0.853725   -2.980095    0.474369
     21          6           0        2.281437   -1.390542    0.157882
     22          1           0        2.729167   -1.725614   -0.792335
     23          1           0        2.919520   -1.818795    0.952086
     24         16           0        2.413172    0.421654    0.255301
     25          8           0        3.828228    0.723687    0.348053
     26          8           0        1.512734    0.824923    1.332954
     27          8           0        1.783120    0.835038   -1.107826
 ---------------------------------------------------------------------
                    Distance matrix (angstroms):
                    1          2          3          4          5
     1  C    0.000000
     2  C    1.404922   0.000000
     3  C    2.407651   1.376663   0.000000
     4  C    2.770379   2.410510   1.416307   0.000000
     5  C    2.372697   2.765554   2.414445   1.382454   0.000000
     6  H    3.407692   2.155735   1.090713   2.170024   3.398272
     7  H    1.352164   2.432985   3.664459   4.113099   3.564739
     8  H    2.147680   1.092232   2.163615   3.418537   3.856689
     9  H    3.339577   3.856282   3.422419   2.169406   1.091668
    10  C    4.255943   3.769747   2.513256   1.485661   2.494029
    11  H    4.796426   4.579316   3.450380   2.170287   2.636693
    12  H    4.761895   4.141258   2.859082   2.147337   3.199501
    13  H    4.782294   4.117087   2.808432   2.151937   3.260134
    14  N    1.338489   2.377330   2.762590   2.391463   1.380288
    15  C    2.443056   3.740828   4.244864   3.737352   2.461038
    16  H    3.292468   4.464152   4.731226   3.956607   2.599929
    17  H    2.584098   3.964304   4.733281   4.476560   3.325657
    18  C    3.277675   4.505470   5.004727   4.492689   3.283064
    19  H    3.210606   4.193577   4.538920   4.035339   3.023844
    20  H    4.262474   5.459536   5.797973   5.068215   3.780952
    21  C    3.830696   5.104688   5.902918   5.678586   4.576775
    22  H    4.273497   5.634783   6.507302   6.281273   5.104419
    23  H    4.805204   6.002738   6.730103   6.449912   5.365067
    24  S    3.337182   4.372175   5.425262   5.643417   4.878384
    25  O    4.706017   5.669605   6.787823   7.080010   6.325590
    26  O    3.088848   3.787478   4.654188   4.923160   4.400207
    27  O    2.545926   3.647145   4.870248   5.235281   4.524084
                    6          7          8          9         10
     6  H    0.000000
     7  H    4.576587   0.000000
     8  H    2.522734   2.680626   0.000000
     9  H    4.324342   4.397116   4.946623   0.000000
    10  C    2.714005   5.596715   4.673026   2.745144   0.000000
    11  H    3.788956   6.097287   5.564491   2.424996   1.098875
    12  H    2.817252   6.059900   4.936563   3.465886   1.103581
    13  H    2.717418   6.132151   4.901546   3.562424   1.101889
    14  N    3.853229   2.277021   3.348476   2.124146   3.758829
    15  C    5.335407   2.666725   4.590217   2.622631   4.953633
    16  H    5.798352   3.679911   5.395069   2.354860   4.952453
    17  H    5.805174   2.331922   4.630269   3.620509   5.788727
    18  C    6.054030   3.258735   5.280818   3.300284   5.609322
    19  H    5.514339   3.427710   4.980499   3.122602   5.068343
    20  H    6.840205   4.326109   6.303118   3.467328   5.992867
    21  C    6.923235   3.242126   5.635321   4.760296   6.918995
    22  H    7.556386   3.533476   6.134043   5.241376   7.552591
    23  H    7.717772   4.248531   6.518354   5.439489   7.595105
    24  S    6.320399   2.398452   4.580393   5.422593   7.012669
    25  O    7.629091   3.610525   5.709535   6.836446   8.445620
    26  O    5.446331   2.642560   4.022855   5.021513   6.190816
    27  O    5.777630   1.256172   3.778112   5.206774   6.702085
                   11         12         13         14         15
    11  H    0.000000
    12  H    1.766718   0.000000
    13  H    1.765774   1.770746   0.000000
    14  N    4.013470   4.382905   4.433133   0.000000
    15  C    4.955718   5.594399   5.676669   1.482468   0.000000
    16  H    4.736443   5.707307   5.627994   2.126475   1.110291
    17  H    5.878227   6.475647   6.397929   2.124459   1.122581
    18  C    5.564033   6.013094   6.506541   2.500311   1.543514
    19  H    5.090530   5.295048   6.045965   2.514123   2.197609
    20  H    5.745493   6.409231   6.920314   3.284573   2.174027
    21  C    6.990090   7.272266   7.781282   3.517273   2.558557
    22  H    7.582558   8.023708   8.343335   3.961453   2.770136
    23  H    7.607167   7.844944   8.527492   4.448202   3.504343
    24  S    7.358268   7.258396   7.791135   3.682967   3.363054
    25  O    8.794965   8.648071   9.223497   5.115904   4.664175
    26  O    6.621038   6.251146   7.021224   3.477812   3.628970
    27  O    7.120368   7.125131   7.310011   3.173970   3.016300
                   16         17         18         19         20
    16  H    0.000000
    17  H    1.783506   0.000000
    18  C    2.197604   2.205343   0.000000
    19  H    2.873349   3.026999   1.115311   0.000000
    20  H    2.300970   2.876138   1.108846   1.761995   0.000000
    21  C    3.356324   2.570515   1.523686   2.173828   2.159908
    22  H    3.399173   2.404956   2.185818   3.103639   2.587575
    23  H    4.177179   3.634144   2.170312   2.566172   2.417507
    24  S    4.421401   3.173108   2.787134   2.927517   3.748568
    25  O    5.663261   4.321124   3.960228   4.164066   4.752013
    26  O    4.689972   3.823434   2.971075   2.544474   3.955960
    27  O    4.056678   2.452956   3.205264   3.560719   4.233480
                   21         22         23         24         25
    21  C    0.000000
    22  H    1.102564   0.000000
    23  H    1.105129   1.757248   0.000000
    24  S    1.819588   2.410011   2.400314   0.000000
    25  O    2.626536   2.916761   2.766735   1.449900   0.000000
    26  O    2.622972   3.535789   3.018833   1.461079   2.518291
    27  O    2.608360   2.747995   3.546473   1.557552   2.512857
                   26         27
    26  O    0.000000
    27  O    2.455732   0.000000
 Stoichiometry    C9H13NO3S
 Framework group  C1[X(C9H13NO3S)]
 Deg. of freedom    75
 Full point group                 C1      NOp   1
 Largest Abelian subgroup         C1      NOp   1
 Largest concise Abelian subgroup C1      NOp   1
                         Standard orientation:                         
 ---------------------------------------------------------------------
 Center     Atomic      Atomic             Coordinates (Angstroms)
 Number     Number       Type             X           Y           Z
 ---------------------------------------------------------------------
      1          6           0        0.740616   -0.769021   -0.778982
      2          6           0        1.685954   -1.760272   -0.466631
      3          6           0        2.918284   -1.400721    0.030648
      4          6           0        3.216468   -0.029153    0.219892
      5          6           0        2.263638    0.919518   -0.101537
      6          1           0        3.665956   -2.150919    0.291116
      7          1           0       -0.542337   -1.030878   -1.116339
      8          1           0        1.401617   -2.805301   -0.608185
      9          1           0        2.439643    1.988058    0.036246
     10          6           0        4.534878    0.374670    0.772985
     11          1           0        4.677983    1.463628    0.807877
     12          1           0        4.665098    0.004987    1.804619
     13          1           0        5.368023   -0.035510    0.179874
     14          7           0        1.040894    0.523687   -0.604935
     15          6           0        0.033488    1.565345   -0.917654
     16          1           0        0.549366    2.479589   -1.279282
     17          1           0       -0.596356    1.205604   -1.774434
     18          6           0       -0.847696    1.883670    0.308975
     19          1           0       -0.394576    1.458609    1.235217
     20          1           0       -0.853725    2.980095    0.474369
     21          6           0       -2.281437    1.390542    0.157882
     22          1           0       -2.729167    1.725614   -0.792335
     23          1           0       -2.919520    1.818795    0.952086
     24         16           0       -2.413172   -0.421654    0.255301
     25          8           0       -3.828228   -0.723687    0.348053
     26          8           0       -1.512734   -0.824923    1.332954
     27          8           0       -1.783120   -0.835038   -1.107826
 ---------------------------------------------------------------------
 Rotational constants (GHZ):           1.4062141           0.3657904           0.3280368
 Leave Link  202 at Wed Apr 20 08:47:23 2022, MaxMem=  7864320000 cpu:               0.1 elap:               0.0
 (Enter /data0/home/wuhanyu/software/g16/l301.exe)
 Standard basis: 6-311G(d,p) (5D, 7F)
 Ernie: Thresh=  0.10000D-02 Tol=  0.10000D-05 Strict=F.
 There are   352 symmetry adapted cartesian basis functions of A   symmetry.
 There are   338 symmetry adapted basis functions of A   symmetry.
   338 basis functions,   566 primitive gaussians,   352 cartesian basis functions
    57 alpha electrons       57 beta electrons
       nuclear repulsion energy      1082.5664533670 Hartrees.
 IExCor=  402 DFT=T Ex+Corr=B3LYP ExCW=0 ScaHFX=  0.200000
 ScaDFX=  0.800000  0.720000  1.000000  0.810000 ScalE2=  1.000000  1.000000
 IRadAn=      5 IRanWt=     -1 IRanGd=            0 ICorTp=0 IEmpDi=141
 NAtoms=   27 NActive=   27 NUniq=   27 SFac= 1.00D+00 NAtFMM=   60 NAOKFM=F Big=F
 Integral buffers will be    131072 words long.
 Raffenetti 2 integral format.
 Two-electron integral symmetry is turned on.
 R6Disp:  Grimme-D3(BJ) Dispersion energy=       -0.0567881701 Hartrees.
 Nuclear repulsion after empirical dispersion term =     1082.5096651969 Hartrees.
 Leave Link  301 at Wed Apr 20 08:47:23 2022, MaxMem=  7864320000 cpu:               0.8 elap:               0.1
 (Enter /data0/home/wuhanyu/software/g16/l302.exe)
 NPDir=0 NMtPBC=     1 NCelOv=     1 NCel=       1 NClECP=     1 NCelD=      1
         NCelK=      1 NCelE2=     1 NClLst=     1 CellRange=     0.0.
 One-electron integrals computed using PRISM.
 One-electron integral symmetry used in STVInt
 NBasis=   338 RedAO= T EigKep=  3.96D-04  NBF=   338
 NBsUse=   338 1.00D-06 EigRej= -1.00D+00 NBFU=   338
 Precomputing XC quadrature grid using
 IXCGrd= 4 IRadAn=           5 IRanWt=          -1 IRanGd=           0 AccXCQ= 0.00D+00.
 Generated NRdTot=       0 NPtTot=           0 NUsed=           0 NTot=          32
 NSgBfM=   352   352   352   352   352 MxSgAt=    27 MxSgA2=    27.
 Leave Link  302 at Wed Apr 20 08:47:23 2022, MaxMem=  7864320000 cpu:               3.9 elap:               0.3
 (Enter /data0/home/wuhanyu/software/g16/l303.exe)
 DipDrv:  MaxL=1.
 Leave Link  303 at Wed Apr 20 08:47:23 2022, MaxMem=  7864320000 cpu:               0.5 elap:               0.1
 (Enter /data0/home/wuhanyu/software/g16/l401.exe)
 ExpMin= 7.71D-02 ExpMax= 9.34D+04 ExpMxC= 3.17D+03 IAcc=3 IRadAn=         5 AccDes= 0.00D+00
 Harris functional with IExCor=  402 and IRadAn=       5 diagonalized for initial guess.
 HarFok:  IExCor=  402 AccDes= 0.00D+00 IRadAn=         5 IDoV= 1 UseB2=F ITyADJ=14
 ICtDFT=  3500011 ScaDFX=  1.000000  1.000000  1.000000  1.000000
 FoFCou: FMM=F IPFlag=           0 FMFlag=      100000 FMFlg1=           0
         NFxFlg=           0 DoJE=T BraDBF=F KetDBF=T FulRan=T
         wScrn=  0.000000 ICntrl=       500 IOpCl=  0 I1Cent=   200000004 NGrid=           0
         NMat0=    1 NMatS0=      1 NMatT0=    0 NMatD0=    1 NMtDS0=    0 NMtDT0=    0
 Petite list used in FoFCou.
 Harris En= -1029.63506361655    
 JPrj=0 DoOrth=F DoCkMO=F.
 Leave Link  401 at Wed Apr 20 08:47:24 2022, MaxMem=  7864320000 cpu:              17.6 elap:               1.1
 (Enter /data0/home/wuhanyu/software/g16/l502.exe)
 Integral symmetry usage will be decided dynamically.
 Closed shell SCF:
 Using DIIS extrapolation, IDIIS=  1040.
 NGot=  7864320000 LenX=  7864062972 LenY=  7863938627
 Requested convergence on RMS density matrix=1.00D-08 within 128 cycles.
 Requested convergence on MAX density matrix=1.00D-06.
 Requested convergence on             energy=1.00D-06.
 No special actions if energy rises.
 Fock matrices will be formed incrementally for  20 cycles.
 Integral accuracy reduced to 1.0D-05 until final iterations.

 Cycle   1  Pass 0  IDiag  1:
 FoFJK:  IHMeth= 1 ICntrl=       0 DoSepK=F KAlg= 0 I1Cent=           0 FoldK=F
 IRaf= 850000000 NMat=       1 IRICut=       1 DoRegI=T DoRafI=F ISym2E= 0 IDoP0=0 IntGTp=1.
 FoFCou: FMM=F IPFlag=           0 FMFlag=      100000 FMFlg1=           0
         NFxFlg=           0 DoJE=F BraDBF=F KetDBF=F FulRan=T
         wScrn=  0.000000 ICntrl=         0 IOpCl=  0 I1Cent=           0 NGrid=           0
         NMat0=    1 NMatS0=      1 NMatT0=    0 NMatD0=    1 NMtDS0=    0 NMtDT0=    0
 Symmetry not used in FoFCou.
 E= -1028.98720293686    
 DIIS: error= 5.22D-02 at cycle   1 NSaved=   1.
 NSaved= 1 IEnMin= 1 EnMin= -1028.98720293686     IErMin= 1 ErrMin= 5.22D-02
 ErrMax= 5.22D-02  0.00D+00 EMaxC= 1.00D-01 BMatC= 7.64D-01 BMatP= 7.64D-01
 IDIUse=3 WtCom= 4.78D-01 WtEn= 5.22D-01
 Coeff-Com:  0.100D+01
 Coeff-En:   0.100D+01
 Coeff:      0.100D+01
 Gap=     0.105 Goal=   None    Shift=    0.000
 GapD=    0.105 DampG=1.000 DampE=0.500 DampFc=0.5000 IDamp=-1.
 Damping current iteration by 5.00D-01
 RMSDP=5.16D-03 MaxDP=3.63D-01              OVMax= 2.44D-01

 Cycle   2  Pass 0  IDiag  1:
 RMSU=  2.57D-03    CP:  1.01D+00
 E= -1029.13297255007     Delta-E=       -0.145769613208 Rises=F Damp=T
 DIIS: error= 2.13D-02 at cycle   2 NSaved=   2.
 NSaved= 2 IEnMin= 2 EnMin= -1029.13297255007     IErMin= 2 ErrMin= 2.13D-02
 ErrMax= 2.13D-02  0.00D+00 EMaxC= 1.00D-01 BMatC= 9.56D-02 BMatP= 7.64D-01
 IDIUse=3 WtCom= 7.87D-01 WtEn= 2.13D-01
 Coeff-Com:  0.210D+00 0.790D+00
 Coeff-En:   0.360D+00 0.640D+00
 Coeff:      0.242D+00 0.758D+00
 Gap=     0.161 Goal=   None    Shift=    0.000
 RMSDP=1.30D-03 MaxDP=7.17D-02 DE=-1.46D-01 OVMax= 2.09D-01

 Cycle   3  Pass 0  IDiag  1:
 RMSU=  9.95D-04    CP:  1.01D+00  6.74D-01
 E= -1029.50886641715     Delta-E=       -0.375893867078 Rises=F Damp=F
 DIIS: error= 9.96D-03 at cycle   3 NSaved=   3.
 NSaved= 3 IEnMin= 3 EnMin= -1029.50886641715     IErMin= 3 ErrMin= 9.96D-03
 ErrMax= 9.96D-03  0.00D+00 EMaxC= 1.00D-01 BMatC= 3.57D-02 BMatP= 9.56D-02
 IDIUse=3 WtCom= 9.00D-01 WtEn= 9.96D-02
 Coeff-Com:  0.686D-01 0.384D+00 0.547D+00
 Coeff-En:   0.000D+00 0.000D+00 0.100D+01
 Coeff:      0.618D-01 0.346D+00 0.592D+00
 Gap=     0.148 Goal=   None    Shift=    0.000
 RMSDP=7.02D-04 MaxDP=3.04D-02 DE=-3.76D-01 OVMax= 7.03D-02

 Cycle   4  Pass 0  IDiag  1:
 RMSU=  4.54D-04    CP:  1.01D+00  7.34D-01  4.89D-01
 E= -1029.53275127974     Delta-E=       -0.023884862598 Rises=F Damp=F
 DIIS: error= 6.11D-03 at cycle   4 NSaved=   4.
 NSaved= 4 IEnMin= 4 EnMin= -1029.53275127974     IErMin= 4 ErrMin= 6.11D-03
 ErrMax= 6.11D-03  0.00D+00 EMaxC= 1.00D-01 BMatC= 1.07D-02 BMatP= 3.57D-02
 IDIUse=3 WtCom= 9.39D-01 WtEn= 6.11D-02
 Coeff-Com:  0.728D-02 0.875D-01 0.363D+00 0.542D+00
 Coeff-En:   0.000D+00 0.000D+00 0.257D+00 0.743D+00
 Coeff:      0.684D-02 0.822D-01 0.357D+00 0.554D+00
 Gap=     0.145 Goal=   None    Shift=    0.000
 RMSDP=3.12D-04 MaxDP=9.53D-03 DE=-2.39D-02 OVMax= 3.50D-02

 Cycle   5  Pass 0  IDiag  1:
 RMSU=  1.47D-04    CP:  1.01D+00  7.15D-01  6.53D-01  5.26D-01
 E= -1029.54197154591     Delta-E=       -0.009220266170 Rises=F Damp=F
 DIIS: error= 2.13D-03 at cycle   5 NSaved=   5.
 NSaved= 5 IEnMin= 5 EnMin= -1029.54197154591     IErMin= 5 ErrMin= 2.13D-03
 ErrMax= 2.13D-03  0.00D+00 EMaxC= 1.00D-01 BMatC= 1.18D-03 BMatP= 1.07D-02
 IDIUse=3 WtCom= 9.79D-01 WtEn= 2.13D-02
 Coeff-Com: -0.623D-03 0.233D-01 0.176D+00 0.345D+00 0.456D+00
 Coeff-En:   0.000D+00 0.000D+00 0.000D+00 0.332D-01 0.967D+00
 Coeff:     -0.610D-03 0.228D-01 0.172D+00 0.339D+00 0.467D+00
 Gap=     0.147 Goal=   None    Shift=    0.000
 RMSDP=1.03D-04 MaxDP=3.05D-03 DE=-9.22D-03 OVMax= 1.18D-02

 Cycle   6  Pass 0  IDiag  1:
 RMSU=  6.04D-05    CP:  1.01D+00  7.13D-01  6.38D-01  6.04D-01  5.06D-01
 E= -1029.54296148648     Delta-E=       -0.000989940568 Rises=F Damp=F
 DIIS: error= 4.16D-04 at cycle   6 NSaved=   6.
 NSaved= 6 IEnMin= 6 EnMin= -1029.54296148648     IErMin= 6 ErrMin= 4.16D-04
 ErrMax= 4.16D-04  0.00D+00 EMaxC= 1.00D-01 BMatC= 8.59D-05 BMatP= 1.18D-03
 IDIUse=3 WtCom= 9.96D-01 WtEn= 4.16D-03
 Coeff-Com: -0.119D-02 0.154D-02 0.518D-01 0.120D+00 0.264D+00 0.564D+00
 Coeff-En:   0.000D+00 0.000D+00 0.000D+00 0.000D+00 0.187D-01 0.981D+00
 Coeff:     -0.119D-02 0.154D-02 0.516D-01 0.119D+00 0.263D+00 0.566D+00
 Gap=     0.146 Goal=   None    Shift=    0.000
 RMSDP=2.71D-05 MaxDP=1.05D-03 DE=-9.90D-04 OVMax= 1.87D-03

 Cycle   7  Pass 0  IDiag  1:
 RMSU=  1.40D-05    CP:  1.01D+00  7.15D-01  6.41D-01  6.04D-01  5.67D-01
                    CP:  6.65D-01
 E= -1029.54303085964     Delta-E=       -0.000069373164 Rises=F Damp=F
 DIIS: error= 6.51D-05 at cycle   7 NSaved=   7.
 NSaved= 7 IEnMin= 7 EnMin= -1029.54303085964     IErMin= 7 ErrMin= 6.51D-05
 ErrMax= 6.51D-05  0.00D+00 EMaxC= 1.00D-01 BMatC= 4.47D-06 BMatP= 8.59D-05
 IDIUse=1 WtCom= 1.00D+00 WtEn= 0.00D+00
 Coeff-Com: -0.395D-03-0.785D-03 0.148D-01 0.377D-01 0.105D+00 0.288D+00
 Coeff-Com:  0.555D+00
 Coeff:     -0.395D-03-0.785D-03 0.148D-01 0.377D-01 0.105D+00 0.288D+00
 Coeff:      0.555D+00
 Gap=     0.146 Goal=   None    Shift=    0.000
 RMSDP=6.80D-06 MaxDP=2.33D-04 DE=-6.94D-05 OVMax= 4.40D-04

 Initial convergence to 1.0D-05 achieved.  Increase integral accuracy.
 Cycle   8  Pass 1  IDiag  1:
 E= -1029.54300951245     Delta-E=        0.000021347199 Rises=F Damp=F
 DIIS: error= 3.58D-05 at cycle   1 NSaved=   1.
 NSaved= 1 IEnMin= 1 EnMin= -1029.54300951245     IErMin= 1 ErrMin= 3.58D-05
 ErrMax= 3.58D-05  0.00D+00 EMaxC= 1.00D-01 BMatC= 4.32D-07 BMatP= 4.32D-07
 IDIUse=1 WtCom= 1.00D+00 WtEn= 0.00D+00
 Coeff-Com:  0.100D+01
 Coeff:      0.100D+01
 Gap=     0.146 Goal=   None    Shift=    0.000
 RMSDP=6.80D-06 MaxDP=2.33D-04 DE= 2.13D-05 OVMax= 3.35D-04

 Cycle   9  Pass 1  IDiag  1:
 RMSU=  1.94D-05    CP:  1.00D+00
 E= -1029.54300891113     Delta-E=        0.000000601312 Rises=F Damp=F
 DIIS: error= 5.91D-05 at cycle   2 NSaved=   2.
 NSaved= 2 IEnMin= 1 EnMin= -1029.54300951245     IErMin= 1 ErrMin= 3.58D-05
 ErrMax= 5.91D-05  0.00D+00 EMaxC= 1.00D-01 BMatC= 1.27D-06 BMatP= 4.32D-07
 IDIUse=1 WtCom= 1.00D+00 WtEn= 0.00D+00
 Coeff-Com:  0.645D+00 0.355D+00
 Coeff:      0.645D+00 0.355D+00
 Gap=     0.146 Goal=   None    Shift=    0.000
 RMSDP=3.05D-06 MaxDP=9.18D-05 DE= 6.01D-07 OVMax= 2.18D-04

 Cycle  10  Pass 1  IDiag  1:
 RMSU=  2.99D-06    CP:  1.00D+00  9.69D-01
 E= -1029.54300990032     Delta-E=       -0.000000989186 Rises=F Damp=F
 DIIS: error= 9.62D-06 at cycle   3 NSaved=   3.
 NSaved= 3 IEnMin= 3 EnMin= -1029.54300990032     IErMin= 3 ErrMin= 9.62D-06
 ErrMax= 9.62D-06  0.00D+00 EMaxC= 1.00D-01 BMatC= 3.52D-08 BMatP= 4.32D-07
 IDIUse=1 WtCom= 1.00D+00 WtEn= 0.00D+00
 Coeff-Com:  0.124D+00 0.159D+00 0.718D+00
 Coeff:      0.124D+00 0.159D+00 0.718D+00
 Gap=     0.146 Goal=   None    Shift=    0.000
 RMSDP=5.90D-07 MaxDP=2.03D-05 DE=-9.89D-07 OVMax= 4.14D-05

 Cycle  11  Pass 1  IDiag  1:
 RMSU=  4.83D-07    CP:  1.00D+00  9.78D-01  9.04D-01
 E= -1029.54300992158     Delta-E=       -0.000000021263 Rises=F Damp=F
 DIIS: error= 3.53D-06 at cycle   4 NSaved=   4.
 NSaved= 4 IEnMin= 4 EnMin= -1029.54300992158     IErMin= 4 ErrMin= 3.53D-06
 ErrMax= 3.53D-06  0.00D+00 EMaxC= 1.00D-01 BMatC= 6.41D-09 BMatP= 3.52D-08
 IDIUse=1 WtCom= 1.00D+00 WtEn= 0.00D+00
 Coeff-Com:  0.703D-02 0.542D-01 0.394D+00 0.545D+00
 Coeff:      0.703D-02 0.542D-01 0.394D+00 0.545D+00
 Gap=     0.146 Goal=   None    Shift=    0.000
 RMSDP=2.31D-07 MaxDP=8.59D-06 DE=-2.13D-08 OVMax= 2.20D-05

 Cycle  12  Pass 1  IDiag  1:
 RMSU=  1.28D-07    CP:  1.00D+00  9.82D-01  9.13D-01  6.50D-01
 E= -1029.54300992731     Delta-E=       -0.000000005724 Rises=F Damp=F
 DIIS: error= 8.18D-07 at cycle   5 NSaved=   5.
 NSaved= 5 IEnMin= 5 EnMin= -1029.54300992731     IErMin= 5 ErrMin= 8.18D-07
 ErrMax= 8.18D-07  0.00D+00 EMaxC= 1.00D-01 BMatC= 3.36D-10 BMatP= 6.41D-09
 IDIUse=1 WtCom= 1.00D+00 WtEn= 0.00D+00
 Coeff-Com: -0.231D-02 0.211D-01 0.173D+00 0.291D+00 0.517D+00
 Coeff:     -0.231D-02 0.211D-01 0.173D+00 0.291D+00 0.517D+00
 Gap=     0.146 Goal=   None    Shift=    0.000
 RMSDP=6.48D-08 MaxDP=1.95D-06 DE=-5.72D-09 OVMax= 6.64D-06

 Cycle  13  Pass 1  IDiag  1:
 RMSU=  4.01D-08    CP:  1.00D+00  9.83D-01  9.11D-01  6.40D-01  6.15D-01
 E= -1029.54300992760     Delta-E=       -0.000000000296 Rises=F Damp=F
 DIIS: error= 4.43D-07 at cycle   6 NSaved=   6.
 NSaved= 6 IEnMin= 6 EnMin= -1029.54300992760     IErMin= 6 ErrMin= 4.43D-07
 ErrMax= 4.43D-07  0.00D+00 EMaxC= 1.00D-01 BMatC= 3.80D-11 BMatP= 3.36D-10
 IDIUse=1 WtCom= 1.00D+00 WtEn= 0.00D+00
 Coeff-Com: -0.185D-02 0.973D-02 0.825D-01 0.147D+00 0.313D+00 0.449D+00
 Coeff:     -0.185D-02 0.973D-02 0.825D-01 0.147D+00 0.313D+00 0.449D+00
 Gap=     0.146 Goal=   None    Shift=    0.000
 RMSDP=1.71D-08 MaxDP=7.09D-07 DE=-2.96D-10 OVMax= 2.93D-06

 Cycle  14  Pass 1  IDiag  1:
 RMSU=  1.32D-08    CP:  1.00D+00  9.83D-01  9.11D-01  6.40D-01  6.61D-01
                    CP:  7.78D-01
 E= -1029.54300992767     Delta-E=       -0.000000000070 Rises=F Damp=F
 DIIS: error= 8.26D-08 at cycle   7 NSaved=   7.
 NSaved= 7 IEnMin= 7 EnMin= -1029.54300992767     IErMin= 7 ErrMin= 8.26D-08
 ErrMax= 8.26D-08  0.00D+00 EMaxC= 1.00D-01 BMatC= 2.52D-12 BMatP= 3.80D-11
 IDIUse=1 WtCom= 1.00D+00 WtEn= 0.00D+00
 Coeff-Com: -0.622D-03 0.209D-02 0.189D-01 0.363D-01 0.901D-01 0.240D+00
 Coeff-Com:  0.613D+00
 Coeff:     -0.622D-03 0.209D-02 0.189D-01 0.363D-01 0.901D-01 0.240D+00
 Coeff:      0.613D+00
 Gap=     0.146 Goal=   None    Shift=    0.000
 RMSDP=5.27D-09 MaxDP=2.02D-07 DE=-6.96D-11 OVMax= 4.72D-07

 SCF Done:  E(RB3LYP) =  -1029.54300993     A.U. after   14 cycles
            NFock= 14  Conv=0.53D-08     -V/T= 2.0030
 KE= 1.026470022199D+03 PE=-4.585504380634D+03 EE= 1.446981683310D+03
 Leave Link  502 at Wed Apr 20 08:47:47 2022, MaxMem=  7864320000 cpu:             368.6 elap:              23.1
 (Enter /data0/home/wuhanyu/software/g16/l601.exe)
 Copying SCF densities to generalized density rwf, IOpCl= 0 IROHF=0.

 **********************************************************************

            Population analysis using the SCF density.

 **********************************************************************

 Orbital symmetries:
       Occupied  (A) (A) (A) (A) (A) (A) (A) (A) (A) (A) (A) (A)
                 (A) (A) (A) (A) (A) (A) (A) (A) (A) (A) (A) (A)
                 (A) (A) (A) (A) (A) (A) (A) (A) (A) (A) (A) (A)
                 (A) (A) (A) (A) (A) (A) (A) (A) (A) (A) (A) (A)
                 (A) (A) (A) (A) (A) (A) (A) (A) (A)
       Virtual   (A) (A) (A) (A) (A) (A) (A) (A) (A) (A) (A) (A)
                 (A) (A) (A) (A) (A) (A) (A) (A) (A) (A) (A) (A)
                 (A) (A) (A) (A) (A) (A) (A) (A) (A) (A) (A) (A)
                 (A) (A) (A) (A) (A) (A) (A) (A) (A) (A) (A) (A)
                 (A) (A) (A) (A) (A) (A) (A) (A) (A) (A) (A) (A)
                 (A) (A) (A) (A) (A) (A) (A) (A) (A) (A) (A) (A)
                 (A) (A) (A) (A) (A) (A) (A) (A) (A) (A) (A) (A)
                 (A) (A) (A) (A) (A) (A) (A) (A) (A) (A) (A) (A)
                 (A) (A) (A) (A) (A) (A) (A) (A) (A) (A) (A) (A)
                 (A) (A) (A) (A) (A) (A) (A) (A) (A) (A) (A) (A)
                 (A) (A) (A) (A) (A) (A) (A) (A) (A) (A) (A) (A)
                 (A) (A) (A) (A) (A) (A) (A) (A) (A) (A) (A) (A)
                 (A) (A) (A) (A) (A) (A) (A) (A) (A) (A) (A) (A)
                 (A) (A) (A) (A) (A) (A) (A) (A) (A) (A) (A) (A)
                 (A) (A) (A) (A) (A) (A) (A) (A) (A) (A) (A) (A)
                 (A) (A) (A) (A) (A) (A) (A) (A) (A) (A) (A) (A)
                 (A) (A) (A) (A) (A) (A) (A) (A) (A) (A) (A) (A)
                 (A) (A) (A) (A) (A) (A) (A) (A) (A) (A) (A) (A)
                 (A) (A) (A) (A) (A) (A) (A) (A) (A) (A) (A) (A)
                 (A) (A) (A) (A) (A) (A) (A) (A) (A) (A) (A) (A)
                 (A) (A) (A) (A) (A) (A) (A) (A) (A) (A) (A) (A)
                 (A) (A) (A) (A) (A) (A) (A) (A) (A) (A) (A) (A)
                 (A) (A) (A) (A) (A) (A) (A) (A) (A) (A) (A) (A)
                 (A) (A) (A) (A) (A)
 The electronic state is 1-A.
 Alpha  occ. eigenvalues --  -89.02704 -19.07885 -19.07107 -19.06940 -14.43427
 Alpha  occ. eigenvalues --  -10.26516 -10.24793 -10.23636 -10.23071 -10.22125
 Alpha  occ. eigenvalues --  -10.21443 -10.20921 -10.20202 -10.19298  -8.08716
 Alpha  occ. eigenvalues --   -6.05030  -6.04944  -6.04856  -1.09848  -1.03629
 Alpha  occ. eigenvalues --   -0.97170  -0.95818  -0.87942  -0.82450  -0.81183
 Alpha  occ. eigenvalues --   -0.75199  -0.73676  -0.67712  -0.66277  -0.63109
 Alpha  occ. eigenvalues --   -0.57978  -0.56175  -0.53869  -0.51968  -0.50381
 Alpha  occ. eigenvalues --   -0.49288  -0.48808  -0.47312  -0.46090  -0.45503
 Alpha  occ. eigenvalues --   -0.43610  -0.43297  -0.42883  -0.42553  -0.40418
 Alpha  occ. eigenvalues --   -0.39277  -0.38469  -0.37899  -0.36952  -0.32958
 Alpha  occ. eigenvalues --   -0.31359  -0.29839  -0.29110  -0.27905  -0.27690
 Alpha  occ. eigenvalues --   -0.26579  -0.23700
 Alpha virt. eigenvalues --   -0.09059  -0.05137   0.01019   0.02576   0.04295
 Alpha virt. eigenvalues --    0.04727   0.05795   0.06921   0.07412   0.08498
 Alpha virt. eigenvalues --    0.09084   0.09708   0.10451   0.10716   0.11833
 Alpha virt. eigenvalues --    0.12843   0.13118   0.13564   0.15937   0.16968
 Alpha virt. eigenvalues --    0.17221   0.18381   0.20115   0.21700   0.22297
 Alpha virt. eigenvalues --    0.23448   0.24294   0.25950   0.26370   0.26676
 Alpha virt. eigenvalues --    0.27200   0.28665   0.29316   0.30165   0.31503
 Alpha virt. eigenvalues --    0.34226   0.35282   0.36152   0.36613   0.37866
 Alpha virt. eigenvalues --    0.38889   0.39587   0.40467   0.41353   0.42161
 Alpha virt. eigenvalues --    0.42917   0.43584   0.45680   0.46383   0.48136
 Alpha virt. eigenvalues --    0.48452   0.50112   0.51493   0.51806   0.52709
 Alpha virt. eigenvalues --    0.53736   0.54565   0.55088   0.55957   0.57186
 Alpha virt. eigenvalues --    0.57876   0.58865   0.59352   0.60487   0.60845
 Alpha virt. eigenvalues --    0.61475   0.61607   0.63032   0.64498   0.65301
 Alpha virt. eigenvalues --    0.67082   0.70584   0.71868   0.72775   0.73640
 Alpha virt. eigenvalues --    0.75141   0.76215   0.79448   0.80473   0.82694
 Alpha virt. eigenvalues --    0.83305   0.84059   0.87346   0.88007   0.89312
 Alpha virt. eigenvalues --    0.91367   0.92582   0.94164   0.96189   0.96624
 Alpha virt. eigenvalues --    0.97122   0.97409   0.99807   1.00761   1.01943
 Alpha virt. eigenvalues --    1.02583   1.03744   1.04960   1.06567   1.09804
 Alpha virt. eigenvalues --    1.10802   1.12015   1.13372   1.17146   1.17684
 Alpha virt. eigenvalues --    1.21124   1.21555   1.23787   1.24837   1.28557
 Alpha virt. eigenvalues --    1.31474   1.32775   1.34093   1.36444   1.39432
 Alpha virt. eigenvalues --    1.40256   1.41164   1.41900   1.44003   1.45597
 Alpha virt. eigenvalues --    1.46571   1.46922   1.48161   1.49371   1.50393
 Alpha virt. eigenvalues --    1.52285   1.53165   1.53873   1.55110   1.55393
 Alpha virt. eigenvalues --    1.55801   1.58115   1.59132   1.61560   1.62268
 Alpha virt. eigenvalues --    1.63347   1.64330   1.65897   1.66133   1.68260
 Alpha virt. eigenvalues --    1.68949   1.70903   1.72137   1.72885   1.74549
 Alpha virt. eigenvalues --    1.75469   1.75683   1.77557   1.80747   1.82568
 Alpha virt. eigenvalues --    1.84613   1.85969   1.86715   1.88754   1.89607
 Alpha virt. eigenvalues --    1.91011   1.93884   1.94730   1.95463   1.97450
 Alpha virt. eigenvalues --    1.99981   2.01884   2.02910   2.04235   2.07417
 Alpha virt. eigenvalues --    2.09807   2.10536   2.11097   2.14524   2.16828
 Alpha virt. eigenvalues --    2.18717   2.19584   2.24585   2.25550   2.28128
 Alpha virt. eigenvalues --    2.30038   2.30387   2.32233   2.33786   2.35753
 Alpha virt. eigenvalues --    2.37211   2.38185   2.39478   2.44289   2.44892
 Alpha virt. eigenvalues --    2.45980   2.50431   2.51369   2.52621   2.54809
 Alpha virt. eigenvalues --    2.55646   2.56280   2.58094   2.59153   2.60324
 Alpha virt. eigenvalues --    2.61887   2.63343   2.63549   2.66167   2.67448
 Alpha virt. eigenvalues --    2.68890   2.70533   2.74300   2.76337   2.76818
 Alpha virt. eigenvalues --    2.78774   2.81880   2.83557   2.84092   2.84934
 Alpha virt. eigenvalues --    2.86709   2.86863   2.87837   2.88652   2.89197
 Alpha virt. eigenvalues --    2.92259   2.93265   2.95811   2.98166   2.99599
 Alpha virt. eigenvalues --    3.01752   3.03099   3.07922   3.12334   3.15059
 Alpha virt. eigenvalues --    3.15710   3.17742   3.24327   3.28252   3.30434
 Alpha virt. eigenvalues --    3.37410   3.41273   3.42888   3.44730   3.53449
 Alpha virt. eigenvalues --    3.55222   3.57083   3.59633   3.65024   3.68000
 Alpha virt. eigenvalues --    3.70358   3.73767   3.74751   3.79034   3.82180
 Alpha virt. eigenvalues --    3.85905   3.96292   4.05261   4.10046   4.25255
 Alpha virt. eigenvalues --    4.27286   4.37209   4.86052   4.87374   4.89530
 Alpha virt. eigenvalues --    4.91022   4.94092   4.97276   5.02070   5.11450
 Alpha virt. eigenvalues --    5.15465   5.24041   5.35278   7.99466  17.27873
 Alpha virt. eigenvalues --   17.36769  17.50427  23.52128  23.76462  23.78915
 Alpha virt. eigenvalues --   23.81568  23.84502  23.88172  23.91708  24.02572
 Alpha virt. eigenvalues --   24.10551  35.49710  49.84177  49.86296  49.94370
 Alpha virt. eigenvalues --  189.03358
          Condensed to atoms (all electrons):
               1          2          3          4          5          6
     1  C    5.245833   0.439910  -0.050472  -0.051339  -0.059823   0.007427
     2  C    0.439910   4.982532   0.422639   0.018864  -0.072698  -0.032105
     3  C   -0.050472   0.422639   4.898582   0.423982  -0.042341   0.416474
     4  C   -0.051339   0.018864   0.423982   5.149940   0.528628  -0.053499
     5  C   -0.059823  -0.072698  -0.042341   0.528628   4.837660   0.005963
     6  H    0.007427  -0.032105   0.416474  -0.053499   0.005963   0.550347
     7  H    0.291994  -0.026788   0.005082  -0.001358   0.004433  -0.000121
     8  H   -0.042114   0.427899  -0.049540   0.007253  -0.000388  -0.005487
     9  H    0.005068  -0.000953   0.005601  -0.035843   0.405620  -0.000186
    10  C    0.000350   0.006224  -0.049033   0.356320  -0.056964  -0.004204
    11  H    0.000075  -0.000345   0.006891  -0.034586  -0.007339   0.000032
    12  H   -0.000012   0.000348  -0.005829  -0.037069  -0.000368   0.000841
    13  H    0.000005   0.000509  -0.006851  -0.036865   0.001815   0.001129
    14  N    0.353211   0.015385  -0.048344  -0.001229   0.340898  -0.000066
    15  C   -0.108370   0.012306  -0.003253   0.011420  -0.090844   0.000071
    16  H    0.006234  -0.000123  -0.000103   0.001533  -0.008149  -0.000004
    17  H   -0.000458   0.000611   0.000071  -0.000588   0.005785  -0.000003
    18  C   -0.004081  -0.001497   0.000251  -0.001051  -0.001126   0.000002
    19  H    0.001416  -0.000668   0.000214  -0.000377   0.004129  -0.000003
    20  H   -0.000069   0.000075  -0.000013  -0.000059  -0.000544   0.000000
    21  C   -0.003406   0.000075  -0.000008   0.000017   0.000121  -0.000000
    22  H   -0.000008  -0.000021   0.000002  -0.000001   0.000033  -0.000000
    23  H    0.000256   0.000007   0.000000  -0.000003  -0.000012  -0.000000
    24  S   -0.000544   0.002449  -0.000665   0.000195  -0.001225   0.000026
    25  O   -0.000024   0.000009  -0.000000   0.000000  -0.000000   0.000000
    26  O    0.008271   0.000082   0.000096  -0.000088   0.000187   0.000001
    27  O   -0.110187   0.001099  -0.000424   0.000100  -0.001027   0.000007
               7          8          9         10         11         12
     1  C    0.291994  -0.042114   0.005068   0.000350   0.000075  -0.000012
     2  C   -0.026788   0.427899  -0.000953   0.006224  -0.000345   0.000348
     3  C    0.005082  -0.049540   0.005601  -0.049033   0.006891  -0.005829
     4  C   -0.001358   0.007253  -0.035843   0.356320  -0.034586  -0.037069
     5  C    0.004433  -0.000388   0.405620  -0.056964  -0.007339  -0.000368
     6  H   -0.000121  -0.005487  -0.000186  -0.004204   0.000032   0.000841
     7  H    0.356026  -0.004534  -0.000100  -0.000006  -0.000001  -0.000003
     8  H   -0.004534   0.531181   0.000081  -0.000260   0.000016   0.000002
     9  H   -0.000100   0.000081   0.527318  -0.004795   0.003907  -0.000063
    10  C   -0.000006  -0.000260  -0.004795   4.793754   0.408296   0.403210
    11  H   -0.000001   0.000016   0.003907   0.408296   0.560346  -0.025129
    12  H   -0.000003   0.000002  -0.000063   0.403210  -0.025129   0.550669
    13  H    0.000000   0.000005  -0.000045   0.404050  -0.026375  -0.028062
    14  N   -0.012377   0.005018  -0.031840   0.004406   0.000342  -0.000104
    15  C   -0.018028   0.000016  -0.006128  -0.000122  -0.000047   0.000011
    16  H   -0.000097   0.000017   0.000819  -0.000003  -0.000013   0.000006
    17  H   -0.000031  -0.000061   0.000173   0.000006  -0.000000  -0.000000
    18  C    0.002758   0.000016   0.000976  -0.000001  -0.000000  -0.000002
    19  H    0.000630  -0.000011   0.000435   0.000007   0.000002  -0.000006
    20  H   -0.000107   0.000001   0.000033  -0.000001  -0.000001   0.000001
    21  C    0.004781   0.000003  -0.000077   0.000000  -0.000000  -0.000000
    22  H    0.000636  -0.000002   0.000001  -0.000000   0.000000   0.000000
    23  H   -0.000431  -0.000000   0.000002   0.000000  -0.000000  -0.000000
    24  S   -0.041203   0.000913   0.000072   0.000004   0.000000  -0.000000
    25  O   -0.002040   0.000004   0.000000   0.000000   0.000000  -0.000000
    26  O    0.002710   0.000120   0.000003  -0.000000  -0.000000  -0.000000
    27  O    0.116582   0.001371   0.000019   0.000000   0.000000  -0.000000
              13         14         15         16         17         18
     1  C    0.000005   0.353211  -0.108370   0.006234  -0.000458  -0.004081
     2  C    0.000509   0.015385   0.012306  -0.000123   0.000611  -0.001497
     3  C   -0.006851  -0.048344  -0.003253  -0.000103   0.000071   0.000251
     4  C   -0.036865  -0.001229   0.011420   0.001533  -0.000588  -0.001051
     5  C    0.001815   0.340898  -0.090844  -0.008149   0.005785  -0.001126
     6  H    0.001129  -0.000066   0.000071  -0.000004  -0.000003   0.000002
     7  H    0.000000  -0.012377  -0.018028  -0.000097  -0.000031   0.002758
     8  H    0.000005   0.005018   0.000016   0.000017  -0.000061   0.000016
     9  H   -0.000045  -0.031840  -0.006128   0.000819   0.000173   0.000976
    10  C    0.404050   0.004406  -0.000122  -0.000003   0.000006  -0.000001
    11  H   -0.026375   0.000342  -0.000047  -0.000013  -0.000000  -0.000000
    12  H   -0.028062  -0.000104   0.000011   0.000006  -0.000000  -0.000002
    13  H    0.556468  -0.000125   0.000019  -0.000004  -0.000001   0.000000
    14  N   -0.000125   6.522648   0.279787  -0.027499  -0.020977  -0.051913
    15  C    0.000019   0.279787   5.104252   0.409522   0.402821   0.281761
    16  H   -0.000004  -0.027499   0.409522   0.555713  -0.026064  -0.041773
    17  H   -0.000001  -0.020977   0.402821  -0.026064   0.487778  -0.042926
    18  C    0.000000  -0.051913   0.281761  -0.041773  -0.042926   5.181389
    19  H   -0.000000  -0.004332  -0.046342   0.002197   0.003414   0.402058
    20  H    0.000000   0.004294  -0.034452  -0.013498   0.003614   0.374800
    21  C    0.000000   0.004845  -0.055002   0.005489  -0.001368   0.202393
    22  H   -0.000000   0.000400  -0.008801   0.000366   0.001329  -0.036591
    23  H   -0.000000  -0.000379   0.008202  -0.000222   0.001014  -0.031392
    24  S    0.000000  -0.000796  -0.006371   0.000199  -0.003085  -0.005922
    25  O    0.000000  -0.000007  -0.000135   0.000003  -0.000293   0.005003
    26  O    0.000000  -0.002467  -0.006698  -0.000079   0.000290   0.005648
    27  O    0.000000  -0.004319   0.017823   0.000632   0.010786  -0.010385
              19         20         21         22         23         24
     1  C    0.001416  -0.000069  -0.003406  -0.000008   0.000256  -0.000544
     2  C   -0.000668   0.000075   0.000075  -0.000021   0.000007   0.002449
     3  C    0.000214  -0.000013  -0.000008   0.000002   0.000000  -0.000665
     4  C   -0.000377  -0.000059   0.000017  -0.000001  -0.000003   0.000195
     5  C    0.004129  -0.000544   0.000121   0.000033  -0.000012  -0.001225
     6  H   -0.000003   0.000000  -0.000000  -0.000000  -0.000000   0.000026
     7  H    0.000630  -0.000107   0.004781   0.000636  -0.000431  -0.041203
     8  H   -0.000011   0.000001   0.000003  -0.000002  -0.000000   0.000913
     9  H    0.000435   0.000033  -0.000077   0.000001   0.000002   0.000072
    10  C    0.000007  -0.000001   0.000000  -0.000000   0.000000   0.000004
    11  H    0.000002  -0.000001  -0.000000   0.000000  -0.000000   0.000000
    12  H   -0.000006   0.000001  -0.000000   0.000000  -0.000000  -0.000000
    13  H   -0.000000   0.000000   0.000000  -0.000000  -0.000000   0.000000
    14  N   -0.004332   0.004294   0.004845   0.000400  -0.000379  -0.000796
    15  C   -0.046342  -0.034452  -0.055002  -0.008801   0.008202  -0.006371
    16  H    0.002197  -0.013498   0.005489   0.000366  -0.000222   0.000199
    17  H    0.003414   0.003614  -0.001368   0.001329   0.001014  -0.003085
    18  C    0.402058   0.374800   0.202393  -0.036591  -0.031392  -0.005922
    19  H    0.516212  -0.025085  -0.028663   0.007688  -0.003856  -0.008037
    20  H   -0.025085   0.597125  -0.019406  -0.003196  -0.007002   0.001778
    21  C   -0.028663  -0.019406   5.526654   0.377896   0.383969   0.190307
    22  H    0.007688  -0.003196   0.377896   0.542970  -0.026424  -0.012574
    23  H   -0.003856  -0.007002   0.383969  -0.026424   0.527634  -0.014921
    24  S   -0.008037   0.001778   0.190307  -0.012574  -0.014921  13.636629
    25  O   -0.000038  -0.000138  -0.060702  -0.000010  -0.000168   0.482602
    26  O    0.018255   0.000516  -0.066275   0.002591  -0.001467   0.420493
    27  O   -0.000823  -0.000205  -0.058499  -0.001573   0.002532   0.260640
              25         26         27
     1  C   -0.000024   0.008271  -0.110187
     2  C    0.000009   0.000082   0.001099
     3  C   -0.000000   0.000096  -0.000424
     4  C    0.000000  -0.000088   0.000100
     5  C   -0.000000   0.000187  -0.001027
     6  H    0.000000   0.000001   0.000007
     7  H   -0.002040   0.002710   0.116582
     8  H    0.000004   0.000120   0.001371
     9  H    0.000000   0.000003   0.000019
    10  C    0.000000  -0.000000   0.000000
    11  H    0.000000  -0.000000   0.000000
    12  H   -0.000000  -0.000000  -0.000000
    13  H    0.000000   0.000000   0.000000
    14  N   -0.000007  -0.002467  -0.004319
    15  C   -0.000135  -0.006698   0.017823
    16  H    0.000003  -0.000079   0.000632
    17  H   -0.000293   0.000290   0.010786
    18  C    0.005003   0.005648  -0.010385
    19  H   -0.000038   0.018255  -0.000823
    20  H   -0.000138   0.000516  -0.000205
    21  C   -0.060702  -0.066275  -0.058499
    22  H   -0.000010   0.002591  -0.001573
    23  H   -0.000168  -0.001467   0.002532
    24  S    0.482602   0.420493   0.260640
    25  O    8.148609  -0.041024  -0.042468
    26  O   -0.041024   8.265957  -0.052769
    27  O   -0.042468  -0.052769   8.478522
 Mulliken charges:
               1
     1  C    0.070857
     2  C   -0.195827
     3  C    0.076992
     4  C   -0.244299
     5  C    0.207578
     6  H    0.113359
     7  H    0.321593
     8  H    0.128482
     9  H    0.129902
    10  C   -0.261238
    11  H    0.113929
    12  H    0.141559
    13  H    0.134325
    14  N   -0.324457
    15  C   -0.143418
    16  H    0.134900
    17  H    0.178161
    18  C   -0.228395
    19  H    0.161583
    20  H    0.121539
    21  C   -0.403144
    22  H    0.155289
    23  H    0.162660
    24  S    1.099037
    25  O   -0.489183
    26  O   -0.554351
    27  O   -0.607434
 Sum of Mulliken charges =  -0.00000
 Mulliken charges with hydrogens summed into heavy atoms:
               1
     1  C    0.070857
     2  C   -0.067345
     3  C    0.190352
     4  C   -0.244299
     5  C    0.337479
    10  C    0.128574
    14  N   -0.324457
    15  C    0.169643
    18  C    0.054727
    21  C   -0.085194
    24  S    1.099037
    25  O   -0.489183
    26  O   -0.554351
    27  O   -0.285841
 Electronic spatial extent (au):  <R**2>=           3435.9227
 Charge=             -0.0000 electrons
 Dipole moment (field-independent basis, Debye):
    X=             10.6747    Y=              5.0756    Z=             -1.1818  Tot=             11.8789
 Quadrupole moment (field-independent basis, Debye-Ang):
   XX=            -95.2852   YY=            -80.9571   ZZ=            -95.8482
   XY=            -12.3760   XZ=              3.9722   YZ=              0.6563
 Traceless Quadrupole moment (field-independent basis, Debye-Ang):
   XX=             -4.5884   YY=              9.7397   ZZ=             -5.1514
   XY=            -12.3760   XZ=              3.9722   YZ=              0.6563
 Octapole moment (field-independent basis, Debye-Ang**2):
  XXX=            127.7766  YYY=             -2.9754  ZZZ=              0.2692  XYY=              9.5767
  XXY=             26.0659  XXZ=              9.9950  XZZ=             -1.3984  YZZ=              8.3769
  YYZ=             -3.2337  XYZ=             -2.3954
 Hexadecapole moment (field-independent basis, Debye-Ang**3):
 XXXX=          -3470.6368 YYYY=           -747.1705 ZZZZ=           -362.5336 XXXY=           -111.3508
 XXXZ=             68.6604 YYYX=             -4.9144 YYYZ=             -0.0807 ZZZX=              6.4222
 ZZZY=             -4.9973 XXYY=           -661.2944 XXZZ=           -637.5178 YYZZ=           -198.6178
 XXYZ=              3.3827 YYXZ=             -0.9542 ZZXY=             -9.1202
 N-N= 1.082509665197D+03 E-N=-4.585504389116D+03  KE= 1.026470022199D+03
 No NMR shielding tensors so no spin-rotation constants.
 Leave Link  601 at Wed Apr 20 08:47:47 2022, MaxMem=  7864320000 cpu:               1.9 elap:               0.2
 (Enter /data0/home/wuhanyu/software/g16/l701.exe)
 ... and contract with generalized density number  0.
 Compute integral first derivatives.
 R6Disp: Adding Grimme-D3(BJ) dispersion energy 1st derivatives to the gradient.
 Leave Link  701 at Wed Apr 20 08:47:48 2022, MaxMem=  7864320000 cpu:               2.2 elap:               0.2
 (Enter /data0/home/wuhanyu/software/g16/l702.exe)
 L702 exits ... SP integral derivatives will be done elsewhere.
 Leave Link  702 at Wed Apr 20 08:47:48 2022, MaxMem=  7864320000 cpu:               0.3 elap:               0.0
 (Enter /data0/home/wuhanyu/software/g16/l703.exe)
 Integral derivatives from FoFJK, PRISM(SPDF).
 Compute integral first derivatives, UseDBF=F ICtDFT=           0.
 Calling FoFJK, ICntrl=      2127 FMM=F ISym2X=0 I1Cent= 0 IOpClX= 0 NMat=1 NMatS=1 NMatT=0.
 FoFJK:  IHMeth= 1 ICntrl=    2127 DoSepK=F KAlg= 0 I1Cent=           0 FoldK=F
 IRaf=         0 NMat=       1 IRICut=       1 DoRegI=T DoRafI=F ISym2E= 0 IDoP0=0 IntGTp=1.
 FoFCou: FMM=F IPFlag=           0 FMFlag=      100000 FMFlg1=         800
         NFxFlg=           0 DoJE=F BraDBF=F KetDBF=F FulRan=T
         wScrn=  0.000000 ICntrl=      2127 IOpCl=  0 I1Cent=           0 NGrid=           0
         NMat0=    1 NMatS0=      1 NMatT0=    0 NMatD0=    1 NMtDS0=    0 NMtDT0=    0
 Symmetry not used in FoFCou.
 Leave Link  703 at Wed Apr 20 08:47:53 2022, MaxMem=  7864320000 cpu:              88.9 elap:               5.6
 (Enter /data0/home/wuhanyu/software/g16/l716.exe)
 Dipole        = 4.19976876D+00 1.99689157D+00-4.64962021D-01
 ***** Axes restored to original set *****
 -------------------------------------------------------------------
 Center     Atomic                   Forces (Hartrees/Bohr)
 Number     Number              X              Y              Z
 -------------------------------------------------------------------
      1        6           0.025757815    0.021840032   -0.016366184
      2        6          -0.000321812   -0.004916805    0.002452775
      3        6           0.000874649   -0.003162375   -0.000000588
      4        6           0.006708049   -0.001704949   -0.002126997
      5        6           0.004157645    0.008906860   -0.001274140
      6        1           0.002051927   -0.003101312   -0.001073635
      7        1          -0.033519496   -0.014904138    0.014962201
      8        1          -0.002011363   -0.006670397    0.000654075
      9        1           0.003046439    0.006559653   -0.002132109
     10        6          -0.018205944   -0.005276104    0.008420708
     11        1           0.003135434    0.004100288   -0.001085776
     12        1           0.001225861   -0.000981685   -0.005508452
     13        1           0.004612869   -0.000815598    0.002276011
     14        7          -0.020457859   -0.004486821    0.001425715
     15        6           0.008996826   -0.007083093   -0.016129795
     16        1           0.000037636    0.012349485    0.006185437
     17        1          -0.013026885   -0.002224539    0.017257742
     18        6          -0.005390170   -0.007624149    0.010583103
     19        1           0.006495217   -0.002062358   -0.012749736
     20        1           0.001781139    0.008431679   -0.003800582
     21        6           0.010547183   -0.013305520    0.005401473
     22        1          -0.003512459    0.005878785    0.004051429
     23        1          -0.005578307    0.007371628   -0.002926754
     24       16          -0.011992243   -0.009066457   -0.021758672
     25        8           0.007668556    0.005127754   -0.000545600
     26        8          -0.005215686    0.004771326    0.012331116
     27        8           0.032134981    0.002048811    0.001477235
 -------------------------------------------------------------------
 Cartesian Forces:  Max     0.033519496 RMS     0.010123419
 Leave Link  716 at Wed Apr 20 08:47:53 2022, MaxMem=  7864320000 cpu:               0.3 elap:               0.0
 (Enter /data0/home/wuhanyu/software/g16/l103.exe)

 GradGradGradGradGradGradGradGradGradGradGradGradGradGradGradGradGradGrad
 Berny optimization.
 FormGI is forming the generalized inverse of G from B-inverse, IUseBI=4.
 Internal  Forces:  Max     0.021193987 RMS     0.005072384
 Search for a local minimum.
 Step number   1 out of a maximum of  157
 All quantities printed in internal units (Hartrees-Bohrs-Radians)
 RMS Force = .50724D-02 SwitMx=.10000D-02 MixMth= 1
 Mixed Optimization -- RFO/linear search
 Second derivative matrix not updated -- first step.
 ITU=  0
     Eigenvalues ---    0.00252   0.00615   0.00805   0.00956   0.01163
     Eigenvalues ---    0.01621   0.01664   0.01937   0.02039   0.02111
     Eigenvalues ---    0.02170   0.02199   0.02243   0.02469   0.03694
     Eigenvalues ---    0.03797   0.04690   0.04790   0.05290   0.06028
     Eigenvalues ---    0.07012   0.07251   0.07251   0.08375   0.08464
     Eigenvalues ---    0.09274   0.09374   0.09897   0.11019   0.12346
     Eigenvalues ---    0.13016   0.15621   0.15995   0.15999   0.15999
     Eigenvalues ---    0.16000   0.16000   0.16000   0.16201   0.17981
     Eigenvalues ---    0.18528   0.18989   0.20391   0.21206   0.22138
     Eigenvalues ---    0.23144   0.23486   0.23867   0.24575   0.24998
     Eigenvalues ---    0.27621   0.29677   0.31303   0.32044   0.32569
     Eigenvalues ---    0.32723   0.33121   0.33289   0.33400   0.33474
     Eigenvalues ---    0.33679   0.33807   0.33929   0.34556   0.34621
     Eigenvalues ---    0.34730   0.40859   0.42617   0.46291   0.47900
     Eigenvalues ---    0.49419   0.54278   0.58225   0.91158   0.95984
 RFO step:  Lambda=-1.49547002D-02 EMin= 2.52443812D-03
 Linear search not attempted -- first point.
 Iteration  1 RMS(Cart)=  0.02836781 RMS(Int)=  0.00065423
 Iteration  2 RMS(Cart)=  0.00107556 RMS(Int)=  0.00029382
 Iteration  3 RMS(Cart)=  0.00000090 RMS(Int)=  0.00029382
 ITry= 1 IFail=0 DXMaxC= 1.12D-01 DCOld= 1.00D+10 DXMaxT= 3.00D-01 DXLimC= 3.00D+00 Rises=F
 Variable       Old X    -DE/DX   Delta X   Delta X   Delta X     New X
                                 (Linear)    (Quad)   (Total)
    R1        2.65492  -0.00409   0.00000  -0.00686  -0.00682   2.64810
    R2        2.55522  -0.01616   0.00000  -0.08981  -0.08972   2.46550
    R3        2.52938   0.00145   0.00000   0.00397   0.00391   2.53329
    R4        2.60152   0.00208   0.00000   0.00455   0.00454   2.60605
    R5        2.06402  -0.00699   0.00000  -0.01939  -0.01939   2.04463
    R6        2.67643  -0.00508   0.00000  -0.01293  -0.01297   2.66346
    R7        2.06115  -0.00380   0.00000  -0.01048  -0.01048   2.05067
    R8        2.61246  -0.00944   0.00000  -0.02063  -0.02066   2.59179
    R9        2.80749   0.01053   0.00000   0.02972   0.02972   2.83721
   R10        2.06295  -0.00718   0.00000  -0.01988  -0.01988   2.04307
   R11        2.60837  -0.01101   0.00000  -0.02222  -0.02221   2.58616
   R12        2.37382   0.02067   0.00000   0.09107   0.09130   2.46512
   R13        2.07657  -0.00451   0.00000  -0.01276  -0.01276   2.06381
   R14        2.08547  -0.00562   0.00000  -0.01616  -0.01616   2.06930
   R15        2.08227  -0.00502   0.00000  -0.01435  -0.01435   2.06792
   R16        2.80146  -0.00082   0.00000  -0.00282  -0.00296   2.79850
   R17        2.09815  -0.01220   0.00000  -0.03582  -0.03582   2.06233
   R18        2.12137  -0.02119   0.00000  -0.06462  -0.06462   2.05675
   R19        2.91682   0.00109   0.00000   0.00854   0.00806   2.92488
   R20        2.10763  -0.01401   0.00000  -0.04178  -0.04178   2.06585
   R21        2.09542  -0.00889   0.00000  -0.02599  -0.02599   2.06942
   R22        2.87935   0.00196   0.00000   0.00617   0.00603   2.88538
   R23        2.08354  -0.00671   0.00000  -0.01921  -0.01921   2.06433
   R24        2.08839  -0.00818   0.00000  -0.02363  -0.02363   2.06476
   R25        3.43852  -0.00055   0.00000  -0.00196  -0.00188   3.43664
   R26        2.73991   0.00852   0.00000   0.00874   0.00874   2.74865
   R27        2.76104   0.01363   0.00000   0.01471   0.01471   2.77574
   R28        2.94335  -0.01026   0.00000  -0.01909  -0.01860   2.92475
    A1        2.16189   0.01254   0.00000   0.05149   0.05102   2.21291
    A2        2.09620  -0.01251   0.00000  -0.05138  -0.05131   2.04489
    A3        2.01788  -0.00033   0.00000  -0.00452  -0.00479   2.01308
    A4        2.09251   0.00407   0.00000   0.02369   0.02367   2.11618
    A5        2.06131  -0.00192   0.00000  -0.01117  -0.01117   2.05015
    A6        2.12909  -0.00215   0.00000  -0.01236  -0.01237   2.11671
    A7        2.08249   0.00301   0.00000   0.01238   0.01228   2.09477
    A8        2.11793  -0.00083   0.00000  -0.00233  -0.00228   2.11565
    A9        2.08271  -0.00218   0.00000  -0.01005  -0.01001   2.07271
   A10        2.08102  -0.00773   0.00000  -0.03401  -0.03413   2.04689
   A11        2.09417   0.00532   0.00000   0.02249   0.02255   2.11672
   A12        2.10793   0.00242   0.00000   0.01153   0.01159   2.11952
   A13        2.13083  -0.00085   0.00000   0.00149   0.00152   2.13235
   A14        2.09274   0.00634   0.00000   0.02356   0.02350   2.11624
   A15        2.05958  -0.00549   0.00000  -0.02503  -0.02500   2.03458
   A16        2.70290   0.01108   0.00000   0.05656   0.05648   2.75938
   A17        1.97877  -0.00330   0.00000  -0.01878  -0.01882   1.95994
   A18        1.94086  -0.00038   0.00000  -0.00212  -0.00214   1.93872
   A19        1.94917  -0.00095   0.00000  -0.00554  -0.00557   1.94360
   A20        1.86180   0.00204   0.00000   0.01184   0.01181   1.87361
   A21        1.86243   0.00234   0.00000   0.01330   0.01325   1.87567
   A22        1.86425   0.00067   0.00000   0.00370   0.00369   1.86794
   A23        2.12131   0.00682   0.00000   0.02586   0.02601   2.14732
   A24        2.09294  -0.00466   0.00000  -0.01321  -0.01364   2.07929
   A25        2.06851  -0.00218   0.00000  -0.01308  -0.01288   2.05562
   A26        1.90874  -0.00560   0.00000  -0.04365  -0.04386   1.86488
   A27        1.89347  -0.00355   0.00000  -0.03448  -0.03456   1.85890
   A28        1.94467   0.00526   0.00000   0.02687   0.02691   1.97158
   A29        1.85040   0.00275   0.00000   0.02960   0.02866   1.87906
   A30        1.93294   0.00268   0.00000   0.01508   0.01559   1.94852
   A31        1.93084  -0.00189   0.00000   0.00492   0.00482   1.93566
   A32        1.92777  -0.00309   0.00000  -0.02223  -0.02189   1.90588
   A33        1.90240   0.00076   0.00000   0.00311   0.00344   1.90585
   A34        1.97321   0.00362   0.00000   0.02862   0.02769   2.00090
   A35        1.82883   0.00232   0.00000   0.02345   0.02331   1.85214
   A36        1.91909  -0.00182   0.00000  -0.02590  -0.02546   1.89364
   A37        1.90677  -0.00187   0.00000  -0.00716  -0.00713   1.89964
   A38        1.94896   0.00184   0.00000   0.00618   0.00594   1.95490
   A39        1.92476   0.00114   0.00000   0.01415   0.01398   1.93874
   A40        1.96616  -0.00129   0.00000  -0.00384  -0.00401   1.96215
   A41        1.84120   0.00179   0.00000   0.03099   0.03057   1.87177
   A42        1.89590  -0.00315   0.00000  -0.02843  -0.02854   1.86736
   A43        1.88143  -0.00024   0.00000  -0.01808  -0.01785   1.86359
   A44        1.85621   0.00482   0.00000   0.01600   0.01591   1.87212
   A45        1.84394  -0.00014   0.00000   0.00564   0.00538   1.84931
   A46        1.76011   0.00035   0.00000   0.01434   0.01489   1.77501
   A47        2.09070  -0.00278   0.00000  -0.01821  -0.01822   2.07247
   A48        1.97740  -0.00438   0.00000  -0.02662  -0.02695   1.95045
   A49        1.89965   0.00309   0.00000   0.01727   0.01699   1.91663
   A50        2.03406  -0.00705   0.00000  -0.04555  -0.04499   1.98906
    D1       -2.99659   0.00250   0.00000   0.02636   0.02719  -2.96940
    D2        0.12019   0.00239   0.00000   0.03343   0.03408   0.15427
    D3        0.01034  -0.00044   0.00000  -0.01521  -0.01485  -0.00450
    D4        3.12713  -0.00055   0.00000  -0.00814  -0.00796   3.11917
    D5        2.43665  -0.00183   0.00000  -0.02764  -0.02879   2.40786
    D6       -0.57578   0.00191   0.00000   0.01580   0.01596  -0.55982
    D7       -0.01690  -0.00025   0.00000   0.01033   0.00977  -0.00713
    D8       -3.12645   0.00059   0.00000   0.02626   0.02567  -3.10078
    D9        3.00075  -0.00188   0.00000  -0.02331  -0.02268   2.97807
   D10       -0.10880  -0.00104   0.00000  -0.00739  -0.00678  -0.11558
   D11       -0.00087   0.00068   0.00000   0.01120   0.01152   0.01065
   D12        3.13001   0.00030   0.00000   0.01073   0.01080   3.14081
   D13       -3.11666   0.00078   0.00000   0.00380   0.00433  -3.11233
[...]
 .00045340,0.00034873,0.00145377,0.00048173,-0.00906674,-0.00124157,0.0
 0020646,0.00184355,-0.00013354,0.00055168,-0.00013123,0.00047417,0.013
 88577,-0.30349899,-0.00602906,0.00044393,-0.00792555,-0.00055720,-0.01
 237677,0.32861260,-0.00083985,0.00061983,0.00002696,0.00050920,-0.0000
 1386,0.00022586,-0.00034384,-0.00020400,0.00010620,-0.00005394,0.00050
 388,0.00018521,0.00024204,-0.00007345,-0.00026845,-0.00003301,-0.00001
 184,-0.00004449,-0.00039787,-0.00003251,-0.00008970,-0.00005285,0.0000
 4123,-0.00000774,-0.00003844,-0.00005479,-0.00009826,0.00001239,0.0000
 0476,0.00002968,-0.00000023,-0.00000801,0.00000281,-0.00002100,-0.0000
 0821,0.00000568,0.00000172,0.00000380,0.00000044,-0.00081975,0.0015562
 9,-0.00363662,-0.00452515,0.02639949,-0.00255154,-0.00039524,0.0004311
 1,0.00205444,-0.00036009,0.00021888,-0.00157937,0.00216252,-0.00786858
 ,-0.04699797,-0.00012098,-0.02682256,0.00077708,0.00449338,0.00747935,
 0.05080129,0.00123257,0.00080472,0.00066475,-0.00028786,0.00000530,0.0
 0000170,0.00015358,0.00030216,-0.00009205,0.00020020,-0.00043038,-0.00
 013143,-0.00074046,0.00002587,0.00037965,0.00001245,-0.00000925,-0.000
 00638,-0.00013819,0.00010881,-0.00001487,0.00007476,-0.00008549,0.0000
 4918,-0.00007974,0.00004614,0.00001260,0.00003411,0.00000464,-0.000000
 09,-0.00000761,-0.00001386,0.00000409,0.00000439,0.00000148,0.00000490
 ,-0.00000648,0.00000356,-0.00000290,0.00052592,-0.00104568,-0.00047860
 ,-0.01519979,-0.00166288,-0.00740816,0.00006361,0.00044319,0.00022489,
 0.00119413,-0.00102022,0.00123399,-0.17048628,-0.03765175,-0.00297845,
 -0.02109354,-0.00722763,-0.00117990,-0.00150947,-0.00146935,0.00087958
 ,0.49713182,0.00040362,0.00109447,-0.00003432,0.00034604,-0.00013968,0
 .00011049,-0.00030376,-0.00007957,0.00008110,0.00000374,0.00024523,0.0
 0010310,-0.00026012,-0.00060284,0.00020758,-0.00002266,-0.00001366,-0.
 00005849,-0.00021878,-0.00011620,0.00002828,-0.00004437,0.00001443,-0.
 00006624,0.00001073,-0.00004644,-0.00005874,0.00000854,-0.00004989,-0.
 00000248,0.00000562,0.00001414,-0.00000159,0.00000848,0.00000345,-0.00
 000643,0.00001629,0.00000874,-0.00000819,0.00209396,-0.00176052,0.0007
 2333,0.00799591,0.00598502,-0.00386976,0.00076067,0.00027307,0.0015790
 4,-0.00023005,0.00040366,-0.00002816,-0.02750879,-0.08853660,0.0015825
 9,0.00725140,0.00319708,0.00119000,-0.03461642,-0.01224933,-0.00127351
 ,-0.03793365,0.37007820,-0.00192754,-0.00025545,-0.00129631,0.00028828
 ,-0.00029386,0.00002630,-0.00042308,-0.00016748,0.00025153,-0.00014471
 ,0.00047264,0.00021126,0.00047298,0.00045259,0.00003958,-0.00005046,-0
 .00002243,-0.00000406,0.00182262,0.00018160,-0.00001708,-0.00003064,0.
 00005731,-0.00007628,-0.00017177,-0.00017392,-0.00022448,0.00001001,0.
 00002334,0.00005316,-0.00001859,-0.00001642,-0.00001503,-0.00002805,0.
 00000857,-0.00000134,0.00002309,-0.00000740,0.00000138,-0.00066483,-0.
 00004852,-0.00080081,-0.02705612,-0.01097901,-0.00630152,-0.00282074,0
 .00131659,-0.00361117,-0.00038183,0.00029131,0.00197921,-0.00460307,-0
 .00102805,-0.07819502,0.02509585,0.01052827,0.00290390,-0.00079479,-0.
 00095019,0.00009522,-0.01567302,0.00662244,0.60273547,-0.00006066,-0.0
 0003860,-0.00002148,0.00003353,0.00000849,-0.00000081,-0.00000712,0.00
 000082,0.00000736,0.00010222,-0.00000041,-0.00008472,0.00001741,-0.000
 11094,-0.00006299,0.00000643,0.00000626,0.00000218,-0.00023048,0.00002
 369,0.00002916,-0.00000101,0.00000099,0.00000568,0.00009057,0.00005784
 ,0.00006782,-0.00000757,-0.00000535,-0.00001557,0.00000817,0.00000376,
 0.00000509,0.00000769,-0.00000560,0.00000035,-0.00000780,0.00000318,-0
 .00000061,0.00020832,0.00022405,-0.00017385,0.00080930,-0.00023354,0.0
 0139456,0.00006699,-0.00001285,-0.00000543,-0.00029138,0.00037580,-0.0
 0076596,-0.01850697,0.01041995,0.02081547,-0.00485459,-0.00235949,-0.0
 0097553,0.00131145,-0.00005631,-0.00028360,-0.14490131,0.05740477,0.11
 375226,0.15777235,-0.00096176,-0.00010406,-0.00060411,0.00031883,-0.00
 008242,-0.00005553,-0.00020056,-0.00023229,0.00015848,-0.00008980,0.00
 032938,-0.00003340,0.00032272,-0.00007559,-0.00005475,-0.00001466,0.00
 000143,-0.00000698,0.00024725,-0.00002579,-0.00000380,-0.00002864,0.00
 003561,-0.00003668,0.00005148,0.00004046,0.00000396,-0.00001681,-0.000
 00838,0.00000257,0.00000741,0.00000932,0.00000060,0.00000335,-0.000004
 77,-0.00000403,0.00000710,0.00000122,-0.00000041,-0.00004862,0.0001659
 5,0.00015786,0.00073027,-0.00016024,-0.00007611,-0.00001922,-0.0000436
 3,0.00004912,0.00043428,0.00001508,-0.00006253,-0.00992997,0.00418095,
 0.01087609,-0.00342373,-0.00066596,-0.00070176,0.00055187,0.00084950,0
 .00025256,0.06034515,-0.07932743,-0.07134320,-0.06076890,0.08575209,-0
 .00001074,0.00003472,-0.00001782,-0.00000424,-0.00000160,0.00002388,0.
 00000610,0.00004716,-0.00001735,0.00002371,-0.00005693,-0.00003340,-0.
 00011816,-0.00001241,-0.00002647,0.00000463,0.00000031,0.00000411,0.00
 003968,0.00001118,0.00002243,0.00000333,-0.00000148,-0.00000371,0.0000
 1204,0.00001105,0.00001097,0.00000684,-0.00000869,0.00000299,-0.000000
 86,0.00000210,-0.00000087,-0.00000002,0.00000244,-0.00000168,0.0000056
 6,0.00000147,-0.00000112,0.00010142,0.00004060,-0.00004401,-0.00000537
 ,0.00020094,0.00112990,0.00008604,-0.00006364,0.00012409,0.00022952,-0
 .00002861,0.00002294,-0.00351507,0.00227408,0.00346911,-0.00129368,-0.
 00006027,0.00110526,0.00059582,0.00052981,0.00031617,0.11497984,-0.070
 28512,-0.18405078,-0.12521021,0.07474093,0.19434409,-0.00040408,-0.000
 19555,-0.00018099,0.00010032,0.00000361,-0.00001343,-0.00011574,-0.000
 03872,0.00005613,0.00000486,0.00015398,0.00003594,0.00016168,0.0002043
 4,-0.00012670,-0.00000539,0.00000218,-0.00000825,-0.00029640,-0.000041
 22,0.00004612,-0.00002261,0.00001892,0.00000841,0.00003019,-0.00001213
 ,-0.00005039,-0.00000035,0.00001675,0.00000403,-0.00000231,-0.00000758
 ,-0.00000745,-0.00001737,0.00000375,0.00000596,-0.00000393,-0.00000481
 ,0.00000599,-0.00012165,0.00009532,-0.00017554,-0.00456586,-0.00351462
 ,-0.00007701,-0.00078077,0.00040035,-0.00110962,0.00000826,-0.00000543
 ,0.00039456,-0.01310433,0.00789214,-0.02672090,0.00103393,0.00087115,-
 0.00013480,0.00080556,-0.00027030,0.00009757,-0.08121290,0.02342016,-0
 .08720081,0.00794498,-0.00549991,0.01708383,0.09002214,-0.00015682,-0.
 00026166,-0.00004530,0.00011299,0.00006917,-0.00004636,0.00000482,-0.0
 0008693,-0.00000073,-0.00006452,0.00010683,0.00003923,0.00023354,0.000
 15738,-0.00014228,0.00001339,0.00000396,-0.00000216,-0.00078147,-0.000
 02198,0.00010172,-0.00002852,0.00001537,0.00001978,0.00002373,0.000011
 55,-0.00002218,0.00000107,0.00000992,0.00000796,0.00000335,0.00000275,
 -0.00000101,0.00000139,-0.00000242,0.00000086,-0.00000110,-0.00000039,
 -0.00000122,-0.00060174,0.00018983,-0.00022565,-0.00198192,-0.00063739
 ,0.00035442,-0.00027552,0.00005984,-0.00049630,-0.00025249,-0.00033234
 ,0.00015437,-0.00512815,0.00334387,-0.01160080,0.00046346,0.00073039,0
 .00034014,0.00062214,0.00014247,-0.00009219,0.02489550,-0.05922124,0.0
 5769618,-0.00517369,0.00359306,-0.01147077,-0.02209689,0.06246053,0.00
 005042,-0.00011395,-0.00006467,-0.00009393,0.00002537,0.00007360,0.000
 04621,0.00002769,-0.00002880,0.00000718,-0.00004450,-0.00000574,-0.000
 02015,0.00007940,-0.00001807,-0.00000722,0.00000314,-0.00000125,0.0001
 9126,-0.00002399,-0.00000847,0.00000433,-0.00000091,0.00000262,0.00000
 990,0.00000416,0.00000031,-0.00000241,0.00001176,0.00000203,0.00000113
 ,-0.00000265,-0.00000112,-0.00000466,-0.00000079,0.00000356,-0.0000055
 8,-0.00000109,0.00000112,-0.00024109,0.00001379,0.00008286,0.00071260,
 -0.00023801,0.00119281,-0.00004802,0.00005719,0.00009404,0.00027627,-0
 .00001887,0.00032608,0.00061634,0.00032926,-0.00066671,-0.00014209,-0.
 00013590,0.00103749,-0.00033075,-0.00032205,-0.00003866,-0.08807822,0.
 05606595,-0.27006547,-0.00807730,0.00593081,-0.01801653,0.09568402,-0.
 06142158,0.28742779,-0.02202570,0.00175581,-0.00965280,0.00573926,-0.0
 0163342,-0.00191274,-0.00310218,-0.00275981,0.00189116,-0.00138394,0.0
 0410368,0.00022801,0.00176305,-0.00176623,-0.00092372,0.00007507,-0.00
 007466,-0.00002915,0.00031664,0.00101523,-0.00440128,-0.00018121,0.000
 39558,-0.00031452,0.00024728,0.00008922,-0.00021605,-0.00010670,-0.000
 51973,0.00008713,0.00004687,0.00020347,-0.00002984,0.00021543,0.000088
 11,-0.00023360,0.00040908,0.00009931,-0.00005527,-0.00024142,0.0038153
 8,0.00192714,0.00070184,-0.00570756,-0.00357650,-0.00001637,0.00073160
 ,-0.00006886,-0.00035711,-0.00033145,-0.00132929,-0.00026552,-0.030135
 58,0.00256349,-0.00237728,-0.00250592,0.00133301,-0.00661941,-0.000989
 42,0.00062905,-0.06115502,-0.00169579,-0.00144076,-0.00112293,0.019235
 31,-0.00048841,-0.00001637,0.01061412,-0.00148514,0.90155123,0.0092399
 5,0.00098290,0.00464211,-0.00432918,0.00099074,0.00080418,0.00257018,0
 .00210622,-0.00126141,0.00061584,-0.00343874,-0.00003121,-0.00195477,0
 .00015217,0.00127340,0.00004173,0.00002393,0.00012940,0.00388025,0.000
 93294,0.00163588,0.00044886,-0.00031646,0.00004403,-0.00063013,-0.0001
 9260,0.00007664,0.00012418,0.00014287,-0.00002938,-0.00009250,-0.00011
 723,0.00000788,-0.00006381,0.00002227,0.00004442,-0.00009484,-0.000037
 07,0.00002566,-0.00162283,-0.00250600,-0.00239740,-0.00371848,0.002210
 96,0.00046661,0.00120974,-0.00079071,0.00134732,0.00016179,0.00090494,
 -0.00110843,-0.01690356,-0.01076296,-0.00313446,0.00316976,0.00127489,
 -0.00121332,0.00447358,0.00261607,0.00068995,-0.00006358,-0.13008134,0
 .00587115,0.00102243,-0.00818992,0.00268933,0.00109442,-0.00405997,-0.
 00117677,0.02923471,0.50061534,0.01963595,-0.00020693,0.01292354,-0.00
 274791,0.00376232,-0.00156348,0.00292306,0.00193954,-0.00234926,0.0006
 7318,-0.00332256,0.00063990,-0.00097558,0.00099219,0.00037456,0.000616
 70,0.00008558,-0.00015506,-0.02709859,0.00333664,-0.00250933,-0.000050
 48,-0.00029785,0.00069387,0.00017335,0.00015264,0.00005605,0.00025797,
 0.00010308,-0.00013013,0.00000517,0.00000347,0.00004355,0.00005881,0.0
 0000095,0.00005307,-0.00014227,0.00001908,-0.00003057,-0.00338806,-0.0
 0594935,-0.00645373,-0.00239639,0.00243499,0.00560345,0.00219025,0.001
 20352,-0.00207101,-0.00691486,-0.00632674,-0.00425634,0.00042869,-0.00
 664042,0.00096285,0.00194600,0.00269188,-0.00148337,-0.00138220,-0.001
 39080,-0.00032766,-0.00318124,0.00664715,-0.05789477,0.00077168,-0.023
 01776,-0.00083377,0.00075408,0.02862766,-0.00498753,0.07301477,0.03675
 073,0.76208172,0.00428336,-0.00056628,0.00403065,-0.00220885,0.0001098
 6,0.00026769,0.00091975,0.00090523,-0.00067786,0.00055583,-0.00109054,
 -0.00006983,-0.00022711,0.00068141,0.00015107,-0.00005295,0.00003371,0
 .00007317,0.00095453,-0.00052781,-0.00049631,0.00002446,-0.00008421,0.
 00010124,0.00001365,-0.00001851,0.00004427,0.00002611,0.00019167,-0.00
 003021,-0.00000304,-0.00007014,0.00000866,-0.00008341,-0.00003268,0.00
 009234,-0.00015776,-0.00003923,0.00001962,-0.00096812,-0.00093385,-0.0
 0146386,0.00009007,0.00067682,0.00071465,-0.00020015,-0.00019563,0.000
 13302,0.00024055,0.00051137,0.00029257,0.00219575,-0.00349105,0.000043
 05,0.00049738,0.00060047,-0.00026934,-0.00142803,-0.00074211,-0.000418
 33,-0.00534630,0.00277712,-0.00647620,-0.00014427,-0.00337588,-0.00076
 613,-0.00057856,-0.00091106,0.00142529,-0.42738093,-0.11441283,-0.1542
 7358,0.45807562,-0.00162401,-0.00036124,-0.00057598,0.00058411,-0.0002
 7954,-0.00003383,-0.00043625,-0.00035727,0.00020146,-0.00005484,0.0006
 3021,-0.00002249,0.00046852,0.00000901,-0.00030183,-0.00003855,0.00000
 179,0.00000121,0.00004178,-0.00030530,-0.00021565,-0.00012974,0.000062
 78,-0.00004412,0.00017260,0.00003608,-0.00001233,-0.00003184,0.0000009
 5,0.00000507,0.00002458,0.00001864,0.00000082,-0.00000597,-0.00001793,
 0.00001205,-0.00001110,-0.00000083,-0.00000292,-0.00008509,0.00078694,
 0.00031864,0.00110396,-0.00078629,0.00029878,-0.00022738,0.00026343,-0
 .00034722,-0.00019535,-0.00007636,-0.00005601,0.00341345,-0.00790602,0
 .00023980,-0.00050361,0.00001806,0.00022646,-0.00311644,-0.00096342,-0
 .00018184,-0.02735416,-0.00144842,-0.00955025,-0.00020689,-0.00007317,
 -0.00040319,-0.00062145,0.00211048,-0.00077114,-0.11807639,-0.12744699
 ,-0.05013044,0.13151937,0.09731928,-0.00303635,0.00019379,-0.00117461,
 0.00003559,-0.00072685,0.00025696,-0.00043882,-0.00019849,0.00033185,0
 .00001787,0.00046703,-0.00018941,0.00008845,-0.00006320,-0.00011492,-0
 .00012590,-0.00000580,0.00006455,0.00471293,-0.00098704,-0.00035094,0.
 00002287,0.00003171,-0.00010647,0.00000286,-0.00002685,-0.00001260,-0.
 00004375,0.00001737,0.00001451,0.00000014,-0.00001552,-0.00000831,-0.0
 0003308,-0.00000534,0.00001330,-0.00000684,-0.00001241,0.00001146,0.00
 051489,0.00108880,0.00098326,0.00062706,-0.00055056,-0.00084731,-0.000
 41734,-0.00021482,0.00042398,0.00104525,0.00115926,0.00057683,0.000864
 02,-0.00147245,0.00105077,-0.00027956,-0.00027807,0.00018334,-0.000585
 55,-0.00015499,-0.00011864,-0.00446130,0.00317599,0.00528882,0.0001261
 1,0.00189582,0.00013653,0.00016040,-0.00301260,0.00148669,-0.15289937,
 -0.04842890,-0.14547926,0.17364177,0.05741803,0.13940162,0.01400334,-0
 .00149803,0.00804768,-0.00797630,0.00253781,-0.00013418,0.00438211,0.0
 0321718,-0.00245358,0.00152412,-0.00493844,-0.00005985,-0.00213788,0.0
 0185390,0.00173798,0.00009311,0.00010469,-0.00001261,-0.00791812,0.000
 51684,-0.00255011,0.00004225,-0.00032760,0.00026624,-0.00024350,-0.000
 06250,0.00011326,0.00014666,0.00045867,-0.00010061,-0.00005778,-0.0001
 6881,0.00002876,-0.00018312,-0.00006829,0.00020165,-0.00036327,-0.0000
 9383,0.00004701,-0.00356603,-0.00531318,-0.00748526,-0.00256629,0.0042
 3471,0.00279975,0.00093500,-0.00031738,-0.00001201,-0.00116673,-0.0010
 8036,-0.00060490,-0.00230763,0.00106320,0.00042223,0.00178952,0.001151
 99,-0.00153889,0.00244009,-0.00012015,-0.00059056,-0.00658620,-0.00061
 926,0.01115671,0.00140319,0.00418051,-0.00141962,0.00007400,0.00017494
 ,-0.00015992,-0.29457049,0.08292125,0.12096052,-0.02924952,0.01232876,
 0.01930238,0.32433645,-0.00732093,-0.00096424,-0.00307339,0.00439274,-
 0.00130944,-0.00069737,-0.00249298,-0.00252240,0.00173678,-0.00095461,
 0.00357464,0.00012603,0.00349744,0.00001801,-0.00217651,-0.00012976,-0
 .00004060,-0.00005882,0.00150061,-0.00051898,0.00045316,-0.00039066,0.
 00034610,-0.00028215,0.00025671,0.00006104,-0.00002325,-0.00013312,-0.
 00004860,0.00008620,0.00004117,0.00006930,0.00000169,0.00003972,-0.000
 05361,-0.00003629,0.00007085,-0.00001198,-0.00001026,-0.00161264,0.000
 47801,0.00124130,0.00143538,-0.00075981,0.00039491,-0.00044862,0.00027
 965,-0.00021425,-0.00009659,0.00001643,0.00015981,0.00236317,-0.000581
 20,0.00084165,0.00070635,-0.00005070,-0.00055034,-0.00019719,-0.000552
 05,-0.00117363,0.02388367,-0.00595066,-0.01779261,0.00020406,-0.008876
 47,0.00097179,-0.00004589,-0.00043878,-0.00000841,0.08818620,-0.124135
 71,-0.05161619,-0.00784331,0.01923955,0.00048275,-0.10365158,0.1033994
 7,-0.00023453,-0.00067110,-0.00679936,-0.00158864,0.00035753,0.0008609
 5,0.00066361,0.00023253,0.00010659,0.00000484,-0.00093758,-0.00002993,
 -0.00117373,0.00044108,0.00034264,-0.00020623,0.00004381,-0.00003241,0
 .00200464,-0.00035638,-0.00200049,-0.00006694,0.00008080,-0.00040076,-
 0.00008642,-0.00009606,-0.00002219,-0.00013380,0.00013075,0.00002531,-
 0.00003554,-0.00003540,-0.00001678,-0.00017650,-0.00004419,0.00007945,
 -0.00006582,-0.00007062,0.00004996,-0.00070872,-0.00056916,-0.00048688
 ,-0.00037920,0.00094541,-0.00046720,-0.00024143,-0.00019443,0.00028647
 ,0.00115506,0.00103121,0.00062658,0.00160954,0.00131924,-0.00056176,-0
 .00148145,-0.00120301,0.00042097,-0.00034266,0.00021361,0.00043951,0.0
 0617366,-0.00058496,0.00407016,-0.00013510,-0.00020405,0.00156709,0.00
 050350,-0.00340572,0.00061888,0.13613742,-0.05353297,-0.16574504,-0.01
 260614,0.00007005,0.01415650,-0.15999281,0.06971317,0.17921738,-0.0113
 9053,0.00301572,-0.00193471,-0.00351566,-0.00219083,0.00227381,0.00024
 752,0.00139332,0.00021030,0.00059764,-0.00082659,-0.00035914,-0.000608
 64,-0.00018867,0.00087460,-0.00044611,-0.00005253,0.00013774,0.0015521
 8,-0.00107104,0.00185767,-0.00000893,0.00001340,-0.00016057,-0.0002234
 1,-0.00014122,0.00014697,-0.00005404,0.00015554,-0.00001484,-0.0000208
 3,-0.00009055,0.00000451,-0.00009834,-0.00004052,0.00006629,-0.0001271
 6,-0.00003388,0.00003307,0.00016627,0.00122571,0.00092934,-0.00164398,
 -0.00191220,-0.00224464,-0.00086923,-0.00071732,0.00116930,-0.00132501
 ,-0.00097732,0.00161880,-0.00138171,0.00309124,-0.00183698,0.00044923,
 0.00024909,0.00010012,0.00119390,0.00027287,0.00026729,0.00812361,0.00
 094658,-0.00271480,0.00035348,-0.00205707,-0.00034593,0.00106270,0.000
 28944,-0.00032847,-0.09014318,0.00367783,-0.02185902,0.00015193,0.0030
 6193,-0.03883474,0.00772300,-0.00126018,0.03140339,0.09023529,0.002112
 10,0.00118766,-0.00019855,0.00150597,0.00025555,-0.00070037,-0.0007055
 9,-0.00074742,0.00025470,-0.00039921,0.00113996,0.00009945,0.00099277,
 0.00084235,-0.00062688,0.00008360,0.00001571,-0.00007195,-0.00559076,-
 0.00243507,0.00012366,-0.00030112,0.00012280,0.00012151,0.00038365,0.0
 0014765,-0.00010651,-0.00002398,0.00001120,0.00000425,0.00003712,0.000
 04124,-0.00000790,0.00001061,-0.00000916,0.00000073,0.00000343,0.00000
 170,-0.00000628,0.00103152,-0.00052612,0.00005300,-0.00117311,-0.00393
 049,-0.00307785,-0.00146342,-0.00032829,0.00097373,-0.00017178,-0.0014
 0480,0.00209286,0.00184903,0.00087366,0.00019173,-0.00052401,-0.000426
 13,0.00047712,-0.00078696,-0.00002425,-0.00038216,0.00509766,-0.001693
 67,0.02910680,-0.00078350,0.00289607,0.00083482,-0.00182258,-0.0079443
 0,0.00173210,0.00662824,-0.10090052,0.06014761,-0.00367192,0.01952558,
 -0.00977667,0.00351496,0.01933304,-0.01267357,-0.00583271,0.07397605,-
 0.00881687,0.00023482,-0.00290229,-0.00034900,-0.00155051,0.00091400,-
 0.00077003,-0.00011421,0.00058214,-0.00017339,0.00062425,-0.00023721,-
 0.00008439,-0.00034766,0.00003534,-0.00033221,-0.00003213,0.00007318,0
 .01180692,-0.00097112,-0.00366126,0.00004757,0.00012851,-0.00034275,-0
 .00019637,-0.00010834,-0.00003673,-0.00008474,0.00000868,0.00006222,-0
 .00002081,-0.00002783,-0.00002585,-0.00008284,0.00000331,0.00000742,0.
 00003794,-0.00002289,0.00002125,0.00047897,0.00163847,0.00250830,-0.00
 073487,-0.00269580,-0.00288086,-0.00083343,-0.00067318,0.00129576,0.00
 331798,0.00333701,0.00085123,-0.00287451,0.00307784,-0.00168741,-0.000
 10308,-0.00079688,0.00052659,0.00156238,0.00075461,0.00069251,-0.00092
 220,-0.00183907,-0.01510187,-0.00116458,0.00213630,0.00076797,0.000965
 37,0.00464453,0.00155315,-0.03875389,0.05581556,-0.38716226,-0.0034912
 8,0.00385686,-0.01597851,0.01203073,0.00150424,-0.02630564,0.02954063,
 -0.06858536,0.44643156\\-0.00001026,-0.00001235,0.00001692,-0.00000760
 ,0.00000761,-0.00000052,0.00000814,0.00000563,-0.00000386,0.00001212,-
 0.00000848,-0.00000500,-0.00001572,-0.00000234,0.00000724,-0.00000188,
 0.00000058,0.00000098,0.00001292,-0.00000184,-0.00000426,0.00000346,0.
 00000237,0.00000196,-0.00000060,-0.00000297,-0.00000205,-0.00000554,0.
 00000237,0.00000071,-0.00000003,-0.00000055,-0.00000098,0.00000276,0.0
 0000182,0.00000089,-0.00000010,0.00000181,-0.00000200,0.00000954,0.000
 01666,-0.00001230,0.00000376,-0.00000621,0.00000078,-0.00000374,-0.000
 00567,0.00000541,0.00000620,0.00000546,-0.00000284,-0.00000656,0.00000
 562,0.00000242,-0.00000091,0.00000138,0.00000333,0.00000387,-0.0000044
 7,-0.00000702,0.00001459,-0.00001010,-0.00000336,-0.00000262,-0.000000
 20,-0.00000098,-0.00000858,-0.00000774,0.00000783,0.00000337,0.0000128
 6,-0.00004274,0.00000331,-0.00000178,0.00000810,-0.00000515,0.00000348
 ,0.00000738,-0.00001476,-0.00000294,0.00002398\\\@


 The most important thing in communication is to hear what isn't being said.
 -- Peter F. Drucker
 Job cpu time:       0 days  1 hours 12 minutes 58.6 seconds.
 Elapsed time:       0 days  0 hours  4 minutes 34.9 seconds.
 File lengths (MBytes):  RWF=    323 Int=      0 D2E=      0 Chk=     11 Scr=      1
 Normal termination of Gaussian 16 at Wed Apr 20 09:00:44 2022.
