Title Card Required                                                     
Freq      RB3LYP                                                      6-311G(d,p)         
Number of atoms                            I                9
Info1-9                                    I   N=           9
          19          18        1002           0           0         100
           6          18        -502
Full Title                                 C   N=           2
Title Card Required     
Route                                      C   N=           4
#p opt freq b3lyp/6-311g(d,p) em=gd3bj          
Charge                                     I                0
Multiplicity                               I                1
Number of electrons                        I               36
Number of alpha electrons                  I               18
Number of beta electrons                   I               18
Number of basis functions                  I              114
Number of independent functions            I              114
Number of point charges in /Mol/           I                0
Number of translation vectors              I                0
Atomic numbers                             I   N=           9
           6           6           6           7           1           1
           1           1           7
Nuclear charges                            R   N=           9
  6.00000000E+00  6.00000000E+00  6.00000000E+00  7.00000000E+00  1.00000000E+00
  1.00000000E+00  1.00000000E+00  1.00000000E+00  7.00000000E+00
Current cartesian coordinates              R   N=          27
  1.20446543E+00  1.82922296E+00 -1.36768920E-04  2.13422136E+00 -5.88174123E-01
 -1.40966672E-04 -1.89477300E+00 -9.74856955E-01  8.28039404E-05 -1.38852735E+00
  1.55820376E+00  6.82448499E-05 -2.66422947E+00  2.96989106E+00  2.61653269E-04
  2.10705598E+00  3.65268558E+00 -2.83362991E-04  4.08381142E+00 -1.18186411E+00
 -2.70208349E-04 -3.79669026E+00 -1.71026917E+00  1.90206360E-04  1.89465868E-01
 -2.31928871E+00  1.13369668E-04
Number of symbols in /Mol/                 I                0
Force Field                                I                0
Atom Types                                 C   N=           9
                                                            
                                                
Int Atom Types                             I   N=           9
           0           0           0           0           0           0
           0           0           0
MM charges                                 R   N=           9
  0.00000000E+00  0.00000000E+00  0.00000000E+00  0.00000000E+00  0.00000000E+00
  0.00000000E+00  0.00000000E+00  0.00000000E+00  0.00000000E+00
Integer atomic weights                     I   N=           9
          12          12          12          14           1           1
           1           1          14
Real atomic weights                        R   N=           9
  1.20000000E+01  1.20000000E+01  1.20000000E+01  1.40030740E+01  1.00782504E+00
  1.00782504E+00  1.00782504E+00  1.00782504E+00  1.40030740E+01
Atom fragment info                         I   N=           9
           0           0           0           0           0           0
           0           0           0
Atom residue num                           I   N=           9
           0           0           0           0           0           0
           0           0           0
Nuclear spins                              I   N=           9
           0           0           0           2           1           1
           1           1           2
Nuclear ZEff                               R   N=           9
 -3.60000000E+00 -3.60000000E+00 -3.60000000E+00 -4.55000000E+00 -1.00000000E+00
 -1.00000000E+00 -1.00000000E+00 -1.00000000E+00 -4.55000000E+00
Nuclear ZNuc                               R   N=           9
  6.00000000E+00  6.00000000E+00  6.00000000E+00  7.00000000E+00  1.00000000E+00
  1.00000000E+00  1.00000000E+00  1.00000000E+00  7.00000000E+00
Nuclear QMom                               R   N=           9
  0.00000000E+00  0.00000000E+00  0.00000000E+00  2.04400000E+00  0.00000000E+00
  0.00000000E+00  0.00000000E+00  0.00000000E+00  2.04400000E+00
Nuclear GFac                               R   N=           9
  0.00000000E+00  0.00000000E+00  0.00000000E+00  4.03761000E-01  2.79284600E+00
  2.79284600E+00  2.79284600E+00  2.79284600E+00  4.03761000E-01
MicOpt                                     I   N=           9
          -1          -1          -1          -1          -1          -1
          -1          -1          -1
Number of residues                         I                0
Number of secondary structures             I                0
Redundant internal dimensions              I   N=           4
          38           9          13          16
Redundant internal coordinate indices      I   N=         152
           1           2           0           0           1           4
           0           0           1           6           0           0
           2           7           0           0           2           9
           0           0           3           4           0           0
           3           8           0           0           3           9
           0           0           4           5           0           0
           2           1           4           0           2           1
           6           0           4           1           6           0
           1           2           7           0           1           2
           9           0           7           2           9           0
           4           3           8           0           4           3
           9           0           8           3           9           0
           1           4           3           0           1           4
           5           0           3           4           5           0
           2           9           3           0           4           1
           2           7           4           1           2           9
           6           1           2           7           6           1
           2           9           2           1           4           3
           2           1           4           5           6           1
           4           3           6           1           4           5
           1           2           9           3           7           2
           9           3           8           3           4           1
           8           3           4           5           9           3
           4           1           9           3           4           5
           4           3           9           2           8           3
           9           2
Redundant internal coordinates             R   N=          38
  2.59002987E+00  2.60711776E+00  2.03462175E+00  2.03798165E+00  2.60361896E+00
  2.58315335E+00  2.03914698E+00  2.48023152E+00  1.90270255E+00  1.83382406E+00
  2.31479392E+00  2.13456733E+00  2.23356456E+00  1.93097053E+00  2.11865021E+00
  2.13701423E+00  1.94642524E+00  2.19974584E+00  1.87219448E+00  2.20149468E+00
  2.20949615E+00  1.84136365E+00 -3.14159084E+00 -2.39931740E-05  2.02335932E-05
  3.14158708E+00 -3.80389084E-05  3.14150471E+00  3.14153858E+00 -1.03970721E-04
  7.84044630E-05 -3.14153808E+00 -3.14157089E+00  7.19645328E-05  9.16208726E-05
 -3.14145084E+00 -1.03593272E-04  3.14156196E+00
ZRed-IntVec                                I   N=          38
           0           0           0           0           0           0
           0           0           0           0           0           0
           0           0           0           0           0           0
           0           0           0           0           0           0
           0           0           0           0           0           0
           0           0           0           0           0           0
           0           0
ZRed-FPVec                                 R   N=          38
  0.00000000E+00  0.00000000E+00  0.00000000E+00  0.00000000E+00  0.00000000E+00
  0.00000000E+00  0.00000000E+00  0.00000000E+00  0.00000000E+00  0.00000000E+00
  0.00000000E+00  0.00000000E+00  0.00000000E+00  0.00000000E+00  0.00000000E+00
  0.00000000E+00  0.00000000E+00  0.00000000E+00  0.00000000E+00  0.00000000E+00
  0.00000000E+00  0.00000000E+00  0.00000000E+00  0.00000000E+00  0.00000000E+00
  0.00000000E+00  0.00000000E+00  0.00000000E+00  0.00000000E+00  0.00000000E+00
  0.00000000E+00  0.00000000E+00  0.00000000E+00  0.00000000E+00  0.00000000E+00
  0.00000000E+00  0.00000000E+00  0.00000000E+00
ZRed-Constraint1                           R   N=          38
  2.59002987E+00  2.60711776E+00  2.03462175E+00  2.03798165E+00  2.60361896E+00
  2.58315335E+00  2.03914698E+00  2.48023152E+00  1.90270255E+00  1.83382406E+00
  2.31479392E+00  2.13456733E+00  2.23356456E+00  1.93097053E+00  2.11865021E+00
  2.13701423E+00  1.94642524E+00  2.19974584E+00  1.87219448E+00  2.20149468E+00
  2.20949615E+00  1.84136365E+00 -3.14159084E+00 -2.39931740E-05  2.02335932E-05
  3.14158708E+00 -3.80389084E-05  3.14150471E+00  3.14153858E+00 -1.03970724E-04
  7.84044630E-05 -3.14153808E+00 -3.14157089E+00  7.19645282E-05  9.16208751E-05
 -3.14145084E+00 -1.03593272E-04  3.14156196E+00
ZRed-Constraint2                           R   N=          38
  2.64892360E+00  2.63011673E+00  2.05841662E+00  2.05001086E+00  2.71151400E+00
  2.63012838E+00  2.05834966E+00  2.64910943E+00  1.85993971E+00  1.89224538E+00
  2.27063168E+00  2.12030824E+00  2.20680745E+00  1.87077043E+00  2.20560742E+00
  2.12012480E+00  1.89217572E+00  2.27088479E+00  1.89884208E+00  2.19207401E+00
  2.19226916E+00  1.87074434E+00  3.14157082E+00  6.81555070E-06  8.89676285E-05
 -3.14147504E+00  6.77475128E-05  3.14132399E+00  3.14156101E+00 -3.68053410E-04
 -7.76549165E-05  3.14154362E+00  3.14145980E+00  2.03608224E-04 -1.17315182E-04
 -3.14137351E+00  1.19583429E-04 -3.14145574E+00
SymInf integers                            I   N=          26
           1           1           1           1           1           0
           0           0           0           0           0           0
           0           0           0           0           0           0
           0           0           0           0           0           0
           0           0
RotTr to input orientation                 R   N=          12
  4.02925549E-01 -9.15232758E-01 -0.00000000E+00 -9.15232758E-01 -4.02925549E-01
  0.00000000E+00 -0.00000000E+00 -0.00000000E+00 -1.00000000E+00 -4.56887145E+00
 -1.14342242E-01 -1.40924973E+00
Number of contracted shells                I               41
Number of primitive shells                 I               84
Pure/Cartesian d shells                    I                0
Pure/Cartesian f shells                    I                0
Highest angular momentum                   I                2
Largest degree of contraction              I                6
Shell types                                I   N=          41
           0          -1          -1          -1          -2           0
          -1          -1          -1          -2           0          -1
          -1          -1          -2           0          -1          -1
          -1          -2           0           0           0           1
           0           0           0           1           0           0
           0           1           0           0           0           1
           0          -1          -1          -1          -2
Number of primitives per shell             I   N=          41
           6           3           1           1           1           6
           3           1           1           1           6           3
           1           1           1           6           3           1
           1           1           3           1           1           1
           3           1           1           1           3           1
           1           1           3           1           1           1
           6           3           1           1           1
Shell to atom map                          I   N=          41
           1           1           1           1           1           2
           2           2           2           2           3           3
           3           3           3           4           4           4
           4           4           5           5           5           5
           6           6           6           6           7           7
           7           7           8           8           8           8
           9           9           9           9           9
Primitive exponents                        R   N=          84
  4.56324000E+03  6.82024000E+02  1.54973000E+02  4.44553000E+01  1.30290000E+01
  1.82773000E+00  2.09642000E+01  4.80331000E+00  1.45933000E+00  4.83456000E-01
  1.45585000E-01  6.26000000E-01  4.56324000E+03  6.82024000E+02  1.54973000E+02
  4.44553000E+01  1.30290000E+01  1.82773000E+00  2.09642000E+01  4.80331000E+00
  1.45933000E+00  4.83456000E-01  1.45585000E-01  6.26000000E-01  4.56324000E+03
  6.82024000E+02  1.54973000E+02  4.44553000E+01  1.30290000E+01  1.82773000E+00
  2.09642000E+01  4.80331000E+00  1.45933000E+00  4.83456000E-01  1.45585000E-01
  6.26000000E-01  6.29348000E+03  9.49044000E+02  2.18776000E+02  6.36916000E+01
  1.88282000E+01  2.72023000E+00  3.06331000E+01  7.02614000E+00  2.11205000E+00
  6.84009000E-01  2.00878000E-01  9.13000000E-01  3.38650000E+01  5.09479000E+00
  1.15879000E+00  3.25840000E-01  1.02741000E-01  7.50000000E-01  3.38650000E+01
  5.09479000E+00  1.15879000E+00  3.25840000E-01  1.02741000E-01  7.50000000E-01
  3.38650000E+01  5.09479000E+00  1.15879000E+00  3.25840000E-01  1.02741000E-01
  7.50000000E-01  3.38650000E+01  5.09479000E+00  1.15879000E+00  3.25840000E-01
  1.02741000E-01  7.50000000E-01  6.29348000E+03  9.49044000E+02  2.18776000E+02
  6.36916000E+01  1.88282000E+01  2.72023000E+00  3.06331000E+01  7.02614000E+00
  2.11205000E+00  6.84009000E-01  2.00878000E-01  9.13000000E-01
Contraction coefficients                   R   N=          84
  1.96665025E-03  1.52306019E-02  7.61269097E-02  2.60801033E-01  6.16462078E-01
  2.21006028E-01  1.14660081E-01  9.19999648E-01 -3.03068213E-03  1.00000000E+00
  1.00000000E+00  1.00000000E+00  1.96665025E-03  1.52306019E-02  7.61269097E-02
  2.60801033E-01  6.16462078E-01  2.21006028E-01  1.14660081E-01  9.19999648E-01
 -3.03068213E-03  1.00000000E+00  1.00000000E+00  1.00000000E+00  1.96665025E-03
  1.52306019E-02  7.61269097E-02  2.60801033E-01  6.16462078E-01  2.21006028E-01
  1.14660081E-01  9.19999648E-01 -3.03068213E-03  1.00000000E+00  1.00000000E+00
  1.00000000E+00  1.96978815E-03  1.49612859E-02  7.35005308E-02  2.48936766E-01
  6.02459433E-01  2.56201759E-01  1.11906080E-01  9.21666655E-01 -2.56919183E-03
  1.00000000E+00  1.00000000E+00  1.00000000E+00  2.54938145E-02  1.90373109E-01
  8.52161486E-01  1.00000000E+00  1.00000000E+00  1.00000000E+00  2.54938145E-02
  1.90373109E-01  8.52161486E-01  1.00000000E+00  1.00000000E+00  1.00000000E+00
  2.54938145E-02  1.90373109E-01  8.52161486E-01  1.00000000E+00  1.00000000E+00
  1.00000000E+00  2.54938145E-02  1.90373109E-01  8.52161486E-01  1.00000000E+00
  1.00000000E+00  1.00000000E+00  1.96978815E-03  1.49612859E-02  7.35005308E-02
  2.48936766E-01  6.02459433E-01  2.56201759E-01  1.11906080E-01  9.21666655E-01
 -2.56919183E-03  1.00000000E+00  1.00000000E+00  1.00000000E+00
P(S=P) Contraction coefficients            R   N=          84
  0.00000000E+00  0.00000000E+00  0.00000000E+00  0.00000000E+00  0.00000000E+00
  0.00000000E+00  4.02486927E-02  2.37593957E-01  8.15853851E-01  1.00000000E+00
  1.00000000E+00  0.00000000E+00  0.00000000E+00  0.00000000E+00  0.00000000E+00
  0.00000000E+00  0.00000000E+00  0.00000000E+00  4.02486927E-02  2.37593957E-01
  8.15853851E-01  1.00000000E+00  1.00000000E+00  0.00000000E+00  0.00000000E+00
  0.00000000E+00  0.00000000E+00  0.00000000E+00  0.00000000E+00  0.00000000E+00
  4.02486927E-02  2.37593957E-01  8.15853851E-01  1.00000000E+00  1.00000000E+00
  0.00000000E+00  0.00000000E+00  0.00000000E+00  0.00000000E+00  0.00000000E+00
  0.00000000E+00  0.00000000E+00  3.83119186E-02  2.37403116E-01  8.17592398E-01
  1.00000000E+00  1.00000000E+00  0.00000000E+00  0.00000000E+00  0.00000000E+00
  0.00000000E+00  0.00000000E+00  0.00000000E+00  0.00000000E+00  0.00000000E+00
  0.00000000E+00  0.00000000E+00  0.00000000E+00  0.00000000E+00  0.00000000E+00
  0.00000000E+00  0.00000000E+00  0.00000000E+00  0.00000000E+00  0.00000000E+00
  0.00000000E+00  0.00000000E+00  0.00000000E+00  0.00000000E+00  0.00000000E+00
  0.00000000E+00  0.00000000E+00  0.00000000E+00  0.00000000E+00  0.00000000E+00
  0.00000000E+00  0.00000000E+00  0.00000000E+00  3.83119186E-02  2.37403116E-01
  8.17592398E-01  1.00000000E+00  1.00000000E+00  0.00000000E+00
Coordinates of each shell                  R   N=         123
  1.20446543E+00  1.82922296E+00 -1.36768920E-04  1.20446543E+00  1.82922296E+00
 -1.36768920E-04  1.20446543E+00  1.82922296E+00 -1.36768920E-04  1.20446543E+00
  1.82922296E+00 -1.36768920E-04  1.20446543E+00  1.82922296E+00 -1.36768920E-04
  2.13422136E+00 -5.88174123E-01 -1.40966672E-04  2.13422136E+00 -5.88174123E-01
 -1.40966672E-04  2.13422136E+00 -5.88174123E-01 -1.40966672E-04  2.13422136E+00
 -5.88174123E-01 -1.40966672E-04  2.13422136E+00 -5.88174123E-01 -1.40966672E-04
 -1.89477300E+00 -9.74856955E-01  8.28039404E-05 -1.89477300E+00 -9.74856955E-01
  8.28039404E-05 -1.89477300E+00 -9.74856955E-01  8.28039404E-05 -1.89477300E+00
 -9.74856955E-01  8.28039404E-05 -1.89477300E+00 -9.74856955E-01  8.28039404E-05
 -1.38852735E+00  1.55820376E+00  6.82448499E-05 -1.38852735E+00  1.55820376E+00
  6.82448499E-05 -1.38852735E+00  1.55820376E+00  6.82448499E-05 -1.38852735E+00
  1.55820376E+00  6.82448499E-05 -1.38852735E+00  1.55820376E+00  6.82448499E-05
 -2.66422947E+00  2.96989106E+00  2.61653269E-04 -2.66422947E+00  2.96989106E+00
  2.61653269E-04 -2.66422947E+00  2.96989106E+00  2.61653269E-04 -2.66422947E+00
  2.96989106E+00  2.61653269E-04  2.10705598E+00  3.65268558E+00 -2.83362991E-04
  2.10705598E+00  3.65268558E+00 -2.83362991E-04  2.10705598E+00  3.65268558E+00
 -2.83362991E-04  2.10705598E+00  3.65268558E+00 -2.83362991E-04  4.08381142E+00
 -1.18186411E+00 -2.70208349E-04  4.08381142E+00 -1.18186411E+00 -2.70208349E-04
  4.08381142E+00 -1.18186411E+00 -2.70208349E-04  4.08381142E+00 -1.18186411E+00
 -2.70208349E-04 -3.79669026E+00 -1.71026917E+00  1.90206360E-04 -3.79669026E+00
 -1.71026917E+00  1.90206360E-04 -3.79669026E+00 -1.71026917E+00  1.90206360E-04
 -3.79669026E+00 -1.71026917E+00  1.90206360E-04  1.89465868E-01 -2.31928871E+00
  1.13369668E-04  1.89465868E-01 -2.31928871E+00  1.13369668E-04  1.89465868E-01
 -2.31928871E+00  1.13369668E-04  1.89465868E-01 -2.31928871E+00  1.13369668E-04
  1.89465868E-01 -2.31928871E+00  1.13369668E-04
Num ILSW                                   I              100
ILSW                                       I   N=         100
           0           0           0           0           2           0
           0           0           0           0         402          -1
           5           0           0           0           2           0
           0           0           0           0           1           0
           1           0           0           0           0           0
           0           0      100000           0          -1           0
           0           0           0           0           0           0
           0           0           0           1           0           0
           0 -2000000000           1           0           0           0
           0           0         141          52           0           0
           0           0           5           0           0           0
           0           0           0           9           0           1
           0           0           0           0           0           0
           0           0           0           0           0           0
           0           0           0           0           0           0
           0           0           0           0           0           0
           0           0           0           0
Num RLSW                                   I               52
RLSW                                       R   N=          52
  8.00000000E-01  7.20000000E-01  1.00000000E+00  8.10000000E-01  2.00000000E-01
  0.00000000E+00  0.00000000E+00  1.00000000E+00  0.00000000E+00  0.00000000E+00
  0.00000000E+00  0.00000000E+00  1.00000000E+00  0.00000000E+00  0.00000000E+00
  0.00000000E+00  0.00000000E+00  1.00000000E+00  0.00000000E+00  0.00000000E+00
  0.00000000E+00  0.00000000E+00  1.00000000E+00  0.00000000E+00  0.00000000E+00
  0.00000000E+00  0.00000000E+00  1.00000000E+00  0.00000000E+00  0.00000000E+00
  0.00000000E+00  0.00000000E+00  1.00000000E+00  0.00000000E+00  0.00000000E+00
  0.00000000E+00  0.00000000E+00  0.00000000E+00  1.00000000E+00  1.00000000E+00
  0.00000000E+00  1.00000000E+00  0.00000000E+00  0.00000000E+00  0.00000000E+00
  0.00000000E+00  0.00000000E+00  0.00000000E+00  0.00000000E+00  0.00000000E+00
  0.00000000E+00  0.00000000E+00
MxBond                                     I                3
NBond                                      I   N=           9
           3           3           3           3           1           1
           1           1           2
IBond                                      I   N=          27
           2           4           6           1           7           9
           4           8           9           1           3           5
           4           0           0           1           0           0
           2           0           0           3           0           0
           2           3           0
RBond                                      R   N=          27
  1.50000000E+00  1.00000000E+00  1.00000000E+00  1.50000000E+00  1.00000000E+00
  1.00000000E+00  1.00000000E+00  1.00000000E+00  1.00000000E+00  1.00000000E+00
  1.00000000E+00  1.00000000E+00  1.00000000E+00  0.00000000E+00  0.00000000E+00
  1.00000000E+00  0.00000000E+00  0.00000000E+00  1.00000000E+00  0.00000000E+00
  0.00000000E+00  1.00000000E+00  0.00000000E+00  0.00000000E+00  1.00000000E+00
  1.00000000E+00  0.00000000E+00
Virial Ratio                               R      2.003820431130642E+00
SCF Energy                                 R     -2.262882560238355E+02
Total Energy                               R     -2.262882560238355E+02
RMS Force                                  R      9.089121384789901E-05
RMS Density                                R      2.811193571643867E-09
NImag                                      I                0
Job Status                                 I                1
Nuclear derivative order                   I                2
External E-field                           R   N=          35
  0.00000000E+00  0.00000000E+00  0.00000000E+00  0.00000000E+00  0.00000000E+00
  0.00000000E+00  0.00000000E+00  0.00000000E+00  0.00000000E+00  0.00000000E+00
  0.00000000E+00  0.00000000E+00  0.00000000E+00  0.00000000E+00  0.00000000E+00
  0.00000000E+00  0.00000000E+00  0.00000000E+00  0.00000000E+00  0.00000000E+00
  0.00000000E+00  0.00000000E+00  0.00000000E+00  0.00000000E+00  0.00000000E+00
  0.00000000E+00  0.00000000E+00  0.00000000E+00  0.00000000E+00  0.00000000E+00
  0.00000000E+00  0.00000000E+00  0.00000000E+00  0.00000000E+00  0.00000000E+00
IOpCl                                      I                0
IROHF                                      I                0
Alpha Orbital Energies                     R   N=         114
 -1.43702469E+01 -1.42867280E+01 -1.02218427E+01 -1.01987297E+01 -1.01798349E+01
 -1.01624844E+00 -8.71650963E-01 -7.45328386E-01 -6.18403263E-01 -5.92234217E-01
 -5.65030688E-01 -4.43951886E-01 -4.41154201E-01 -4.33087701E-01 -4.09757613E-01
 -2.85212156E-01 -2.69642689E-01 -2.34569045E-01  2.12536227E-02  2.96555812E-02
  6.20958313E-02  7.93764709E-02  8.53975914E-02  1.04936383E-01  1.94337367E-01
  2.12761118E-01  2.35549700E-01  2.84708689E-01  3.23433921E-01  3.62546720E-01
  3.78230951E-01  3.99031487E-01  4.00289548E-01  4.42584345E-01  4.66724112E-01
  4.92945141E-01  5.13128757E-01  5.60084709E-01  5.99895323E-01  6.23931177E-01
  6.38283644E-01  6.51373943E-01  6.66236053E-01  7.03456869E-01  7.33383156E-01
  7.33813566E-01  7.70138686E-01  7.80107021E-01  9.00971431E-01  9.25925091E-01
  9.79495311E-01  9.88901225E-01  1.13249486E+00  1.13634432E+00  1.16055552E+00
  1.19647794E+00  1.24651524E+00  1.30605653E+00  1.30826911E+00  1.46582714E+00
  1.51435624E+00  1.54926078E+00  1.58662486E+00  1.60227519E+00  1.62502543E+00
  1.68346187E+00  1.70873436E+00  1.73444479E+00  1.75861012E+00  1.83238194E+00
  1.85349784E+00  1.90415979E+00  1.98575182E+00  2.07004278E+00  2.09993889E+00
  2.18927583E+00  2.21725690E+00  2.23212493E+00  2.36756193E+00  2.41800003E+00
  2.46422307E+00  2.48082619E+00  2.51968169E+00  2.57258195E+00  2.57323038E+00
  2.58990841E+00  2.64358954E+00  2.67728118E+00  2.69470803E+00  2.69618282E+00
  2.78323585E+00  2.80079683E+00  2.85513340E+00  2.89676296E+00  2.94083341E+00
  3.11827679E+00  3.25603096E+00  3.43777056E+00  3.49189958E+00  3.56412660E+00
  3.62535893E+00  3.74447152E+00  3.76194868E+00  3.83613491E+00  4.04655200E+00
  4.38357742E+00  4.74030197E+00  4.90348690E+00  5.24108893E+00  2.37474248E+01
  2.38969183E+01  2.41535043E+01  3.54980916E+01  3.56708806E+01
Alpha MO coefficients                      R   N=       12996
  5.50029695E-06  3.42972733E-05 -4.32445699E-04  7.05010344E-05  3.63543622E-08
  3.48003015E-04  1.03029577E-03 -5.35773992E-04 -8.35039748E-08  6.22961842E-03
 -3.09521539E-03 -3.82172853E-03  3.29119985E-07  1.63764641E-04  1.16105425E-07
 -4.44644305E-10 -1.00835618E-03 -3.66192828E-04 -8.60380929E-06  2.22903284E-05
  7.76166215E-05  1.19387029E-04 -6.74862802E-09 -1.04479662E-04  1.25099996E-04
 -9.83008045E-04  6.40974024E-09 -4.08101707E-03  2.80963758E-03 -6.95163481E-04
 -1.55425373E-07 -6.84999371E-05 -6.21144250E-08  1.18418897E-08  6.11358749E-04
  8.90009412E-05  3.53523977E-06  4.56021110E-05 -1.40294593E-06  4.23132891E-04
 -2.81889605E-09  3.97268146E-04  1.05783358E-04 -1.04038911E-03  9.19569911E-09
  4.19598531E-03  2.66047111E-03  1.94714265E-03 -1.07105775E-07  2.13964005E-04
  2.48240072E-09 -1.55277704E-08  1.06069493E-03 -3.86985068E-04  5.57349600E-01
  4.65661488E-01 -7.58390868E-05  1.56675071E-04  1.76411332E-08  1.61763708E-02
  7.78158316E-05 -2.26788709E-04  5.45000742E-08 -1.10015982E-02 -3.96223958E-03
  4.01495140E-03  3.85931624E-07 -8.37539712E-04 -1.60968014E-07  1.10193604E-07
 -9.50086669E-05 -5.60301046E-04  9.43152278E-06 -3.49129624E-03  1.73920926E-04
 -1.30559331E-03  1.47862721E-03  2.19074748E-07 -2.13422378E-04  7.90983248E-04
  9.45653609E-04  2.63894419E-04 -2.14655777E-05 -8.81907319E-09 -5.70326304E-05
 -7.90027206E-04 -4.72726256E-04  2.06497070E-04 -1.15097931E-04 -1.50506941E-08
 -2.07586017E-04  2.55738001E-04  6.57914328E-04 -1.28908858E-04 -3.09315758E-04
  6.69682421E-09 -8.59756919E-05  9.28081193E-06 -5.39112312E-05  4.26254359E-05
 -4.51264476E-09 -4.28934651E-04  3.49866024E-04 -3.70592454E-04  2.26365269E-08
 -4.04503513E-04  4.55827867E-04 -1.65421913E-04 -3.25084783E-08  3.38855102E-05
  3.78649216E-09  1.75681886E-08 -3.95459693E-05  1.58204657E-04 -9.94563399E-06
  3.78185076E-05  9.85289661E-05 -8.16401972E-05 -3.64334327E-09 -2.31241403E-05
 -4.38427770E-04  1.03890980E-03 -7.22661638E-09 -3.87178791E-03  2.39924845E-03
  3.09304636E-03 -2.66414907E-07  3.87108737E-05 -4.39656437E-08 -4.40275273E-08
  2.49937194E-04  4.84431503E-04  9.34356635E-06  1.35314590E-05 -2.56332214E-04
 -3.92099795E-04  3.95367242E-08  2.95636987E-04  4.38240696E-04  1.26946847E-03
 -9.04035152E-08  6.90818215E-03 -4.99296490E-03 -5.75083548E-04  4.84164214E-07
  3.24945228E-05  6.47453121E-08  1.03050146E-07 -2.70891504E-04 -1.08834307E-03
 -7.72650257E-06  1.25680681E-04  3.97209576E-04 -3.25657053E-04  2.01653723E-09
  1.12206195E-04 -1.43928127E-03  1.01751784E-03 -1.00574013E-09  4.12640108E-03
  3.23270942E-03 -6.76979494E-04  2.14553538E-09  3.01175172E-04 -4.00944146E-08
  8.30708808E-09 -5.07205078E-04  1.40600983E-03  7.93517471E-05  1.43441460E-04
 -2.50827952E-06 -1.08818949E-04 -3.16964146E-09 -4.36151553E-04 -4.84690702E-05
  6.47167541E-04  1.71031353E-08  1.10268004E-03  4.72565501E-05  4.26306925E-04
 -3.13771414E-08  1.08132795E-05  5.04251303E-09  1.26290356E-08  1.90404239E-04
 -1.60595248E-04 -5.60335960E-05 -4.53659347E-04  2.74535018E-04 -1.46739229E-04
  9.90858886E-05  3.07286954E-08  4.20610753E-05 -1.23391176E-03 -7.68022800E-04
  8.96633221E-06  2.90246027E-04 -1.56481379E-08 -2.34311441E-04  5.06722036E-04
  8.43422693E-04  2.68453808E-04  2.29728315E-04 -3.64155606E-08 -2.22650281E-04
 -1.83969408E-04  6.21099699E-04 -5.08099205E-04  1.98333880E-04  3.92787062E-10
  5.57349719E-01  4.65817213E-01 -1.08450579E-04  1.48464125E-03 -9.13956324E-08
  1.57463971E-02 -5.87201392E-04  1.20615740E-03 -1.04336918E-07 -1.40841940E-02
  6.75720685E-05 -3.46020583E-03  2.98800444E-07 -4.44281570E-04 -3.62978749E-08
 -3.21393884E-08  3.47829468E-04 -1.89179731E-04 -9.95646705E-05 -8.38036466E-05
  9.31595360E-05  3.60821423E-05 -2.09332600E-09 -9.81062031E-05 -6.15580338E-04
 -1.60507008E-04  2.71980909E-08  1.23445933E-04 -2.56912183E-04 -2.46719683E-03
  8.00472158E-08 -7.35453429E-05 -7.57694822E-09 -1.50529627E-08  1.24038033E-04
  2.11162249E-04 -4.53760158E-05 -2.50123825E-05  5.56115973E-05  3.38476156E-05
 -7.01348083E-09 -2.94616221E-04 -4.38774059E-04 -2.16696472E-04  4.23839581E-08
  7.62994162E-04 -3.15439473E-03  5.46347520E-04  1.96141409E-07 -1.32396658E-04