 Entering Gaussian System, Link 0=g16
 Initial command:
 /data0/home/software/g16/l1.exe "/data0/home/software/g16/scratch/Gau-3524451.inp" -scrdir="/data0/home/software/g16/scratch/"
 Default is to use a total of  22 processors:
                               22 via shared-memory
                                1 via Linda
 Entering Link 1 = /data0/home/software/g16/l1.exe PID=   3524452.
  
 Copyright (c) 1988,1990,1992,1993,1995,1998,2003,2009,2016,
            Gaussian, Inc.  All Rights Reserved.
  
 This is part of the Gaussian(R) 16 program.  It is based on
 the Gaussian(R) 09 system (copyright 2009, Gaussian, Inc.),
 the Gaussian(R) 03 system (copyright 2003, Gaussian, Inc.),
 the Gaussian(R) 98 system (copyright 1998, Gaussian, Inc.),
 the Gaussian(R) 94 system (copyright 1995, Gaussian, Inc.),
 the Gaussian 92(TM) system (copyright 1992, Gaussian, Inc.),
 the Gaussian 90(TM) system (copyright 1990, Gaussian, Inc.),
 the Gaussian 88(TM) system (copyright 1988, Gaussian, Inc.),
 the Gaussian 86(TM) system (copyright 1986, Carnegie Mellon
 University), and the Gaussian 82(TM) system (copyright 1983,
 Carnegie Mellon University). Gaussian is a federally registered
 trademark of Gaussian, Inc.
  
 This software contains proprietary and confidential information,
 including trade secrets, belonging to Gaussian, Inc.
  
 This software is provided under written license and may be
 used, copied, transmitted, or stored only in accord with that
 written license.
  
 The following legend is applicable only to US Government
 contracts under FAR:
  
                    RESTRICTED RIGHTS LEGEND
  
 Use, reproduction and disclosure by the US Government is
 subject to restrictions as set forth in subparagraphs (a)
 and (c) of the Commercial Computer Software - Restricted
 Rights clause in FAR 52.227-19.
  
 Gaussian, Inc.
 340 Quinnipiac St., Bldg. 40, Wallingford CT 06492
  
  
 ---------------------------------------------------------------
 Warning -- This program may not be used in any manner that
 competes with the business of Gaussian, Inc. or will provide
 assistance to any competitor of Gaussian, Inc.  The licensee
 of this program is prohibited from giving any competitor of
 Gaussian, Inc. access to this program.  By using this program,
 the user acknowledges that Gaussian, Inc. is engaged in the
 business of creating and licensing software in the field of
 computational chemistry and represents and warrants to the
 licensee that it is not a competitor of Gaussian, Inc. and that
 it will not use this program in any manner prohibited above.
 ---------------------------------------------------------------
  

 Cite this work as:
 Gaussian 16, Revision A.03,
 M. J. Frisch, G. W. Trucks, H. B. Schlegel, G. E. Scuseria, 
 M. A. Robb, J. R. Cheeseman, G. Scalmani, V. Barone, 
 G. A. Petersson, H. Nakatsuji, X. Li, M. Caricato, A. V. Marenich, 
 J. Bloino, B. G. Janesko, R. Gomperts, B. Mennucci, H. P. Hratchian, 
 J. V. Ortiz, A. F. Izmaylov, J. L. Sonnenberg, D. Williams-Young, 
 F. Ding, F. Lipparini, F. Egidi, J. Goings, B. Peng, A. Petrone, 
 T. Henderson, D. Ranasinghe, V. G. Zakrzewski, J. Gao, N. Rega, 
 G. Zheng, W. Liang, M. Hada, M. Ehara, K. Toyota, R. Fukuda, 
 J. Hasegawa, M. Ishida, T. Nakajima, Y. Honda, O. Kitao, H. Nakai, 
 T. Vreven, K. Throssell, J. A. Montgomery, Jr., J. E. Peralta, 
 F. Ogliaro, M. J. Bearpark, J. J. Heyd, E. N. Brothers, K. N. Kudin, 
 V. N. Staroverov, T. A. Keith, R. Kobayashi, J. Normand, 
 K. Raghavachari, A. P. Rendell, J. C. Burant, S. S. Iyengar, 
 J. Tomasi, M. Cossi, J. M. Millam, M. Klene, C. Adamo, R. Cammi, 
 J. W. Ochterski, R. L. Martin, K. Morokuma, O. Farkas, 
 J. B. Foresman, and D. J. Fox, Gaussian, Inc., Wallingford CT, 2016.
 
 ******************************************
 Gaussian 16:  ES64L-G16RevA.03 25-Dec-2016
                23-Nov-2022 
 ******************************************
 %chk=Im.chk
 %mem=20GB
 %nprocshared=22
 Will use up to   22 processors via shared memory.
 --------------------------------------
 #p opt freq b3lyp/6-311g(d,p) em=gd3bj
 --------------------------------------
 1/18=20,19=15,26=3,38=1/1,3;
 2/9=110,12=2,17=6,18=5,40=1/2;
 3/5=4,6=6,7=101,11=2,25=1,30=1,71=1,74=-5,124=41/1,2,3;
 4//1;
 5/5=2,38=5/2;
 6/7=2,8=2,9=2,10=2,28=1/1;
 7//1,2,3,16;
 1/18=20,19=15,26=3/3(2);
 2/9=110/2;
 99//99;
 2/9=110/2;
 3/5=4,6=6,7=101,11=2,25=1,30=1,71=1,74=-5,124=41/1,2,3;
 4/5=5,16=3,69=1/1;
 5/5=2,38=5/2;
 7//1,2,3,16;
 1/18=20,19=15,26=3/3(-5);
 2/9=110/2;
 6/7=2,8=2,9=2,10=2,19=2,28=1/1;
 99/9=1/99;
 Leave Link    1 at Wed Nov 23 20:55:05 2022, MaxMem=  2684354560 cpu:               0.6 elap:               0.0
 (Enter /data0/home/software/g16/l101.exe)
 -------------------
 Title Card Required
 -------------------
 Symbolic Z-matrix:
 Charge =  0 Multiplicity = 1
 C                    -3.03476  -1.02523  -0.74568 
 C                    -1.63301  -1.02523  -0.74568 
 C                    -2.36607   1.13702  -0.74579 
 N                    -3.47448   0.29528  -0.74569 
 H                    -4.41481   0.58598  -0.74591 
 H                    -3.73634  -1.85846  -0.74559 
 H                    -0.98863  -1.89794  -0.74566 
 H                    -2.47499   2.22079  -0.74594 
 N                    -1.20901   0.34556  -0.74568 
 
 ITRead=  0  0  0  0  0  0  0  0  0
 MicOpt= -1 -1 -1 -1 -1 -1 -1 -1 -1
 NAtoms=      9 NQM=        9 NQMF=       0 NMMI=      0 NMMIF=      0
                NMic=       0 NMicF=      0.
                    Isotopes and Nuclear Properties:
 (Nuclear quadrupole moments (NQMom) in fm**2, nuclear magnetic moments (NMagM)
  in nuclear magnetons)

  Atom         1           2           3           4           5           6           7           8           9
 IAtWgt=          12          12          12          14           1           1           1           1          14
 AtmWgt=  12.0000000  12.0000000  12.0000000  14.0030740   1.0078250   1.0078250   1.0078250   1.0078250  14.0030740
 NucSpn=           0           0           0           2           1           1           1           1           2
 AtZEff=  -0.0000000  -0.0000000  -0.0000000  -0.0000000  -0.0000000  -0.0000000  -0.0000000  -0.0000000  -0.0000000
 NQMom=    0.0000000   0.0000000   0.0000000   2.0440000   0.0000000   0.0000000   0.0000000   0.0000000   2.0440000
 NMagM=    0.0000000   0.0000000   0.0000000   0.4037610   2.7928460   2.7928460   2.7928460   2.7928460   0.4037610
 AtZNuc=   6.0000000   6.0000000   6.0000000   7.0000000   1.0000000   1.0000000   1.0000000   1.0000000   7.0000000
 Leave Link  101 at Wed Nov 23 20:55:06 2022, MaxMem=  2684354560 cpu:               6.8 elap:               0.3
 (Enter /data0/home/software/g16/l103.exe)

 GradGradGradGradGradGradGradGradGradGradGradGradGradGradGradGradGradGrad
 Berny optimization.
 Initialization pass.
                           ----------------------------
                           !    Initial Parameters    !
                           ! (Angstroms and Degrees)  !
 --------------------------                            --------------------------
 ! Name  Definition              Value          Derivative Info.                !
 --------------------------------------------------------------------------------
 ! R1    R(1,2)                  1.4017         estimate D2E/DX2                !
 ! R2    R(1,4)                  1.3918         estimate D2E/DX2                !
 ! R3    R(1,6)                  1.0893         estimate D2E/DX2                !
 ! R4    R(2,7)                  1.0848         estimate D2E/DX2                !
 ! R5    R(2,9)                  1.4349         estimate D2E/DX2                !
 ! R6    R(3,4)                  1.3918         estimate D2E/DX2                !
 ! R7    R(3,8)                  1.0892         estimate D2E/DX2                !
 ! R8    R(3,9)                  1.4018         estimate D2E/DX2                !
 ! R9    R(4,5)                  0.9842         estimate D2E/DX2                !
 ! A1    A(2,1,4)              108.4177         estimate D2E/DX2                !
 ! A2    A(2,1,6)              130.0976         estimate D2E/DX2                !
 ! A3    A(4,1,6)              121.4847         estimate D2E/DX2                !
 ! A4    A(1,2,7)              126.4408         estimate D2E/DX2                !
 ! A5    A(1,2,9)              107.1873         estimate D2E/DX2                !
 ! A6    A(7,2,9)              126.372          estimate D2E/DX2                !
 ! A7    A(4,3,8)              121.4742         estimate D2E/DX2                !
 ! A8    A(4,3,9)              108.4137         estimate D2E/DX2                !
 ! A9    A(8,3,9)              130.1121         estimate D2E/DX2                !
 ! A10   A(1,4,3)              108.7956         estimate D2E/DX2                !
 ! A11   A(1,4,5)              125.5966         estimate D2E/DX2                !
 ! A12   A(3,4,5)              125.6078         estimate D2E/DX2                !
 ! A13   A(2,9,3)              107.1858         estimate D2E/DX2                !
 ! D1    D(4,1,2,7)            179.9987         estimate D2E/DX2                !
 ! D2    D(4,1,2,9)              0.0004         estimate D2E/DX2                !
 ! D3    D(6,1,2,7)              0.0051         estimate D2E/DX2                !
 ! D4    D(6,1,2,9)           -179.9933         estimate D2E/DX2                !
 ! D5    D(2,1,4,3)              0.0039         estimate D2E/DX2                !
 ! D6    D(2,1,4,5)            179.9846         estimate D2E/DX2                !
 ! D7    D(6,1,4,3)            179.9982         estimate D2E/DX2                !
 ! D8    D(6,1,4,5)             -0.0211         estimate D2E/DX2                !
 ! D9    D(1,2,9,3)             -0.0044         estimate D2E/DX2                !
 ! D10   D(7,2,9,3)            179.9972         estimate D2E/DX2                !
 ! D11   D(8,3,4,1)            179.9924         estimate D2E/DX2                !
 ! D12   D(8,3,4,5)              0.0117         estimate D2E/DX2                !
 ! D13   D(9,3,4,1)             -0.0067         estimate D2E/DX2                !
 ! D14   D(9,3,4,5)           -179.9874         estimate D2E/DX2                !
 ! D15   D(4,3,9,2)              0.0069         estimate D2E/DX2                !
 ! D16   D(8,3,9,2)           -179.9922         estimate D2E/DX2                !
 --------------------------------------------------------------------------------
 Trust Radius=3.00D-01 FncErr=1.00D-07 GrdErr=1.00D-06 EigMax=2.50D+02 EigMin=1.00D-04
 Number of steps in this run=     48 maximum allowed number of steps=    100.
 GradGradGradGradGradGradGradGradGradGradGradGradGradGradGradGradGradGrad

 Leave Link  103 at Wed Nov 23 20:55:06 2022, MaxMem=  2684354560 cpu:               0.2 elap:               0.0
 (Enter /data0/home/software/g16/l202.exe)
                          Input orientation:                          
 ---------------------------------------------------------------------
 Center     Atomic      Atomic             Coordinates (Angstroms)
 Number     Number       Type             X           Y           Z
 ---------------------------------------------------------------------
      1          6           0       -3.034757   -1.025232   -0.745684
      2          6           0       -1.633007   -1.025232   -0.745684
      3          6           0       -2.366066    1.137017   -0.745788
      4          7           0       -3.474484    0.295276   -0.745693
      5          1           0       -4.414812    0.585977   -0.745910
      6          1           0       -3.736345   -1.858465   -0.745586
      7          1           0       -0.988634   -1.897938   -0.745659
      8          1           0       -2.474988    2.220789   -0.745935
      9          7           0       -1.209009    0.345564   -0.745684
 ---------------------------------------------------------------------
                    Distance matrix (angstroms):
                    1          2          3          4          5
     1  C    0.000000
     2  C    1.401750   0.000000
     3  C    2.263287   2.283133   0.000000
     4  N    1.391798   2.266005   1.391804   0.000000
     5  H    2.121449   3.214721   2.121557   0.984238   0.000000
     6  H    1.089267   2.262368   3.294021   2.169602   2.536851
     7  H    2.224463   1.084819   3.332907   3.315062   4.231847
     8  H    3.293933   3.353444   1.089232   2.169468   2.536834
     9  N    2.283076   1.434871   1.401848   2.266033   3.214805
                    6          7          8          9
     6  H    0.000000
     7  H    2.747995   0.000000
     8  H    4.269817   4.378717   0.000000
     9  N    3.353382   2.254300   2.262559   0.000000
 Stoichiometry    C3H4N2
 Framework group  C1[X(C3H4N2)]
 Deg. of freedom    21
 Full point group                 C1      NOp   1
 Largest Abelian subgroup         C1      NOp   1
 Largest concise Abelian subgroup C1      NOp   1
                         Standard orientation:                         
 ---------------------------------------------------------------------
 Center     Atomic      Atomic             Coordinates (Angstroms)
 Number     Number       Type             X           Y           Z
 ---------------------------------------------------------------------
      1          6           0        0.589834    0.995581   -0.000029
      2          6           0        1.213557   -0.259757   -0.000029
      3          6           0       -1.049028   -0.565380    0.000075
      4          7           0       -0.788408    0.801805   -0.000020
      5          1           0       -1.467154    1.514566    0.000197
      6          1           0        1.023858    1.994643   -0.000127
      7          1           0        2.281829   -0.448507   -0.000054
      8          1           0       -2.068067   -0.950070    0.000222
      9          7           0        0.174602   -1.249418   -0.000029
 ---------------------------------------------------------------------
 Rotational constants (GHZ):           9.2664298           8.8353867           4.5228881
 Leave Link  202 at Wed Nov 23 20:55:06 2022, MaxMem=  2684354560 cpu:               0.1 elap:               0.0
 (Enter /data0/home/software/g16/l301.exe)
 Standard basis: 6-311G(d,p) (5D, 7F)
 Ernie: Thresh=  0.10000D-02 Tol=  0.10000D-05 Strict=F.
 There are   119 symmetry adapted cartesian basis functions of A   symmetry.
 There are   114 symmetry adapted basis functions of A   symmetry.
   114 basis functions,   192 primitive gaussians,   119 cartesian basis functions
    18 alpha electrons       18 beta electrons
       nuclear repulsion energy       158.8270296725 Hartrees.
 IExCor=  402 DFT=T Ex+Corr=B3LYP ExCW=0 ScaHFX=  0.200000
 ScaDFX=  0.800000  0.720000  1.000000  0.810000 ScalE2=  1.000000  1.000000
 IRadAn=      5 IRanWt=     -1 IRanGd=            0 ICorTp=0 IEmpDi=141
 NAtoms=    9 NActive=    9 NUniq=    9 SFac= 1.00D+00 NAtFMM=   60 NAOKFM=F Big=F
 Integral buffers will be    131072 words long.
 Raffenetti 2 integral format.
 Two-electron integral symmetry is turned on.
 R6Disp:  Grimme-D3(BJ) Dispersion energy=       -0.0115267917 Hartrees.
 Nuclear repulsion after empirical dispersion term =      158.8155028807 Hartrees.
 Leave Link  301 at Wed Nov 23 20:55:06 2022, MaxMem=  2684354560 cpu:               1.0 elap:               0.1
 (Enter /data0/home/software/g16/l302.exe)
 NPDir=0 NMtPBC=     1 NCelOv=     1 NCel=       1 NClECP=     1 NCelD=      1
         NCelK=      1 NCelE2=     1 NClLst=     1 CellRange=     0.0.
 One-electron integrals computed using PRISM.
 One-electron integral symmetry used in STVInt
 NBasis=   114 RedAO= T EigKep=  1.45D-03  NBF=   114
 NBsUse=   114 1.00D-06 EigRej= -1.00D+00 NBFU=   114
 Precomputing XC quadrature grid using
 IXCGrd= 4 IRadAn=           5 IRanWt=          -1 IRanGd=           0 AccXCQ= 0.00D+00.
 Generated NRdTot=       0 NPtTot=           0 NUsed=           0 NTot=          32
 NSgBfM=   119   119   119   119   119 MxSgAt=     9 MxSgA2=     9.
 Leave Link  302 at Wed Nov 23 20:55:06 2022, MaxMem=  2684354560 cpu:               2.4 elap:               0.1
 (Enter /data0/home/software/g16/l303.exe)
 DipDrv:  MaxL=1.
 Leave Link  303 at Wed Nov 23 20:55:06 2022, MaxMem=  2684354560 cpu:               0.4 elap:               0.0
 (Enter /data0/home/software/g16/l401.exe)
 ExpMin= 1.03D-01 ExpMax= 6.29D+03 ExpMxC= 9.49D+02 IAcc=3 IRadAn=         5 AccDes= 0.00D+00
 Harris functional with IExCor=  402 and IRadAn=       5 diagonalized for initial guess.
 HarFok:  IExCor=  402 AccDes= 0.00D+00 IRadAn=         5 IDoV= 1 UseB2=F ITyADJ=14
 ICtDFT=  3500011 ScaDFX=  1.000000  1.000000  1.000000  1.000000
 FoFCou: FMM=F IPFlag=           0 FMFlag=      100000 FMFlg1=           0
         NFxFlg=           0 DoJE=T BraDBF=F KetDBF=T FulRan=T
         wScrn=  0.000000 ICntrl=       500 IOpCl=  0 I1Cent=   200000004 NGrid=           0
         NMat0=    1 NMatS0=      1 NMatT0=    0 NMatD0=    1 NMtDS0=    0 NMtDT0=    0
 Petite list used in FoFCou.
 Harris En= -226.255821550156    
 JPrj=0 DoOrth=F DoCkMO=F.
 Leave Link  401 at Wed Nov 23 20:55:06 2022, MaxMem=  2684354560 cpu:               4.8 elap:               0.2
 (Enter /data0/home/software/g16/l502.exe)
 Keep R1 ints in memory in canonical form, NReq=42211870.
 FoFCou: FMM=F IPFlag=           0 FMFlag=           0 FMFlg1=           0
         NFxFlg=           0 DoJE=F BraDBF=F KetDBF=F FulRan=T
         wScrn=  0.000000 ICntrl=       600 IOpCl=  0 I1Cent=           0 NGrid=           0
         NMat0=    1 NMatS0=   6555 NMatT0=    0 NMatD0=    1 NMtDS0=    0 NMtDT0=    0
 Symmetry not used in FoFCou.
 Two-electron integral symmetry not used.
 Closed shell SCF:
 Using DIIS extrapolation, IDIIS=  1040.
 NGot=  2684354560 LenX=  2662835028 LenY=  2662820426
 Requested convergence on RMS density matrix=1.00D-08 within 128 cycles.
 Requested convergence on MAX density matrix=1.00D-06.
 Requested convergence on             energy=1.00D-06.
 No special actions if energy rises.
 Integral accuracy reduced to 1.0D-05 until final iterations.

 Cycle   1  Pass 0  IDiag  1:
 E= -226.178223002052    
 DIIS: error= 3.19D-02 at cycle   1 NSaved=   1.
 NSaved= 1 IEnMin= 1 EnMin= -226.178223002052     IErMin= 1 ErrMin= 3.19D-02
 ErrMax= 3.19D-02  0.00D+00 EMaxC= 1.00D-01 BMatC= 1.05D-01 BMatP= 1.05D-01
 IDIUse=3 WtCom= 6.81D-01 WtEn= 3.19D-01
 Coeff-Com:  0.100D+01
 Coeff-En:   0.100D+01
 Coeff:      0.100D+01
 Gap=     0.215 Goal=   None    Shift=    0.000
 GapD=    0.215 DampG=1.000 DampE=0.500 DampFc=0.5000 IDamp=-1.
 Damping current iteration by 5.00D-01
 RMSDP=5.47D-03 MaxDP=9.64D-02              OVMax= 2.29D-01

 Cycle   2  Pass 0  IDiag  1:
 E= -226.208662866720     Delta-E=       -0.030439864668 Rises=F Damp=T
 DIIS: error= 1.21D-02 at cycle   2 NSaved=   2.
 NSaved= 2 IEnMin= 2 EnMin= -226.208662866720     IErMin= 2 ErrMin= 1.21D-02
 ErrMax= 1.21D-02  0.00D+00 EMaxC= 1.00D-01 BMatC= 1.56D-02 BMatP= 1.05D-01
 IDIUse=3 WtCom= 8.79D-01 WtEn= 1.21D-01
 Coeff-Com:  0.137D+00 0.863D+00
 Coeff-En:   0.283D+00 0.717D+00
 Coeff:      0.154D+00 0.846D+00
 Gap=     0.309 Goal=   None    Shift=    0.000
 RMSDP=1.55D-03 MaxDP=2.85D-02 DE=-3.04D-02 OVMax= 1.73D-01

 Cycle   3  Pass 0  IDiag  1:
 E= -226.254039765245     Delta-E=       -0.045376898524 Rises=F Damp=F
 DIIS: error= 1.87D-02 at cycle   3 NSaved=   3.
 NSaved= 3 IEnMin= 3 EnMin= -226.254039765245     IErMin= 2 ErrMin= 1.21D-02
 ErrMax= 1.87D-02  0.00D+00 EMaxC= 1.00D-01 BMatC= 2.01D-02 BMatP= 1.56D-02
 IDIUse=2 WtCom= 0.00D+00 WtEn= 1.00D+00
 Coeff-En:   0.000D+00 0.000D+00 0.100D+01
 Coeff:      0.000D+00 0.000D+00 0.100D+01
 Gap=     0.230 Goal=   None    Shift=    0.000
 RMSDP=2.62D-03 MaxDP=4.65D-02 DE=-4.54D-02 OVMax= 1.76D-01

 Cycle   4  Pass 0  IDiag  1:
 E= -226.172512657099     Delta-E=        0.081527108145 Rises=F Damp=F
 DIIS: error= 3.89D-02 at cycle   4 NSaved=   4.
 NSaved= 4 IEnMin= 3 EnMin= -226.254039765245     IErMin= 2 ErrMin= 1.21D-02
 ErrMax= 3.89D-02  0.00D+00 EMaxC= 1.00D-01 BMatC= 1.08D-01 BMatP= 1.56D-02
 IDIUse=2 WtCom= 0.00D+00 WtEn= 1.00D+00
 Coeff-En:   0.000D+00 0.000D+00 0.788D+00 0.212D+00
 Coeff:      0.000D+00 0.000D+00 0.788D+00 0.212D+00
 Gap=     0.249 Goal=   None    Shift=    0.000
 RMSDP=1.43D-03 MaxDP=2.15D-02 DE= 8.15D-02 OVMax= 9.69D-02

 Cycle   5  Pass 0  IDiag  1:
 E= -226.264788937296     Delta-E=       -0.092276280196 Rises=F Damp=F
 DIIS: error= 1.15D-02 at cycle   5 NSaved=   5.
 NSaved= 5 IEnMin= 5 EnMin= -226.264788937296     IErMin= 5 ErrMin= 1.15D-02
 ErrMax= 1.15D-02  0.00D+00 EMaxC= 1.00D-01 BMatC= 8.43D-03 BMatP= 1.56D-02
 IDIUse=3 WtCom= 8.85D-01 WtEn= 1.15D-01
 Coeff-Com:  0.212D-02 0.161D-01 0.280D+00-0.112D+00 0.813D+00
 Coeff-En:   0.000D+00 0.000D+00 0.343D+00 0.000D+00 0.657D+00
 Coeff:      0.188D-02 0.143D-01 0.287D+00-0.988D-01 0.795D+00
 Gap=     0.239 Goal=   None    Shift=    0.000
 RMSDP=5.10D-04 MaxDP=1.04D-02 DE=-9.23D-02 OVMax= 3.38D-02

 Cycle   6  Pass 0  IDiag  1:
 E= -226.272442966322     Delta-E=       -0.007654029026 Rises=F Damp=F
 DIIS: error= 4.11D-04 at cycle   6 NSaved=   6.
 NSaved= 6 IEnMin= 6 EnMin= -226.272442966322     IErMin= 6 ErrMin= 4.11D-04
 ErrMax= 4.11D-04  0.00D+00 EMaxC= 1.00D-01 BMatC= 2.18D-05 BMatP= 8.43D-03
 IDIUse=3 WtCom= 9.96D-01 WtEn= 4.11D-03
 Coeff-Com: -0.817D-03 0.645D-02 0.122D+00-0.702D-01 0.441D+00 0.502D+00
 Coeff-En:   0.000D+00 0.000D+00 0.000D+00 0.000D+00 0.000D+00 0.100D+01
 Coeff:     -0.813D-03 0.643D-02 0.121D+00-0.700D-01 0.439D+00 0.504D+00
 Gap=     0.240 Goal=   None    Shift=    0.000
 RMSDP=2.68D-05 MaxDP=8.05D-04 DE=-7.65D-03 OVMax= 2.04D-03

 Cycle   7  Pass 0  IDiag  1:
 E= -226.272460390728     Delta-E=       -0.000017424406 Rises=F Damp=F
 DIIS: error= 1.32D-04 at cycle   7 NSaved=   7.
 NSaved= 7 IEnMin= 7 EnMin= -226.272460390728     IErMin= 7 ErrMin= 1.32D-04
 ErrMax= 1.32D-04  0.00D+00 EMaxC= 1.00D-01 BMatC= 1.09D-06 BMatP= 2.18D-05
 IDIUse=3 WtCom= 9.99D-01 WtEn= 1.32D-03
 Coeff-Com:  0.470D-03-0.132D-02 0.295D-01-0.141D-01 0.976D-01 0.208D+00
 Coeff-Com:  0.680D+00
 Coeff-En:   0.000D+00 0.000D+00 0.000D+00 0.000D+00 0.000D+00 0.000D+00
 Coeff-En:   0.100D+01
 Coeff:      0.470D-03-0.132D-02 0.295D-01-0.141D-01 0.975D-01 0.208D+00
 Coeff:      0.680D+00
 Gap=     0.240 Goal=   None    Shift=    0.000
 RMSDP=5.68D-06 MaxDP=1.22D-04 DE=-1.74D-05 OVMax= 3.81D-04

 Initial convergence to 1.0D-05 achieved.  Increase integral accuracy.
 Cycle   8  Pass 1  IDiag  1:
 E= -226.272455265867     Delta-E=        0.000005124861 Rises=F Damp=F
 DIIS: error= 2.92D-05 at cycle   1 NSaved=   1.
 NSaved= 1 IEnMin= 1 EnMin= -226.272455265867     IErMin= 1 ErrMin= 2.92D-05
 ErrMax= 2.92D-05  0.00D+00 EMaxC= 1.00D-01 BMatC= 7.84D-08 BMatP= 7.84D-08
 IDIUse=1 WtCom= 1.00D+00 WtEn= 0.00D+00
 Coeff-Com:  0.100D+01
 Coeff:      0.100D+01
 Gap=     0.240 Goal=   None    Shift=    0.000
 RMSDP=5.68D-06 MaxDP=1.22D-04 DE= 5.12D-06 OVMax= 3.08D-04

 Cycle   9  Pass 1  IDiag  1:
 E= -226.272455093450     Delta-E=        0.000000172417 Rises=F Damp=F
 DIIS: error= 6.91D-05 at cycle   2 NSaved=   2.
 NSaved= 2 IEnMin= 1 EnMin= -226.272455265867     IErMin= 1 ErrMin= 2.92D-05
 ErrMax= 6.91D-05  0.00D+00 EMaxC= 1.00D-01 BMatC= 2.46D-07 BMatP= 7.84D-08
 IDIUse=1 WtCom= 1.00D+00 WtEn= 0.00D+00
 Coeff-Com:  0.641D+00 0.359D+00
 Coeff:      0.641D+00 0.359D+00
 Gap=     0.240 Goal=   None    Shift=    0.000
 RMSDP=3.21D-06 MaxDP=6.88D-05 DE= 1.72D-07 OVMax= 2.41D-04

 Cycle  10  Pass 1  IDiag  1:
 E= -226.272455337822     Delta-E=       -0.000000244372 Rises=F Damp=F
 DIIS: error= 9.70D-06 at cycle   3 NSaved=   3.
 NSaved= 3 IEnMin= 3 EnMin= -226.272455337822     IErMin= 3 ErrMin= 9.70D-06
 ErrMax= 9.70D-06  0.00D+00 EMaxC= 1.00D-01 BMatC= 5.18D-09 BMatP= 7.84D-08
 IDIUse=1 WtCom= 1.00D+00 WtEn= 0.00D+00
 Coeff-Com:  0.377D+00 0.228D+00 0.395D+00
 Coeff:      0.377D+00 0.228D+00 0.395D+00
 Gap=     0.240 Goal=   None    Shift=    0.000
 RMSDP=4.62D-07 MaxDP=8.20D-06 DE=-2.44D-07 OVMax= 3.56D-05

 Cycle  11  Pass 1  IDiag  1:
 E= -226.272455342214     Delta-E=       -0.000000004392 Rises=F Damp=F
 DIIS: error= 1.69D-06 at cycle   4 NSaved=   4.
 NSaved= 4 IEnMin= 4 EnMin= -226.272455342214     IErMin= 4 ErrMin= 1.69D-06
 ErrMax= 1.69D-06  0.00D+00 EMaxC= 1.00D-01 BMatC= 2.80D-10 BMatP= 5.18D-09
 IDIUse=1 WtCom= 1.00D+00 WtEn= 0.00D+00
 Coeff-Com:  0.150D-01 0.240D-01 0.192D+00 0.769D+00
 Coeff:      0.150D-01 0.240D-01 0.192D+00 0.769D+00
 Gap=     0.240 Goal=   None    Shift=    0.000
 RMSDP=9.90D-08 MaxDP=2.42D-06 DE=-4.39D-09 OVMax= 6.26D-06

 Cycle  12  Pass 1  IDiag  1:
 E= -226.272455342436     Delta-E=       -0.000000000222 Rises=F Damp=F
 DIIS: error= 4.30D-07 at cycle   5 NSaved=   5.
 NSaved= 5 IEnMin= 5 EnMin= -226.272455342436     IErMin= 5 ErrMin= 4.30D-07
 ErrMax= 4.30D-07  0.00D+00 EMaxC= 1.00D-01 BMatC= 2.10D-11 BMatP= 2.80D-10
 IDIUse=1 WtCom= 1.00D+00 WtEn= 0.00D+00
 Coeff-Com: -0.120D-01 0.158D-02 0.867D-01 0.397D+00 0.527D+00
 Coeff:     -0.120D-01 0.158D-02 0.867D-01 0.397D+00 0.527D+00
 Gap=     0.240 Goal=   None    Shift=    0.000
 RMSDP=2.96D-08 MaxDP=7.42D-07 DE=-2.22D-10 OVMax= 1.55D-06

 Cycle  13  Pass 1  IDiag  1:
 E= -226.272455342452     Delta-E=       -0.000000000016 Rises=F Damp=F
 DIIS: error= 1.69D-07 at cycle   6 NSaved=   6.
 NSaved= 6 IEnMin= 6 EnMin= -226.272455342452     IErMin= 6 ErrMin= 1.69D-07
 ErrMax= 1.69D-07  0.00D+00 EMaxC= 1.00D-01 BMatC= 2.64D-12 BMatP= 2.10D-11
 IDIUse=1 WtCom= 1.00D+00 WtEn= 0.00D+00
 Coeff-Com: -0.841D-02-0.211D-02 0.206D-01 0.962D-01 0.281D+00 0.613D+00
 Coeff:     -0.841D-02-0.211D-02 0.206D-01 0.962D-01 0.281D+00 0.613D+00
 Gap=     0.240 Goal=   None    Shift=    0.000
 RMSDP=1.06D-08 MaxDP=1.93D-07 DE=-1.65D-11 OVMax= 7.46D-07

 Cycle  14  Pass 1  IDiag  1:
 E= -226.272455342455     Delta-E=       -0.000000000003 Rises=F Damp=F
 DIIS: error= 3.26D-08 at cycle   7 NSaved=   7.
 NSaved= 7 IEnMin= 7 EnMin= -226.272455342455     IErMin= 7 ErrMin= 3.26D-08
 ErrMax= 3.26D-08  0.00D+00 EMaxC= 1.00D-01 BMatC= 6.73D-14 BMatP= 2.64D-12
 IDIUse=1 WtCom= 1.00D+00 WtEn= 0.00D+00
 Coeff-Com: -0.101D-04-0.336D-04-0.285D-02-0.157D-01-0.297D-01 0.723D-01
 Coeff-Com:  0.976D+00
 Coeff:     -0.101D-04-0.336D-04-0.285D-02-0.157D-01-0.297D-01 0.723D-01
 Coeff:      0.976D+00
 Gap=     0.240 Goal=   None    Shift=    0.000
 RMSDP=2.49D-09 MaxDP=5.93D-08 DE=-2.73D-12 OVMax= 1.53D-07

 SCF Done:  E(RB3LYP) =  -226.272455342     A.U. after   14 cycles
            NFock= 14  Conv=0.25D-08     -V/T= 2.0061
 KE= 2.249099965682D+02 PE=-8.444557618387D+02 EE= 2.344578070473D+02
 Leave Link  502 at Wed Nov 23 20:55:08 2022, MaxMem=  2684354560 cpu:              34.7 elap:               2.0
 (Enter /data0/home/software/g16/l601.exe)
 Copying SCF densities to generalized density rwf, IOpCl= 0 IROHF=0.

 **********************************************************************

            Population analysis using the SCF density.

 **********************************************************************

 Orbital symmetries:
       Occupied  (A) (A) (A) (A) (A) (A) (A) (A) (A) (A) (A) (A)
                 (A) (A) (A) (A) (A) (A)
       Virtual   (A) (A) (A) (A) (A) (A) (A) (A) (A) (A) (A) (A)
                 (A) (A) (A) (A) (A) (A) (A) (A) (A) (A) (A) (A)
                 (A) (A) (A) (A) (A) (A) (A) (A) (A) (A) (A) (A)
                 (A) (A) (A) (A) (A) (A) (A) (A) (A) (A) (A) (A)
                 (A) (A) (A) (A) (A) (A) (A) (A) (A) (A) (A) (A)
                 (A) (A) (A) (A) (A) (A) (A) (A) (A) (A) (A) (A)
                 (A) (A) (A) (A) (A) (A) (A) (A) (A) (A) (A) (A)
                 (A) (A) (A) (A) (A) (A) (A) (A) (A) (A) (A) (A)
 The electronic state is 1-A.
 Alpha  occ. eigenvalues --  -14.37461 -14.29976 -10.23564 -10.20707 -10.19312
 Alpha  occ. eigenvalues --   -0.99559  -0.85029  -0.73894  -0.61757  -0.59102
 Alpha  occ. eigenvalues --   -0.55639  -0.44499  -0.43172  -0.42013  -0.41791
 Alpha  occ. eigenvalues --   -0.27612  -0.26212  -0.23243
 Alpha virt. eigenvalues --    0.00765   0.03137   0.04328   0.07642   0.07868
 Alpha virt. eigenvalues --    0.09921   0.17187   0.19839   0.23027   0.28119
 Alpha virt. eigenvalues --    0.31874   0.34916   0.35506   0.40165   0.40292
 Alpha virt. eigenvalues --    0.44596   0.44836   0.47823   0.49264   0.53264
 Alpha virt. eigenvalues --    0.59452   0.60381   0.63912   0.65082   0.65819
 Alpha virt. eigenvalues --    0.70123   0.72223   0.72564   0.75207   0.76298
 Alpha virt. eigenvalues --    0.89064   0.91098   0.95884   0.99192   1.12342
 Alpha virt. eigenvalues --    1.12743   1.14090   1.17380   1.25873   1.30034
 Alpha virt. eigenvalues --    1.33690   1.44569   1.49426   1.52719   1.55520
 Alpha virt. eigenvalues --    1.58181   1.61435   1.65941   1.70296   1.70916
 Alpha virt. eigenvalues --    1.75332   1.81449   1.83390   1.89619   1.95821
 Alpha virt. eigenvalues --    2.03394   2.07977   2.15393   2.17581   2.21177
 Alpha virt. eigenvalues --    2.34988   2.37501   2.42978   2.47106   2.48530
 Alpha virt. eigenvalues --    2.50317   2.51489   2.56163   2.57830   2.60205
 Alpha virt. eigenvalues --    2.67278   2.68232   2.73709   2.77276   2.80381
 Alpha virt. eigenvalues --    2.87322   2.88525   3.05607   3.19075   3.35482
 Alpha virt. eigenvalues --    3.46910   3.50623   3.55991   3.72208   3.73049
 Alpha virt. eigenvalues --    3.80255   4.03353   4.30794   4.65755   4.91277
 Alpha virt. eigenvalues --    5.16753  23.68879  23.77081  24.02363  35.45128
 Alpha virt. eigenvalues --   35.59081
          Condensed to atoms (all electrons):
               1          2          3          4          5          6
     1  C    4.962858   0.543608  -0.125340   0.396036  -0.029641   0.389252
     2  C    0.543608   4.838523  -0.145018  -0.059386   0.007075  -0.026276
     3  C   -0.125340  -0.145018   4.806925   0.398909  -0.024830   0.006137
     4  N    0.396036  -0.059386   0.398909   6.386378   0.347332  -0.032935
     5  H   -0.029641   0.007075  -0.024830   0.347332   0.467623  -0.000653
     6  H    0.389252  -0.026276   0.006137  -0.032935  -0.000653   0.550789
     7  H   -0.044532   0.416721   0.006086   0.003229  -0.000267  -0.000344
     8  H    0.004769   0.003826   0.406821  -0.033109  -0.002549  -0.000314
     9  N   -0.097100   0.472573   0.528719  -0.074913   0.007191   0.005990
               7          8          9
     1  C   -0.044532   0.004769  -0.097100
     2  C    0.416721   0.003826   0.472573
     3  C    0.006086   0.406821   0.528719
     4  N    0.003229  -0.033109  -0.074913
     5  H   -0.000267  -0.002549   0.007191
     6  H   -0.000344  -0.000314   0.005990
     7  H    0.525840  -0.000204  -0.021146
     8  H   -0.000204   0.513955  -0.019042
     9  N   -0.021146  -0.019042   6.533759
 Mulliken charges:
               1
     1  C    0.000089
     2  C   -0.051645
     3  C    0.141591
     4  N   -0.331542
     5  H    0.228720
     6  H    0.108354
     7  H    0.114617
     8  H    0.125847
     9  N   -0.336031
 Sum of Mulliken charges =  -0.00000
 Mulliken charges with hydrogens summed into heavy atoms:
               1
     1  C    0.108443
     2  C    0.062972
     3  C    0.267437
     4  N   -0.102822
     9  N   -0.336031
 Electronic spatial extent (au):  <R**2>=            297.5401
 Charge=             -0.0000 electrons
 Dipole moment (field-independent basis, Debye):
    X=             -1.6784    Y=              3.4630    Z=              0.0004  Tot=              3.8484
 Quadrupole moment (field-independent basis, Debye-Ang):
   XX=            -21.8419   YY=            -29.9414   ZZ=            -32.1311
   XY=             -0.4159   XZ=             -0.0012   YZ=              0.0001
 Traceless Quadrupole moment (field-independent basis, Debye-Ang):
   XX=              6.1295   YY=             -1.9699   ZZ=             -4.1596
   XY=             -0.4159   XZ=             -0.0012   YZ=              0.0001
 Octapole moment (field-independent basis, Debye-Ang**2):
  XXX=             -6.2183  YYY=             19.2209  ZZZ=              0.0003  XYY=             -5.5287
  XXY=              1.1499  XXZ=              0.0016  XZZ=             -1.5826  YZZ=              0.3147
  YYZ=              0.0007  XYZ=             -0.0007
 Hexadecapole moment (field-independent basis, Debye-Ang**3):
 XXXX=           -153.6348 YYYY=           -178.2883 ZZZZ=            -33.5692 XXXY=             -6.1750
 XXXZ=             -0.0003 YYYX=             -1.7835 YYYZ=              0.0009 ZZZX=              0.0039
 ZZZY=              0.0013 XXYY=            -48.7820 XXZZ=            -41.0028 YYZZ=            -37.6629
 XXYZ=              0.0006 YYXZ=             -0.0011 ZZXY=             -1.6356
 N-N= 1.588155028807D+02 E-N=-8.444557611576D+02  KE= 2.249099965682D+02
 No NMR shielding tensors so no spin-rotation constants.
 Leave Link  601 at Wed Nov 23 20:55:08 2022, MaxMem=  2684354560 cpu:               1.7 elap:               0.1
 (Enter /data0/home/software/g16/l701.exe)
 ... and contract with generalized density number  0.
 Compute integral first derivatives.
 R6Disp: Adding Grimme-D3(BJ) dispersion energy 1st derivatives to the gradient.
 Leave Link  701 at Wed Nov 23 20:55:08 2022, MaxMem=  2684354560 cpu:               2.3 elap:               0.1
 (Enter /data0/home/software/g16/l702.exe)
 L702 exits ... SP integral derivatives will be done elsewhere.
 Leave Link  702 at Wed Nov 23 20:55:08 2022, MaxMem=  2684354560 cpu:               0.3 elap:               0.0
 (Enter /data0/home/software/g16/l703.exe)
 Integral derivatives from FoFJK, PRISM(SPDF).
 Compute integral first derivatives, UseDBF=F ICtDFT=           0.
 Calling FoFJK, ICntrl=      2127 FMM=F ISym2X=0 I1Cent= 0 IOpClX= 0 NMat=1 NMatS=1 NMatT=0.
 FoFJK:  IHMeth= 1 ICntrl=    2127 DoSepK=F KAlg= 0 I1Cent=           0 FoldK=F
 IRaf=         0 NMat=       1 IRICut=       1 DoRegI=T DoRafI=F ISym2E= 0 IDoP0=0 IntGTp=1.
 FoFCou: FMM=F IPFlag=           0 FMFlag=      100000 FMFlg1=         800
         NFxFlg=           0 DoJE=F BraDBF=F KetDBF=F FulRan=T
         wScrn=  0.000000 ICntrl=      2127 IOpCl=  0 I1Cent=           0 NGrid=           0
         NMat0=    1 NMatS0=      1 NMatT0=    0 NMatD0=    1 NMtDS0=    0 NMtDT0=    0
 Symmetry not used in FoFCou.
 Leave Link  703 at Wed Nov 23 20:55:09 2022, MaxMem=  2684354560 cpu:              13.1 elap:               0.6
 (Enter /data0/home/software/g16/l716.exe)
 Dipole        =-6.60342581D-01 1.36246838D+00 1.72951565D-04
 ***** Axes restored to original set *****
 -------------------------------------------------------------------
 Center     Atomic                   Forces (Hartrees/Bohr)
 Number     Number              X              Y              Z
 -------------------------------------------------------------------
      1        6           0.012976507   -0.001411606    0.000004583
      2        6          -0.039790899    0.058102874    0.000005735
      3        6           0.034023416   -0.072249252    0.000014108
      4        7           0.046801418   -0.007622442   -0.000008234
      5        1          -0.021978506    0.005115626   -0.000001762
      6        1           0.003184978    0.006946928   -0.000003189
      7        1           0.002374868    0.009520016    0.000001595
      8        1           0.007519483   -0.008576648    0.000004820
      9        7          -0.045111266    0.010174505   -0.000017656
 -------------------------------------------------------------------
 Cartesian Forces:  Max     0.072249252 RMS     0.024861253
 Leave Link  716 at Wed Nov 23 20:55:09 2022, MaxMem=  2684354560 cpu:               0.5 elap:               0.0
 (Enter /data0/home/software/g16/l103.exe)

 GradGradGradGradGradGradGradGradGradGradGradGradGradGradGradGradGradGrad
 Berny optimization.
 FormGI is forming the generalized inverse of G from B-inverse, IUseBI=4.
 Internal  Forces:  Max     0.074185345 RMS     0.018266680
 Search for a local minimum.
 Step number   1 out of a maximum of   48
 All quantities printed in internal units (Hartrees-Bohrs-Radians)
 RMS Force = .18267D-01 SwitMx=.10000D-02 MixMth= 1
 Mixed Optimization -- RFO/linear search
 Second derivative matrix not updated -- first step.
 ITU=  0
     Eigenvalues ---    0.01574   0.01744   0.01784   0.01800   0.01859
     Eigenvalues ---    0.01963   0.16000   0.16000   0.16000   0.16000
     Eigenvalues ---    0.22000   0.22893   0.34897   0.34902   0.35418
     Eigenvalues ---    0.38004   0.40686   0.44376   0.45726   0.46626
     Eigenvalues ---    0.50570
 RFO step:  Lambda=-3.08889989D-02 EMin= 1.57437906D-02
 Linear search not attempted -- first point.
 Iteration  1 RMS(Cart)=  0.06074134 RMS(Int)=  0.00131119
 Iteration  2 RMS(Cart)=  0.00133690 RMS(Int)=  0.00001031
 Iteration  3 RMS(Cart)=  0.00000123 RMS(Int)=  0.00001027
 Iteration  4 RMS(Cart)=  0.00000000 RMS(Int)=  0.00001027
 ITry= 1 IFail=0 DXMaxC= 2.10D-01 DCOld= 1.00D+10 DXMaxT= 3.00D-01 DXLimC= 3.00D+00 Rises=F
 Variable       Old X    -DE/DX   Delta X   Delta X   Delta X     New X
                                 (Linear)    (Quad)   (Total)
    R1        2.64892  -0.03164   0.00000  -0.06261  -0.06259   2.58633
    R2        2.63012  -0.02986   0.00000  -0.05541  -0.05541   2.57471
    R3        2.05842  -0.00737   0.00000  -0.01939  -0.01939   2.03903
    R4        2.05001  -0.00625   0.00000  -0.01623  -0.01623   2.03379
    R5        2.71151  -0.04304   0.00000  -0.10221  -0.10220   2.60931
    R6        2.63013  -0.02184   0.00000  -0.04356  -0.04358   2.58655
    R7        2.05835  -0.00929   0.00000  -0.02444  -0.02444   2.03391
    R8        2.64911  -0.07419   0.00000  -0.15760  -0.15761   2.49150
    R9        1.85994   0.02251   0.00000   0.04195   0.04195   1.90189
    A1        1.89225  -0.01937   0.00000  -0.06480  -0.06477   1.82747
    A2        2.27063   0.01178   0.00000   0.04339   0.04338   2.31401
    A3        2.12031   0.00759   0.00000   0.02141   0.02140   2.14170
    A4        2.20681  -0.00280   0.00000  -0.00139  -0.00141   2.20540
    A5        1.87077   0.02111   0.00000   0.08403   0.08405   1.95482
    A6        2.20561  -0.01831   0.00000  -0.08264  -0.08265   2.12296
    A7        2.12012  -0.00274   0.00000   0.00161   0.00162   2.12174
    A8        1.89218   0.01911   0.00000   0.06822   0.06820   1.96037
    A9        2.27088  -0.01638   0.00000  -0.06983  -0.06981   2.20107
   A10        1.89884  -0.00779   0.00000  -0.02351  -0.02352   1.87533
   A11        2.19207   0.00240   0.00000   0.00394   0.00395   2.19602
   A12        2.19227   0.00538   0.00000   0.01957   0.01957   2.21184
   A13        1.87074  -0.01307   0.00000  -0.06395  -0.06396   1.80678
    D1        3.14157  -0.00000   0.00000  -0.00000  -0.00000   3.14157
    D2        0.00001  -0.00000   0.00000  -0.00005  -0.00005  -0.00004
    D3        0.00009  -0.00000   0.00000  -0.00000  -0.00000   0.00009
    D4       -3.14148  -0.00000   0.00000  -0.00005  -0.00005  -3.14152
    D5        0.00007  -0.00000   0.00000  -0.00003  -0.00002   0.00004
    D6        3.14132   0.00000   0.00000   0.00004   0.00004   3.14137
    D7        3.14156  -0.00000   0.00000  -0.00003  -0.00002   3.14154
    D8       -0.00037   0.00000   0.00000   0.00004   0.00005  -0.00032
    D9       -0.00008   0.00001   0.00000   0.00010   0.00010   0.00003
   D10        3.14154   0.00000   0.00000   0.00006   0.00006  -3.14158
   D11        3.14146   0.00000   0.00000   0.00005   0.00005   3.14151
   D12        0.00020  -0.00000   0.00000  -0.00001  -0.00001   0.00019
   D13       -0.00012   0.00000   0.00000   0.00008   0.00009  -0.00003
   D14       -3.14137   0.00000   0.00000   0.00002   0.00002  -3.14135
   D15        0.00012  -0.00001   0.00000  -0.00012  -0.00012   0.00000
   D16       -3.14146  -0.00000   0.00000  -0.00008  -0.00008  -3.14154
         Item               Value     Threshold  Converged?
 Maximum Force            0.074185     0.000450     NO 
 RMS     Force            0.018267     0.000300     NO 
 Maximum Displacement     0.209918     0.001800     NO 
 RMS     Displacement     0.060832     0.001200     NO 
 Predicted change in Energy=-1.671334D-02
 Lowest energy point so far.  Saving SCF results.
 GradGradGradGradGradGradGradGradGradGradGradGradGradGradGradGradGradGrad

 Leave Link  103 at Wed Nov 23 20:55:09 2022, MaxMem=  2684354560 cpu:               0.3 elap:               0.0
 (Enter /data0/home/software/g16/l202.exe)
                          Input orientation:                          
 ---------------------------------------------------------------------
 Center     Atomic      Atomic             Coordinates (Angstroms)
 Number     Number       Type             X           Y           Z
 ---------------------------------------------------------------------
      1          6           0       -3.048393   -1.025899   -0.745686
      2          6           0       -1.681625   -0.954582   -0.745677
      3          6           0       -2.343216    1.059976   -0.745779
      4          7           0       -3.462481    0.272129   -0.745716
      5          1           0       -4.418954    0.585293   -0.745912
      6          1           0       -3.736120   -1.857335   -0.745584
      7          1           0       -0.999276   -1.786854   -0.745633
      8          1           0       -2.410322    2.134179   -0.745884
      9          7           0       -1.231714    0.350851   -0.745755
 ---------------------------------------------------------------------
                    Distance matrix (angstroms):
                    1          2          3          4          5
     1  C    0.000000
     2  C    1.368627   0.000000
     3  C    2.201851   2.120412   0.000000
     4  N    1.362477   2.162467   1.368743   0.000000
     5  H    2.115272   3.140729   2.129322   1.006435   0.000000
     6  H    1.079007   2.244083   3.232783   2.146973   2.536276
     7  H    2.185849   1.076233   3.148113   3.210419   4.161884
     8  H    3.223853   3.173554   1.076298   2.138754   2.536464
     9  N    2.279421   1.380788   1.318444   2.232155   3.195850
                    6          7          8          9
     6  H    0.000000
     7  H    2.737752   0.000000
     8  H    4.205940   4.167200   0.000000
     9  N    3.338882   2.150304   2.137610   0.000000
 Stoichiometry    C3H4N2
 Framework group  C1[X(C3H4N2)]
 Deg. of freedom    21
 Full point group                 C1      NOp   1
 RotChk:  IX=0 Diff= 1.65D-01
 Largest Abelian subgroup         C1      NOp   1
 Largest concise Abelian subgroup C1      NOp   1
                         Standard orientation:                         
 ---------------------------------------------------------------------
 Center     Atomic      Atomic             Coordinates (Angstroms)
 Number     Number       Type             X           Y           Z
 ---------------------------------------------------------------------
      1          6           0        0.696749    0.924832   -0.000040
      2          6           0        1.090759   -0.385853   -0.000050
      3          6           0       -1.028889   -0.442766    0.000052
      4          7           0       -0.664878    0.876686   -0.000011
      5          1           0       -1.282391    1.671412    0.000186
      6          1           0        1.247393    1.852757   -0.000142
      7          1           0        2.104452   -0.747384   -0.000094
      8          1           0       -2.062744   -0.742029    0.000158
      9          7           0        0.013674   -1.249834    0.000028
 ---------------------------------------------------------------------
 Rotational constants (GHZ):           9.9149938           9.2939937           4.7972279
 Leave Link  202 at Wed Nov 23 20:55:09 2022, MaxMem=  2684354560 cpu:               0.1 elap:               0.0
 (Enter /data0/home/software/g16/l301.exe)
 Standard basis: 6-311G(d,p) (5D, 7F)
 Ernie: Thresh=  0.10000D-02 Tol=  0.10000D-05 Strict=F.
 There are   119 symmetry adapted cartesian basis functions of A   symmetry.
 There are   114 symmetry adapted basis functions of A   symmetry.
   114 basis functions,   192 primitive gaussians,   119 cartesian basis functions
    18 alpha electrons       18 beta electrons
       nuclear repulsion energy       163.3997296265 Hartrees.
 IExCor=  402 DFT=T Ex+Corr=B3LYP ExCW=0 ScaHFX=  0.200000
 ScaDFX=  0.800000  0.720000  1.000000  0.810000 ScalE2=  1.000000  1.000000
 IRadAn=      5 IRanWt=     -1 IRanGd=            0 ICorTp=0 IEmpDi=141
 NAtoms=    9 NActive=    9 NUniq=    9 SFac= 1.00D+00 NAtFMM=   60 NAOKFM=F Big=F
 Integral buffers will be    131072 words long.
 Raffenetti 2 integral format.
 Two-electron integral symmetry is turned on.
 R6Disp:  Grimme-D3(BJ) Dispersion energy=       -0.0112741123 Hartrees.
 Nuclear repulsion after empirical dispersion term =      163.3884555142 Hartrees.
 Leave Link  301 at Wed Nov 23 20:55:09 2022, MaxMem=  2684354560 cpu:               1.0 elap:               0.1
 (Enter /data0/home/software/g16/l302.exe)
 NPDir=0 NMtPBC=     1 NCelOv=     1 NCel=       1 NClECP=     1 NCelD=      1
         NCelK=      1 NCelE2=     1 NClLst=     1 CellRange=     0.0.
 One-electron integrals computed using PRISM.
 One-electron integral symmetry used in STVInt
 NBasis=   114 RedAO= T EigKep=  1.21D-03  NBF=   114
 NBsUse=   114 1.00D-06 EigRej= -1.00D+00 NBFU=   114
 Precomputing XC quadrature grid using
 IXCGrd= 4 IRadAn=           5 IRanWt=          -1 IRanGd=           0 AccXCQ= 0.00D+00.
 Generated NRdTot=       0 NPtTot=           0 NUsed=           0 NTot=          32
 NSgBfM=   119   119   119   119   119 MxSgAt=     9 MxSgA2=     9.
 Leave Link  302 at Wed Nov 23 20:55:09 2022, MaxMem=  2684354560 cpu:               2.4 elap:               0.1
 (Enter /data0/home/software/g16/l303.exe)
 DipDrv:  MaxL=1.
 Leave Link  303 at Wed Nov 23 20:55:09 2022, MaxMem=  2684354560 cpu:               0.4 elap:               0.0
 (Enter /data0/home/software/g16/l401.exe)
 Initial guess from the checkpoint file:  "Im.chk"
 B after Tr=     0.000000   -0.000000    0.000000
         Rot=    0.998273    0.000006   -0.000001    0.058743 Ang=   6.74 deg.
 Guess basis will be translated and rotated to current coordinates.
 JPrj=2 DoOrth=T DoCkMO=T.
 Generating alternative initial guess.
 ExpMin= 1.03D-01 ExpMax= 6.29D+03 ExpMxC= 9.49D+02 IAcc=2 IRadAn=         4 AccDes= 0.00D+00
 Harris functional with IExCor=  402 and IRadAn=       4 diagonalized for initial guess.
 HarFok:  IExCor=  402 AccDes= 0.00D+00 IRadAn=         4 IDoV= 1 UseB2=F ITyADJ=14
 ICtDFT=  3500011 ScaDFX=  1.000000  1.000000  1.000000  1.000000
 FoFCou: FMM=F IPFlag=           0 FMFlag=      100000 FMFlg1=           0
         NFxFlg=           0 DoJE=T BraDBF=F KetDBF=T FulRan=T
         wScrn=  0.000000 ICntrl=       500 IOpCl=  0 I1Cent=   200000004 NGrid=           0
         NMat0=    1 NMatS0=      1 NMatT0=    0 NMatD0=    1 NMtDS0=    0 NMtDT0=    0
 Petite list used in FoFCou.
 Harris En= -226.279881378887    
 Leave Link  401 at Wed Nov 23 20:55:10 2022, MaxMem=  2684354560 cpu:               4.7 elap:               0.2
 (Enter /data0/home/software/g16/l502.exe)
 Keep R1 ints in memory in canonical form, NReq=42211870.
 FoFCou: FMM=F IPFlag=           0 FMFlag=           0 FMFlg1=           0
         NFxFlg=           0 DoJE=F BraDBF=F KetDBF=F FulRan=T
         wScrn=  0.000000 ICntrl=       600 IOpCl=  0 I1Cent=           0 NGrid=           0
         NMat0=    1 NMatS0=   6555 NMatT0=    0 NMatD0=    1 NMtDS0=    0 NMtDT0=    0
 Symmetry not used in FoFCou.
 Two-electron integral symmetry not used.
 Closed shell SCF:
 Using DIIS extrapolation, IDIIS=  1040.
 NGot=  2684354560 LenX=  2662835028 LenY=  2662820426
 Requested convergence on RMS density matrix=1.00D-08 within 128 cycles.
 Requested convergence on MAX density matrix=1.00D-06.
 Requested convergence on             energy=1.00D-06.
 No special actions if energy rises.
 Integral accuracy reduced to 1.0D-05 until final iterations.

 Cycle   1  Pass 0  IDiag  1:
 E= -226.282269527484    
 DIIS: error= 4.93D-03 at cycle   1 NSaved=   1.
 NSaved= 1 IEnMin= 1 EnMin= -226.282269527484     IErMin= 1 ErrMin= 4.93D-03
 ErrMax= 4.93D-03  0.00D+00 EMaxC= 1.00D-01 BMatC= 5.14D-03 BMatP= 5.14D-03
 IDIUse=3 WtCom= 9.51D-01 WtEn= 4.93D-02
 Coeff-Com:  0.100D+01
 Coeff-En:   0.100D+01
 Coeff:      0.100D+01
 Gap=     0.903 Goal=   None    Shift=    0.000
 GapD=    0.903 DampG=2.000 DampE=1.000 DampFc=2.0000 IDamp=-1.
 RMSDP=7.71D-04 MaxDP=1.51D-02              OVMax= 2.64D-02

 Cycle   2  Pass 0  IDiag  1:
 E= -226.286365207317     Delta-E=       -0.004095679833 Rises=F Damp=F
 DIIS: error= 3.43D-03 at cycle   2 NSaved=   2.
 NSaved= 2 IEnMin= 2 EnMin= -226.286365207317     IErMin= 2 ErrMin= 3.43D-03
 ErrMax= 3.43D-03  0.00D+00 EMaxC= 1.00D-01 BMatC= 1.29D-03 BMatP= 5.14D-03
 IDIUse=3 WtCom= 9.66D-01 WtEn= 3.43D-02
 Coeff-Com:  0.267D+00 0.733D+00
 Coeff-En:   0.000D+00 0.100D+01
 Coeff:      0.257D+00 0.743D+00
 Gap=     0.255 Goal=   None    Shift=    0.000
 RMSDP=4.34D-04 MaxDP=1.11D-02 DE=-4.10D-03 OVMax= 2.37D-02

 Cycle   3  Pass 0  IDiag  1:
 E= -226.286357473247     Delta-E=        0.000007734070 Rises=F Damp=F
 DIIS: error= 4.43D-03 at cycle   3 NSaved=   3.
 NSaved= 3 IEnMin= 2 EnMin= -226.286365207317     IErMin= 2 ErrMin= 3.43D-03
 ErrMax= 4.43D-03  0.00D+00 EMaxC= 1.00D-01 BMatC= 1.23D-03 BMatP= 1.29D-03
 IDIUse=3 WtCom= 9.56D-01 WtEn= 4.43D-02
 Coeff-Com:  0.225D-01 0.490D+00 0.487D+00
 Coeff-En:   0.000D+00 0.501D+00 0.499D+00
 Coeff:      0.215D-01 0.491D+00 0.488D+00
 Gap=     0.256 Goal=   None    Shift=    0.000
 RMSDP=2.74D-04 MaxDP=4.60D-03 DE= 7.73D-06 OVMax= 1.66D-02

 Cycle   4  Pass 0  IDiag  1:
 E= -226.287365179606     Delta-E=       -0.001007706358 Rises=F Damp=F
 DIIS: error= 1.08D-03 at cycle   4 NSaved=   4.
 NSaved= 4 IEnMin= 4 EnMin= -226.287365179606     IErMin= 4 ErrMin= 1.08D-03
 ErrMax= 1.08D-03  0.00D+00 EMaxC= 1.00D-01 BMatC= 1.13D-04 BMatP= 1.23D-03
 IDIUse=3 WtCom= 9.89D-01 WtEn= 1.08D-02
 Coeff-Com: -0.793D-02 0.240D+00 0.313D+00 0.455D+00
 Coeff-En:   0.000D+00 0.000D+00 0.386D-01 0.961D+00
 Coeff:     -0.784D-02 0.237D+00 0.310D+00 0.461D+00
 Gap=     0.255 Goal=   None    Shift=    0.000
 RMSDP=6.56D-05 MaxDP=1.14D-03 DE=-1.01D-03 OVMax= 3.40D-03

 Cycle   5  Pass 0  IDiag  1:
 E= -226.287467016130     Delta-E=       -0.000101836525 Rises=F Damp=F
 DIIS: error= 1.29D-04 at cycle   5 NSaved=   5.
 NSaved= 5 IEnMin= 5 EnMin= -226.287467016130     IErMin= 5 ErrMin= 1.29D-04
 ErrMax= 1.29D-04  0.00D+00 EMaxC= 1.00D-01 BMatC= 1.47D-06 BMatP= 1.13D-04
 IDIUse=3 WtCom= 9.99D-01 WtEn= 1.29D-03
 Coeff-Com: -0.330D-02 0.452D-01 0.787D-01 0.158D+00 0.721D+00
 Coeff-En:   0.000D+00 0.000D+00 0.000D+00 0.000D+00 0.100D+01
 Coeff:     -0.330D-02 0.452D-01 0.786D-01 0.158D+00 0.721D+00
 Gap=     0.256 Goal=   None    Shift=    0.000
 RMSDP=1.13D-05 MaxDP=2.02D-04 DE=-1.02D-04 OVMax= 5.26D-04

 Cycle   6  Pass 0  IDiag  1:
 E= -226.287468037100     Delta-E=       -0.000001020969 Rises=F Damp=F
 DIIS: error= 7.83D-05 at cycle   6 NSaved=   6.
 NSaved= 6 IEnMin= 6 EnMin= -226.287468037100     IErMin= 6 ErrMin= 7.83D-05
 ErrMax= 7.83D-05  0.00D+00 EMaxC= 1.00D-01 BMatC= 4.39D-07 BMatP= 1.47D-06
 IDIUse=1 WtCom= 1.00D+00 WtEn= 0.00D+00
 Coeff-Com: -0.133D-02 0.113D-01 0.267D-01 0.642D-01 0.431D+00 0.468D+00
 Coeff:     -0.133D-02 0.113D-01 0.267D-01 0.642D-01 0.431D+00 0.468D+00
 Gap=     0.256 Goal=   None    Shift=    0.000
 RMSDP=4.14D-06 MaxDP=1.26D-04 DE=-1.02D-06 OVMax= 2.27D-04

 Initial convergence to 1.0D-05 achieved.  Increase integral accuracy.
 Cycle   7  Pass 1  IDiag  1:
 E= -226.287467983018     Delta-E=        0.000000054082 Rises=F Damp=F
 DIIS: error= 7.85D-06 at cycle   1 NSaved=   1.
 NSaved= 1 IEnMin= 1 EnMin= -226.287467983018     IErMin= 1 ErrMin= 7.85D-06
 ErrMax= 7.85D-06  0.00D+00 EMaxC= 1.00D-01 BMatC= 8.69D-09 BMatP= 8.69D-09
 IDIUse=1 WtCom= 1.00D+00 WtEn= 0.00D+00
 Coeff-Com:  0.100D+01
 Coeff:      0.100D+01
 Gap=     0.256 Goal=   None    Shift=    0.000
 RMSDP=4.14D-06 MaxDP=1.26D-04 DE= 5.41D-08 OVMax= 6.73D-05

 Cycle   8  Pass 1  IDiag  1:
 E= -226.287467976175     Delta-E=        0.000000006843 Rises=F Damp=F
 DIIS: error= 1.69D-05 at cycle   2 NSaved=   2.
 NSaved= 2 IEnMin= 1 EnMin= -226.287467983018     IErMin= 1 ErrMin= 7.85D-06
 ErrMax= 1.69D-05  0.00D+00 EMaxC= 1.00D-01 BMatC= 1.71D-08 BMatP= 8.69D-09
 IDIUse=1 WtCom= 1.00D+00 WtEn= 0.00D+00
 Coeff-Com:  0.593D+00 0.407D+00
 Coeff:      0.593D+00 0.407D+00
 Gap=     0.256 Goal=   None    Shift=    0.000
 RMSDP=9.12D-07 MaxDP=1.83D-05 DE= 6.84D-09 OVMax= 5.48D-05

 Cycle   9  Pass 1  IDiag  1:
 E= -226.287467991566     Delta-E=       -0.000000015391 Rises=F Damp=F
 DIIS: error= 3.42D-06 at cycle   3 NSaved=   3.
 NSaved= 3 IEnMin= 3 EnMin= -226.287467991566     IErMin= 3 ErrMin= 3.42D-06
 ErrMax= 3.42D-06  0.00D+00 EMaxC= 1.00D-01 BMatC= 8.71D-10 BMatP= 8.69D-09
 IDIUse=1 WtCom= 1.00D+00 WtEn= 0.00D+00
 Coeff-Com:  0.150D+00 0.205D+00 0.645D+00
 Coeff:      0.150D+00 0.205D+00 0.645D+00
 Gap=     0.256 Goal=   None    Shift=    0.000
 RMSDP=2.22D-07 MaxDP=3.48D-06 DE=-1.54D-08 OVMax= 1.39D-05

 Cycle  10  Pass 1  IDiag  1:
 E= -226.287467992128     Delta-E=       -0.000000000562 Rises=F Damp=F
 DIIS: error= 2.00D-06 at cycle   4 NSaved=   4.
 NSaved= 4 IEnMin= 4 EnMin= -226.287467992128     IErMin= 4 ErrMin= 2.00D-06
 ErrMax= 2.00D-06  0.00D+00 EMaxC= 1.00D-01 BMatC= 2.57D-10 BMatP= 8.71D-10
 IDIUse=1 WtCom= 1.00D+00 WtEn= 0.00D+00
 Coeff-Com:  0.114D-01 0.791D-01 0.419D+00 0.490D+00
 Coeff:      0.114D-01 0.791D-01 0.419D+00 0.490D+00
 Gap=     0.256 Goal=   None    Shift=    0.000
 RMSDP=1.07D-07 MaxDP=2.23D-06 DE=-5.62D-10 OVMax= 6.43D-06

 Cycle  11  Pass 1  IDiag  1:
 E= -226.287467992339     Delta-E=       -0.000000000211 Rises=F Damp=F
 DIIS: error= 4.11D-07 at cycle   5 NSaved=   5.
 NSaved= 5 IEnMin= 5 EnMin= -226.287467992339     IErMin= 5 ErrMin= 4.11D-07
 ErrMax= 4.11D-07  0.00D+00 EMaxC= 1.00D-01 BMatC= 8.43D-12 BMatP= 2.57D-10
 IDIUse=1 WtCom= 1.00D+00 WtEn= 0.00D+00
 Coeff-Com: -0.570D-02 0.216D-01 0.135D+00 0.232D+00 0.617D+00
 Coeff:     -0.570D-02 0.216D-01 0.135D+00 0.232D+00 0.617D+00
 Gap=     0.256 Goal=   None    Shift=    0.000
 RMSDP=2.66D-08 MaxDP=4.03D-07 DE=-2.11D-10 OVMax= 1.26D-06

 Cycle  12  Pass 1  IDiag  1:
 E= -226.287467992347     Delta-E=       -0.000000000008 Rises=F Damp=F
 DIIS: error= 8.24D-08 at cycle   6 NSaved=   6.
 NSaved= 6 IEnMin= 6 EnMin= -226.287467992347     IErMin= 6 ErrMin= 8.24D-08
 ErrMax= 8.24D-08  0.00D+00 EMaxC= 1.00D-01 BMatC= 6.47D-13 BMatP= 8.43D-12
 IDIUse=1 WtCom= 1.00D+00 WtEn= 0.00D+00
 Coeff-Com: -0.393D-02 0.527D-02 0.368D-01 0.807D-01 0.299D+00 0.582D+00
 Coeff:     -0.393D-02 0.527D-02 0.368D-01 0.807D-01 0.299D+00 0.582D+00
 Gap=     0.256 Goal=   None    Shift=    0.000
 RMSDP=5.71D-09 MaxDP=1.41D-07 DE=-8.19D-12 OVMax= 2.86D-07

 SCF Done:  E(RB3LYP) =  -226.287467992     A.U. after   12 cycles
            NFock= 12  Conv=0.57D-08     -V/T= 2.0037
 KE= 2.254587721582D+02 PE=-8.540035836984D+02 EE= 2.388688880336D+02
 Leave Link  502 at Wed Nov 23 20:55:11 2022, MaxMem=  2684354560 cpu:              30.5 elap:               1.7
 (Enter /data0/home/software/g16/l701.exe)
 ... and contract with generalized density number  0.
 Compute integral first derivatives.
 R6Disp: Adding Grimme-D3(BJ) dispersion energy 1st derivatives to the gradient.
 Leave Link  701 at Wed Nov 23 20:55:11 2022, MaxMem=  2684354560 cpu:               2.3 elap:               0.1
 (Enter /data0/home/software/g16/l702.exe)
 L702 exits ... SP integral derivatives will be done elsewhere.
 Leave Link  702 at Wed Nov 23 20:55:11 2022, MaxMem=  2684354560 cpu:               0.3 elap:               0.0
 (Enter /data0/home/software/g16/l703.exe)
 Integral derivatives from FoFJK, PRISM(SPDF).
 Compute integral first derivatives, UseDBF=F ICtDFT=           0.
 Calling FoFJK, ICntrl=      2127 FMM=F ISym2X=0 I1Cent= 0 IOpClX= 0 NMat=1 NMatS=1 NMatT=0.
 FoFJK:  IHMeth= 1 ICntrl=    2127 DoSepK=F KAlg= 0 I1Cent=           0 FoldK=F
 IRaf=         0 NMat=       1 IRICut=       1 DoRegI=T DoRafI=F ISym2E= 0 IDoP0=0 IntGTp=1.
 FoFCou: FMM=F IPFlag=           0 FMFlag=      100000 FMFlg1=         800
         NFxFlg=           0 DoJE=F BraDBF=F KetDBF=F FulRan=T
         wScrn=  0.000000 ICntrl=      2127 IOpCl=  0 I1Cent=           0 NGrid=           0
         NMat0=    1 NMatS0=      1 NMatT0=    0 NMatD0=    1 NMtDS0=    0 NMtDT0=    0
 Symmetry not used in FoFCou.
 Leave Link  703 at Wed Nov 23 20:55:12 2022, MaxMem=  2684354560 cpu:              12.9 elap:               0.6
 (Enter /data0/home/software/g16/l716.exe)
 Dipole        =-5.18329175D-01 1.40948424D+00 9.62186140D-05
 ***** Axes restored to original set *****
 -------------------------------------------------------------------
 Center     Atomic                   Forces (Hartrees/Bohr)
 Number     Number              X              Y              Z
 -------------------------------------------------------------------
      1        6           0.003596740   -0.009534726    0.000005766
      2        6           0.008336753   -0.008164676   -0.000001863
      3        6           0.001371582    0.004381449   -0.000003991
      4        7          -0.002455449    0.012678517   -0.000006132
      5        1           0.000025114    0.001461613    0.000003522
      6        1           0.001490645    0.001169009   -0.000002139
      7        1           0.002629771   -0.000612617    0.000000576
      8        1           0.000619163    0.002196613    0.000001259
      9        7          -0.015614318   -0.003575181    0.000003002
 -------------------------------------------------------------------
 Cartesian Forces:  Max     0.015614318 RMS     0.005101479
 Leave Link  716 at Wed Nov 23 20:55:12 2022, MaxMem=  2684354560 cpu:               0.4 elap:               0.0
 (Enter /data0/home/software/g16/l103.exe)

 GradGradGradGradGradGradGradGradGradGradGradGradGradGradGradGradGradGrad
 Berny optimization.
 Using GEDIIS/GDIIS optimizer.
 FormGI is forming the generalized inverse of G from B-inverse, IUseBI=4.
 Internal  Forces:  Max     0.016488508 RMS     0.004124432
 Search for a local minimum.
 Step number   2 out of a maximum of   48
 All quantities printed in internal units (Hartrees-Bohrs-Radians)
 RMS Force = .41244D-02 SwitMx=.10000D-02 MixMth= 1
 Mixed Optimization -- RFO/linear search
 Update second derivatives using D2CorX and points    1    2
 DE= -1.50D-02 DEPred=-1.67D-02 R= 8.98D-01
 TightC=F SS=  1.41D+00  RLast= 2.87D-01 DXNew= 5.0454D-01 8.5997D-01
 Trust test= 8.98D-01 RLast= 2.87D-01 DXMaxT set to 5.05D-01
 ITU=  1  0
 Use linear search instead of GDIIS.
     Eigenvalues ---    0.01577   0.01748   0.01800   0.01801   0.01859
     Eigenvalues ---    0.01966   0.15830   0.16000   0.16000   0.16040
     Eigenvalues ---    0.22032   0.26562   0.34609   0.34997   0.35454
     Eigenvalues ---    0.36178   0.38755   0.43663   0.45852   0.50309
     Eigenvalues ---    0.53576
 RFO step:  Lambda=-1.52411951D-03 EMin= 1.57747139D-02
 Quartic linear search produced a step of -0.07258.
 Iteration  1 RMS(Cart)=  0.01445820 RMS(Int)=  0.00016020
 Iteration  2 RMS(Cart)=  0.00021610 RMS(Int)=  0.00005315
 Iteration  3 RMS(Cart)=  0.00000002 RMS(Int)=  0.00005315
 ITry= 1 IFail=0 DXMaxC= 5.24D-02 DCOld= 1.00D+10 DXMaxT= 5.05D-01 DXLimC= 3.00D+00 Rises=F
 Variable       Old X    -DE/DX   Delta X   Delta X   Delta X     New X
                                 (Linear)    (Quad)   (Total)
    R1        2.58633   0.00133   0.00454  -0.00518  -0.00064   2.58569
    R2        2.57471   0.01649   0.00402   0.02599   0.02992   2.60463
    R3        2.03903  -0.00185   0.00141  -0.00770  -0.00629   2.03273
    R4        2.03379   0.00214   0.00118   0.00324   0.00442   2.03820
    R5        2.60931  -0.00114   0.00742  -0.01793  -0.01042   2.59889
    R6        2.58655  -0.00297   0.00316  -0.01206  -0.00894   2.57761
    R7        2.03391   0.00215   0.00177   0.00216   0.00394   2.03785
    R8        2.49150  -0.00234   0.01144  -0.02822  -0.01671   2.47478
    R9        1.90189   0.00043  -0.00304   0.00659   0.00354   1.90543
    A1        1.82747   0.00169   0.00470   0.00273   0.00732   1.83479
    A2        2.31401  -0.00125  -0.00315  -0.00188  -0.00497   2.30904
    A3        2.14170  -0.00043  -0.00155  -0.00085  -0.00235   2.13936
    A4        2.20540   0.00605   0.00010   0.02734   0.02741   2.23282
    A5        1.95482  -0.00875  -0.00610  -0.02180  -0.02784   1.92698
    A6        2.12296   0.00270   0.00600  -0.00554   0.00043   2.12339
    A7        2.12174   0.00337  -0.00012   0.01664   0.01651   2.13826
    A8        1.96037  -0.00520  -0.00495  -0.01244  -0.01738   1.94299
    A9        2.20107   0.00183   0.00507  -0.00419   0.00087   2.20194
   A10        1.87533  -0.00087   0.00171  -0.00354  -0.00197   1.87336
   A11        2.19602   0.00176  -0.00029   0.00808   0.00786   2.20388
   A12        2.21184  -0.00089  -0.00142  -0.00454  -0.00589   2.20595
   A13        1.80678   0.01314   0.00464   0.03505   0.03988   1.84666
    D1        3.14157   0.00000   0.00000  -0.00000  -0.00000   3.14157
    D2       -0.00004   0.00000   0.00000   0.00003   0.00003  -0.00001
    D3        0.00009  -0.00000   0.00000  -0.00004  -0.00004   0.00004
    D4       -3.14152   0.00000   0.00000  -0.00002  -0.00001  -3.14154
    D5        0.00004  -0.00000   0.00000  -0.00003  -0.00003   0.00001
    D6        3.14137   0.00000  -0.00000   0.00008   0.00008   3.14145
    D7        3.14154   0.00000   0.00000   0.00000   0.00001   3.14154
    D8       -0.00032   0.00000  -0.00000   0.00012   0.00012  -0.00021
    D9        0.00003  -0.00000  -0.00001  -0.00001  -0.00001   0.00001
   D10       -3.14158  -0.00000  -0.00000   0.00002   0.00002  -3.14157
   D11        3.14151   0.00000  -0.00000   0.00010   0.00010  -3.14157
   D12        0.00019  -0.00000   0.00000  -0.00002  -0.00001   0.00018
   D13       -0.00003  -0.00000  -0.00001   0.00003   0.00003  -0.00000
   D14       -3.14135  -0.00000  -0.00000  -0.00009  -0.00009  -3.14144
   D15        0.00000   0.00000   0.00001  -0.00002  -0.00001  -0.00000
   D16       -3.14154  -0.00000   0.00001  -0.00009  -0.00009   3.14156
         Item               Value     Threshold  Converged?
 Maximum Force            0.016489     0.000450     NO 
 RMS     Force            0.004124     0.000300     NO 
 Maximum Displacement     0.052362     0.001800     NO 
 RMS     Displacement     0.014442     0.001200     NO 
 Predicted change in Energy=-8.777917D-04
 Lowest energy point so far.  Saving SCF results.
 GradGradGradGradGradGradGradGradGradGradGradGradGradGradGradGradGradGrad

 Leave Link  103 at Wed Nov 23 20:55:12 2022, MaxMem=  2684354560 cpu:               0.2 elap:               0.0
 (Enter /data0/home/software/g16/l202.exe)
                          Input orientation:                          
 ---------------------------------------------------------------------
 Center     Atomic      Atomic             Coordinates (Angstroms)
 Number     Number       Type             X           Y           Z
 ---------------------------------------------------------------------
      1          6           0       -3.045502   -1.032357   -0.745681
      2          6           0       -1.678688   -0.968900   -0.745680
      3          6           0       -2.350776    1.064783   -0.745808
      4          7           0       -3.466478    0.280091   -0.745754
      5          1           0       -4.422744    0.599852   -0.745891
      6          1           0       -3.731742   -1.860702   -0.745582
      7          1           0       -0.976938   -1.787963   -0.745611
      8          1           0       -2.399811    2.142049   -0.745849
      9          7           0       -1.259423    0.340906   -0.745768
 ---------------------------------------------------------------------
                    Distance matrix (angstroms):
                    1          2          3          4          5
     1  C    0.000000
     2  C    1.368286   0.000000
     3  C    2.209217   2.141861   0.000000
     4  N    1.378311   2.180864   1.364013   0.000000
     5  H    2.135627   3.160826   2.123490   1.008311   0.000000
     6  H    1.075677   2.238379   3.235047   2.157165   2.555740
     7  H    2.202248   1.078571   3.166320   3.236457   4.192282
     8  H    3.239409   3.193434   1.078382   2.145849   2.543743
     9  N    2.252982   1.375273   1.309599   2.207893   3.173902
                    6          7          8          9
     6  H    0.000000
     7  H    2.755764   0.000000
     8  H    4.218537   4.179660   0.000000
     9  N    3.310504   2.147528   2.131807   0.000000
 Stoichiometry    C3H4N2
 Framework group  C1[X(C3H4N2)]
 Deg. of freedom    21
 Full point group                 C1      NOp   1
 RotChk:  IX=2 Diff= 8.54D-02
 Largest Abelian subgroup         C1      NOp   1
 Largest concise Abelian subgroup C1      NOp   1
                         Standard orientation:                         
 ---------------------------------------------------------------------
 Center     Atomic      Atomic             Coordinates (Angstroms)
 Number     Number       Type             X           Y           Z
 ---------------------------------------------------------------------
      1          6           0        0.646576    0.958995   -0.000058
      2          6           0        1.126206   -0.322473   -0.000059
      3          6           0       -1.007857   -0.505072    0.000069
      4          7           0       -0.725631    0.829424    0.000015
      5          1           0       -1.395961    1.582651    0.000152
      6          1           0        1.137963    1.915874   -0.000157
      7          1           0        2.155361   -0.645207   -0.000128
      8          1           0       -2.017472   -0.883998    0.000111
      9          7           0        0.087140   -1.223426    0.000029
 ---------------------------------------------------------------------
 Rotational constants (GHZ):           9.7433982           9.4636668           4.8007478
 Leave Link  202 at Wed Nov 23 20:55:12 2022, MaxMem=  2684354560 cpu:               0.1 elap:               0.0
 (Enter /data0/home/software/g16/l301.exe)
 Standard basis: 6-311G(d,p) (5D, 7F)
 Ernie: Thresh=  0.10000D-02 Tol=  0.10000D-05 Strict=F.
 There are   119 symmetry adapted cartesian basis functions of A   symmetry.
 There are   114 symmetry adapted basis functions of A   symmetry.
   114 basis functions,   192 primitive gaussians,   119 cartesian basis functions
    18 alpha electrons       18 beta electrons
       nuclear repulsion energy       163.4321243847 Hartrees.
 IExCor=  402 DFT=T Ex+Corr=B3LYP ExCW=0 ScaHFX=  0.200000
 ScaDFX=  0.800000  0.720000  1.000000  0.810000 ScalE2=  1.000000  1.000000
 IRadAn=      5 IRanWt=     -1 IRanGd=            0 ICorTp=0 IEmpDi=141
 NAtoms=    9 NActive=    9 NUniq=    9 SFac= 1.00D+00 NAtFMM=   60 NAOKFM=F Big=F
 Integral buffers will be    131072 words long.
 Raffenetti 2 integral format.
 Two-electron integral symmetry is turned on.
 R6Disp:  Grimme-D3(BJ) Dispersion energy=       -0.0113456791 Hartrees.
 Nuclear repulsion after empirical dispersion term =      163.4207787056 Hartrees.
 Leave Link  301 at Wed Nov 23 20:55:12 2022, MaxMem=  2684354560 cpu:               1.0 elap:               0.1
 (Enter /data0/home/software/g16/l302.exe)
 NPDir=0 NMtPBC=     1 NCelOv=     1 NCel=       1 NClECP=     1 NCelD=      1
         NCelK=      1 NCelE2=     1 NClLst=     1 CellRange=     0.0.
 One-electron integrals computed using PRISM.
 One-electron integral symmetry used in STVInt
 NBasis=   114 RedAO= T EigKep=  1.19D-03  NBF=   114
 NBsUse=   114 1.00D-06 EigRej= -1.00D+00 NBFU=   114
 Precomputing XC quadrature grid using
 IXCGrd= 4 IRadAn=           5 IRanWt=          -1 IRanGd=           0 AccXCQ= 0.00D+00.
 Generated NRdTot=       0 NPtTot=           0 NUsed=           0 NTot=          32
 NSgBfM=   119   119   119   119   119 MxSgAt=     9 MxSgA2=     9.
 Leave Link  302 at Wed Nov 23 20:55:12 2022, MaxMem=  2684354560 cpu:               2.4 elap:               0.1
 (Enter /data0/home/software/g16/l303.exe)
 DipDrv:  MaxL=1.
 Leave Link  303 at Wed Nov 23 20:55:12 2022, MaxMem=  2684354560 cpu:               0.4 elap:               0.0
 (Enter /data0/home/software/g16/l401.exe)
 Initial guess from the checkpoint file:  "Im.chk"
 B after Tr=    -0.000000    0.000000   -0.000000
         Rot=    0.999543    0.000000   -0.000005   -0.030231 Ang=   3.46 deg.
 Guess basis will be translated and rotated to current coordinates.
 JPrj=2 DoOrth=T DoCkMO=T.
 Generating alternative initial guess.
 ExpMin= 1.03D-01 ExpMax= 6.29D+03 ExpMxC= 9.49D+02 IAcc=2 IRadAn=         4 AccDes= 0.00D+00
 Harris functional with IExCor=  402 and IRadAn=       4 diagonalized for initial guess.
 HarFok:  IExCor=  402 AccDes= 0.00D+00 IRadAn=         4 IDoV= 1 UseB2=F ITyADJ=14
 ICtDFT=  3500011 ScaDFX=  1.000000  1.000000  1.000000  1.000000
 FoFCou: FMM=F IPFlag=           0 FMFlag=      100000 FMFlg1=           0
         NFxFlg=           0 DoJE=T BraDBF=F KetDBF=T FulRan=T
         wScrn=  0.000000 ICntrl=       500 IOpCl=  0 I1Cent=   200000004 NGrid=           0
         NMat0=    1 NMatS0=      1 NMatT0=    0 NMatD0=    1 NMtDS0=    0 NMtDT0=    0
 Petite list used in FoFCou.
 Harris En= -226.281220483093    
 Leave Link  401 at Wed Nov 23 20:55:13 2022, MaxMem=  2684354560 cpu:               4.8 elap:               0.2
 (Enter /data0/home/software/g16/l502.exe)
 Keep R1 ints in memory in canonical form, NReq=42211870.
 FoFCou: FMM=F IPFlag=           0 FMFlag=           0 FMFlg1=           0
         NFxFlg=           0 DoJE=F BraDBF=F KetDBF=F FulRan=T
         wScrn=  0.000000 ICntrl=       600 IOpCl=  0 I1Cent=           0 NGrid=           0
         NMat0=    1 NMatS0=   6555 NMatT0=    0 NMatD0=    1 NMtDS0=    0 NMtDT0=    0
 Symmetry not used in FoFCou.
 Two-electron integral symmetry not used.
 Closed shell SCF:
 Using DIIS extrapolation, IDIIS=  1040.
 NGot=  2684354560 LenX=  2662835028 LenY=  2662820426
 Requested convergence on RMS density matrix=1.00D-08 within 128 cycles.
 Requested convergence on MAX density matrix=1.00D-06.
 Requested convergence on             energy=1.00D-06.
 No special actions if energy rises.
 Integral accuracy reduced to 1.0D-05 until final iterations.

 Cycle   1  Pass 0  IDiag  1:
 E= -226.287744112170    
 DIIS: error= 1.83D-03 at cycle   1 NSaved=   1.
 NSaved= 1 IEnMin= 1 EnMin= -226.287744112170     IErMin= 1 ErrMin= 1.83D-03
 ErrMax= 1.83D-03  0.00D+00 EMaxC= 1.00D-01 BMatC= 3.54D-04 BMatP= 3.54D-04
 IDIUse=3 WtCom= 9.82D-01 WtEn= 1.83D-02
 Coeff-Com:  0.100D+01
 Coeff-En:   0.100D+01
 Coeff:      0.100D+01
 Gap=     0.919 Goal=   None    Shift=    0.000
 GapD=    0.919 DampG=2.000 DampE=1.000 DampFc=2.0000 IDamp=-1.
 RMSDP=2.63D-04 MaxDP=5.91D-03              OVMax= 8.25D-03

 Cycle   2  Pass 0  IDiag  1:
 E= -226.288171189836     Delta-E=       -0.000427077665 Rises=F Damp=F
 DIIS: error= 7.11D-04 at cycle   2 NSaved=   2.
 NSaved= 2 IEnMin= 2 EnMin= -226.288171189836     IErMin= 2 ErrMin= 7.11D-04
 ErrMax= 7.11D-04  0.00D+00 EMaxC= 1.00D-01 BMatC= 3.88D-05 BMatP= 3.54D-04
 IDIUse=3 WtCom= 9.93D-01 WtEn= 7.11D-03
 Coeff-Com:  0.125D+00 0.875D+00
 Coeff-En:   0.000D+00 0.100D+01
 Coeff:      0.124D+00 0.876D+00
 Gap=     0.257 Goal=   None    Shift=    0.000
 RMSDP=8.47D-05 MaxDP=1.78D-03 DE=-4.27D-04 OVMax= 4.68D-03

 Cycle   3  Pass 0  IDiag  1:
 E= -226.288132276031     Delta-E=        0.000038913805 Rises=F Damp=F
 DIIS: error= 1.21D-03 at cycle   3 NSaved=   3.
 NSaved= 3 IEnMin= 2 EnMin= -226.288171189836     IErMin= 2 ErrMin= 7.11D-04
 ErrMax= 1.21D-03  0.00D+00 EMaxC= 1.00D-01 BMatC= 7.86D-05 BMatP= 3.88D-05
 IDIUse=3 WtCom= 2.23D-01 WtEn= 7.77D-01
 Coeff-Com: -0.138D-01 0.596D+00 0.417D+00
 Coeff-En:   0.000D+00 0.658D+00 0.342D+00
 Coeff:     -0.308D-02 0.644D+00 0.359D+00
 Gap=     0.257 Goal=   None    Shift=    0.000
 RMSDP=5.36D-05 MaxDP=7.41D-04 DE= 3.89D-05 OVMax= 2.95D-03

 Cycle   4  Pass 0  IDiag  1:
 E= -226.288203013806     Delta-E=       -0.000070737775 Rises=F Damp=F
 DIIS: error= 7.66D-05 at cycle   4 NSaved=   4.
 NSaved= 4 IEnMin= 4 EnMin= -226.288203013806     IErMin= 4 ErrMin= 7.66D-05
 ErrMax= 7.66D-05  0.00D+00 EMaxC= 1.00D-01 BMatC= 8.20D-07 BMatP= 3.88D-05
 IDIUse=1 WtCom= 1.00D+00 WtEn= 0.00D+00
 Coeff-Com: -0.113D-01 0.196D+00 0.957D-01 0.720D+00
 Coeff:     -0.113D-01 0.196D+00 0.957D-01 0.720D+00
 Gap=     0.257 Goal=   None    Shift=    0.000
 RMSDP=7.89D-06 MaxDP=2.41D-04 DE=-7.07D-05 OVMax= 4.37D-04

 Initial convergence to 1.0D-05 achieved.  Increase integral accuracy.
 Cycle   5  Pass 1  IDiag  1:
 E= -226.288205939758     Delta-E=       -0.000002925952 Rises=F Damp=F
 DIIS: error= 7.05D-05 at cycle   1 NSaved=   1.
 NSaved= 1 IEnMin= 1 EnMin= -226.288205939758     IErMin= 1 ErrMin= 7.05D-05
 ErrMax= 7.05D-05  0.00D+00 EMaxC= 1.00D-01 BMatC= 2.73D-07 BMatP= 2.73D-07
 IDIUse=1 WtCom= 1.00D+00 WtEn= 0.00D+00
 Coeff-Com:  0.100D+01
 Coeff:      0.100D+01
 Gap=     0.257 Goal=   None    Shift=    0.000
 RMSDP=7.89D-06 MaxDP=2.41D-04 DE=-2.93D-06 OVMax= 6.23D-04

 Cycle   6  Pass 1  IDiag  1:
 E= -226.288205373934     Delta-E=        0.000000565825 Rises=F Damp=F
 DIIS: error= 1.26D-04 at cycle   2 NSaved=   2.
 NSaved= 2 IEnMin= 1 EnMin= -226.288205939758     IErMin= 1 ErrMin= 7.05D-05
 ErrMax= 1.26D-04  0.00D+00 EMaxC= 1.00D-01 BMatC= 8.55D-07 BMatP= 2.73D-07
 IDIUse=3 WtCom= 4.71D-01 WtEn= 5.29D-01
 Coeff-Com:  0.640D+00 0.360D+00
 Coeff-En:   0.717D+00 0.283D+00
 Coeff:      0.680D+00 0.320D+00
 Gap=     0.257 Goal=   None    Shift=    0.000
 RMSDP=5.01D-06 MaxDP=1.31D-04 DE= 5.66D-07 OVMax= 3.47D-04

 Cycle   7  Pass 1  IDiag  1:
 E= -226.288206199061     Delta-E=       -0.000000825127 Rises=F Damp=F
 DIIS: error= 1.21D-05 at cycle   3 NSaved=   3.
 NSaved= 3 IEnMin= 3 EnMin= -226.288206199061     IErMin= 3 ErrMin= 1.21D-05
 ErrMax= 1.21D-05  0.00D+00 EMaxC= 1.00D-01 BMatC= 1.30D-08 BMatP= 2.73D-07
 IDIUse=1 WtCom= 1.00D+00 WtEn= 0.00D+00
 Coeff-Com:  0.369D+00 0.160D+00 0.470D+00
 Coeff:      0.369D+00 0.160D+00 0.470D+00
 Gap=     0.257 Goal=   None    Shift=    0.000
 RMSDP=7.71D-07 MaxDP=2.12D-05 DE=-8.25D-07 OVMax= 4.84D-05

 Cycle   8  Pass 1  IDiag  1:
 E= -226.288206211424     Delta-E=       -0.000000012363 Rises=F Damp=F
 DIIS: error= 2.34D-06 at cycle   4 NSaved=   4.
 NSaved= 4 IEnMin= 4 EnMin= -226.288206211424     IErMin= 4 ErrMin= 2.34D-06
 ErrMax= 2.34D-06  0.00D+00 EMaxC= 1.00D-01 BMatC= 3.54D-10 BMatP= 1.30D-08
 IDIUse=1 WtCom= 1.00D+00 WtEn= 0.00D+00
 Coeff-Com:  0.125D+00 0.447D-01 0.247D+00 0.584D+00
 Coeff:      0.125D+00 0.447D-01 0.247D+00 0.584D+00
 Gap=     0.257 Goal=   None    Shift=    0.000
 RMSDP=1.47D-07 MaxDP=3.14D-06 DE=-1.24D-08 OVMax= 8.74D-06

 Cycle   9  Pass 1  IDiag  1:
 E= -226.288206211678     Delta-E=       -0.000000000254 Rises=F Damp=F
 DIIS: error= 9.73D-07 at cycle   5 NSaved=   5.
 NSaved= 5 IEnMin= 5 EnMin= -226.288206211678     IErMin= 5 ErrMin= 9.73D-07
 ErrMax= 9.73D-07  0.00D+00 EMaxC= 1.00D-01 BMatC= 5.94D-11 BMatP= 3.54D-10
 IDIUse=1 WtCom= 1.00D+00 WtEn= 0.00D+00
 Coeff-Com: -0.723D-03-0.630D-02 0.510D-01 0.329D+00 0.627D+00
 Coeff:     -0.723D-03-0.630D-02 0.510D-01 0.329D+00 0.627D+00
 Gap=     0.257 Goal=   None    Shift=    0.000
 RMSDP=5.80D-08 MaxDP=1.49D-06 DE=-2.54D-10 OVMax= 3.86D-06

 Cycle  10  Pass 1  IDiag  1:
 E= -226.288206211731     Delta-E=       -0.000000000053 Rises=F Damp=F
 DIIS: error= 2.47D-07 at cycle   6 NSaved=   6.
 NSaved= 6 IEnMin= 6 EnMin= -226.288206211731     IErMin= 6 ErrMin= 2.47D-07
 ErrMax= 2.47D-07  0.00D+00 EMaxC= 1.00D-01 BMatC= 3.06D-12 BMatP= 5.94D-11
 IDIUse=1 WtCom= 1.00D+00 WtEn= 0.00D+00
 Coeff-Com: -0.459D-02-0.461D-02 0.162D-01 0.132D+00 0.314D+00 0.547D+00
 Coeff:     -0.459D-02-0.461D-02 0.162D-01 0.132D+00 0.314D+00 0.547D+00
 Gap=     0.257 Goal=   None    Shift=    0.000
 RMSDP=1.57D-08 MaxDP=3.31D-07 DE=-5.29D-11 OVMax= 1.11D-06

 Cycle  11  Pass 1  IDiag  1:
 E= -226.288206211733     Delta-E=       -0.000000000002 Rises=F Damp=F
 DIIS: error= 4.64D-08 at cycle   7 NSaved=   7.
 NSaved= 7 IEnMin= 7 EnMin= -226.288206211733     IErMin= 7 ErrMin= 4.64D-08
 ErrMax= 4.64D-08  0.00D+00 EMaxC= 1.00D-01 BMatC= 3.17D-13 BMatP= 3.06D-12
 IDIUse=1 WtCom= 1.00D+00 WtEn= 0.00D+00
 Coeff-Com: -0.250D-02-0.177D-02 0.234D-02 0.304D-01 0.923D-01 0.287D+00
 Coeff-Com:  0.593D+00
 Coeff:     -0.250D-02-0.177D-02 0.234D-02 0.304D-01 0.923D-01 0.287D+00
 Coeff:      0.593D+00
 Gap=     0.257 Goal=   None    Shift=    0.000
 RMSDP=3.08D-09 MaxDP=9.49D-08 DE=-2.39D-12 OVMax= 1.68D-07

 SCF Done:  E(RB3LYP) =  -226.288206212     A.U. after   11 cycles
            NFock= 11  Conv=0.31D-08     -V/T= 2.0037
 KE= 2.254558200046D+02 PE=-8.540929004997D+02 EE= 2.389280955778D+02
 Leave Link  502 at Wed Nov 23 20:55:14 2022, MaxMem=  2684354560 cpu:              31.7 elap:               1.7
 (Enter /data0/home/software/g16/l701.exe)
 ... and contract with generalized density number  0.
 Compute integral first derivatives.
 R6Disp: Adding Grimme-D3(BJ) dispersion energy 1st derivatives to the gradient.
 Leave Link  701 at Wed Nov 23 20:55:15 2022, MaxMem=  2684354560 cpu:               2.3 elap:               0.1
 (Enter /data0/home/software/g16/l702.exe)
 L702 exits ... SP integral derivatives will be done elsewhere.
 Leave Link  702 at Wed Nov 23 20:55:15 2022, MaxMem=  2684354560 cpu:               0.4 elap:               0.0
 (Enter /data0/home/software/g16/l703.exe)
 Integral derivatives from FoFJK, PRISM(SPDF).
 Compute integral first derivatives, UseDBF=F ICtDFT=           0.
 Calling FoFJK, ICntrl=      2127 FMM=F ISym2X=0 I1Cent= 0 IOpClX= 0 NMat=1 NMatS=1 NMatT=0.
 FoFJK:  IHMeth= 1 ICntrl=    2127 DoSepK=F KAlg= 0 I1Cent=           0 FoldK=F
 IRaf=         0 NMat=       1 IRICut=       1 DoRegI=T DoRafI=F ISym2E= 0 IDoP0=0 IntGTp=1.
 FoFCou: FMM=F IPFlag=           0 FMFlag=      100000 FMFlg1=         800
         NFxFlg=           0 DoJE=F BraDBF=F KetDBF=F FulRan=T
         wScrn=  0.000000 ICntrl=      2127 IOpCl=  0 I1Cent=           0 NGrid=           0
         NMat0=    1 NMatS0=      1 NMatT0=    0 NMatD0=    1 NMtDS0=    0 NMtDT0=    0
 Symmetry not used in FoFCou.
 Leave Link  703 at Wed Nov 23 20:55:15 2022, MaxMem=  2684354560 cpu:              12.7 elap:               0.6
 (Enter /data0/home/software/g16/l716.exe)
 Dipole        =-5.94295107D-01 1.33690139D+00 4.00159981D-05
 ***** Axes restored to original set *****
 -------------------------------------------------------------------
 Center     Atomic                   Forces (Hartrees/Bohr)
 Number     Number              X              Y              Z
 -------------------------------------------------------------------
      1        6          -0.001257217   -0.001533773    0.000001619
      2        6           0.000520877   -0.000616474   -0.000000146
      3        6          -0.000345786    0.000887592   -0.000001251
      4        7          -0.004710854    0.000617052   -0.000001753
      5        1           0.000985683   -0.000840731    0.000002791
      6        1          -0.000998459   -0.000105037   -0.000001790
      7        1           0.000209201    0.000319232   -0.000000357
      8        1           0.000037896    0.000455532   -0.000001499
      9        7           0.005558657    0.000816607    0.000002385
 -------------------------------------------------------------------
 Cartesian Forces:  Max     0.005558657 RMS     0.001523534
 Leave Link  716 at Wed Nov 23 20:55:15 2022, MaxMem=  2684354560 cpu:               0.4 elap:               0.0
 (Enter /data0/home/software/g16/l103.exe)

 GradGradGradGradGradGradGradGradGradGradGradGradGradGradGradGradGradGrad
 Berny optimization.
[...]
     38  0.000000D+00 -0.236762D-05  0.215516D-02  0.551294D-02 -0.217354D-02
               26            27            28            29            30 
     26  0.944287D-02
     27 -0.345617D-02  0.164623D-01
     28 -0.650252D-03  0.730316D-02  0.632960D-02
     29 -0.500497D-02  0.731093D-02  0.109235D-02  0.760157D-02
     30 -0.219906D-02 -0.184820D-02  0.118784D-03  0.138300D-02  0.334998D-02
     31 -0.893600D-02  0.579995D-02  0.516391D-02  0.752357D-04 -0.560807D-03
     32  0.646762D-03 -0.670017D-03  0.227335D-02 -0.442075D-02 -0.147738D-02
     33  0.316016D-02 -0.660879D-02 -0.287736D-03 -0.441919D-02  0.190186D-02
     34  0.337666D-03  0.260447D-02  0.691586D-03  0.183614D-02 -0.767439D-04
     35 -0.207048D-02 -0.139341D-01 -0.450458D-02 -0.780669D-02  0.162284D-02
     36 -0.489298D-02 -0.472086D-02 -0.352526D-02 -0.155136D-02 -0.355764D-03
     37  0.664316D-02  0.511158D-02 -0.322549D-03  0.476993D-02 -0.664191D-03
     38  0.118424D-02 -0.253343D-02 -0.472342D-02  0.123460D-02 -0.955389D-03
               31            32            33            34            35 
     31  0.193224D-01
     32  0.666614D-02  0.106693D-01
     33 -0.243872D-02  0.136528D-02  0.104652D-01
     34 -0.179892D-02 -0.159548D-02  0.410682D-02  0.603100D-02
     35  0.627502D-02  0.503473D-02  0.552243D-02 -0.396282D-02  0.190335D-01
     36  0.691482D-02  0.207397D-02 -0.835968D-03 -0.203863D-02  0.954821D-02
     37 -0.154736D-01 -0.710842D-02 -0.194174D-02  0.352449D-02 -0.155079D-01
     38 -0.637956D-02 -0.327884D-02 -0.710023D-02 -0.489730D-02 -0.140722D-02
               36            37            38 
     36  0.834554D-02
     37 -0.100416D-01  0.188571D-01
     38  0.795709D-03  0.469891D-02  0.106404D-01
 Leave Link  716 at Wed Nov 23 20:55:36 2022, MaxMem=  2684354560 cpu:               0.5 elap:               0.0
 (Enter /data0/home/software/g16/l103.exe)

 GradGradGradGradGradGradGradGradGradGradGradGradGradGradGradGradGradGrad
 Berny optimization.
 Red2BG is reusing G-inverse.
 Internal  Forces:  Max     0.000157905 RMS     0.000055162
 Search for a local minimum.
 Step number   1 out of a maximum of    2
 All quantities printed in internal units (Hartrees-Bohrs-Radians)
 Second derivative matrix not updated -- analytic derivatives used.
 ITU=  0
     Eigenvalues ---    0.00529   0.01098   0.01987   0.02680   0.05988
     Eigenvalues ---    0.06250   0.09725   0.10346   0.10804   0.11599
     Eigenvalues ---    0.22948   0.24440   0.34066   0.36781   0.37105
     Eigenvalues ---    0.37481   0.40481   0.44526   0.46821   0.47953
     Eigenvalues ---    0.58170
 Angle between quadratic step and forces=  35.84 degrees.
 Linear search not attempted -- first point.
 Iteration  1 RMS(Cart)=  0.00037615 RMS(Int)=  0.00000018
 Iteration  2 RMS(Cart)=  0.00000018 RMS(Int)=  0.00000001
 ITry= 1 IFail=0 DXMaxC= 1.45D-03 DCOld= 1.00D+10 DXMaxT= 3.00D-01 DXLimC= 3.00D+00 Rises=F
 Variable       Old X    -DE/DX   Delta X   Delta X   Delta X     New X
                                 (Linear)    (Quad)   (Total)
    R1        2.59003  -0.00012   0.00000  -0.00038  -0.00038   2.58965
    R2        2.60712   0.00004   0.00000   0.00024   0.00024   2.60736
    R3        2.03462  -0.00003   0.00000  -0.00006  -0.00006   2.03457
    R4        2.03798  -0.00000   0.00000  -0.00003  -0.00003   2.03796
    R5        2.60362  -0.00001   0.00000   0.00016   0.00016   2.60378
    R6        2.58315  -0.00015   0.00000  -0.00036  -0.00036   2.58280
    R7        2.03915  -0.00003   0.00000  -0.00006  -0.00006   2.03909
    R8        2.48023   0.00005   0.00000   0.00005   0.00005   2.48028
    R9        1.90270   0.00003   0.00000   0.00005   0.00005   1.90275
    A1        1.83382   0.00011   0.00000   0.00032   0.00032   1.83414
    A2        2.31479   0.00005   0.00000   0.00088   0.00088   2.31567
    A3        2.13457  -0.00016   0.00000  -0.00120  -0.00120   2.13337
    A4        2.23356   0.00008   0.00000   0.00060   0.00060   2.23416
    A5        1.93097  -0.00007   0.00000  -0.00021  -0.00021   1.93076
    A6        2.11865  -0.00001   0.00000  -0.00038  -0.00038   2.11827
    A7        2.13701  -0.00004   0.00000  -0.00013  -0.00013   2.13688
    A8        1.94643   0.00005   0.00000   0.00020   0.00020   1.94662
    A9        2.19975  -0.00001   0.00000  -0.00007  -0.00007   2.19968
   A10        1.87219  -0.00009   0.00000  -0.00029  -0.00029   1.87191
   A11        2.20149   0.00000   0.00000  -0.00034  -0.00034   2.20115
   A12        2.20950   0.00009   0.00000   0.00063   0.00063   2.21012
   A13        1.84136  -0.00001   0.00000  -0.00002  -0.00002   1.84134
    D1       -3.14159  -0.00000   0.00000  -0.00000  -0.00000   3.14159
    D2       -0.00002   0.00000   0.00000   0.00002   0.00002   0.00000
    D3        0.00002  -0.00000   0.00000  -0.00002  -0.00002   0.00000
    D4        3.14159   0.00000   0.00000   0.00001   0.00001  -3.14159
    D5       -0.00004   0.00000   0.00000   0.00004   0.00004   0.00000
    D6        3.14150   0.00000   0.00000   0.00009   0.00009   3.14159
    D7        3.14154   0.00000   0.00000   0.00005   0.00005   3.14159
    D8       -0.00010   0.00000   0.00000   0.00010   0.00010  -0.00000
    D9        0.00008  -0.00000   0.00000  -0.00008  -0.00008   0.00000
   D10       -3.14154  -0.00000   0.00000  -0.00005  -0.00005  -3.14159
   D11       -3.14157  -0.00000   0.00000  -0.00002  -0.00002   3.14159
   D12        0.00007   0.00000   0.00000  -0.00007  -0.00007  -0.00000
   D13        0.00009  -0.00001   0.00000  -0.00009  -0.00009   0.00000
   D14       -3.14145  -0.00000   0.00000  -0.00014  -0.00014  -3.14159
   D15       -0.00010   0.00001   0.00000   0.00010   0.00010   0.00000
   D16        3.14156   0.00000   0.00000   0.00003   0.00003  -3.14159
         Item               Value     Threshold  Converged?
 Maximum Force            0.000158     0.000450     YES
 RMS     Force            0.000055     0.000300     YES
 Maximum Displacement     0.001448     0.001800     YES
 RMS     Displacement     0.000376     0.001200     YES
 Predicted change in Energy=-2.741747D-07
 Optimization completed.
    -- Stationary point found.
                           ----------------------------
                           !   Optimized Parameters   !
                           ! (Angstroms and Degrees)  !
 --------------------------                            --------------------------
 ! Name  Definition              Value          Derivative Info.                !
 --------------------------------------------------------------------------------
 ! R1    R(1,2)                  1.3706         -DE/DX =   -0.0001              !
 ! R2    R(1,4)                  1.3796         -DE/DX =    0.0                 !
 ! R3    R(1,6)                  1.0767         -DE/DX =    0.0                 !
 ! R4    R(2,7)                  1.0785         -DE/DX =    0.0                 !
 ! R5    R(2,9)                  1.3778         -DE/DX =    0.0                 !
 ! R6    R(3,4)                  1.3669         -DE/DX =   -0.0002              !
 ! R7    R(3,8)                  1.0791         -DE/DX =    0.0                 !
 ! R8    R(3,9)                  1.3125         -DE/DX =    0.0001              !
 ! R9    R(4,5)                  1.0069         -DE/DX =    0.0                 !
 ! A1    A(2,1,4)              105.0704         -DE/DX =    0.0001              !
 ! A2    A(2,1,6)              132.6279         -DE/DX =    0.0                 !
 ! A3    A(4,1,6)              122.3017         -DE/DX =   -0.0002              !
 ! A4    A(1,2,7)              127.9738         -DE/DX =    0.0001              !
 ! A5    A(1,2,9)              110.6365         -DE/DX =   -0.0001              !
 ! A6    A(7,2,9)              121.3897         -DE/DX =    0.0                 !
 ! A7    A(4,3,8)              122.4419         -DE/DX =    0.0                 !
 ! A8    A(4,3,9)              111.522          -DE/DX =    0.0001              !
 ! A9    A(8,3,9)              126.0362         -DE/DX =    0.0                 !
 ! A10   A(1,4,3)              107.2688         -DE/DX =   -0.0001              !
 ! A11   A(1,4,5)              126.1364         -DE/DX =    0.0                 !
 ! A12   A(3,4,5)              126.5948         -DE/DX =    0.0001              !
 ! A13   A(2,9,3)              105.5024         -DE/DX =    0.0                 !
 ! D1    D(4,1,2,7)            180.0001         -DE/DX =    0.0                 !
 ! D2    D(4,1,2,9)             -0.0014         -DE/DX =    0.0                 !
 ! D3    D(6,1,2,7)              0.0012         -DE/DX =    0.0                 !
 ! D4    D(6,1,2,9)           -180.0003         -DE/DX =    0.0                 !
 ! D5    D(2,1,4,3)             -0.0022         -DE/DX =    0.0                 !
 ! D6    D(2,1,4,5)            179.995          -DE/DX =    0.0                 !
 ! D7    D(6,1,4,3)            179.9969         -DE/DX =    0.0                 !
 ! D8    D(6,1,4,5)             -0.006          -DE/DX =    0.0                 !
 ! D9    D(1,2,9,3)              0.0045         -DE/DX =    0.0                 !
 ! D10   D(7,2,9,3)           -179.9969         -DE/DX =    0.0                 !
 ! D11   D(8,3,4,1)            180.0012         -DE/DX =    0.0                 !
 ! D12   D(8,3,4,5)              0.0041         -DE/DX =    0.0                 !
 ! D13   D(9,3,4,1)              0.0052         -DE/DX =    0.0                 !
 ! D14   D(9,3,4,5)           -179.9919         -DE/DX =    0.0                 !
 ! D15   D(4,3,9,2)             -0.0059         -DE/DX =    0.0                 !
 ! D16   D(8,3,9,2)           -180.0018         -DE/DX =    0.0                 !
 --------------------------------------------------------------------------------
 GradGradGradGradGradGradGradGradGradGradGradGradGradGradGradGradGradGrad

 Leave Link  103 at Wed Nov 23 20:55:36 2022, MaxMem=  2684354560 cpu:               0.2 elap:               0.0
 (Enter /data0/home/software/g16/l9999.exe)

 ----------------------------------------------------------------------

 Electric dipole moment (input orientation):
 (Debye = 10**-18 statcoulomb cm , SI units = C m)
                  (au)            (Debye)         (10**-30 SI)
   Tot        0.146571D+01      0.372546D+01      0.124268D+02
   x         -0.146559D+01     -0.372515D+01     -0.124258D+02
   y          0.187976D-01      0.477786D-01      0.159372D+00
   z          0.000000D+00      0.000000D+00      0.000000D+00

 Dipole polarizability, Alpha (input orientation).
 (esu units = cm**3 , SI units = C**2 m**2 J**-1)
 Alpha(0;0):
               (au)            (10**-24 esu)      (10**-40 SI)
   iso        0.402197D+02      0.595994D+01      0.663133D+01
   aniso      0.264510D+02      0.391963D+01      0.436117D+01
   xx         0.474118D+02      0.702571D+01      0.781715D+01
   yx        -0.358825D+00     -0.531723D-01     -0.591622D-01
   yy         0.505626D+02      0.749260D+01      0.833664D+01
   zx         0.879768D-04      0.130368D-04      0.145054D-04
   zy        -0.186365D-02     -0.276164D-03     -0.307274D-03
   zz         0.226847D+02      0.336152D+01      0.374020D+01

 ----------------------------------------------------------------------

 Dipole orientation:
     6         -1.43497374         -2.00919249          5.73220232
     6         -1.43297679         -1.85294811          3.14689026
     6         -1.38411815          1.97341498          4.46555535
     7         -1.40347240          0.46257707          6.56071058
     1         -1.39627657          1.03808016          8.37427652
     1         -1.45505168         -3.58647571          7.01729383
     1         -1.45244915         -3.38076973          1.79827945
     1         -1.35811805          4.00889873          4.58492985
     7         -1.40133280          0.63433103          2.37794757

 Electric dipole moment (dipole orientation):
 (Debye = 10**-18 statcoulomb cm , SI units = C m)
                  (au)            (Debye)         (10**-30 SI)
   Tot        0.146571D+01      0.372546D+01      0.124268D+02
   x          0.000000D+00      0.000000D+00      0.000000D+00
   y          0.000000D+00      0.000000D+00      0.000000D+00
   z          0.146571D+01      0.372546D+01      0.124268D+02

 Dipole polarizability, Alpha (dipole orientation).
 (esu units = cm**3 , SI units = C**2 m**2 J**-1)
 Alpha(0;0):
               (au)            (10**-24 esu)      (10**-40 SI)
   iso        0.402197D+02      0.595994D+01      0.663133D+01
   aniso      0.264510D+02      0.391963D+01      0.436117D+01
   xx         0.226892D+02      0.336220D+01      0.374095D+01
   yx         0.355517D+00      0.526821D-01      0.586168D-01
   yy         0.505483D+02      0.749049D+01      0.833429D+01
   zx         0.511416D-02      0.757841D-03      0.843212D-03
   zy         0.399079D+00      0.591374D-01      0.657992D-01
   zz         0.474215D+02      0.702715D+01      0.781876D+01

 ----------------------------------------------------------------------
 1\1\GINC-LOCALHOST\Freq\RB3LYP\6-311G(d,p)\C3H4N2\WUHANYU\23-Nov-2022\
 0\\#P Geom=AllCheck Guess=TCheck SCRF=Check GenChk RB3LYP/6-311G(d,p) 
 Freq\\Title Card Required\\0,1\C,-3.0468575611,-1.0338795133,-0.745670
 4673\C,-1.6778213914,-0.9687441676,-0.7456682459\C,-2.3496012606,1.065
 0277975,-0.7457866603\N,-3.4684728324,0.2797460248,-0.7457789559\H,-4.
 4241856315,0.5965959009,-0.7458813032\H,-3.7375480904,-1.8598193658,-0
 .7455928931\H,-0.9745955882,-1.7863842501,-0.7455998542\H,-2.398951114
 6,2.1429688401,-0.7458434952\N,-1.2540662798,0.3422469834,-0.745802834
 9\\Version=ES64L-G16RevA.03\State=1-A\HF=-226.288256\RMSD=2.811e-09\RM
 SF=9.089e-05\ZeroPoint=0.0709813\Thermal=0.0747353\Dipole=-1.4655886,0
 .0187976,-0.0000064\DipoleDeriv=0.1559131,-0.055201,-0.0000006,-0.2635
 019,0.0169089,-0.0000298,-0.000003,-0.0000251,-0.1344641,0.1225338,-0.
 0689717,0.0000048,-0.01763,0.1919321,-0.00003,-0.0000013,-0.0000195,-0
 .1341264,0.5489682,-0.0141311,-0.0000028,0.0492252,0.1026957,0.0000103
 ,-0.0000003,-0.0000279,0.0028937,-0.5642656,0.1179096,0.0000135,0.2161
 27,-0.1085935,-0.0000044,0.0000063,-0.0000116,-0.2519314,0.1885974,-0.
 0074864,-0.0000048,-0.0078773,0.1837413,0.0000105,-0.0000222,0.0000124
 ,0.3246506,0.0286518,-0.0697881,0.0000049,-0.0457681,0.026554,0.000014
 9,0.000012,0.0000212,0.1851947,0.0437848,0.0806313,-0.0000055,0.059660
 7,-0.016356,0.0000159,0.0000015,0.0000147,0.1552971,0.0732928,0.023494
 4,-0.0000012,0.0280195,-0.0283171,0.0000083,0.0000003,0.0000299,0.1594
 158,-0.5974763,-0.0064571,-0.0000083,-0.0182551,-0.3685654,0.0000042,0
 .0000067,0.0000059,-0.3069301\Polar=47.4118158,-0.3588247,50.5625728,0
 .000088,-0.0018636,22.6846915\Quadrupole=0.2829748,2.4917259,-2.774700
 7,-2.1607131,0.0004355,-0.0004062\PG=C01 [X(C3H4N2)]\NImag=0\\0.754166
 96,0.16333468,0.71158691,-0.00001037,-0.00004934,0.11025077,-0.3821921
 7,-0.01153335,-0.00000083,0.75768058,0.00670054,-0.09780063,0.00000251
 ,-0.17304852,0.68123436,-0.00000193,0.00000263,-0.06651345,0.00001232,
 -0.00004634,0.13378490,-0.01492329,-0.05479483,0.00000354,0.00560054,0
 .07152257,-0.00000447,0.61038014,-0.00370389,-0.09362698,0.00000594,0.
 01016175,-0.10360171,0.00000608,-0.06642949,0.90931873,0.00000241,0.00
 000644,0.01681628,-0.00000197,0.00000759,0.01065042,-0.00000110,-0.000
 03750,0.13538401,-0.12825111,0.05309253,-0.00000686,-0.06827859,0.0136
 2076,-0.00000052,-0.21919960,-0.09501874,0.00000125,0.93199084,0.04558
 535,-0.27859282,0.00001719,0.07580238,-0.02534880,0.00000354,-0.094088
 55,-0.18633051,0.00000795,-0.11020200,0.63629111,-0.00000735,0.0000179
 7,-0.05207783,-0.00000539,0.00000321,0.01348120,-0.00000263,0.00000573
 ,-0.05989840,0.00005329,-0.00004635,0.08170172,0.00133734,-0.00176101,
 0.00000077,0.00059741,-0.00189838,-0.00000020,-0.01053162,0.01565928,-
 0.00000104,-0.42164250,0.11668033,-0.00004203,0.43413515,0.02831612,0.
 00505176,0.00000081,0.00281251,-0.00850621,0.00000083,-0.01346313,0.01
 866280,-0.00000288,0.11508195,-0.11284310,0.00001634,-0.12533430,0.099
 58046,-0.00000053,-0.00000150,-0.00738925,-0.00000082,-0.00000013,0.00
 245498,0.00000211,-0.00000112,-0.00856139,-0.00004479,0.00001735,-0.00
 430558,0.00004244,-0.00001607,0.01140031,-0.18758099,-0.15397533,0.000
 01350,0.00088599,-0.02135300,0.00000205,-0.00460643,0.00412657,-0.0000
 0030,0.01393451,0.01546182,-0.00000100,0.00008153,-0.00094245,0.000000
 06,0.18220014,-0.14385919,-0.22946953,0.00001955,0.00183045,0.00653899
 ,-0.00000079,0.00406337,-0.00371676,0.00000073,-0.02139879,-0.01721961
 ,0.00000076,0.00009079,0.00016500,-0.00000013,0.15924772,0.24247974,0.
 00001272,0.00002058,-0.02093391,0.00000030,-0.00000056,-0.00116407,-0.
 00000033,0.00000053,0.00273329,0.00000184,0.00000027,-0.00423894,0.000
 00017,-0.00000017,-0.00120216,-0.00001452,-0.00002057,0.01832702,-0.00
 643709,0.02158297,-0.00000152,-0.19090414,0.14788936,-0.00001166,0.000
 08027,-0.00377600,0.00000027,-0.00553834,-0.00074042,-0.00000020,0.000
 33612,0.00118760,0.,-0.00019795,-0.00048799,0.,0.18930040,-0.00429617,
 0.00715842,-0.00000071,0.14584677,-0.21514056,0.00001636,-0.00233698,-
 0.00553666,0.00000110,-0.00240567,0.00094896,0.00000029,0.00001825,0.0
 0067304,0.00000019,0.00063714,-0.00033352,-0.00000018,-0.15633290,0.23
 356419,-0.00000035,-0.00000021,-0.00006260,-0.00001035,0.00001604,-0.0
 2876928,-0.00000019,0.00000103,0.00529653,0.00000079,0.00000047,0.0049
 9084,-0.00000023,-0.00000007,0.00197617,-0.00000009,-0.00000019,-0.002
 26679,0.00001257,-0.00001792,0.02291291,-0.00606069,-0.00025095,-0.000
 00029,-0.00365689,0.00329884,0.00000039,-0.05660052,0.01174042,-0.0000
 0026,0.00470929,-0.03089451,0.00000217,0.00027454,0.00037201,0.0000000
 6,0.00092383,-0.00110527,0.,0.00073977,0.00121266,-0.00000010,0.056963
 56,-0.00257529,0.00141468,-0.00000004,0.00301762,0.00057558,0.00000004
 ,0.00668711,-0.34689967,0.00001622,0.00268444,-0.01072293,0.00000122,-
 0.00051361,-0.00061118,-0.00000003,0.00026121,-0.00023162,-0.00000003,
 -0.00024513,-0.00039045,0.,-0.01261428,0.36864312,-0.00000068,0.000001
 24,0.00262175,0.00000094,0.00000117,0.00701385,-0.00000102,0.00001899,
 -0.02495032,0.,-0.00000103,-0.00183465,0.00000025,-0.00000002,-0.00130
 728,0.00000003,0.00000009,0.00178817,-0.00000003,0.00000002,0.00107796
 ,0.00000033,-0.00001836,0.02071736,-0.03005895,-0.01569471,0.00000205,
 -0.11973274,-0.04673218,0.00000402,-0.31019949,0.12724010,0.00000074,-
 0.10772449,-0.01760440,0.00000315,-0.00458798,-0.00803030,0.00000147,-
 0.00564064,0.00161892,-0.00000019,0.01262096,0.01765690,-0.00000204,0.
 00270711,0.00329793,0.00000019,0.56261621,-0.08950215,-0.02572181,0.00
 000409,-0.05488961,-0.23795102,0.00001763,0.14883992,-0.18826924,0.000
 00034,0.04454552,-0.00618230,0.00000082,-0.00294135,-0.00217256,0.0000
 0145,-0.00346367,0.00178730,0.00000013,-0.00907747,-0.02094342,0.00000
 085,0.02824107,-0.01177753,-0.00000209,-0.06175227,0.49123059,0.000006
 08,0.00000219,0.01728825,0.00000579,0.00001651,-0.07093855,0.00000409,
 0.00000032,-0.07747041,-0.00000498,0.00000060,0.02218165,-0.00000012,0
 .00000123,0.00693421,0.00000028,0.00000053,0.00695740,0.00000056,0.000
 00085,-0.00515572,-0.00000231,0.00000099,-0.00512683,-0.00000939,-0.00
 002321,0.10533001\\-0.00031893,0.00000118,0.00000139,0.00013044,0.0001
 1066,0.00000592,0.00010572,0.00013887,0.00001465,0.00003834,-0.0002016
 3,-0.00000673,0.00004162,0.00003199,-0.00000299,0.00005716,-0.00008979
 ,0.00000080,-0.00003362,-0.00003272,0.00000057,0.00001686,0.00002839,0
 .00000132,-0.00003759,0.00001304,-0.00001494\\\@


 WISDOM IS KNOWING WHAT TO DO,
 SKILL IS KNOWING HOW TO DO IT,
 AND VIRTUE IS NOT DOING IT.
 Job cpu time:       0 days  0 hours  5 minutes 11.4 seconds.
 Elapsed time:       0 days  0 hours  0 minutes 14.6 seconds.
 File lengths (MBytes):  RWF=     17 Int=      0 D2E=      0 Chk=      2 Scr=      1
 Normal termination of Gaussian 16 at Wed Nov 23 20:55:36 2022.
