          38
 G =       -0.531051 Gcorr = 0.220351 a.u. Nimag =   0 Frame:     1 Step:     1 Geom:     1
C          10.09593500      7.88782200      8.59232300
C           8.99501500      8.45883300      7.96070500
C          10.16373300     10.10354300      8.96207200
N          10.81021400      8.92252800      9.19049100
H          10.37645700      6.85410900      8.69083500
H           8.20654200      7.99782900      7.39883400
H          10.45830700     11.09585700      9.32149500
C          11.98809100      8.76001000     10.02335800
H          11.71828100      8.89709700     11.10032400
H          12.41860500      7.75176100      9.91313200
H          12.76296200      9.51459900      9.77056100
N           9.05952600      9.83222600      8.19231200
C           8.01542100     10.80613100      7.88540800
H           7.78302200     10.75919000      6.79772700
H           8.41427500     11.83602600      8.09449500
C           6.73326600     10.58339200      8.71973000
H           6.22520400     11.56983600      8.81605400
H           6.03645900      9.92141200      8.17297400
C           6.97287000     10.02150000     10.11820400
H           7.23754200      8.94635300     10.08253900
H           6.04526100     10.07449600     10.72154500
C           8.06118800     10.77606300     10.88444600
O           8.38479400     11.90836500     10.49615100
O           8.59058300     10.14950000     11.83328600
P          11.40082700     12.13861400     12.27172300
O          12.17952800     11.34869900     11.30371100
O          10.53404700     11.30581600     13.29577400
H           9.73017100     10.84207600     12.75000900
O          12.39062500     12.98172700     13.19293300
H          11.80574300     13.50275700     13.86730300
O          10.45799600     13.23609600     11.62676400
H           9.59601000     12.75086200     11.22260600
O           9.45606900      7.66368000     11.11268000
H           9.15401900      8.56431300     11.38165000
H           9.30476400      7.13154900     11.88633400
O          12.61612500     11.71593500      8.46833200
H          12.85139300     12.62419800      8.29331500
H          12.57914200     11.66521800      9.43788000
          38
 G =       -0.531847 Gcorr = 0.219795 a.u. Nimag =   0 Frame:     2 Step:     2 Geom:     2
C          10.37422000      8.13474900      7.67202400
C           9.33643000      9.01254600      7.36972200
C          10.23091900      9.63833800      9.33697900
N          10.90904000      8.54150500      8.89057900
H          10.74420400      7.29057500      7.12256300
H           8.67823200      9.03382000      6.52218600
H          10.42705200     10.17857300     10.27308000
C          11.99937300      7.89882600      9.60004900
H          11.75281900      6.84265900      9.81541600
H          12.93776500      7.97129200      9.01853300
H          12.17309500      8.40155900     10.58071400
N           9.26922200      9.94117900      8.40577400
C           8.27196800     11.00154400      8.54064700
H           8.10629500     11.47595600      7.54707200
H           8.68176900     11.81363600      9.20650200
C           6.94893200     10.46807300      9.11824300
H           6.25299200     11.33475700      9.21981200
H           6.47301100      9.76036600      8.41691800
C           7.11650200      9.81738400     10.48994100
H           7.64912600      8.85231100     10.42311900
H           6.13164100      9.58879500     10.93791000
C           7.85342800     10.77990200     11.42797400
O           7.47727800     11.95532700     11.46306100
O           8.83085200     10.30230700     12.06317300
P          10.71369300     13.12110300     11.53472300
O          10.93416400     12.60961100     10.16977400
O          10.82577400     12.02330700     12.67204700
H          10.00691400     11.34161100     12.55403600
O          11.84727000     14.17647000     11.90933400
H          11.62680800     14.53516000     12.85331400
O           9.36189200     13.90297800     11.77358500
H           8.56246000     13.19009000     11.70528900
O           9.85158700      7.94836500     11.38396200
H           9.45106900      8.81666100     11.67762300
H           9.75632000      7.38491700     12.14128200
O          12.85702000     10.54343500      9.48108400
H          13.65426100     10.80649200      9.93789100
H          12.25462200     11.29384000      9.63408200
          38
 G =       -0.531780 Gcorr = 0.219864 a.u. Nimag =   0 Frame:     3 Step:     3 Geom:     3
C          10.42582400      8.20836300      7.63915700
C           9.35566600      9.04868600      7.34336900
C          10.21487100      9.68135000      9.32413500
N          10.93799700      8.61856000      8.86626800
H          10.83159400      7.38728100      7.08006900
H           8.70138300      9.05591800      6.49252700
H          10.38491100     10.21594000     10.26850700
C          12.04989900      8.00990900      9.57221700
H          11.84613200      6.94103000      9.76894900
H          12.98772900      8.13061500      8.99791200
H          12.19682400      8.50302500     10.56213200
N           9.24653900      9.95908200      8.39187400
C           8.20780500     10.97755700      8.53604600
H           8.02878700     11.45946500      7.54838100
H           8.58200800     11.79541000      9.21565100
C           6.90373000     10.38438900      9.09831900
H           6.17378500     11.22161200      9.20824300
H           6.45954900      9.66888500      8.38420600
C           7.08961300      9.72087100     10.46146800
H           7.65997900      8.77844700     10.38386900
H           6.11210100      9.44755700     10.90049700
C           7.78348000     10.69753700     11.41745600
O           7.36109700     11.85670100     11.46759400
O           8.77590400     10.24963600     12.05085700
P          10.54776600     13.15002300     11.57387200
O          10.79492900     12.67198900     10.20142300
O          10.70076700     12.03797600     12.69283200
H           9.90951700     11.32723200     12.56169300
O          11.63568600     14.24409700     11.97194800
H          11.39898000     14.57460100     12.92227500
O           9.16414400     13.87103400     11.82071800
H           8.39467300     13.12680900     11.73659200
O           9.89204300      7.94753900     11.34507800
H           9.45627700      8.79528900     11.64854500
H           9.81450200      7.37001200     12.09384100
O          12.80022100     10.68925300      9.50243800
H          13.57472300     10.97024400      9.98713900
H          12.16858200     11.41609600      9.65192100
          38
 G =       -0.540835 Gcorr = 0.204036 a.u. Nimag =   0 Frame:     4 Step:     4 Geom:     4
C           9.97884500      7.66713900      9.01523700
C           8.99947200      8.27342000      8.23282500
C          10.44267900      9.87454000      8.92321700
N          10.86793300      8.67169100      9.42929700
H          10.08215700      6.63238900      9.30598500
H           8.14794800      7.83392200      7.74019400
H          10.91283900     10.88277300      9.10370600
C          12.03067800      8.48818700     10.29853200
H          12.71571800      7.72106700      9.90842900
H          12.58842200      9.44588000     10.42198000
H          11.68837000      8.18249700     11.33180200
N           9.29985600      9.64359300      8.17799700
C           8.51324400     10.71129500      7.52809500
H           8.44395000     10.49235500      6.43768500
H           9.10247600     11.67309100      7.62152700
C           7.10562400     10.91731700      8.11698500
H           6.87814400     12.00707500      8.04757700
H           6.35806900     10.40735800      7.47544600
C           6.88901300     10.46534700      9.55908300
H           6.83984800      9.35719300      9.63086300
H           5.89541600     10.82058900      9.91433600
C           7.93506900     10.97251000     10.53068600
O           8.36616200     12.13162200     10.54178200
O           8.34214600     10.05195800     11.35337300
P          11.23609200     11.76475000     12.07860600
O          11.77778500     11.58532400     10.69494600
O          10.41833800     10.55090100     12.66164500
H           9.27381400     10.37844800     12.14462900
O          12.40779700     12.11854500     13.16790000
H          12.09485300     12.49297500     14.03568800
O          10.26101300     13.07889400     12.23662700
H           9.34710800     13.02540000     11.78140500
O          10.36934300      8.05855600     12.69885200
H           9.59839100      8.50114300     12.30995200
H          10.74382600      8.72638100     13.30324900
O          10.48133700     12.74817600      8.68765700
H           9.77951100     13.00603600      9.30698000
H          11.30673400     12.73968000      9.22524400
          38
 G =       -0.540288 Gcorr = 0.198541 a.u. Nimag =   0 Frame:     5 Step:     5 Geom:     5
C          10.18977300      7.99649000      7.77952500
C           9.03734800      8.73615900      7.52485300
C          10.17681800      9.76477400      9.18552000
N          10.88514500      8.64874100      8.80749700
H          10.53323100      7.08762600      7.31242600
H           8.25402800      8.55372400      6.80797900
H          10.47635200     10.50811100      9.97114000
C          12.11493700      8.19775400      9.46266200
H          12.63556500      7.42618400      8.87800500
H          12.81512100      9.06495800      9.60716200
H          11.86913700      7.79067100     10.47361700
N           9.04423900      9.83519400      8.39797500
C           7.97009200     10.84013700      8.55544700
H           7.66512800     11.21022100      7.55060000
H           8.38463900     11.72982900      9.10677300
C           6.76313600     10.26443200      9.31449100
H           6.02109300     11.08877600      9.43490700
H           6.26354600      9.47767600      8.71806700
C           7.11757700      9.71460000     10.69622200
H           7.69814100      8.77081800     10.62326300
H           6.19385900      9.45064600     11.25108200
C           7.89768900     10.73522800     11.51511700
O           7.53718400     11.92946300     11.51130000
O           8.92393400     10.29924800     12.13027000
P          10.66645600     12.92586400     11.59255500
O          10.89227000     12.23610500     10.28251200
O          10.70036400     11.96305900     12.88629600
H           9.93157400     11.19573700     12.91211200
O          11.85090100     14.01488800     11.89619800
H          11.71256300     14.60201700     12.69007400
O           9.31776300     13.79855400     11.73469200
H           8.40159200     13.23703700     11.80241000
O           9.91820900      7.85159500     11.51667400
H           9.62888100      8.77343800     11.76151700
H           9.77517900      7.33069400     12.29617900
O          13.18437800     11.00527100      9.56523800
H          13.65241100     11.36346100     10.31486100
H          12.40976400     11.60083500      9.44280000
          38
 G =       -0.531819 Gcorr = 0.219824 a.u. Nimag =   0 Frame:     6 Step:     6 Geom:     6
C          10.16490600      8.05436600      7.73609200
C           9.06220300      8.88025200      7.53433800
C          10.13309400      9.58305200      9.38402900
N          10.80828400      8.50795500      8.88363600
H          10.51168300      7.21613900      7.16290900
H           8.31675700      8.85639200      6.76244000
H          10.40391100     10.15008400     10.28497700
C          11.99653200      7.92746900      9.48046000
H          11.82377600      6.86521700      9.73446100
H          12.86331700      8.03168800      8.80092300
H          12.24981400      8.45455600     10.43057000
N           9.06445800      9.82546500      8.55751200
C           8.04058600     10.84423900      8.78302000
H           7.74885100     11.29186200      7.80613300
H           8.48204000     11.68605400      9.38910100
C           6.81188400     10.26557500      9.50698000
H           6.09243200     11.10327500      9.66979200
H           6.29622200      9.52450800      8.87124500
C           7.15375600      9.64948700     10.86218700
H           7.71871800      8.70693500     10.75270800
H           6.23343100      9.38777900     11.41673500
C           7.94304700     10.66043300     11.70124200
O           7.52016300     11.81917000     11.75973300
O           9.00348600     10.23821500     12.23386400
P          10.69030900     13.12664900     11.46527200
O          10.78585500     12.60430400     10.09003200
O          10.97836400     12.05279300     12.59495500
H          10.18206200     11.33617300     12.57905700
O          11.80663700     14.23863200     11.70258100
H          11.67131200     14.60397300     12.65995100
O           9.33692100     13.84806400     11.84315300
H           8.56892700     13.09744100     11.86884500
O          10.05078100      7.91778500     11.48471100
H           9.64444900      8.77319400     11.80685200
H          10.06279700      7.36564100     12.25610900
O          12.71429600     10.60534500      9.23775000
H          13.53604400     10.90538400      9.62286100
H          12.09790900     11.33447200      9.43280000
          38
 G =       -0.531816 Gcorr = 0.219828 a.u. Nimag =   0 Frame:     7 Step:     7 Geom:     7
C          10.15441200      7.94978000      7.80136100
C           9.06345600      8.78153500      7.56299900
C          10.11428200      9.51877600      9.41075700
N          10.78554600      8.42496400      8.94690800
H          10.50072000      7.09427100      7.25400100
H           8.32923900      8.74614000      6.78087600
H          10.37770000     10.10488100     10.30165400
C          11.95862400      7.84729100      9.57565000
H          12.83673500      7.92703400      8.90738600
H          12.20265600      8.39431500     10.51685700
H          11.77135100      6.79309500      9.85179800
N           9.06051700      9.75151700      8.56270300
C           8.04419000     10.78591100      8.74768500
H           7.77170000     11.21207700      7.75576800
H           8.48543400     11.63795900      9.33940400
C           6.79891900     10.23785200      9.46706200
H           6.08609500     11.08664100      9.59857700
H           6.28483300      9.48670500      8.84201200
C           7.11416100      9.65184600     10.84194800
H           7.67068800      8.70118200     10.76410400
H           6.18302100      9.41333900     11.38880000
C           7.90156300     10.67513900     11.66779500
O           7.49031600     11.83913300     11.69168900
O           8.94954000     10.25511600     12.22648200
P          10.67705400     13.10615500     11.41249400
O          10.78676900     12.54799600     10.05245400
O          10.93501800     12.05827900     12.57320300
H          10.13156300     11.34906000     12.56179800
O          11.80292600     14.21085900     11.63858100
H          11.66017400     14.59926800     12.58563400
O           9.32703200     13.85321200     11.75088900
H           8.55003200     13.11282400     11.78544500
O           9.98256000      7.90631900     11.54959500
H           9.58152100      8.77395400     11.84479200
H           9.97608400      7.37284900     12.33409800
O          12.70918700     10.51069100      9.27919000
H          13.52704700     10.81141400      9.67213700
H          12.09735100     11.25063600      9.44543100
          38
 G =       -0.530449 Gcorr = 0.218426 a.u. Nimag =   0 Frame:     8 Step:     8 Geom:     8
C          10.15317000      7.89721900      7.57538100
C           9.13694100      8.80654200      7.30172400
C           9.92277900      9.23961400      9.36620600
N          10.61526700      8.17512700      8.86180200
H          10.55880800      7.11224000      6.96564300
H           8.52862600      8.91593900      6.42352800
H          10.03806000      9.70172000     10.36947200
C          11.72729800      7.51297800      9.51783100
H          12.69122900      7.82636200      9.05866400
H          11.78528500      7.80066200     10.59525300
H          11.63137000      6.41612100      9.45439700
N           9.01421500      9.63225400      8.41819400
C           8.02416400     10.69183800      8.60858400
H           7.79416100     11.16156200      7.62589200
H           8.47842000     11.50643800      9.24317200
C           6.74258500     10.15935400      9.27370500
H           6.04549900     11.02234300      9.39982900
H           6.23015300      9.43638300      8.61506900
C           6.99391200      9.53807900     10.64703700
H           7.50788700      8.56695900     10.57769800
H           6.03761800      9.34081800     11.16741600
C           7.80679000     10.52319400     11.49644100
O           7.34773300     11.65245400     11.67332600
O           8.92931900     10.11113400     11.89456200
P          10.47314100     13.16869800     11.45280500
O          10.74941000     12.73427200     10.07938700
O          10.65506300     12.03319400     12.55402600
H           9.87679000     11.30845600     12.42057400
O          11.50385700     14.29264700     11.90717200
H          11.23267400     14.58880100     12.85989800
O           9.05620700     13.82015900     11.72587100
H           8.33673800     13.03711100     11.75149800
O          11.69611800      9.39450300     12.23010000
H          10.73070200      9.52187200     12.26686000
H          12.03624000     10.14566500     12.73322600
O          12.31390300     10.22830500      9.56097500
H          12.29493400     10.01332600     10.50470700
H          12.04295300     11.15567000      9.53209100
          38
 G =       -0.532756 Gcorr = 0.220184 a.u. Nimag =   0 Frame:     9 Step:     9 Geom:     9
C          10.51350900      8.45595000      8.29173700
C           9.13662000      8.28423500      8.40179800
C           9.56354800     10.49359800      8.41176900
N          10.75334200      9.82682300      8.27643100
H          11.30499300      7.72330700      8.27550900
H           8.55814100      7.38178100      8.45487600
H           9.43595600     11.57545800      8.49766300
C          12.06458100     10.43781600      8.16141000
H          12.52097300     10.20798400      7.18369100
H          12.01616500     11.54201300      8.28350600
H          12.74155400     10.06640700      8.96661800
N           8.56786800      9.55527100      8.46502400
C           7.14976400      9.84517700      8.67034100
H           6.58255600      9.50879900      7.77317500
H           7.01853200     10.96072100      8.75985800
C           6.58592000      9.18124800      9.94240100
H           5.63722000      9.70341400     10.19739800
H           6.31242100      8.12903800      9.73405800
C           7.51799300      9.23081800     11.14693400
H           8.35492600      8.50664500     11.03910000
H           6.98230200      8.90852900     12.06351300
C           8.14273800     10.60050000     11.40889800
O           8.08593500     11.47267200     10.52297600
O           8.73694700     10.72041400     12.50458700
P          11.30098700     12.69375500     11.30829000
O          12.08505000     11.56110100     10.80224000
O          10.66043300     12.57021600     12.74445400
H           9.85020300     11.86004600     12.69377700
O          12.23456900     13.98197100     11.41216600
H          11.64861500     14.75427700     11.76814600
O          10.14980700     13.16171000     10.31382100
H           9.26911000     12.59505700     10.49978900
O          10.01918400      8.38421200     13.02349300
H           9.51672900      9.22794600     12.91583200
H          10.59018000      8.54527300     13.76984100
O          11.45454900      8.58423200     10.63528100
H          10.97209600      8.37054700     11.45317900
H          11.71398900      9.50105700     10.76644300
          38
 G =       -0.532209 Gcorr = 0.217940 a.u. Nimag =   0 Frame:    10 Step:    10 Geom:    10
C          10.56858400      7.85486000      8.07551300
C           9.43373100      8.49930300      7.58517100
C          10.12905800      9.60450900      9.41267900
N          10.98587100      8.56334000      9.19845000
H          11.07517600      6.98253800      7.71090800
H           8.82695100      8.26691400      6.73140500
H          10.19108400     10.32877000     10.23734900
C          12.10309700      8.24000300     10.06598900
H          11.96015400      7.24645200     10.53526700
H          13.05448700      8.25980600      9.50663900
H          12.17045200      8.98045500     10.90206700
N           9.18155500      9.58034600      8.42431800
C           8.12378400     10.57886200      8.28771400
H           7.91202100     10.74281200      7.20776300
H           8.51077000     11.56307000      8.68177300
C           6.83928500     10.18760300      9.03999900
H           6.16794400     11.07808200      9.03071400
H           6.30676500      9.38328900      8.50026400
C           7.06951800      9.76834300     10.48903200
H           7.55504400      8.77523300     10.54768300
H           6.10314100      9.65450700     11.01794500
C           7.89778600     10.79495700     11.26599600
O           7.83745900     11.98635500     10.94787300
O           8.63395000     10.31818000     12.17133600
P          11.15230700     12.58134700     11.96316200
O          11.72267600     11.72770600     10.90362500
O          10.58432700     11.82191000     13.22411900
H           9.75059300     11.21799500     12.88711900
O          12.28006400     13.54311300     12.54460400
H          11.83283300     14.12123000     13.27683800
O          10.02089100     13.57807600     11.47022800
H           9.12659100     13.02090600     11.31470500
O           9.81589000      7.99549900     11.59387600
H           9.37864200      8.85268900     11.84588500
H           9.74147700      7.46542800     12.37834900
O          10.89344500     11.83211700      8.11615100
H          10.90000800     12.74854500      7.84547000
H          11.27260100     11.85487200      9.01204400
          38
 G =       -0.539132 Gcorr = 0.200440 a.u. Nimag =   0 Frame:    11 Step:    11 Geom:    11
C          10.16429100      8.18268000      7.72292200
C           8.95652300      8.84408800      7.51558000
C          10.08153500      9.93475400      9.14780400
N          10.84768600      8.87048200      8.73460300
H          10.55248600      7.30336100      7.23399100
H           8.16284800      8.61445700      6.82379200
H          10.37504700     10.68123200      9.93738100
C          12.12670800      8.49220000      9.33629900
H          11.95647000      8.13021700     10.37927200
H          12.63971400      7.70749200      8.76345900
H          12.80695500      9.39100800      9.39745500
N           8.91840500      9.93335600      8.39994100
C           7.76537700     10.83636600      8.60953900
H           7.39896500     11.19765000      7.62276700
H           8.10612700     11.74663400      9.17956400
C           6.63834600     10.13810400      9.38988000
H           5.82887900     10.88916800      9.54485900
H           6.19595700      9.31769000      8.79398000
C           7.08611700      9.60345600     10.74998800
H           7.71043500      8.69052200     10.64356400
H           6.20589600      9.28466300     11.34597300
C           7.85354300     10.64602200     11.55182400
O           7.59472100     11.85804700     11.38621400
O           8.76875300     10.20859100     12.31715500
P          10.75297600     12.74180800     11.97124100
O          11.25663600     11.98713800     10.77863700
O          10.45165800     11.86887000     13.29093300
H           9.67346100     11.11517900     13.19111700
O          11.86545400     13.83044300     12.47589900
H          11.60224200     14.39872300     13.25155000
O           9.43137200     13.63884800     11.73780800
H           8.49389100     13.11175000     11.74037300
O          10.04008000      7.95287300     11.46546900
H           9.71223800      8.82041300     11.82015600
H           9.93358700      7.33673800     12.17965100
O          13.21977700     11.23453500      9.53513900
H          13.14136500     11.34031900     10.50016100
H          12.56349000     11.86014500      9.19408200
          38
 G =       -0.525576 Gcorr = 0.214799 a.u. Nimag =   0 Frame:    12 Step:    12 Geom:    12
C           9.58883200      8.48648800      7.02913400
C           8.31790300      9.04797100      7.09940200
C           9.63359900     10.11128200      8.58505300
N          10.38766000      9.16692700      7.94579900
H           9.95374900      7.68253800      6.41763200
H           7.42507900      8.80276800      6.55512600
H           9.97236800     10.79406700      9.38423500
C          11.77808100      8.86187700      8.22838800
H          11.85764600      7.91368600      8.80672700
H          12.36049000      8.76659900      7.29606000
H          12.24703900      9.65878500      8.85117500
N           8.36905800     10.05991200      8.05538200
C           7.24879700     10.90112800      8.47382000
H           6.66457100     11.20271000      7.57714900
H           7.65965800     11.84829100      8.93951900
C           6.34055000     10.20097100      9.50060200
H           5.61933500     10.96315000      9.87474600
H           5.73998500      9.41268200      9.01025200
C           7.09048200      9.61172800     10.68980800
H           7.66181500      8.70858500     10.40025900
H           6.37868200      9.26866500     11.46659000
C           8.06408400     10.59343100     11.35339000
O           8.15099400     11.74502000     10.89183600
O           8.75201700     10.11907700     12.28190200
P          11.46663200     12.17397400     11.70013900
O          11.80611200     11.23575500     10.61708200
O          10.94848200     11.49463700     13.04198000
H          10.05221000     10.94823200     12.82036900
O          12.72208300     13.02593100     12.16082900
H          12.47048900     13.44923400     13.08818700
O          10.36931300     13.25386100     11.32431600
H           9.44412000     12.73298900     11.19432400
O          10.39244900      8.58219000     10.65023500
H           9.75509400      8.82659800     11.34985400
H          11.11421000      9.20012200     10.82046300
O          11.75256800     13.89276600     14.82222000
H          11.48510400     12.97284300     14.95616500
H          10.93867700     14.34255100     14.57986600
          38
 G =       -0.527767 Gcorr = 0.214996 a.u. Nimag =   0 Frame:    13 Step:    13 Geom:    13
C           9.82390600      8.85111700      6.86553800
C           8.80512600      9.79487200      6.95084800
C           9.80911000      9.67546100      8.95951900
N          10.43426100      8.79858100      8.11748100
H          10.13588400      8.24640300      6.03577200
H           8.11048500     10.12686700      6.20249800
H          10.06541400      9.84533300     10.02160200
C          11.50496500      7.90193200      8.51131100
H          11.87110800      8.15671500      9.53311000
H          11.13432700      6.85670800      8.56860700
H          12.35147200      7.96001200      7.80584400
N           8.81606400     10.29752200      8.25156800
C           7.89122300     11.28941300      8.79841000
H           7.57825000     11.98468800      7.98728800
H           8.43754800     11.92506800      9.55318300
C           6.66411800     10.63534500      9.45788600
H           6.04242000     11.45605200      9.88891000
H           6.03889200     10.12812300      8.70157800
C           7.02148800      9.66159000     10.57904400
H           7.43663800      8.71784400     10.18331400
H           6.11832400      9.37704300     11.15078500
C           8.00813000     10.32152000     11.55094100
O           7.76180400     11.45935200     11.95458700
O           9.04601700      9.65628400     11.81909500
P          11.11124600     12.38613200     11.42215100
O          10.95903600     12.11076900      9.98996700
O          11.31383000     11.09920300     12.33402100
H          10.43317700     10.50960500     12.26735700
O          12.37574100     13.28782200     11.74250800
H          12.25692300     13.63521000     12.72536100
O           9.91362500     13.18785100     12.10937000
H           9.05354300     12.57687100     12.11520200
O           9.64673800      7.41755000     10.53066000
H           9.39744300      8.22130400     11.07127100
H           9.57306400      6.69580600     11.14214700
O          11.61984500     14.21168000     14.45791000
H          10.74446600     14.36396800     14.07536800
H          11.53436500     13.37240900     14.91800700
          38
 G =       -0.527512 Gcorr = 0.215318 a.u. Nimag =   0 Frame:    14 Step:    14 Geom:    14
C          10.01608400      8.92443300      6.89188800
C           8.88201100      9.73007300      6.91669500
C           9.85665300      9.84324400      8.94002700
N          10.60541800      9.01462400      8.15173400
H          10.41891200      8.32490200      6.09824600
H           8.16371600      9.93076700      6.14429400
H          10.06976800     10.09653800      9.99450100
C          11.77622800      8.28607600      8.60321700
H          12.62267000      8.42523400      7.90895900
H          12.08373600      8.63179400      9.61744700
H          11.54536600      7.20447000      8.70338300
N           8.80396400     10.29405800      8.18967700
C           7.74964800     11.18511900      8.67212700
H           7.36390600     11.79003500      7.82079600
H           8.19611800     11.92534500      9.39658400
C           6.60511400     10.41438000      9.35360900
H           5.87859500     11.17028000      9.73663000
H           6.06021400      9.79538200      8.61865100
C           7.06452500      9.54988200     10.52599700
H           7.59894700      8.64671500     10.18186700
H           6.19549900      9.18304500     11.10387300
C           7.94725500     10.37358900     11.47187400
O           7.56671900     11.49458500     11.80825300
O           9.05060900      9.84696400     11.79113000