 Entering Gaussian System, Link 0=g16
 Initial command:
 /data0/home/software/g16/l1.exe "/data0/home/software/g16/scratch/Gau-381493.inp" -scrdir="/data0/home/software/g16/scratch/"
 Default is to use a total of  22 processors:
                               22 via shared-memory
                                1 via Linda
 Entering Link 1 = /data0/home/software/g16/l1.exe PID=    381494.
  
 Copyright (c) 1988,1990,1992,1993,1995,1998,2003,2009,2016,
            Gaussian, Inc.  All Rights Reserved.
  
 This is part of the Gaussian(R) 16 program.  It is based on
 the Gaussian(R) 09 system (copyright 2009, Gaussian, Inc.),
 the Gaussian(R) 03 system (copyright 2003, Gaussian, Inc.),
 the Gaussian(R) 98 system (copyright 1998, Gaussian, Inc.),
 the Gaussian(R) 94 system (copyright 1995, Gaussian, Inc.),
 the Gaussian 92(TM) system (copyright 1992, Gaussian, Inc.),
 the Gaussian 90(TM) system (copyright 1990, Gaussian, Inc.),
 the Gaussian 88(TM) system (copyright 1988, Gaussian, Inc.),
 the Gaussian 86(TM) system (copyright 1986, Carnegie Mellon
 University), and the Gaussian 82(TM) system (copyright 1983,
 Carnegie Mellon University). Gaussian is a federally registered
 trademark of Gaussian, Inc.
  
 This software contains proprietary and confidential information,
 including trade secrets, belonging to Gaussian, Inc.
  
 This software is provided under written license and may be
 used, copied, transmitted, or stored only in accord with that
 written license.
  
 The following legend is applicable only to US Government
 contracts under FAR:
  
                    RESTRICTED RIGHTS LEGEND
  
 Use, reproduction and disclosure by the US Government is
 subject to restrictions as set forth in subparagraphs (a)
 and (c) of the Commercial Computer Software - Restricted
 Rights clause in FAR 52.227-19.
  
 Gaussian, Inc.
 340 Quinnipiac St., Bldg. 40, Wallingford CT 06492
  
  
 ---------------------------------------------------------------
 Warning -- This program may not be used in any manner that
 competes with the business of Gaussian, Inc. or will provide
 assistance to any competitor of Gaussian, Inc.  The licensee
 of this program is prohibited from giving any competitor of
 Gaussian, Inc. access to this program.  By using this program,
 the user acknowledges that Gaussian, Inc. is engaged in the
 business of creating and licensing software in the field of
 computational chemistry and represents and warrants to the
 licensee that it is not a competitor of Gaussian, Inc. and that
 it will not use this program in any manner prohibited above.
 ---------------------------------------------------------------
  

 Cite this work as:
 Gaussian 16, Revision A.03,
 M. J. Frisch, G. W. Trucks, H. B. Schlegel, G. E. Scuseria, 
 M. A. Robb, J. R. Cheeseman, G. Scalmani, V. Barone, 
 G. A. Petersson, H. Nakatsuji, X. Li, M. Caricato, A. V. Marenich, 
 J. Bloino, B. G. Janesko, R. Gomperts, B. Mennucci, H. P. Hratchian, 
 J. V. Ortiz, A. F. Izmaylov, J. L. Sonnenberg, D. Williams-Young, 
 F. Ding, F. Lipparini, F. Egidi, J. Goings, B. Peng, A. Petrone, 
 T. Henderson, D. Ranasinghe, V. G. Zakrzewski, J. Gao, N. Rega, 
 G. Zheng, W. Liang, M. Hada, M. Ehara, K. Toyota, R. Fukuda, 
 J. Hasegawa, M. Ishida, T. Nakajima, Y. Honda, O. Kitao, H. Nakai, 
 T. Vreven, K. Throssell, J. A. Montgomery, Jr., J. E. Peralta, 
 F. Ogliaro, M. J. Bearpark, J. J. Heyd, E. N. Brothers, K. N. Kudin, 
 V. N. Staroverov, T. A. Keith, R. Kobayashi, J. Normand, 
 K. Raghavachari, A. P. Rendell, J. C. Burant, S. S. Iyengar, 
 J. Tomasi, M. Cossi, J. M. Millam, M. Klene, C. Adamo, R. Cammi, 
 J. W. Ochterski, R. L. Martin, K. Morokuma, O. Farkas, 
 J. B. Foresman, and D. J. Fox, Gaussian, Inc., Wallingford CT, 2016.
 
 ******************************************
 Gaussian 16:  ES64L-G16RevA.03 25-Dec-2016
                20-Feb-2023 
 ******************************************
 %nproc=24
 Will use up to   24 processors via shared memory.
 %mem=50GB
 ---------------------------------------------------
 #p M062X/6-311+G(2d,p) nosymm em=GD3 counterpoise=2
 ---------------------------------------------------
 1/38=1,62=2,172=1/1;
 2/12=2,15=1,17=6,18=5,40=1/2;
 1/38=1,53=2,62=2,63=1/22;
 3/5=4,6=6,7=112,11=2,25=1,30=1,74=-55,124=31/1,2,3;
 4//1;
 5/5=2,38=5/2;
 6/7=2,8=2,9=2,10=2,28=1/1;
 1/53=2,62=2,63=1/22;
 3/5=7,6=11,7=112,11=2,25=1,30=1,74=-55,82=7,124=31/1,2,3;
 4//1;
 5/5=2,38=5/2;
 6/7=2,8=2,9=2,10=2,28=1/1;
 1/53=2,62=2,63=1/22(-4);
 99/5=1,9=1/99;
 Leave Link    1 at Mon Feb 20 08:43:20 2023, MaxMem=  6710886400 cpu:               0.7 elap:               0.0
 (Enter /data0/home/software/g16/l101.exe)
 -------------------
 Title Card Required
 -------------------
 Symbolic Z-matrix:
 Charge =  0 Multiplicity = 1 in supermolecule
 Charge =  0 Multiplicity = 1 in fragment      1.
 Charge =  0 Multiplicity = 1 in fragment      2.
 C                     7.41259   10.23684   9.45812    
 C                     7.58711   9.73109   10.74351    
 C                     8.84572   11.5853   10.54813    
 N                     8.18828   11.38864   9.36459    
 H                     6.82973   9.84553   8.63586    
 H                     7.17309   8.84001   11.19589    
 H                     9.56034   12.38271   10.76242    
 C                     8.31234   12.2492   8.20266    
 H                     9.38331   12.45542   7.97308    
 H                     7.89599   11.75542   7.29639    
 H                     7.78721   13.20605   8.36262    
 N                     8.46988   10.58325   11.40422    
 C                     8.94365   10.43245   12.78092    
 H                     8.05666   10.44089   13.45833    
 H                     9.57214   11.3199   13.05412    
 C                     9.75041   9.13973   12.98312    
 H                     9.77793   8.9067    14.06768    
 H                     9.23013   8.27213   12.51699    
 C                     11.17625   9.23569   12.44773    
 H                     11.77066   8.36008   12.78006    
 H                     11.69619   10.13117   12.83779    
 C                     11.15525   9.25409   10.9225    
 O                     11.26061   10.37708   10.36344    
 O                     11.00818   8.17735   10.32426    
 P                     10.33866   9.34093   7.10171    
 O                     8.87453   9.4521    7.21265    
 O                     10.9906   8.01993   7.6607     
 H                     11.0254   8.07779   8.73811    
 O                     10.74381   9.3524    5.56066    
 H                     11.77432   9.28495   5.51653    
 O                     11.12162   10.58439   7.69637    
 H                     11.21979   10.4682   8.75482    
 
 ITRead=  0  0  0  0  0  0  0  0  0  0  0  0  0  0  0  0  0  0  0  0
 ITRead=  0  0  0  0  0  0  0  0  0  0  0  0
 MicOpt= -1 -1 -1 -1 -1 -1 -1 -1 -1 -1 -1 -1 -1 -1 -1 -1 -1 -1 -1 -1
 MicOpt= -1 -1 -1 -1 -1 -1 -1 -1 -1 -1 -1 -1
 NAtoms=     32 NQM=       32 NQMF=       0 NMMI=      0 NMMIF=      0
                NMic=       0 NMicF=      0.
                    Isotopes and Nuclear Properties:
 (Nuclear quadrupole moments (NQMom) in fm**2, nuclear magnetic moments (NMagM)
  in nuclear magnetons)

  Atom         1           2           3           4           5           6           7           8           9          10
 IAtWgt=          12          12          12          14           1           1           1          12           1           1
 AtmWgt=  12.0000000  12.0000000  12.0000000  14.0030740   1.0078250   1.0078250   1.0078250  12.0000000   1.0078250   1.0078250
 NucSpn=           0           0           0           2           1           1           1           0           1           1
 AtZEff=  -0.0000000  -0.0000000  -0.0000000  -0.0000000  -0.0000000  -0.0000000  -0.0000000  -0.0000000  -0.0000000  -0.0000000
 NQMom=    0.0000000   0.0000000   0.0000000   2.0440000   0.0000000   0.0000000   0.0000000   0.0000000   0.0000000   0.0000000
 NMagM=    0.0000000   0.0000000   0.0000000   0.4037610   2.7928460   2.7928460   2.7928460   0.0000000   2.7928460   2.7928460
 AtZNuc=   6.0000000   6.0000000   6.0000000   7.0000000   1.0000000   1.0000000   1.0000000   6.0000000   1.0000000   1.0000000

  Atom        11          12          13          14          15          16          17          18          19          20
 IAtWgt=           1          14          12           1           1          12           1           1          12           1
 AtmWgt=   1.0078250  14.0030740  12.0000000   1.0078250   1.0078250  12.0000000   1.0078250   1.0078250  12.0000000   1.0078250
 NucSpn=           1           2           0           1           1           0           1           1           0           1
 AtZEff=  -0.0000000  -0.0000000  -0.0000000  -0.0000000  -0.0000000  -0.0000000  -0.0000000  -0.0000000  -0.0000000  -0.0000000
 NQMom=    0.0000000   2.0440000   0.0000000   0.0000000   0.0000000   0.0000000   0.0000000   0.0000000   0.0000000   0.0000000
 NMagM=    2.7928460   0.4037610   0.0000000   2.7928460   2.7928460   0.0000000   2.7928460   2.7928460   0.0000000   2.7928460
 AtZNuc=   1.0000000   7.0000000   6.0000000   1.0000000   1.0000000   6.0000000   1.0000000   1.0000000   6.0000000   1.0000000

  Atom        21          22          23          24          25          26          27          28          29          30
 IAtWgt=           1          12          16          16          31          16          16           1          16           1
 AtmWgt=   1.0078250  12.0000000  15.9949146  15.9949146  30.9737634  15.9949146  15.9949146   1.0078250  15.9949146   1.0078250
 NucSpn=           1           0           0           0           1           0           0           1           0           1
 AtZEff=  -0.0000000  -0.0000000  -0.0000000  -0.0000000  -0.0000000  -0.0000000  -0.0000000  -0.0000000  -0.0000000  -0.0000000
 NQMom=    0.0000000   0.0000000   0.0000000   0.0000000   0.0000000   0.0000000   0.0000000   0.0000000   0.0000000   0.0000000
 NMagM=    2.7928460   0.0000000   0.0000000   0.0000000   1.1316000   0.0000000   0.0000000   2.7928460   0.0000000   2.7928460
 AtZNuc=   1.0000000   6.0000000   8.0000000   8.0000000  15.0000000   8.0000000   8.0000000   1.0000000   8.0000000   1.0000000

  Atom        31          32
 IAtWgt=          16           1
 AtmWgt=  15.9949146   1.0078250
 NucSpn=           0           1
 AtZEff=  -0.0000000  -0.0000000
 NQMom=    0.0000000   0.0000000
 NMagM=    0.0000000   2.7928460
 AtZNuc=   8.0000000   1.0000000
 Leave Link  101 at Mon Feb 20 08:43:20 2023, MaxMem=  6710886400 cpu:               2.2 elap:               0.1
 (Enter /data0/home/software/g16/l202.exe)
                          Input orientation:                          
 ---------------------------------------------------------------------
 Center     Atomic      Atomic             Coordinates (Angstroms)
 Number     Number       Type             X           Y           Z
 ---------------------------------------------------------------------
      1          6           0        7.412586   10.236837    9.458117
      2          6           0        7.587109    9.731091   10.743511
      3          6           0        8.845724   11.585301   10.548130
      4          7           0        8.188275   11.388639    9.364593
      5          1           0        6.829730    9.845525    8.635859
      6          1           0        7.173088    8.840010   11.195885
      7          1           0        9.560341   12.382714   10.762421
      8          6           0        8.312341   12.249198    8.202663
      9          1           0        9.383305   12.455415    7.973076
     10          1           0        7.895994   11.755416    7.296390
     11          1           0        7.787208   13.206046    8.362616
     12          7           0        8.469876   10.583249   11.404221
     13          6           0        8.943651   10.432451   12.780915
     14          1           0        8.056659   10.440888   13.458326
     15          1           0        9.572141   11.319895   13.054124
     16          6           0        9.750413    9.139725   12.983117
     17          1           0        9.777934    8.906695   14.067683
     18          1           0        9.230129    8.272127   12.516986
     19          6           0       11.176253    9.235686   12.447731
     20          1           0       11.770660    8.360078   12.780059
     21          1           0       11.696188   10.131166   12.837786
     22          6           0       11.155251    9.254090   10.922502
     23          8           0       11.260607   10.377079   10.363444
     24          8           0       11.008179    8.177350   10.324257
     25         15           0       10.338659    9.340932    7.101706
     26          8           0        8.874535    9.452103    7.212651
     27          8           0       10.990602    8.019934    7.660698
     28          1           0       11.025402    8.077787    8.738108
     29          8           0       10.743814    9.352399    5.560659
     30          1           0       11.774316    9.284946    5.516526
     31          8           0       11.121618   10.584385    7.696369
     32          1           0       11.219787   10.468202    8.754817
 ---------------------------------------------------------------------
                    Distance matrix (angstroms):
                    1          2          3          4          5
     1  C    0.000000
     2  C    1.392291   0.000000
     3  C    2.249526   2.249529   0.000000
     4  N    1.391793   2.238366   1.368092   0.000000
     5  H    1.081182   2.242524   3.278389   2.181261   0.000000
     6  H    2.242392   1.081703   3.279317   3.298446   2.771766
     7  H    3.304368   3.305315   1.092001   2.196514   4.291367
     8  C    2.536793   3.650032   2.495290   1.451219   2.857173
     9  H    3.318308   4.280604   2.770739   2.121892   3.711004
    10  H    2.685671   4.009482   3.391864   2.120711   2.564913
    11  H    3.186952   4.217110   2.919545   2.113713   3.504929
    12  N    2.241692   1.393552   1.370497   2.210890   3.301234
    13  C    3.663797   2.546199   2.514753   3.627140   4.689844
    14  H    4.056863   2.845085   3.225143   4.204070   5.011587
    15  H    4.332200   3.435634   2.622619   3.941123   5.405150
    16  C    4.369750   3.169453   3.567698   4.537797   5.284619
    17  H    5.349042   4.065644   4.520088   5.550326   6.251242
    18  H    4.064508   2.823704   3.873149   4.553646   4.827074
    19  C    4.909713   4.003966   3.815828   4.803016   5.813307
    20  H    5.792265   4.850701   4.892731   5.802678   6.617684
    21  H    5.457341   4.629317   3.934740   5.094091   6.435852
    22  C    4.137361   3.604331   3.302819   3.973201   4.928353
    23  O    3.955572   3.749178   2.706579   3.385289   4.785370
    24  O    4.233199   3.780688   4.042334   4.380090   4.805511
    25  P    3.862282   4.581047   4.375373   3.733351   3.862748
    26  O    2.791992   3.768590   3.959392   2.975228   2.522207
    27  O    4.576852   4.900567   5.064544   4.701539   4.647212
    28  H    4.269936   4.310094   4.508861   4.404942   4.554011
    29  O    5.202835   6.080308   5.784761   5.014675   5.002008
    30  H    5.955411   6.712162   6.259818   5.665054   5.873110
    31  O    4.120857   4.744042   3.783394   3.469048   4.455206
    32  H    3.878523   4.206493   3.178059   3.226313   4.435592
                    6          7          8          9         10
     6  H    0.000000
     7  H    4.293905   0.000000
     8  C    4.677589   2.850911   0.000000
     9  H    5.323787   2.795903   1.114540   0.000000
    10  H    4.922220   3.895757   1.112877   1.777638   0.000000
    11  H    5.240880   3.095309   1.103135   1.806298   1.803607
    12  N    2.182646   2.199794   3.612503   4.013990   4.310173
    13  C    2.860609   2.873700   4.965835   5.234596   5.738278
    14  H    2.908977   3.646869   5.563933   5.992185   6.302639
    15  H    3.918971   2.526188   5.097781   5.209809   6.012541
    16  C    3.150656   3.935047   5.881294   6.019060   6.528367
    17  H    3.877743   4.801543   6.907876   7.063525   7.583358
    18  H    2.509824   4.481569   5.939092   6.178226   6.416217
    19  C    4.212957   3.918575   5.941704   5.796883   6.606471
    20  H    4.886472   5.013778   6.930929   6.751173   7.524093
    21  H    4.982104   3.733423   6.117258   5.866597   6.912795
    22  C    4.012957   3.515345   4.944728   4.699722   5.479788
    23  O    4.445599   2.659447   4.106833   3.682065   4.756811
    24  O    3.988330   4.469151   5.324345   5.144911   5.626387
    25  P    5.199429   4.822764   3.711614   3.372238   3.440094
    26  O    4.374441   4.653996   3.019922   3.139582   2.503958
    27  O    5.267208   5.540774   5.035224   4.728052   4.864478
    28  H    4.632707   4.977614   5.004805   4.737656   5.039514
    29  O    6.690919   6.135287   4.613425   4.159261   4.110636
    30  H    7.322867   6.482073   5.290311   4.669416   4.930773
    31  O    5.557009   3.882299   3.304538   2.568862   3.454844
    32  H    4.998559   3.232583   3.453992   2.816523   3.851172
                   11         12         13         14         15
    11  H    0.000000
    12  N    4.073875   0.000000
    13  C    5.343366   1.463724   0.000000
    14  H    5.803875   2.100086   1.116115   0.000000
    15  H    5.362257   2.116557   1.121249   1.797976   0.000000
    16  C    6.460508   2.493281   1.537170   2.188070   2.188599
    17  H    7.415875   3.408208   2.163269   2.384922   2.625488
    18  H    6.609415   2.675353   2.195160   2.639446   3.113580
    19  C    6.628540   3.198330   2.554950   3.493663   2.699040
    20  H    7.672359   4.210771   3.505240   4.310872   3.697177
    21  H    6.690453   3.559294   2.769561   3.705019   2.443656
    22  C    5.789187   3.034791   3.119841   4.176142   3.364164
    23  O    4.906207   2.985616   3.348958   4.455070   3.313545
    24  O    6.285736   3.660281   3.922107   4.863894   4.403404
    25  P    4.799886   4.852560   5.949023   6.842810   6.319424
    26  O    4.073916   4.360332   5.654328   6.376133   6.172366
    27  O    6.135974   5.190242   6.018876   6.934085   6.480032
    28  H    6.076671   4.462758   5.120783   6.056248   5.590280
    29  O    5.607413   6.390071   7.519255   8.413011   7.835552
    30  H    6.274734   6.875308   7.880405   8.844736   8.112088
    31  O    4.293633   4.558498   5.533465   6.527995   5.625602
    32  H    4.408198   3.820286   4.625099   5.668256   4.682324
                   16         17         18         19         20
    16  C    0.000000
    17  H    1.109659   0.000000
    18  H    1.113867   1.762790   0.000000
    19  C    1.526062   2.165127   2.172704   0.000000
    20  H    2.174967   2.434691   2.555629   1.109257   0.000000
    21  H    2.188634   2.586827   3.104897   1.106508   1.773593
    22  C    2.496554   3.451065   2.685652   1.525485   2.151396
    23  O    3.267173   4.252262   3.631998   2.377845   3.188805
    24  O    3.094782   4.007329   2.824625   2.378543   2.577931
    25  P    5.914179   7.001986   5.629959   5.412266   5.937710
    26  O    5.844914   6.935781   5.445618   5.722832   6.369936
    27  O    5.578543   6.580757   5.171692   4.942490   5.189609
    28  H    4.557786   5.536031   4.188161   3.889060   4.119765
    29  O    7.491659   8.573274   7.200605   6.901622   7.359270
    30  H    7.737393   8.789249   7.516989   6.957134   7.322179
    31  O    5.649509   6.724119   5.671209   4.939374   5.586833
    32  H    4.669307   5.722219   4.789092   3.893405   4.577141
                   21         22         23         24         25
    21  H    0.000000
    22  C    2.174900   0.000000
    23  O    2.524395   1.258869   0.000000
    24  O    3.257082   1.240523   2.214512   0.000000
    25  P    5.947266   3.908049   3.544365   3.490991   0.000000
    26  O    6.329692   4.359343   4.059115   3.982402   1.472524
    27  O    5.635370   3.491363   3.596369   2.668264   1.575607
    28  H    4.633970   2.484377   2.825559   1.589364   2.178294
    29  O    7.380384   5.378504   4.937994   4.913501   1.593458
    30  H    7.370417   5.441394   4.994924   4.992796   2.139402
    31  O    5.193237   3.489807   2.678728   3.565457   1.585189
    32  H    4.124462   2.485375   1.611723   2.784946   2.186298
                   26         27         28         29         30
    26  O    0.000000
    27  O    2.594146   0.000000
    28  H    2.973549   1.079523   0.000000
    29  O    2.496642   2.499306   3.435129   0.000000
    30  H    3.363556   2.609969   3.520894   1.033650   0.000000
    31  O    2.562309   2.568043   2.716157   2.494350   2.620357
    32  H    2.985120   2.691401   2.398364   3.416755   3.492009
                   31         32
    31  O    0.000000
    32  H    1.069321   0.000000
 Symmetry turned off by external request.
 Stoichiometry    C8H15N2O6P
 Framework group  C1[X(C8H15N2O6P)]
 Deg. of freedom    90
 Full point group                 C1      NOp   1
 Rotational constants (GHZ):           0.6524135           0.3458166           0.2695324
 Leave Link  202 at Mon Feb 20 08:43:20 2023, MaxMem=  6710886400 cpu:               0.1 elap:               0.0
 (Enter /data0/home/software/g16/l122.exe)
 Counterpoise: doing full-system calculation.
 Leave Link  122 at Mon Feb 20 08:43:20 2023, MaxMem=  6710886400 cpu:               0.0 elap:               0.0
 (Enter /data0/home/software/g16/l301.exe)
 Standard basis: 6-311+G(2d,p) (5D, 7F)
 Ernie: Thresh=  0.10000D-02 Tol=  0.10000D-05 Strict=F.
   557 basis functions,   848 primitive gaussians,   591 cartesian basis functions
    70 alpha electrons       70 beta electrons
       nuclear repulsion energy      1557.3394791725 Hartrees.
 IExCor= 4336 DFT=T Ex+Corr=M062X ExCW=0 ScaHFX=  0.540000
 ScaDFX=  1.000000  1.000000  1.000000  1.000000 ScalE2=  1.000000  1.000000
 IRadAn=      5 IRanWt=     -1 IRanGd=            0 ICorTp=0 IEmpDi=131
 NAtoms=   32 NActive=   32 NUniq=   32 SFac= 1.00D+00 NAtFMM=   60 NAOKFM=F Big=F
 Integral buffers will be    131072 words long.
 Raffenetti 2 integral format.
 Two-electron integral symmetry is turned off.
 R6Disp:  Grimme-D3 Dispersion energy=       -0.0021492303 Hartrees.
 Nuclear repulsion after empirical dispersion term =     1557.3373299422 Hartrees.
 Leave Link  301 at Mon Feb 20 08:43:20 2023, MaxMem=  6710886400 cpu:               1.1 elap:               0.1
 (Enter /data0/home/software/g16/l302.exe)
 NPDir=0 NMtPBC=     1 NCelOv=     1 NCel=       1 NClECP=     1 NCelD=      1
         NCelK=      1 NCelE2=     1 NClLst=     1 CellRange=     0.0.
 One-electron integrals computed using PRISM.
 NBasis=   557 RedAO= T EigKep=  9.15D-06  NBF=   557
 NBsUse=   557 1.00D-06 EigRej= -1.00D+00 NBFU=   557
 Precomputing XC quadrature grid using
 IXCGrd= 4 IRadAn=           5 IRanWt=          -1 IRanGd=           0 AccXCQ= 0.00D+00.
 Generated NRdTot=       0 NPtTot=           0 NUsed=           0 NTot=          32
 NSgBfM=   590   590   590   590   590 MxSgAt=    32 MxSgA2=    32.
 Leave Link  302 at Mon Feb 20 08:43:21 2023, MaxMem=  6710886400 cpu:              13.9 elap:               0.6
 (Enter /data0/home/software/g16/l303.exe)
 DipDrv:  MaxL=1.
 Leave Link  303 at Mon Feb 20 08:43:21 2023, MaxMem=  6710886400 cpu:               1.4 elap:               0.1
 (Enter /data0/home/software/g16/l401.exe)
 ExpMin= 3.48D-02 ExpMax= 7.75D+04 ExpMxC= 2.65D+03 IAcc=3 IRadAn=         5 AccDes= 0.00D+00
 Harris functional with IExCor= 1009 and IRadAn=       5 diagonalized for initial guess.
 HarFok:  IExCor= 1009 AccDes= 0.00D+00 IRadAn=         5 IDoV= 1 UseB2=F ITyADJ=14
 ICtDFT=  3500011 ScaDFX=  1.000000  1.000000  1.000000  1.000000
 FoFCou: FMM=F IPFlag=           0 FMFlag=      100000 FMFlg1=           0
         NFxFlg=           0 DoJE=T BraDBF=F KetDBF=T FulRan=T
         wScrn=  0.000000 ICntrl=       500 IOpCl=  0 I1Cent=   200000004 NGrid=           0
         NMat0=    1 NMatS0=      1 NMatT0=    0 NMatD0=    1 NMtDS0=    0 NMtDT0=    0
 Symmetry not used in FoFCou.
 Harris En= -1215.64748651616    
 JPrj=0 DoOrth=F DoCkMO=F.
 Leave Link  401 at Mon Feb 20 08:43:23 2023, MaxMem=  6710886400 cpu:              54.2 elap:               2.3
 (Enter /data0/home/software/g16/l502.exe)
 Two-electron integral symmetry not used.
 Closed shell SCF:
 Using DIIS extrapolation, IDIIS=  1040.
 NGot=  6710886400 LenX=  6710169535 LenY=  6709819663
 Requested convergence on RMS density matrix=1.00D-08 within 128 cycles.
 Requested convergence on MAX density matrix=1.00D-06.
 Requested convergence on             energy=1.00D-06.
 No special actions if energy rises.
 Fock matrices will be formed incrementally for  20 cycles.

 Cycle   1  Pass 1  IDiag  1:
 FoFJK:  IHMeth= 1 ICntrl=       0 DoSepK=F KAlg= 0 I1Cent=           0 FoldK=F
 IRaf= 860000000 NMat=       1 IRICut=       1 DoRegI=T DoRafI=F ISym2E= 0 IDoP0=0 IntGTp=1.
 FoFCou: FMM=F IPFlag=           0 FMFlag=      100000 FMFlg1=           0
         NFxFlg=           0 DoJE=F BraDBF=F KetDBF=F FulRan=T
         wScrn=  0.000000 ICntrl=         0 IOpCl=  0 I1Cent=           0 NGrid=           0
         NMat0=    1 NMatS0=      1 NMatT0=    0 NMatD0=    1 NMtDS0=    0 NMtDT0=    0
 Symmetry not used in FoFCou.
 E= -1215.59434259962    
 DIIS: error= 2.88D-02 at cycle   1 NSaved=   1.
 NSaved= 1 IEnMin= 1 EnMin= -1215.59434259962     IErMin= 1 ErrMin= 2.88D-02
 ErrMax= 2.88D-02  0.00D+00 EMaxC= 1.00D-01 BMatC= 9.23D-01 BMatP= 9.23D-01
 IDIUse=3 WtCom= 7.12D-01 WtEn= 2.88D-01
 Coeff-Com:  0.100D+01
 Coeff-En:   0.100D+01
 Coeff:      0.100D+01
 Gap=     0.323 Goal=   None    Shift=    0.000
 GapD=    0.323 DampG=1.000 DampE=0.500 DampFc=0.5000 IDamp=-1.
 Damping current iteration by 5.00D-01
 RMSDP=5.11D-03 MaxDP=3.65D-01              OVMax= 2.44D-01

 Cycle   2  Pass 1  IDiag  1:
 RMSU=  2.54D-03    CP:  9.73D-01
 E= -1215.85238919238     Delta-E=       -0.258046592764 Rises=F Damp=T
 DIIS: error= 5.02D-03 at cycle   2 NSaved=   2.
 NSaved= 2 IEnMin= 2 EnMin= -1215.85238919238     IErMin= 2 ErrMin= 5.02D-03
 ErrMax= 5.02D-03  0.00D+00 EMaxC= 1.00D-01 BMatC= 5.94D-02 BMatP= 9.23D-01
 IDIUse=3 WtCom= 9.50D-01 WtEn= 5.02D-02
 Coeff-Com:  0.624D-02 0.994D+00
 Coeff-En:   0.711D-01 0.929D+00
 Coeff:      0.949D-02 0.991D+00
 Gap=     0.317 Goal=   None    Shift=    0.000
 RMSDP=2.42D-03 MaxDP=3.67D-01 DE=-2.58D-01 OVMax= 1.29D-01

 Cycle   3  Pass 1  IDiag  1:
 RMSU=  1.90D-03    CP:  8.50D-01  8.61D-01
 E= -1216.14425677641     Delta-E=       -0.291867584026 Rises=F Damp=F
 DIIS: error= 5.26D-03 at cycle   3 NSaved=   3.
 NSaved= 3 IEnMin= 3 EnMin= -1216.14425677641     IErMin= 2 ErrMin= 5.02D-03
 ErrMax= 5.26D-03  0.00D+00 EMaxC= 1.00D-01 BMatC= 2.32D-02 BMatP= 5.94D-02
 IDIUse=3 WtCom= 9.47D-01 WtEn= 5.26D-02
 Coeff-Com: -0.598D-01 0.361D+00 0.699D+00
 Coeff-En:   0.000D+00 0.000D+00 0.100D+01
 Coeff:     -0.567D-01 0.342D+00 0.715D+00
 Gap=     0.295 Goal=   None    Shift=    0.000
 RMSDP=5.10D-04 MaxDP=4.31D-02 DE=-2.92D-01 OVMax= 4.26D-02

 Cycle   4  Pass 1  IDiag  1:
 RMSU=  4.67D-04    CP:  8.45D-01  9.33D-01  9.61D-01
 E= -1216.15626630474     Delta-E=       -0.012009528326 Rises=F Damp=F
 DIIS: error= 2.94D-03 at cycle   4 NSaved=   4.
 NSaved= 4 IEnMin= 4 EnMin= -1216.15626630474     IErMin= 4 ErrMin= 2.94D-03
 ErrMax= 2.94D-03  0.00D+00 EMaxC= 1.00D-01 BMatC= 6.78D-03 BMatP= 2.32D-02
 IDIUse=3 WtCom= 9.71D-01 WtEn= 2.94D-02
 Coeff-Com: -0.320D-01 0.870D-01 0.394D+00 0.551D+00
 Coeff-En:   0.000D+00 0.000D+00 0.216D+00 0.784D+00
 Coeff:     -0.311D-01 0.844D-01 0.389D+00 0.558D+00
 Gap=     0.296 Goal=   None    Shift=    0.000
 RMSDP=1.93D-04 MaxDP=1.35D-02 DE=-1.20D-02 OVMax= 1.41D-02

 Cycle   5  Pass 1  IDiag  1:
 RMSU=  1.14D-04    CP:  8.42D-01  9.11D-01  9.94D-01  7.27D-01
 E= -1216.16104481164     Delta-E=       -0.004778506905 Rises=F Damp=F
 DIIS: error= 3.65D-04 at cycle   5 NSaved=   5.
 NSaved= 5 IEnMin= 5 EnMin= -1216.16104481164     IErMin= 5 ErrMin= 3.65D-04
 ErrMax= 3.65D-04  0.00D+00 EMaxC= 1.00D-01 BMatC= 1.92D-04 BMatP= 6.78D-03
 IDIUse=3 WtCom= 9.96D-01 WtEn= 3.65D-03
 Coeff-Com: -0.982D-02 0.189D-01 0.128D+00 0.240D+00 0.623D+00
 Coeff-En:   0.000D+00 0.000D+00 0.000D+00 0.000D+00 0.100D+01
 Coeff:     -0.979D-02 0.188D-01 0.128D+00 0.239D+00 0.625D+00
 Gap=     0.289 Goal=   None    Shift=    0.000
 RMSDP=3.72D-05 MaxDP=2.15D-03 DE=-4.78D-03 OVMax= 2.47D-03

 Cycle   6  Pass 1  IDiag  1:
 RMSU=  3.32D-05    CP:  8.42D-01  9.10D-01  9.94D-01  7.56D-01  9.18D-01
 E= -1216.16118317525     Delta-E=       -0.000138363607 Rises=F Damp=F
 DIIS: error= 8.43D-05 at cycle   6 NSaved=   6.
 NSaved= 6 IEnMin= 6 EnMin= -1216.16118317525     IErMin= 6 ErrMin= 8.43D-05
 ErrMax= 8.43D-05  0.00D+00 EMaxC= 1.00D-01 BMatC= 1.68D-05 BMatP= 1.92D-04
 IDIUse=1 WtCom= 1.00D+00 WtEn= 0.00D+00
 Coeff-Com: -0.202D-02 0.220D-02 0.272D-01 0.652D-01 0.286D+00 0.621D+00
 Coeff:     -0.202D-02 0.220D-02 0.272D-01 0.652D-01 0.286D+00 0.621D+00
 Gap=     0.289 Goal=   None    Shift=    0.000
 RMSDP=1.34D-05 MaxDP=1.29D-03 DE=-1.38D-04 OVMax= 9.28D-04

 Cycle   7  Pass 1  IDiag  1:
 RMSU=  1.22D-05    CP:  8.42D-01  9.10D-01  9.94D-01  7.60D-01  9.45D-01
                    CP:  9.11D-01
 E= -1216.16119647688     Delta-E=       -0.000013301634 Rises=F Damp=F
 DIIS: error= 4.14D-05 at cycle   7 NSaved=   7.
 NSaved= 7 IEnMin= 7 EnMin= -1216.16119647688     IErMin= 7 ErrMin= 4.14D-05
 ErrMax= 4.14D-05  0.00D+00 EMaxC= 1.00D-01 BMatC= 2.20D-06 BMatP= 1.68D-05
 IDIUse=1 WtCom= 1.00D+00 WtEn= 0.00D+00
 Coeff-Com:  0.258D-03-0.122D-02-0.322D-02 0.817D-03 0.611D-01 0.293D+00
 Coeff-Com:  0.649D+00
 Coeff:      0.258D-03-0.122D-02-0.322D-02 0.817D-03 0.611D-01 0.293D+00
 Coeff:      0.649D+00
 Gap=     0.289 Goal=   None    Shift=    0.000
 RMSDP=6.22D-06 MaxDP=7.87D-04 DE=-1.33D-05 OVMax= 3.83D-04

 Cycle   8  Pass 1  IDiag  1:
 RMSU=  4.16D-06    CP:  8.42D-01  9.09D-01  9.94D-01  7.65D-01  9.66D-01
                    CP:  9.59D-01  9.66D-01
 E= -1216.16119822373     Delta-E=       -0.000001746846 Rises=F Damp=F
 DIIS: error= 1.27D-05 at cycle   8 NSaved=   8.
 NSaved= 8 IEnMin= 8 EnMin= -1216.16119822373     IErMin= 8 ErrMin= 1.27D-05
 ErrMax= 1.27D-05  0.00D+00 EMaxC= 1.00D-01 BMatC= 3.03D-07 BMatP= 2.20D-06
 IDIUse=1 WtCom= 1.00D+00 WtEn= 0.00D+00
 Coeff-Com:  0.450D-03-0.948D-03-0.599D-02-0.102D-01-0.170D-01 0.324D-01
 Coeff-Com:  0.299D+00 0.702D+00
 Coeff:      0.450D-03-0.948D-03-0.599D-02-0.102D-01-0.170D-01 0.324D-01
 Coeff:      0.299D+00 0.702D+00
 Gap=     0.289 Goal=   None    Shift=    0.000
 RMSDP=2.77D-06 MaxDP=5.03D-04 DE=-1.75D-06 OVMax= 1.25D-04

 Cycle   9  Pass 1  IDiag  1:
 RMSU=  1.88D-06    CP:  8.42D-01  9.09D-01  9.94D-01  7.67D-01  9.77D-01
                    CP:  9.81D-01  9.59D-01  9.23D-01
 E= -1216.16119849973     Delta-E=       -0.000000275999 Rises=F Damp=F
 DIIS: error= 3.90D-06 at cycle   9 NSaved=   9.
 NSaved= 9 IEnMin= 9 EnMin= -1216.16119849973     IErMin= 9 ErrMin= 3.90D-06
 ErrMax= 3.90D-06  0.00D+00 EMaxC= 1.00D-01 BMatC= 2.15D-08 BMatP= 3.03D-07
 IDIUse=1 WtCom= 1.00D+00 WtEn= 0.00D+00
 Coeff-Com:  0.136D-03-0.232D-03-0.193D-02-0.379D-02-0.109D-01-0.997D-02
 Coeff-Com:  0.619D-01 0.265D+00 0.699D+00
 Coeff:      0.136D-03-0.232D-03-0.193D-02-0.379D-02-0.109D-01-0.997D-02
 Coeff:      0.619D-01 0.265D+00 0.699D+00
 Gap=     0.289 Goal=   None    Shift=    0.000
 RMSDP=6.23D-07 MaxDP=4.45D-05 DE=-2.76D-07 OVMax= 4.08D-05

 Cycle  10  Pass 1  IDiag  1:
 RMSU=  4.60D-07    CP:  8.42D-01  9.09D-01  9.94D-01  7.67D-01  9.77D-01
                    CP:  9.85D-01  9.76D-01  9.81D-01  9.25D-01
 E= -1216.16119852281     Delta-E=       -0.000000023087 Rises=F Damp=F
 DIIS: error= 1.13D-06 at cycle  10 NSaved=  10.
 NSaved=10 IEnMin=10 EnMin= -1216.16119852281     IErMin=10 ErrMin= 1.13D-06
 ErrMax= 1.13D-06  0.00D+00 EMaxC= 1.00D-01 BMatC= 3.01D-09 BMatP= 2.15D-08
 IDIUse=1 WtCom= 1.00D+00 WtEn= 0.00D+00
 Coeff-Com: -0.497D-05 0.226D-04 0.524D-05-0.163D-03-0.222D-02-0.830D-02
 Coeff-Com: -0.147D-01 0.485D-02 0.260D+00 0.760D+00
 Coeff:     -0.497D-05 0.226D-04 0.524D-05-0.163D-03-0.222D-02-0.830D-02
 Coeff:     -0.147D-01 0.485D-02 0.260D+00 0.760D+00
 Gap=     0.289 Goal=   None    Shift=    0.000
 RMSDP=2.83D-07 MaxDP=5.08D-05 DE=-2.31D-08 OVMax= 2.45D-05

 Cycle  11  Pass 1  IDiag  1:
 RMSU=  1.69D-07    CP:  8.42D-01  9.09D-01  9.94D-01  7.67D-01  9.77D-01
                    CP:  9.85D-01  9.73D-01  9.93D-01  1.01D+00  1.17D+00
 E= -1216.16119852604     Delta-E=       -0.000000003222 Rises=F Damp=F
 DIIS: error= 5.26D-07 at cycle  11 NSaved=  11.
 NSaved=11 IEnMin=11 EnMin= -1216.16119852604     IErMin=11 ErrMin= 5.26D-07
 ErrMax= 5.26D-07  0.00D+00 EMaxC= 1.00D-01 BMatC= 5.84D-10 BMatP= 3.01D-09
 IDIUse=1 WtCom= 1.00D+00 WtEn= 0.00D+00
 Coeff-Com: -0.210D-04 0.437D-04 0.273D-03 0.456D-03 0.479D-03-0.224D-02
 Coeff-Com: -0.153D-01-0.376D-01 0.215D-01 0.358D+00 0.674D+00
 Coeff:     -0.210D-04 0.437D-04 0.273D-03 0.456D-03 0.479D-03-0.224D-02
 Coeff:     -0.153D-01-0.376D-01 0.215D-01 0.358D+00 0.674D+00
 Gap=     0.289 Goal=   None    Shift=    0.000
 RMSDP=1.24D-07 MaxDP=2.65D-05 DE=-3.22D-09 OVMax= 9.49D-06

 Cycle  12  Pass 1  IDiag  1:
 RMSU=  6.66D-08    CP:  8.42D-01  9.09D-01  9.94D-01  7.67D-01  9.78D-01
                    CP:  9.86D-01  9.71D-01  9.99D-01  1.04D+00  1.25D+00
                    CP:  9.98D-01
 E= -1216.16119852667     Delta-E=       -0.000000000632 Rises=F Damp=F
 DIIS: error= 2.60D-07 at cycle  12 NSaved=  12.
 NSaved=12 IEnMin=12 EnMin= -1216.16119852667     IErMin=12 ErrMin= 2.60D-07
 ErrMax= 2.60D-07  0.00D+00 EMaxC= 1.00D-01 BMatC= 7.12D-11 BMatP= 5.84D-10
 IDIUse=1 WtCom= 1.00D+00 WtEn= 0.00D+00
 Coeff-Com: -0.778D-05 0.153D-04 0.113D-03 0.207D-03 0.440D-03 0.308D-04
 Coeff-Com: -0.454D-02-0.160D-01-0.198D-01 0.609D-01 0.295D+00 0.683D+00
 Coeff:     -0.778D-05 0.153D-04 0.113D-03 0.207D-03 0.440D-03 0.308D-04
 Coeff:     -0.454D-02-0.160D-01-0.198D-01 0.609D-01 0.295D+00 0.683D+00
 Gap=     0.289 Goal=   None    Shift=    0.000
 RMSDP=3.67D-08 MaxDP=3.64D-06 DE=-6.32D-10 OVMax= 4.10D-06

 Cycle  13  Pass 1  IDiag  1:
 RMSU=  2.51D-08    CP:  8.42D-01  9.09D-01  9.94D-01  7.67D-01  9.78D-01
                    CP:  9.86D-01  9.70D-01  9.99D-01  1.05D+00  1.28D+00
                    CP:  1.11D+00  9.70D-01
 E= -1216.16119852675     Delta-E=       -0.000000000078 Rises=F Damp=F
 DIIS: error= 1.00D-07 at cycle  13 NSaved=  13.
 NSaved=13 IEnMin=13 EnMin= -1216.16119852675     IErMin=13 ErrMin= 1.00D-07
 ErrMax= 1.00D-07  0.00D+00 EMaxC= 1.00D-01 BMatC= 1.49D-11 BMatP= 7.12D-11
 IDIUse=1 WtCom= 1.00D+00 WtEn= 0.00D+00
 Coeff-Com: -0.378D-06 0.280D-06 0.140D-04 0.320D-04 0.146D-03 0.357D-03
 Coeff-Com:  0.118D-03-0.202D-02-0.138D-01-0.315D-01 0.371D-01 0.352D+00
 Coeff-Com:  0.657D+00
 Coeff:     -0.378D-06 0.280D-06 0.140D-04 0.320D-04 0.146D-03 0.357D-03
 Coeff:      0.118D-03-0.202D-02-0.138D-01-0.315D-01 0.371D-01 0.352D+00
 Coeff:      0.657D+00
 Gap=     0.289 Goal=   None    Shift=    0.000
 RMSDP=1.50D-08 MaxDP=1.16D-06 DE=-7.78D-11 OVMax= 1.74D-06

 Cycle  14  Pass 1  IDiag  1:
 RMSU=  1.01D-08    CP:  8.42D-01  9.09D-01  9.94D-01  7.67D-01  9.78D-01
                    CP:  9.86D-01  9.70D-01  9.99D-01  1.05D+00  1.29D+00
                    CP:  1.15D+00  1.07D+00  9.70D-01
 E= -1216.16119852674     Delta-E=        0.000000000003 Rises=F Damp=F
 DIIS: error= 2.69D-08 at cycle  14 NSaved=  14.
 NSaved=14 IEnMin=13 EnMin= -1216.16119852675     IErMin=14 ErrMin= 2.69D-08
 ErrMax= 2.69D-08  0.00D+00 EMaxC= 1.00D-01 BMatC= 1.52D-12 BMatP= 1.49D-11
 IDIUse=1 WtCom= 1.00D+00 WtEn= 0.00D+00
 Coeff-Com:  0.104D-05-0.216D-05-0.105D-04-0.166D-04-0.818D-06 0.150D-03
 Coeff-Com:  0.740D-03 0.152D-02-0.310D-02-0.236D-01-0.278D-01 0.551D-01
 Coeff-Com:  0.289D+00 0.708D+00
 Coeff:      0.104D-05-0.216D-05-0.105D-04-0.166D-04-0.818D-06 0.150D-03
 Coeff:      0.740D-03 0.152D-02-0.310D-02-0.236D-01-0.278D-01 0.551D-01
 Coeff:      0.289D+00 0.708D+00
 Gap=     0.289 Goal=   None    Shift=    0.000
 RMSDP=6.73D-09 MaxDP=5.30D-07 DE= 2.73D-12 OVMax= 6.27D-07

 SCF Done:  E(RM062X) =  -1216.16119853     A.U. after   14 cycles
            NFock= 14  Conv=0.67D-08     -V/T= 2.0036
 KE= 1.211756080050D+03 PE=-5.977637196569D+03 EE= 1.992382588050D+03
 Leave Link  502 at Mon Feb 20 08:45:25 2023, MaxMem=  6710886400 cpu:            2906.9 elap:             121.5
 (Enter /data0/home/software/g16/l601.exe)
 Copying SCF densities to generalized density rwf, IOpCl= 0 IROHF=0.

 **********************************************************************

            Population analysis using the SCF density.

 **********************************************************************

 Alpha  occ. eigenvalues --  -78.11260 -19.62876 -19.60539 -19.59981 -19.57827
 Alpha  occ. eigenvalues --  -19.57807 -19.54169 -14.87324 -14.87155 -10.68049
 Alpha  occ. eigenvalues --  -10.63596 -10.63313 -10.62516 -10.62426 -10.60434
 Alpha  occ. eigenvalues --  -10.57422 -10.54633  -6.91981  -5.03928  -5.03851
 Alpha  occ. eigenvalues --   -5.03689  -1.20011  -1.18130  -1.17096  -1.10543
 Alpha  occ. eigenvalues --   -1.09318  -1.08830  -1.06940  -1.04417  -0.93597
 Alpha  occ. eigenvalues --   -0.90369  -0.86296  -0.81634  -0.75543  -0.72609
 Alpha  occ. eigenvalues --   -0.71183  -0.66639  -0.65723  -0.61429  -0.60361
 Alpha  occ. eigenvalues --   -0.59826  -0.58403  -0.57550  -0.57210  -0.56420
 Alpha  occ. eigenvalues --   -0.55865  -0.53658  -0.53400  -0.51874  -0.51417
 Alpha  occ. eigenvalues --   -0.51131  -0.49293  -0.48710  -0.48102  -0.47293
 Alpha  occ. eigenvalues --   -0.46019  -0.44658  -0.43830  -0.43123  -0.42918
 Alpha  occ. eigenvalues --   -0.40606  -0.40040  -0.38657  -0.38080  -0.35292
 Alpha  occ. eigenvalues --   -0.33938  -0.32764  -0.32539  -0.32480  -0.31917
 Alpha virt. eigenvalues --   -0.03045  -0.00348   0.00097   0.00686   0.01509
 Alpha virt. eigenvalues --    0.01778   0.02390   0.02990   0.03514   0.03600
 Alpha virt. eigenvalues --    0.04916   0.05474   0.05641   0.05812   0.06552
 Alpha virt. eigenvalues --    0.07238   0.07980   0.08214   0.08637   0.09034
 Alpha virt. eigenvalues --    0.09468   0.09717   0.10084   0.10347   0.11220
 Alpha virt. eigenvalues --    0.11883   0.12294   0.12852   0.13224   0.13799
 Alpha virt. eigenvalues --    0.14359   0.15033   0.15350   0.15793   0.16473
 Alpha virt. eigenvalues --    0.16718   0.17154   0.17397   0.17478   0.17885
 Alpha virt. eigenvalues --    0.18376   0.18842   0.19184   0.19713   0.20175
 Alpha virt. eigenvalues --    0.20679   0.21149   0.21606   0.21949   0.22162
 Alpha virt. eigenvalues --    0.22939   0.23129   0.23347   0.23983   0.24607
 Alpha virt. eigenvalues --    0.24890   0.25219   0.25883   0.26004   0.26089
 Alpha virt. eigenvalues --    0.26676   0.27272   0.27790   0.28314   0.28375
 Alpha virt. eigenvalues --    0.29045   0.29093   0.29413   0.30274   0.30685
 Alpha virt. eigenvalues --    0.30889   0.31950   0.32340   0.32509   0.32958
 Alpha virt. eigenvalues --    0.33174   0.33514   0.34195   0.34378   0.35011
 Alpha virt. eigenvalues --    0.35425   0.35723   0.36207   0.37167   0.37626
 Alpha virt. eigenvalues --    0.38285   0.39020   0.39524   0.39766   0.40162
 Alpha virt. eigenvalues --    0.40867   0.42007   0.42223   0.43561   0.44043
 Alpha virt. eigenvalues --    0.44156   0.45101   0.45435   0.45939   0.46838
 Alpha virt. eigenvalues --    0.47441   0.47959   0.49658   0.49910   0.50764
 Alpha virt. eigenvalues --    0.51279   0.52497   0.52756   0.53627   0.53754
 Alpha virt. eigenvalues --    0.54750   0.56508   0.57513   0.58068   0.58128
 Alpha virt. eigenvalues --    0.58705   0.59654   0.59976   0.60709   0.61572
 Alpha virt. eigenvalues --    0.62893   0.63325   0.63890   0.64341   0.64753
 Alpha virt. eigenvalues --    0.65553   0.66065   0.66866   0.67742   0.68309
 Alpha virt. eigenvalues --    0.69478   0.69628   0.70229   0.70717   0.71147
 Alpha virt. eigenvalues --    0.72263   0.73296   0.73502   0.74552   0.74722
 Alpha virt. eigenvalues --    0.75590   0.75947   0.76870   0.78097   0.78507
 Alpha virt. eigenvalues --    0.78816   0.79891   0.81193   0.82554   0.83275
 Alpha virt. eigenvalues --    0.84566   0.85277   0.86567   0.87717   0.88010
 Alpha virt. eigenvalues --    0.88606   0.89551   0.89750   0.91310   0.92019
 Alpha virt. eigenvalues --    0.92245   0.93386   0.95372   0.95914   0.97769
 Alpha virt. eigenvalues --    0.99504   1.00553   1.01010   1.03365   1.05902
 Alpha virt. eigenvalues --    1.06023   1.07329   1.08960   1.10197   1.11309
 Alpha virt. eigenvalues --    1.12645   1.13165   1.13656   1.14708   1.15745
 Alpha virt. eigenvalues --    1.16440   1.17294   1.18005   1.18860   1.19805
 Alpha virt. eigenvalues --    1.21517   1.22707   1.23492   1.24019   1.24489
 Alpha virt. eigenvalues --    1.25211   1.25747   1.26038   1.26780   1.27518
 Alpha virt. eigenvalues --    1.28416   1.28578   1.30098   1.30264   1.30730
 Alpha virt. eigenvalues --    1.31240   1.32363   1.32965   1.33692   1.34365
 Alpha virt. eigenvalues --    1.34852   1.35554   1.36003   1.36119   1.36697
 Alpha virt. eigenvalues --    1.37730   1.39429   1.39970   1.40758   1.41815
 Alpha virt. eigenvalues --    1.42606   1.42815   1.43509   1.43710   1.44892
 Alpha virt. eigenvalues --    1.46064   1.46536   1.47464   1.48240   1.49247
 Alpha virt. eigenvalues --    1.50106   1.51177   1.51748   1.52631   1.54786
 Alpha virt. eigenvalues --    1.56153   1.57163   1.59533   1.60421   1.60884
 Alpha virt. eigenvalues --    1.61478   1.63720   1.64969   1.68023   1.68350
 Alpha virt. eigenvalues --    1.69376   1.71201   1.72862   1.73436   1.74787
 Alpha virt. eigenvalues --    1.74880   1.77037   1.78134   1.78701   1.79435
 Alpha virt. eigenvalues --    1.79936   1.81488   1.82121   1.83256   1.84841
 Alpha virt. eigenvalues --    1.85077   1.87086   1.88838   1.89320   1.90901
 Alpha virt. eigenvalues --    1.91996   1.92817   1.93384   1.95137   1.95819
 Alpha virt. eigenvalues --    1.97455   1.98869   2.00687   2.01599   2.02620
 Alpha virt. eigenvalues --    2.03273   2.04181   2.06764   2.07097   2.07304
 Alpha virt. eigenvalues --    2.09520   2.10491   2.13015   2.15858   2.18078
 Alpha virt. eigenvalues --    2.18233   2.19383   2.20320   2.22138   2.23164
 Alpha virt. eigenvalues --    2.23473   2.25000   2.26140   2.26797   2.27908
 Alpha virt. eigenvalues --    2.30031   2.31314   2.32081   2.32615   2.32959
 Alpha virt. eigenvalues --    2.34284   2.35174   2.35838   2.36865   2.38311
 Alpha virt. eigenvalues --    2.39210   2.41426   2.43376   2.45110   2.46504
 Alpha virt. eigenvalues --    2.47824   2.48770   2.52668   2.55295   2.59015
 Alpha virt. eigenvalues --    2.60482   2.61537   2.65495   2.68612   2.69209
 Alpha virt. eigenvalues --    2.71788   2.72300   2.73830   2.76005   2.76840
 Alpha virt. eigenvalues --    2.78330   2.80499   2.81807   2.82456   2.83527
 Alpha virt. eigenvalues --    2.83914   2.87416   2.87706   2.90659   2.91044
 Alpha virt. eigenvalues --    2.92843   2.94119   2.94936   2.97928   2.98728
 Alpha virt. eigenvalues --    3.02103   3.03751   3.05462   3.07281   3.09421
 Alpha virt. eigenvalues --    3.10817   3.12144   3.13497   3.15128   3.19394
 Alpha virt. eigenvalues --    3.21228   3.24129   3.25330   3.28077   3.29661
 Alpha virt. eigenvalues --    3.30895   3.33111   3.34878   3.35926   3.36425
 Alpha virt. eigenvalues --    3.39703   3.40378   3.42246   3.43186   3.44237
 Alpha virt. eigenvalues --    3.45620   3.47660   3.48904   3.51755   3.52338
 Alpha virt. eigenvalues --    3.52764   3.54810   3.56212   3.56464   3.57911
 Alpha virt. eigenvalues --    3.59633   3.61002   3.61918   3.63283   3.63857
 Alpha virt. eigenvalues --    3.66212   3.67672   3.68983   3.70565   3.71436
 Alpha virt. eigenvalues --    3.72529   3.74087   3.75813   3.81015   3.81688
 Alpha virt. eigenvalues --    3.86839   3.90216   3.92147   3.93541   3.96373
 Alpha virt. eigenvalues --    4.02570   4.03467   4.03917   4.06219   4.16237
 Alpha virt. eigenvalues --    4.17258   4.18054   4.19139   4.21406   4.25833
 Alpha virt. eigenvalues --    4.39335   4.41494   4.50369   4.53019   4.95772
 Alpha virt. eigenvalues --    5.01350   5.03034   5.04846   5.07408   5.11353
 Alpha virt. eigenvalues --    5.12959   5.13250   5.15335   5.17428   5.18499
 Alpha virt. eigenvalues --    5.22366   5.25144   5.26855   5.28512   5.32403
 Alpha virt. eigenvalues --    5.34438   5.35941   5.38770   5.44342   5.45930
 Alpha virt. eigenvalues --    5.46383   5.48302   5.51153   5.56509   5.58549
 Alpha virt. eigenvalues --    5.62412   5.67749   5.69713   5.84619   5.95808
 Alpha virt. eigenvalues --    6.24576   6.79089   6.80624   6.82259   6.83266
 Alpha virt. eigenvalues --    6.84297   6.86163   6.87401   6.90532   6.92530
 Alpha virt. eigenvalues --    6.93953   6.97809   6.98756   7.02702   7.03744
 Alpha virt. eigenvalues --    7.06175   7.06903   7.08661   7.09823   7.11538
 Alpha virt. eigenvalues --    7.14538   7.23173   7.24536   7.31167   7.33930
 Alpha virt. eigenvalues --    7.34734   7.36042   7.41229   7.42123   7.45722
 Alpha virt. eigenvalues --    7.49666   7.74248  14.32487  14.35641  14.42762
 Alpha virt. eigenvalues --   23.91384  23.95912  24.01652  24.04479  24.05400
 Alpha virt. eigenvalues --   24.09051  24.16771  24.25058  35.59798  35.68230
 Alpha virt. eigenvalues --   50.07469  50.12592  50.13076  50.18092  50.18983
 Alpha virt. eigenvalues --   50.21486 163.99501
          Condensed to atoms (all electrons):
               1          2          3          4          5          6
     1  C    7.347317  -1.443378  -0.200284   0.229640   0.386872  -0.018867
     2  C   -1.443378   7.252348  -0.137967   0.049804   0.000994   0.391708
     3  C   -0.200284  -0.137967   6.145625   0.264506   0.008270   0.008203
     4  N    0.229640   0.049804   0.264506   6.266718  -0.040029   0.013136
     5  H    0.386872   0.000994   0.008270  -0.040029   0.448083  -0.001389
     6  H   -0.018867   0.391708   0.008203   0.013136  -0.001389   0.472568
     7  H    0.008059   0.003468   0.401854  -0.029909   0.000023  -0.000044
     8  C   -0.068044  -0.027067  -0.120722   0.173608  -0.005213  -0.000454
     9  H   -0.007762  -0.007138   0.027766  -0.027139  -0.000120   0.000017
    10  H   -0.003472   0.022490  -0.006374  -0.050097   0.002551  -0.000025
    11  H   -0.006286   0.010207  -0.020740  -0.047230   0.000511   0.000006
    12  N   -0.007821   0.253850   0.185253  -0.128049   0.011242  -0.042578
    13  C   -0.077359  -0.108211  -0.276935  -0.026713   0.001409   0.013792
    14  H    0.003173  -0.011205   0.000862  -0.003034  -0.000025  -0.000004
    15  H   -0.002650  -0.004861   0.024750   0.005135   0.000009  -0.000099
    16  C    0.132875  -0.190207   0.097456  -0.027622  -0.000690  -0.006163
    17  H    0.000748   0.002192  -0.000821  -0.000166  -0.000000  -0.000058
    18  H   -0.007366   0.009109   0.004301   0.001455   0.000025  -0.000152
    19  C   -0.088840   0.196708  -0.010258   0.004180   0.000822  -0.000833
    20  H   -0.000673   0.003054   0.002918  -0.000129   0.000000  -0.000008
    21  H    0.000274  -0.002112  -0.005495   0.000061  -0.000000  -0.000015
    22  C    0.159432  -0.225983  -0.175823   0.010540  -0.001476   0.001385
    23  O   -0.052392   0.050502   0.038571   0.040904   0.000330  -0.000076
    24  O   -0.002661  -0.004522   0.015752  -0.014773   0.000127  -0.000144
    25  P   -0.014651   0.006002  -0.005811   0.000502   0.000163  -0.000029
    26  O    0.011241   0.006739  -0.006237  -0.010039  -0.011047  -0.000110
    27  O   -0.030455   0.029125   0.003401   0.006203  -0.000021  -0.000026
    28  H    0.011038  -0.016554  -0.002197  -0.002303   0.000004   0.000036
    29  O    0.002552  -0.001420  -0.000622  -0.001676   0.000094   0.000000
    30  H   -0.001420   0.000748   0.000000  -0.000031  -0.000002   0.000000
    31  O   -0.022265   0.034409  -0.026132   0.031175  -0.000162  -0.000025
    32  H    0.019054  -0.025103   0.037337  -0.005857  -0.000134   0.000036
               7          8          9         10         11         12
     1  C    0.008059  -0.068044  -0.007762  -0.003472  -0.006286  -0.007821
     2  C    0.003468  -0.027067  -0.007138   0.022490   0.010207   0.253850
     3  C    0.401854  -0.120722   0.027766  -0.006374  -0.020740   0.185253
     4  N   -0.029909   0.173608  -0.027139  -0.050097  -0.047230  -0.128049
     5  H    0.000023  -0.005213  -0.000120   0.002551   0.000511   0.011242
     6  H   -0.000044  -0.000454   0.000017  -0.000025   0.000006  -0.042578
     7  H    0.430634   0.003901   0.000070   0.000085   0.000791  -0.030307
     8  C    0.003901   5.467929   0.399025   0.404776   0.411574  -0.049324
     9  H    0.000070   0.399025   0.430320  -0.017405  -0.027651   0.004598
    10  H    0.000085   0.404776  -0.017405   0.435670  -0.016177  -0.000012
    11  H    0.000791   0.411574  -0.027651  -0.016177   0.511225  -0.005022
    12  N   -0.030307  -0.049324   0.004598  -0.000012  -0.005022   6.443728
    13  C   -0.004777  -0.018328  -0.000481   0.001163  -0.000554   0.178768
    14  H    0.000231  -0.000660   0.000005  -0.000002  -0.000012  -0.052301
    15  H    0.002321   0.001454   0.000005   0.000000  -0.000000  -0.051689
    16  C    0.003972  -0.003907   0.000494  -0.000020  -0.000036  -0.015066
    17  H   -0.000042   0.000161  -0.000000  -0.000000  -0.000000  -0.003258
    18  H    0.000067  -0.000164   0.000001   0.000000   0.000000   0.009673
    19  C    0.001552  -0.003477   0.000418   0.000031  -0.000212   0.012795
    20  H   -0.000035  -0.000013  -0.000000  -0.000000   0.000000   0.000560
    21  H    0.000004  -0.000302   0.000000  -0.000000   0.000000   0.005794
    22  C    0.000694   0.000836  -0.000284  -0.000066   0.000414   0.041239
    23  O   -0.021008   0.004120  -0.002865   0.000183   0.000240  -0.029886
    24  O   -0.000277  -0.001020   0.000104   0.000013   0.000012   0.014471
    25  P    0.000176   0.006385  -0.002730   0.000507   0.002855   0.006122
    26  O    0.000360  -0.042862  -0.001602   0.005165   0.002371   0.001896
    27  O   -0.000098   0.001589   0.000238   0.000177   0.000025  -0.005773
    28  H    0.000044  -0.000779  -0.000038  -0.000009  -0.000004   0.002836
    29  O    0.000013   0.000346  -0.000171   0.000337  -0.000048   0.000316
    30  H   -0.000000   0.000287   0.000027   0.000047  -0.000001  -0.000035
    31  O   -0.001465   0.000262  -0.008091  -0.002066   0.001059  -0.013193
    32  H    0.000955   0.007934   0.004030  -0.000360  -0.000264  -0.002543
              13         14         15         16         17         18
     1  C   -0.077359   0.003173  -0.002650   0.132875   0.000748  -0.007366
     2  C   -0.108211  -0.011205  -0.004861  -0.190207   0.002192   0.009109
     3  C   -0.276935   0.000862   0.024750   0.097456  -0.000821   0.004301
     4  N   -0.026713  -0.003034   0.005135  -0.027622  -0.000166   0.001455
     5  H    0.001409  -0.000025   0.000009  -0.000690  -0.000000   0.000025
     6  H    0.013792  -0.000004  -0.000099  -0.006163  -0.000058  -0.000152
     7  H   -0.004777   0.000231   0.002321   0.003972  -0.000042   0.000067
     8  C   -0.018328  -0.000660   0.001454  -0.003907   0.000161  -0.000164
     9  H   -0.000481   0.000005   0.000005   0.000494  -0.000000   0.000001
    10  H    0.001163  -0.000002   0.000000  -0.000020  -0.000000   0.000000
    11  H   -0.000554  -0.000012  -0.000000  -0.000036  -0.000000   0.000000
    12  N    0.178768  -0.052301  -0.051689  -0.015066  -0.003258   0.009673
    13  C    6.117904   0.453293   0.425715  -0.156921  -0.019424  -0.069366
    14  H    0.453293   0.501448  -0.024273  -0.062585  -0.005170  -0.002519
    15  H    0.425715  -0.024273   0.473017  -0.022501  -0.001005   0.003636
    16  C   -0.156921  -0.062585  -0.022501   5.969411   0.434273   0.458433
    17  H   -0.019424  -0.005170  -0.001005   0.434273   0.519670  -0.029089
    18  H   -0.069366  -0.002519   0.003636   0.458433  -0.029089   0.472434
    19  C   -0.159737   0.010274  -0.020116  -0.203035  -0.076380  -0.013018
    20  H    0.017795  -0.000167  -0.000064  -0.042361  -0.005979  -0.002743
    21  H   -0.006604  -0.000222   0.000564  -0.026927  -0.004134   0.004206
    22  C    0.080319   0.003718   0.003091  -0.096407   0.023404  -0.023702
    23  O    0.001471   0.000028  -0.004223  -0.022199  -0.001505   0.002316
    24  O    0.013382  -0.000126  -0.000255   0.004416  -0.000599  -0.003791
    25  P    0.001558  -0.000018   0.000214  -0.000665   0.000032   0.000546
    26  O    0.005466   0.000013  -0.000028  -0.004003  -0.000003  -0.000016
    27  O   -0.003444  -0.000000  -0.000004  -0.002221  -0.000011   0.000040
    28  H    0.004432  -0.000000   0.000001   0.004685   0.000012   0.000014
    29  O   -0.000105  -0.000000   0.000000  -0.000039   0.000000   0.000002
    30  H   -0.000026  -0.000000   0.000000   0.000002   0.000000  -0.000000
    31  O    0.000443  -0.000009  -0.000083  -0.010038  -0.000006   0.000039
    32  H   -0.010480   0.000019   0.000107   0.011707   0.000002  -0.000123
              19         20         21         22         23         24
     1  C   -0.088840  -0.000673   0.000274   0.159432  -0.052392  -0.002661
     2  C    0.196708   0.003054  -0.002112  -0.225983   0.050502  -0.004522
     3  C   -0.010258   0.002918  -0.005495  -0.175823   0.038571   0.015752
     4  N    0.004180  -0.000129   0.000061   0.010540   0.040904  -0.014773
     5  H    0.000822   0.000000  -0.000000  -0.001476   0.000330   0.000127
     6  H   -0.000833  -0.000008  -0.000015   0.001385  -0.000076  -0.000144
     7  H    0.001552  -0.000035   0.000004   0.000694  -0.021008  -0.000277
     8  C   -0.003477  -0.000013  -0.000302   0.000836   0.004120  -0.001020
     9  H    0.000418  -0.000000   0.000000  -0.000284  -0.002865   0.000104
    10  H    0.000031  -0.000000  -0.000000  -0.000066   0.000183   0.000013
    11  H   -0.000212   0.000000   0.000000   0.000414   0.000240   0.000012
    12  N    0.012795   0.000560   0.005794   0.041239  -0.029886   0.014471
    13  C   -0.159737   0.017795  -0.006604   0.080319   0.001471   0.013382
    14  H    0.010274  -0.000167  -0.000222   0.003718   0.000028  -0.000126
    15  H   -0.020116  -0.000064   0.000564   0.003091  -0.004223  -0.000255
    16  C   -0.203035  -0.042361  -0.026927  -0.096407  -0.022199   0.004416
    17  H   -0.076380  -0.005979  -0.004134   0.023404  -0.001505  -0.000599
    18  H   -0.013018  -0.002743   0.004206  -0.023702   0.002316  -0.003791
    19  C    7.097451   0.466366   0.482960  -0.938814  -0.088240  -0.167730
    20  H    0.466366   0.494376  -0.031516  -0.094686   0.008509  -0.002476
    21  H    0.482960  -0.031516   0.497168  -0.089585  -0.008760   0.004343
    22  C   -0.938814  -0.094686  -0.089585   6.021729   0.236604   0.504722
    23  O   -0.088240   0.008509  -0.008760   0.236604   8.521798  -0.058733
    24  O   -0.167730  -0.002476   0.004343   0.504722  -0.058733   8.147780
    25  P   -0.017940  -0.000029   0.000221  -0.027086   0.058058   0.031062
    26  O    0.003885   0.000001  -0.000000   0.016906  -0.015257  -0.011840
    27  O    0.012040   0.000071  -0.000032  -0.006704  -0.022417  -0.023635
    28  H    0.008870  -0.000339   0.000178   0.000225   0.013775   0.076745
    29  O   -0.002164   0.000001  -0.000000  -0.007921   0.005778   0.004038
    30  H   -0.000556   0.000000   0.000000  -0.002504   0.000478   0.000617
    31  O   -0.009009   0.000013   0.000189  -0.027083   0.010120  -0.011555
    32  H    0.020360   0.000018  -0.000595   0.011245   0.013804   0.006107
              25         26         27         28         29         30
     1  C   -0.014651   0.011241  -0.030455   0.011038   0.002552  -0.001420
     2  C    0.006002   0.006739   0.029125  -0.016554  -0.001420   0.000748
     3  C   -0.005811  -0.006237   0.003401  -0.002197  -0.000622   0.000000
     4  N    0.000502  -0.010039   0.006203  -0.002303  -0.001676  -0.000031
     5  H    0.000163  -0.011047  -0.000021   0.000004   0.000094  -0.000002
     6  H   -0.000029  -0.000110  -0.000026   0.000036   0.000000   0.000000
     7  H    0.000176   0.000360  -0.000098   0.000044   0.000013  -0.000000
     8  C    0.006385  -0.042862   0.001589  -0.000779   0.000346   0.000287
     9  H   -0.002730  -0.001602   0.000238  -0.000038  -0.000171   0.000027
    10  H    0.000507   0.005165   0.000177  -0.000009   0.000337   0.000047
    11  H    0.002855   0.002371   0.000025  -0.000004  -0.000048  -0.000001
    12  N    0.006122   0.001896  -0.005773   0.002836   0.000316  -0.000035
    13  C    0.001558   0.005466  -0.003444   0.004432  -0.000105  -0.000026
    14  H   -0.000018   0.000013  -0.000000  -0.000000  -0.000000  -0.000000
    15  H    0.000214  -0.000028  -0.000004   0.000001   0.000000   0.000000
    16  C   -0.000665  -0.004003  -0.002221   0.004685  -0.000039   0.000002
    17  H    0.000032  -0.000003  -0.000011   0.000012   0.000000   0.000000
    18  H    0.000546  -0.000016   0.000040   0.000014   0.000002  -0.000000
    19  C   -0.017940   0.003885   0.012040   0.008870  -0.002164  -0.000556
    20  H   -0.000029   0.000001   0.000071  -0.000339   0.000001   0.000000
    21  H    0.000221  -0.000000  -0.000032   0.000178  -0.000000   0.000000
    22  C   -0.027086   0.016906  -0.006704   0.000225  -0.007921  -0.002504
    23  O    0.058058  -0.015257  -0.022417   0.013775   0.005778   0.000478
    24  O    0.031062  -0.011840  -0.023635   0.076745   0.004038   0.000617
    25  P   12.456795   0.486002   0.277088   0.019314   0.196016   0.013352
    26  O    0.486002   8.320293  -0.023362   0.008266  -0.027522  -0.007223
    27  O    0.277088  -0.023362   8.216507   0.190653  -0.003805  -0.003177
    28  H    0.019314   0.008266   0.190653   0.225141  -0.001963  -0.001479
    29  O    0.196016  -0.027522  -0.003805  -0.001963   8.083429   0.237277
    30  H    0.013352  -0.007223  -0.003177  -0.001479   0.237277   0.468498
    31  O    0.303562  -0.044666  -0.005843  -0.010162   0.029851  -0.007644
    32  H   -0.004096  -0.005610   0.005572   0.003610  -0.009894  -0.000133
              31         32
     1  C   -0.022265   0.019054
     2  C    0.034409  -0.025103
     3  C   -0.026132   0.037337
     4  N    0.031175  -0.005857
     5  H   -0.000162  -0.000134
     6  H   -0.000025   0.000036
     7  H   -0.001465   0.000955
     8  C    0.000262   0.007934
     9  H   -0.008091   0.004030
    10  H   -0.002066  -0.000360
    11  H    0.001059  -0.000264
    12  N   -0.013193  -0.002543
    13  C    0.000443  -0.010480
    14  H   -0.000009   0.000019
    15  H   -0.000083   0.000107
    16  C   -0.010038   0.011707
    17  H   -0.000006   0.000002
    18  H    0.000039  -0.000123
    19  C   -0.009009   0.020360
    20  H    0.000013   0.000018
    21  H    0.000189  -0.000595
    22  C   -0.027083   0.011245
    23  O    0.010120   0.013804
    24  O   -0.011555   0.006107
    25  P    0.303562  -0.004096
    26  O   -0.044666  -0.005610
    27  O   -0.005843   0.005572
    28  H   -0.010162   0.003610
    29  O    0.029851  -0.009894
    30  H   -0.007644  -0.000133
    31  O    8.295305   0.172156
    32  H    0.172156   0.295033
 Mulliken charges:
               1
     1  C   -0.255634
     2  C   -0.117731
     3  C   -0.270407
     4  N    0.317227
     5  H    0.198778
     6  H    0.170212
     7  H    0.228690
     8  C   -0.541853
     9  H    0.236358
    10  H    0.222888
    11  H    0.182948
    12  N    0.263714
    13  C   -0.377444
    14  H    0.189268
    15  H    0.191831
    16  C   -0.224113
    17  H    0.167158
    18  H    0.185749
    19  C   -0.518354
    20  H    0.187533
    21  H    0.180336
    22  C    0.601622
    23  O   -0.680026
    24  O   -0.519555
    25  P    1.206525
    26  O   -0.657178
    27  O   -0.611701
    28  H    0.465947
    29  O   -0.502700
    30  H    0.302895
    31  O   -0.679088
    32  H    0.456102
 Sum of Mulliken charges =  -0.00000
 Mulliken charges with hydrogens summed into heavy atoms:
               1
     1  C   -0.056855
     2  C    0.052480
     3  C   -0.041717
     4  N    0.317227
     8  C    0.100342
    12  N    0.263714
    13  C    0.003655
    16  C    0.128795
    19  C   -0.150485
    22  C    0.601622
    23  O   -0.680026
    24  O   -0.519555
    25  P    1.206525
    26  O   -0.657178
    27  O   -0.145754
    29  O   -0.199805
    31  O   -0.222986
         Mulliken charges condensed to fragments:
      1      0.019198
      2     -0.019198
 Electronic spatial extent (au):  <R**2>=         145625.5975
 Charge=              0.0000 electrons
 Dipole moment (field-independent basis, Debye):
    X=             -4.5923    Y=              5.5379    Z=              7.5867  Tot=             10.4554
 Quadrupole moment (field-independent basis, Debye-Ang):
   XX=           -190.8327   YY=              3.9801   ZZ=             44.0716
   XY=              6.1856   XZ=             22.7981   YZ=            123.4835
 Traceless Quadrupole moment (field-independent basis, Debye-Ang):
   XX=           -143.2390   YY=             51.5737   ZZ=             91.6653
   XY=              6.1856   XZ=             22.7981   YZ=            123.4835
 Octapole moment (field-independent basis, Debye-Ang**2):
  XXX=          -4269.7397  YYY=          -1472.5032  ZZZ=           -728.9011  XYY=           -474.3289
  XXY=          -1418.7130  XXZ=          -1259.7297  XZZ=           -105.7201  YZZ=            864.3254
  YYZ=            699.0415  XYZ=            688.3006
 Hexadecapole moment (field-independent basis, Debye-Ang**3):
 XXXX=         -75937.4315 YYYY=         -40087.1338 ZZZZ=         -28668.8381 XXXY=         -37838.7361
 XXXZ=         -36194.8255 YYYX=         -19732.1193 YYYZ=          -7875.8082 ZZZX=         -12446.2454
 ZZZY=          -3416.6172 XXYY=         -20131.9213 XXZZ=         -16438.7412 YYZZ=           2596.3308
 XXYZ=          -8172.0368 YYXZ=           1523.7662 ZZXY=           3220.2348
 N-N= 1.557337329942D+03 E-N=-5.977637201610D+03  KE= 1.211756080050D+03
 No NMR shielding tensors so no spin-rotation constants.
 Leave Link  601 at Mon Feb 20 08:45:25 2023, MaxMem=  6710886400 cpu:               3.8 elap:               0.2
 (Enter /data0/home/software/g16/l122.exe)
 CPIOFr:  IOpCl= 0 IRwI=-1 IRwCP=  731 ICalc= -1 LCPTot=      476096 Len1MO=     1252357 IndFrg=      476096
 CPIOFr:  IOpCl= 0 IRwI=-1 IRwCP=  731 ICalc=  0 LCPTot=      476096 Len1MO=     1252357 IndFrg=     1728453
 Counterpoise: doing calculation for fragment   1 using the basis set of the full-system, NewBq=T
 Leave Link  122 at Mon Feb 20 08:45:25 2023, MaxMem=  6710886400 cpu:               0.4 elap:               0.0
 (Enter /data0/home/software/g16/l301.exe)
 Basis read from rwf:  (5D, 7F)
 No pseudopotential information found on rwf file.
   557 basis functions,   848 primitive gaussians,   591 cartesian basis functions
    45 alpha electrons       45 beta electrons
       nuclear repulsion energy       733.7646209080 Hartrees.
 IExCor= 4336 DFT=T Ex+Corr=M062X ExCW=0 ScaHFX=  0.540000
 ScaDFX=  1.000000  1.000000  1.000000  1.000000 ScalE2=  1.000000  1.000000
 IRadAn=      5 IRanWt=     -1 IRanGd=            0 ICorTp=0 IEmpDi=131
 NAtoms=   32 NActive=   32 NUniq=   32 SFac= 1.00D+00 NAtFMM=   60 NAOKFM=F Big=F
 Integral buffers will be    131072 words long.
 Raffenetti 2 integral format.
 Two-electron integral symmetry is turned off.
 R6Disp:  Grimme-D3 Dispersion energy=       -0.0009903311 Hartrees.
 Nuclear repulsion after empirical dispersion term =      733.7636305769 Hartrees.
 No density basis found on file   718.
 Leave Link  301 at Mon Feb 20 08:45:25 2023, MaxMem=  6710886400 cpu:               1.3 elap:               0.1
 (Enter /data0/home/software/g16/l302.exe)
 NPDir=0 NMtPBC=     1 NCelOv=     1 NCel=       1 NClECP=     1 NCelD=      1
         NCelK=      1 NCelE2=     1 NClLst=     1 CellRange=     0.0.
 One-electron integrals computed using PRISM.
 NBasis=   557 RedAO= T EigKep=  9.15D-06  NBF=   557
 NBsUse=   557 1.00D-06 EigRej= -1.00D+00 NBFU=   557
 Precomputing XC quadrature grid using
 IXCGrd= 4 IRadAn=           5 IRanWt=          -1 IRanGd=           0 AccXCQ= 0.00D+00.
 Generated NRdTot=       0 NPtTot=           0 NUsed=           0 NTot=          32
 NSgBfM=   590   590   590   590   590 MxSgAt=    32 MxSgA2=    32.
 Leave Link  302 at Mon Feb 20 08:45:26 2023, MaxMem=  6710886400 cpu:              13.8 elap:               0.6
 (Enter /data0/home/software/g16/l303.exe)
 DipDrv:  MaxL=1.
 Leave Link  303 at Mon Feb 20 08:45:26 2023, MaxMem=  6710886400 cpu:               1.3 elap:               0.1
 (Enter /data0/home/software/g16/l401.exe)
 ExpMin= 3.48D-02 ExpMax= 7.75D+04 ExpMxC= 2.65D+03 IAcc=3 IRadAn=         5 AccDes= 0.00D+00
 Harris functional with IExCor= 1009 and IRadAn=       5 diagonalized for initial guess.
 HarFok:  IExCor= 1009 AccDes= 0.00D+00 IRadAn=         5 IDoV= 1 UseB2=F ITyADJ=14
 ICtDFT=  3500011 ScaDFX=  1.000000  1.000000  1.000000  1.000000
 FoFCou: FMM=F IPFlag=           0 FMFlag=      100000 FMFlg1=           0
         NFxFlg=           0 DoJE=T BraDBF=F KetDBF=T FulRan=T
         wScrn=  0.000000 ICntrl=       500 IOpCl=  0 I1Cent=   200000004 NGrid=           0
         NMat0=    1 NMatS0=      1 NMatT0=    0 NMatD0=    1 NMtDS0=    0 NMtDT0=    0
 Symmetry not used in FoFCou.
 Harris En= -571.692659945053    
 JPrj=0 DoOrth=F DoCkMO=F.
 Leave Link  401 at Mon Feb 20 08:45:28 2023, MaxMem=  6710886400 cpu:              52.5 elap:               2.2
 (Enter /data0/home/software/g16/l502.exe)
 Two-electron integral symmetry not used.
 Closed shell SCF:
 Using DIIS extrapolation, IDIIS=  1040.
 NGot=  6710886400 LenX=  6710169535 LenY=  6709819663
 Requested convergence on RMS density matrix=1.00D-08 within 128 cycles.
 Requested convergence on MAX density matrix=1.00D-06.
 Requested convergence on             energy=1.00D-06.
 No special actions if energy rises.
 Fock matrices will be formed incrementally for  20 cycles.

 Cycle   1  Pass 1  IDiag  1:
 FoFJK:  IHMeth= 1 ICntrl=       0 DoSepK=F KAlg= 0 I1Cent=           0 FoldK=F
 IRaf= 860000000 NMat=       1 IRICut=       1 DoRegI=T DoRafI=F ISym2E= 0 IDoP0=0 IntGTp=1.
 FoFCou: FMM=F IPFlag=           0 FMFlag=      100000 FMFlg1=           0
         NFxFlg=           0 DoJE=F BraDBF=F KetDBF=F FulRan=T
         wScrn=  0.000000 ICntrl=         0 IOpCl=  0 I1Cent=           0 NGrid=           0
         NMat0=    1 NMatS0=      1 NMatT0=    0 NMatD0=    1 NMtDS0=    0 NMtDT0=    0
 Symmetry not used in FoFCou.
 E= -571.581563944792    
 DIIS: error= 1.76D-02 at cycle   1 NSaved=   1.
 NSaved= 1 IEnMin= 1 EnMin= -571.581563944792     IErMin= 1 ErrMin= 1.76D-02
 ErrMax= 1.76D-02  0.00D+00 EMaxC= 1.00D-01 BMatC= 4.66D-01 BMatP= 4.66D-01
 IDIUse=3 WtCom= 8.24D-01 WtEn= 1.76D-01
 Coeff-Com:  0.100D+01
 Coeff-En:   0.100D+01
 Coeff:      0.100D+01
 Gap=     0.361 Goal=   None    Shift=    0.000
 GapD=    0.361 DampG=1.000 DampE=0.500 DampFc=0.5000 IDamp=-1.
 Damping current iteration by 5.00D-01
 RMSDP=8.28D-03 MaxDP=7.53D-01              OVMax= 3.92D-01

 Cycle   2  Pass 1  IDiag  1:
 RMSU=  4.09D-03    CP:  1.07D+00
 E= -571.695864292187     Delta-E=       -0.114300347395 Rises=F Damp=T
 DIIS: error= 4.38D-03 at cycle   2 NSaved=   2.
 NSaved= 2 IEnMin= 2 EnMin= -571.695864292187     IErMin= 2 ErrMin= 4.38D-03
 ErrMax= 4.38D-03  0.00D+00 EMaxC= 1.00D-01 BMatC= 4.91D-02 BMatP= 4.66D-01
 IDIUse=3 WtCom= 9.56D-01 WtEn= 4.38D-02
 Coeff-Com:  0.549D-01 0.945D+00
 Coeff-En:   0.223D+00 0.777D+00
 Coeff:      0.623D-01 0.938D+00
 Gap=     0.217 Goal=   None    Shift=    0.000
 RMSDP=4.48D-03 MaxDP=7.19D-01 DE=-1.14D-01 OVMax= 2.96D-01

 Cycle   3  Pass 1  IDiag  1:
 RMSU=  2.37D-03    CP:  8.60D-01  1.88D-01
 E= -571.895567734250     Delta-E=       -0.199703442064 Rises=F Damp=F
 DIIS: error= 5.91D-03 at cycle   3 NSaved=   3.
 NSaved= 3 IEnMin= 3 EnMin= -571.895567734250     IErMin= 2 ErrMin= 4.38D-03
 ErrMax= 5.91D-03  0.00D+00 EMaxC= 1.00D-01 BMatC= 3.13D-02 BMatP= 4.91D-02
 IDIUse=3 WtCom= 9.41D-01 WtEn= 5.91D-02
 Coeff-Com: -0.835D-01 0.445D+00 0.639D+00
 Coeff-En:   0.000D+00 0.000D+00 0.100D+01
 Coeff:     -0.786D-01 0.419D+00 0.660D+00
 Gap=     0.227 Goal=   None    Shift=    0.000
 RMSDP=7.62D-04 MaxDP=8.50D-02 DE=-2.00D-01 OVMax= 3.85D-02

 Cycle   4  Pass 1  IDiag  1:
 RMSU=  6.84D-04    CP:  8.77D-01  2.43D-01  1.09D+00
 E= -571.918564451890     Delta-E=       -0.022996717639 Rises=F Damp=F
 DIIS: error= 1.45D-03 at cycle   4 NSaved=   4.
 NSaved= 4 IEnMin= 4 EnMin= -571.918564451890     IErMin= 4 ErrMin= 1.45D-03
 ErrMax= 1.45D-03  0.00D+00 EMaxC= 1.00D-01 BMatC= 2.65D-03 BMatP= 3.13D-02
 IDIUse=3 WtCom= 9.85D-01 WtEn= 1.45D-02
 Coeff-Com: -0.505D-01 0.125D+00 0.271D+00 0.655D+00
 Coeff-En:   0.000D+00 0.000D+00 0.000D+00 0.100D+01
 Coeff:     -0.498D-01 0.123D+00 0.267D+00 0.660D+00
 Gap=     0.211 Goal=   None    Shift=    0.000
 RMSDP=2.51D-04 MaxDP=2.73D-02 DE=-2.30D-02 OVMax= 1.33D-02

 Cycle   5  Pass 1  IDiag  1:
 RMSU=  2.11D-04    CP:  8.82D-01  2.56D-01  1.11D+00  1.14D+00
 E= -571.920902691802     Delta-E=       -0.002338239912 Rises=F Damp=F
 DIIS: error= 5.21D-04 at cycle   5 NSaved=   5.
 NSaved= 5 IEnMin= 5 EnMin= -571.920902691802     IErMin= 5 ErrMin= 5.21D-04
 ErrMax= 5.21D-04  0.00D+00 EMaxC= 1.00D-01 BMatC= 3.85D-04 BMatP= 2.65D-03
 IDIUse=3 WtCom= 9.95D-01 WtEn= 5.21D-03
 Coeff-Com: -0.198D-01 0.335D-01 0.668D-01 0.306D+00 0.613D+00
 Coeff-En:   0.000D+00 0.000D+00 0.000D+00 0.000D+00 0.100D+01
 Coeff:     -0.197D-01 0.333D-01 0.665D-01 0.305D+00 0.615D+00
 Gap=     0.211 Goal=   None    Shift=    0.000
 RMSDP=9.13D-05 MaxDP=9.54D-03 DE=-2.34D-03 OVMax= 7.89D-03

 Cycle   6  Pass 1  IDiag  1:
 RMSU=  7.01D-05    CP:  8.84D-01  2.52D-01  1.12D+00  1.22D+00  1.03D+00
 E= -571.921216204969     Delta-E=       -0.000313513167 Rises=F Damp=F
 DIIS: error= 1.66D-04 at cycle   6 NSaved=   6.
 NSaved= 6 IEnMin= 6 EnMin= -571.921216204969     IErMin= 6 ErrMin= 1.66D-04
 ErrMax= 1.66D-04  0.00D+00 EMaxC= 1.00D-01 BMatC= 5.99D-05 BMatP= 3.85D-04
 IDIUse=3 WtCom= 9.98D-01 WtEn= 1.66D-03
 Coeff-Com: -0.192D-02-0.787D-03-0.118D-01 0.422D-01 0.310D+00 0.662D+00
 Coeff-En:   0.000D+00 0.000D+00 0.000D+00 0.000D+00 0.000D+00 0.100D+01
 Coeff:     -0.192D-02-0.786D-03-0.118D-01 0.422D-01 0.309D+00 0.663D+00
 Gap=     0.211 Goal=   None    Shift=    0.000
 RMSDP=5.90D-05 MaxDP=8.78D-03 DE=-3.14D-04 OVMax= 4.35D-03

 Cycle   7  Pass 1  IDiag  1:
 RMSU=  2.86D-05    CP:  8.86D-01  2.52D-01  1.12D+00  1.27D+00  1.15D+00
                    CP:  1.13D+00
 E= -571.921272183037     Delta-E=       -0.000055978068 Rises=F Damp=F
 DIIS: error= 8.82D-05 at cycle   7 NSaved=   7.
 NSaved= 7 IEnMin= 7 EnMin= -571.921272183037     IErMin= 7 ErrMin= 8.82D-05
 ErrMax= 8.82D-05  0.00D+00 EMaxC= 1.00D-01 BMatC= 8.88D-06 BMatP= 5.99D-05
 IDIUse=1 WtCom= 1.00D+00 WtEn= 0.00D+00
 Coeff-Com:  0.320D-02-0.747D-02-0.185D-01-0.376D-01 0.461D-01 0.327D+00
 Coeff-Com:  0.687D+00
 Coeff:      0.320D-02-0.747D-02-0.185D-01-0.376D-01 0.461D-01 0.327D+00
 Coeff:      0.687D+00
 Gap=     0.211 Goal=   None    Shift=    0.000
 RMSDP=1.84D-05 MaxDP=1.02D-03 DE=-5.60D-05 OVMax= 2.37D-03

 Cycle   8  Pass 1  IDiag  1:
 RMSU=  1.34D-05    CP:  8.86D-01  2.51D-01  1.12D+00  1.27D+00  1.18D+00
                    CP:  1.28D+00  9.84D-01
 E= -571.921283056998     Delta-E=       -0.000010873961 Rises=F Damp=F
 DIIS: error= 1.68D-05 at cycle   8 NSaved=   8.
 NSaved= 8 IEnMin= 8 EnMin= -571.921283056998     IErMin= 8 ErrMin= 1.68D-05
 ErrMax= 1.68D-05  0.00D+00 EMaxC= 1.00D-01 BMatC= 5.11D-07 BMatP= 8.88D-06
 IDIUse=1 WtCom= 1.00D+00 WtEn= 0.00D+00
 Coeff-Com:  0.861D-03-0.152D-02-0.185D-02-0.109D-01-0.992D-02 0.241D-01
 Coeff-Com:  0.194D+00 0.805D+00
 Coeff:      0.861D-03-0.152D-02-0.185D-02-0.109D-01-0.992D-02 0.241D-01
 Coeff:      0.194D+00 0.805D+00
 Gap=     0.211 Goal=   None    Shift=    0.000
 RMSDP=9.50D-06 MaxDP=1.17D-03 DE=-1.09D-05 OVMax= 8.03D-04

 Cycle   9  Pass 1  IDiag  1:
 RMSU=  3.75D-06    CP:  8.86D-01  2.50D-01  1.12D+00  1.27D+00  1.17D+00
                    CP:  1.30D+00  1.07D+00  1.31D+00
 E= -571.921284078939     Delta-E=       -0.000001021940 Rises=F Damp=F
 DIIS: error= 5.78D-06 at cycle   9 NSaved=   9.
 NSaved= 9 IEnMin= 9 EnMin= -571.921284078939     IErMin= 9 ErrMin= 5.78D-06
 ErrMax= 5.78D-06  0.00D+00 EMaxC= 1.00D-01 BMatC= 5.10D-08 BMatP= 5.11D-07
 IDIUse=1 WtCom= 1.00D+00 WtEn= 0.00D+00
 Coeff-Com: -0.535D-04 0.174D-03 0.104D-02 0.465D-03-0.625D-02-0.269D-01
 Coeff-Com: -0.198D-01 0.200D+00 0.851D+00
 Coeff:     -0.535D-04 0.174D-03 0.104D-02 0.465D-03-0.625D-02-0.269D-01
 Coeff:     -0.198D-01 0.200D+00 0.851D+00
 Gap=     0.211 Goal=   None    Shift=    0.000
 RMSDP=3.09D-06 MaxDP=3.62D-04 DE=-1.02D-06 OVMax= 3.61D-04

 Cycle  10  Pass 1  IDiag  1:
 RMSU=  1.40D-06    CP:  8.86D-01  2.50D-01  1.12D+00  1.27D+00  1.17D+00
                    CP:  1.31D+00  1.11D+00  1.43D+00  1.31D+00
 E= -571.921284212741     Delta-E=       -0.000000133802 Rises=F Damp=F
 DIIS: error= 4.14D-06 at cycle  10 NSaved=  10.
 NSaved=10 IEnMin=10 EnMin= -571.921284212741     IErMin=10 ErrMin= 4.14D-06
 ErrMax= 4.14D-06  0.00D+00 EMaxC= 1.00D-01 BMatC= 1.77D-08 BMatP= 5.10D-08
 IDIUse=1 WtCom= 1.00D+00 WtEn= 0.00D+00
 Coeff-Com: -0.153D-03 0.283D-03 0.592D-03 0.166D-02-0.989D-03-0.157D-01
 Coeff-Com: -0.359D-01-0.220D-01 0.398D+00 0.674D+00
 Coeff:     -0.153D-03 0.283D-03 0.592D-03 0.166D-02-0.989D-03-0.157D-01
 Coeff:     -0.359D-01-0.220D-01 0.398D+00 0.674D+00
 Gap=     0.211 Goal=   None    Shift=    0.000
 RMSDP=1.07D-06 MaxDP=9.97D-05 DE=-1.34D-07 OVMax= 1.23D-04

 Cycle  11  Pass 1  IDiag  1:
 RMSU=  4.40D-07    CP:  8.86D-01  2.50D-01  1.12D+00  1.27D+00  1.17D+00
                    CP:  1.32D+00  1.12D+00  1.47D+00  1.43D+00  1.15D+00
 E= -571.921284240814     Delta-E=       -0.000000028073 Rises=F Damp=F
 DIIS: error= 9.70D-07 at cycle  11 NSaved=  11.
 NSaved=11 IEnMin=11 EnMin= -571.921284240814     IErMin=11 ErrMin= 9.70D-07
 ErrMax= 9.70D-07  0.00D+00 EMaxC= 1.00D-01 BMatC= 1.60D-09 BMatP= 1.77D-08
 IDIUse=1 WtCom= 1.00D+00 WtEn= 0.00D+00
 Coeff-Com: -0.433D-04 0.892D-04 0.274D-04 0.322D-03 0.156D-03-0.215D-02
 Coeff-Com: -0.803D-02-0.266D-01 0.112D-01 0.196D+00 0.829D+00
 Coeff:     -0.433D-04 0.892D-04 0.274D-04 0.322D-03 0.156D-03-0.215D-02
 Coeff:     -0.803D-02-0.266D-01 0.112D-01 0.196D+00 0.829D+00
 Gap=     0.211 Goal=   None    Shift=    0.000
 RMSDP=3.85D-07 MaxDP=2.99D-05 DE=-2.81D-08 OVMax= 5.06D-05

 Cycle  12  Pass 1  IDiag  1:
 RMSU=  1.62D-07    CP:  8.86D-01  2.50D-01  1.12D+00  1.27D+00  1.17D+00
                    CP:  1.32D+00  1.13D+00  1.49D+00  1.47D+00  1.28D+00
                    CP:  1.19D+00
 E= -571.921284244507     Delta-E=       -0.000000003693 Rises=F Damp=F
 DIIS: error= 3.32D-07 at cycle  12 NSaved=  12.
 NSaved=12 IEnMin=12 EnMin= -571.921284244507     IErMin=12 ErrMin= 3.32D-07
 ErrMax= 3.32D-07  0.00D+00 EMaxC= 1.00D-01 BMatC= 2.07D-10 BMatP= 1.60D-09
 IDIUse=1 WtCom= 1.00D+00 WtEn= 0.00D+00
 Coeff-Com:  0.146D-04-0.227D-04-0.871D-04-0.196D-03 0.151D-03 0.191D-02
 Coeff-Com:  0.365D-02-0.297D-02-0.577D-01-0.633D-01 0.210D+00 0.908D+00
 Coeff:      0.146D-04-0.227D-04-0.871D-04-0.196D-03 0.151D-03 0.191D-02
 Coeff:      0.365D-02-0.297D-02-0.577D-01-0.633D-01 0.210D+00 0.908D+00
 Gap=     0.211 Goal=   None    Shift=    0.000
 RMSDP=1.85D-07 MaxDP=2.51D-05 DE=-3.69D-09 OVMax= 2.18D-05

 Cycle  13  Pass 1  IDiag  1:
 RMSU=  6.97D-08    CP:  8.86D-01  2.50D-01  1.12D+00  1.27D+00  1.17D+00
                    CP:  1.32D+00  1.13D+00  1.49D+00  1.49D+00  1.33D+00
                    CP:  1.32D+00  1.19D+00
 E= -571.921284245030     Delta-E=       -0.000000000522 Rises=F Damp=F
 DIIS: error= 1.60D-07 at cycle  13 NSaved=  13.
 NSaved=13 IEnMin=13 EnMin= -571.921284245030     IErMin=13 ErrMin= 1.60D-07
 ErrMax= 1.60D-07  0.00D+00 EMaxC= 1.00D-01 BMatC= 4.67D-11 BMatP= 2.07D-10
 IDIUse=1 WtCom= 1.00D+00 WtEn= 0.00D+00
 Coeff-Com:  0.765D-05-0.134D-04-0.178D-04-0.691D-04 0.433D-04 0.843D-03
 Coeff-Com:  0.177D-02 0.599D-03-0.204D-01-0.408D-01-0.797D-02 0.361D+00
 Coeff-Com:  0.705D+00
 Coeff:      0.765D-05-0.134D-04-0.178D-04-0.691D-04 0.433D-04 0.843D-03
 Coeff:      0.177D-02 0.599D-03-0.204D-01-0.408D-01-0.797D-02 0.361D+00
 Coeff:      0.705D+00
 Gap=     0.211 Goal=   None    Shift=    0.000
 RMSDP=3.59D-08 MaxDP=3.17D-06 DE=-5.22D-10 OVMax= 5.26D-06

 Cycle  14  Pass 1  IDiag  1:
 RMSU=  2.09D-08    CP:  8.86D-01  2.50D-01  1.12D+00  1.27D+00  1.17D+00
                    CP:  1.32D+00  1.13D+00  1.49D+00  1.49D+00  1.34D+00
                    CP:  1.32D+00  1.27D+00  1.16D+00
 E= -571.921284245086     Delta-E=       -0.000000000056 Rises=F Damp=F
 DIIS: error= 8.43D-08 at cycle  14 NSaved=  14.
 NSaved=14 IEnMin=14 EnMin= -571.921284245086     IErMin=14 ErrMin= 8.43D-08
 ErrMax= 8.43D-08  0.00D+00 EMaxC= 1.00D-01 BMatC= 1.16D-11 BMatP= 4.67D-11
 IDIUse=1 WtCom= 1.00D+00 WtEn= 0.00D+00
 Coeff-Com:  0.645D-06-0.151D-05 0.109D-04 0.131D-04 0.980D-05 0.960D-04
 Coeff-Com:  0.155D-03 0.421D-03 0.113D-02-0.759D-02-0.437D-01 0.134D-01
 Coeff-Com:  0.359D+00 0.677D+00
 Coeff:      0.645D-06-0.151D-05 0.109D-04 0.131D-04 0.980D-05 0.960D-04
 Coeff:      0.155D-03 0.421D-03 0.113D-02-0.759D-02-0.437D-01 0.134D-01
 Coeff:      0.359D+00 0.677D+00
 Gap=     0.211 Goal=   None    Shift=    0.000
 RMSDP=1.40D-08 MaxDP=8.85D-07 DE=-5.62D-11 OVMax= 2.27D-06

 Cycle  15  Pass 1  IDiag  1:
 RMSU=  9.12D-09    CP:  8.86D-01  2.50D-01  1.12D+00  1.27D+00  1.17D+00
                    CP:  1.32D+00  1.13D+00  1.49D+00  1.49D+00  1.34D+00
                    CP:  1.32D+00  1.31D+00  1.24D+00  1.01D+00
 E= -571.921284245102     Delta-E=       -0.000000000016 Rises=F Damp=F
 DIIS: error= 3.23D-08 at cycle  15 NSaved=  15.
 NSaved=15 IEnMin=15 EnMin= -571.921284245102     IErMin=15 ErrMin= 3.23D-08
 ErrMax= 3.23D-08  0.00D+00 EMaxC= 1.00D-01 BMatC= 1.42D-12 BMatP= 1.16D-11
 IDIUse=1 WtCom= 1.00D+00 WtEn= 0.00D+00
 Coeff-Com: -0.813D-06 0.117D-05 0.616D-05 0.154D-04-0.104D-05-0.761D-04
 Coeff-Com: -0.199D-03 0.151D-04 0.334D-02 0.274D-02-0.170D-01-0.541D-01
 Coeff-Com:  0.398D-01 0.301D+00 0.724D+00
 Coeff:     -0.813D-06 0.117D-05 0.616D-05 0.154D-04-0.104D-05-0.761D-04
 Coeff:     -0.199D-03 0.151D-04 0.334D-02 0.274D-02-0.170D-01-0.541D-01
 Coeff:      0.398D-01 0.301D+00 0.724D+00
 Gap=     0.211 Goal=   None    Shift=    0.000
 RMSDP=6.11D-09 MaxDP=5.73D-07 DE=-1.64D-11 OVMax= 1.04D-06

 SCF Done:  E(RM062X) =  -571.921284245     A.U. after   15 cycles
            NFock= 15  Conv=0.61D-08     -V/T= 2.0050
 KE= 5.691039081642D+02 PE=-2.801858804441D+03 EE= 9.270699814546D+02
 Leave Link  502 at Mon Feb 20 08:47:35 2023, MaxMem=  6710886400 cpu:            3052.7 elap:             127.6
 (Enter /data0/home/software/g16/l601.exe)
 Copying SCF densities to generalized density rwf, IOpCl= 0 IROHF=0.

 **********************************************************************

            Population analysis using the SCF density.

 **********************************************************************

 Alpha  occ. eigenvalues --  -19.49538 -19.49220 -14.87760 -14.87066 -10.68256
 Alpha  occ. eigenvalues --  -10.63218 -10.63066 -10.63008 -10.61742 -10.55846
 Alpha  occ. eigenvalues --  -10.54676 -10.50014  -1.20206  -1.09194  -1.08526
 Alpha  occ. eigenvalues --   -0.98559  -0.93001  -0.89801  -0.85966  -0.80131
 Alpha  occ. eigenvalues --   -0.74948  -0.72555  -0.69317  -0.65524  -0.60440
 Alpha  occ. eigenvalues --   -0.58744  -0.57488  -0.57058  -0.55543  -0.54002
 Alpha  occ. eigenvalues --   -0.53719  -0.50662  -0.50156  -0.47573  -0.47105
[...]
 NBsUse=   161 1.00D-06 EigRej= -1.00D+00 NBFU=   161
 Precomputing XC quadrature grid using
 IXCGrd= 4 IRadAn=           5 IRanWt=          -1 IRanGd=           0 AccXCQ= 0.00D+00.
 Generated NRdTot=       0 NPtTot=           0 NUsed=           0 NTot=          32
 NSgBfM=   171   171   171   171   171 MxSgAt=     8 MxSgA2=     8.
 Leave Link  302 at Mon Feb 20 08:50:16 2023, MaxMem=  6710886400 cpu:               2.9 elap:               0.1
 (Enter /data0/home/software/g16/l303.exe)
 DipDrv:  MaxL=1.
 Leave Link  303 at Mon Feb 20 08:50:16 2023, MaxMem=  6710886400 cpu:               0.5 elap:               0.0
 (Enter /data0/home/software/g16/l401.exe)
 ExpMin= 3.48D-02 ExpMax= 7.75D+04 ExpMxC= 2.65D+03 IAcc=3 IRadAn=         5 AccDes= 0.00D+00
 Harris functional with IExCor= 1009 and IRadAn=       5 diagonalized for initial guess.
 HarFok:  IExCor= 1009 AccDes= 0.00D+00 IRadAn=         5 IDoV= 1 UseB2=F ITyADJ=14
 ICtDFT=  3500011 ScaDFX=  1.000000  1.000000  1.000000  1.000000
 FoFCou: FMM=F IPFlag=           0 FMFlag=      100000 FMFlg1=           0
         NFxFlg=           0 DoJE=T BraDBF=F KetDBF=T FulRan=T
         wScrn=  0.000000 ICntrl=       500 IOpCl=  0 I1Cent=   200000004 NGrid=           0
         NMat0=    1 NMatS0=      1 NMatT0=    0 NMatD0=    1 NMtDS0=    0 NMtDT0=    0
 Symmetry not used in FoFCou.
 Harris En= -643.935981762399    
 JPrj=0 DoOrth=F DoCkMO=F.
 Leave Link  401 at Mon Feb 20 08:50:16 2023, MaxMem=  6710886400 cpu:               5.9 elap:               0.3
 (Enter /data0/home/software/g16/l502.exe)
 Keep R1 ints in memory in canonical form, NReq=108965948.
 FoFCou: FMM=F IPFlag=           0 FMFlag=           0 FMFlg1=           0
         NFxFlg=           0 DoJE=F BraDBF=F KetDBF=F FulRan=T
         wScrn=  0.000000 ICntrl=       600 IOpCl=  0 I1Cent=           0 NGrid=           0
         NMat0=    1 NMatS0=  13041 NMatT0=    0 NMatD0=    1 NMtDS0=    0 NMtDT0=    0
 Symmetry not used in FoFCou.
 Two-electron integral symmetry not used.
 Closed shell SCF:
 Using DIIS extrapolation, IDIIS=  1040.
 NGot=  6710886400 LenX=  6625781434 LenY=  6625751752
 Requested convergence on RMS density matrix=1.00D-08 within 128 cycles.
 Requested convergence on MAX density matrix=1.00D-06.
 Requested convergence on             energy=1.00D-06.
 No special actions if energy rises.

 Cycle   1  Pass 1  IDiag  1:
 E= -643.830325694388    
 DIIS: error= 5.12D-02 at cycle   1 NSaved=   1.
 NSaved= 1 IEnMin= 1 EnMin= -643.830325694388     IErMin= 1 ErrMin= 5.12D-02
 ErrMax= 5.12D-02  0.00D+00 EMaxC= 1.00D-01 BMatC= 5.15D-01 BMatP= 5.15D-01
 IDIUse=3 WtCom= 4.88D-01 WtEn= 5.12D-01
 Coeff-Com:  0.100D+01
 Coeff-En:   0.100D+01
 Coeff:      0.100D+01
 Gap=     0.209 Goal=   None    Shift=    0.000
 GapD=    0.209 DampG=1.000 DampE=0.500 DampFc=0.5000 IDamp=-1.
 Damping current iteration by 5.00D-01
 RMSDP=8.50D-03 MaxDP=2.53D-01              OVMax= 2.88D-01

 Cycle   2  Pass 1  IDiag  1:
 E= -643.946673158421     Delta-E=       -0.116347464033 Rises=F Damp=T
 DIIS: error= 1.07D-02 at cycle   2 NSaved=   2.
 NSaved= 2 IEnMin= 2 EnMin= -643.946673158421     IErMin= 2 ErrMin= 1.07D-02
 ErrMax= 1.07D-02  0.00D+00 EMaxC= 1.00D-01 BMatC= 2.94D-02 BMatP= 5.15D-01
 IDIUse=3 WtCom= 8.93D-01 WtEn= 1.07D-01
 Coeff-Com:  0.845D-01 0.916D+00
 Coeff-En:   0.225D+00 0.775D+00
 Coeff:      0.995D-01 0.901D+00
 Gap=     0.324 Goal=   None    Shift=    0.000
 RMSDP=2.12D-03 MaxDP=8.44D-02 DE=-1.16D-01 OVMax= 1.93D-01

 Cycle   3  Pass 1  IDiag  1:
 E= -644.122854214849     Delta-E=       -0.176181056428 Rises=F Damp=F
 DIIS: error= 7.48D-03 at cycle   3 NSaved=   3.
 NSaved= 3 IEnMin= 3 EnMin= -644.122854214849     IErMin= 3 ErrMin= 7.48D-03
 ErrMax= 7.48D-03  0.00D+00 EMaxC= 1.00D-01 BMatC= 1.13D-02 BMatP= 2.94D-02
 IDIUse=3 WtCom= 9.25D-01 WtEn= 7.48D-02
 Coeff-Com: -0.941D-02 0.345D+00 0.664D+00
 Coeff-En:   0.000D+00 0.000D+00 0.100D+01
 Coeff:     -0.871D-02 0.320D+00 0.689D+00
 Gap=     0.313 Goal=   None    Shift=    0.000
 RMSDP=7.10D-04 MaxDP=1.56D-02 DE=-1.76D-01 OVMax= 3.69D-02

 Cycle   4  Pass 1  IDiag  1:
 E= -644.128066667832     Delta-E=       -0.005212452983 Rises=F Damp=F
 DIIS: error= 4.55D-03 at cycle   4 NSaved=   4.
 NSaved= 4 IEnMin= 4 EnMin= -644.128066667832     IErMin= 4 ErrMin= 4.55D-03
 ErrMax= 4.55D-03  0.00D+00 EMaxC= 1.00D-01 BMatC= 4.20D-03 BMatP= 1.13D-02
 IDIUse=3 WtCom= 9.54D-01 WtEn= 4.55D-02
 Coeff-Com: -0.210D-01 0.470D-01 0.398D+00 0.576D+00
 Coeff-En:   0.000D+00 0.000D+00 0.270D+00 0.730D+00
 Coeff:     -0.200D-01 0.449D-01 0.393D+00 0.583D+00
 Gap=     0.320 Goal=   None    Shift=    0.000
 RMSDP=2.79D-04 MaxDP=6.40D-03 DE=-5.21D-03 OVMax= 1.17D-02

 Cycle   5  Pass 1  IDiag  1:
 E= -644.130848637628     Delta-E=       -0.002781969796 Rises=F Damp=F
 DIIS: error= 2.64D-04 at cycle   5 NSaved=   5.
 NSaved= 5 IEnMin= 5 EnMin= -644.130848637628     IErMin= 5 ErrMin= 2.64D-04
 ErrMax= 2.64D-04  0.00D+00 EMaxC= 1.00D-01 BMatC= 1.82D-05 BMatP= 4.20D-03
 IDIUse=3 WtCom= 9.97D-01 WtEn= 2.64D-03
 Coeff-Com: -0.224D-02-0.747D-03 0.534D-01 0.116D+00 0.833D+00
 Coeff-En:   0.000D+00 0.000D+00 0.000D+00 0.000D+00 0.100D+01
 Coeff:     -0.223D-02-0.745D-03 0.532D-01 0.116D+00 0.834D+00
 Gap=     0.319 Goal=   None    Shift=    0.000
 RMSDP=3.14D-05 MaxDP=6.71D-04 DE=-2.78D-03 OVMax= 8.42D-04

 Cycle   6  Pass 1  IDiag  1:
 E= -644.130860534928     Delta-E=       -0.000011897300 Rises=F Damp=F
 DIIS: error= 8.08D-05 at cycle   6 NSaved=   6.
 NSaved= 6 IEnMin= 6 EnMin= -644.130860534928     IErMin= 6 ErrMin= 8.08D-05
 ErrMax= 8.08D-05  0.00D+00 EMaxC= 1.00D-01 BMatC= 1.79D-06 BMatP= 1.82D-05
 IDIUse=1 WtCom= 1.00D+00 WtEn= 0.00D+00
 Coeff-Com:  0.843D-05-0.182D-02 0.236D-02 0.142D-01 0.259D+00 0.726D+00
 Coeff:      0.843D-05-0.182D-02 0.236D-02 0.142D-01 0.259D+00 0.726D+00
 Gap=     0.320 Goal=   None    Shift=    0.000
 RMSDP=1.15D-05 MaxDP=3.19D-04 DE=-1.19D-05 OVMax= 3.15D-04

 Cycle   7  Pass 1  IDiag  1:
 E= -644.130861677708     Delta-E=       -0.000001142780 Rises=F Damp=F
 DIIS: error= 5.21D-05 at cycle   7 NSaved=   7.
 NSaved= 7 IEnMin= 7 EnMin= -644.130861677708     IErMin= 7 ErrMin= 5.21D-05
 ErrMax= 5.21D-05  0.00D+00 EMaxC= 1.00D-01 BMatC= 4.66D-07 BMatP= 1.79D-06
 IDIUse=1 WtCom= 1.00D+00 WtEn= 0.00D+00
 Coeff-Com:  0.396D-03-0.648D-03-0.905D-02-0.150D-01-0.254D-01 0.340D+00
 Coeff-Com:  0.710D+00
 Coeff:      0.396D-03-0.648D-03-0.905D-02-0.150D-01-0.254D-01 0.340D+00
 Coeff:      0.710D+00
 Gap=     0.320 Goal=   None    Shift=    0.000
 RMSDP=4.94D-06 MaxDP=1.04D-04 DE=-1.14D-06 OVMax= 1.37D-04

 Cycle   8  Pass 1  IDiag  1:
 E= -644.130862003293     Delta-E=       -0.000000325585 Rises=F Damp=F
 DIIS: error= 1.03D-05 at cycle   8 NSaved=   8.
 NSaved= 8 IEnMin= 8 EnMin= -644.130862003293     IErMin= 8 ErrMin= 1.03D-05
 ErrMax= 1.03D-05  0.00D+00 EMaxC= 1.00D-01 BMatC= 2.64D-08 BMatP= 4.66D-07
 IDIUse=1 WtCom= 1.00D+00 WtEn= 0.00D+00
 Coeff-Com:  0.132D-03-0.153D-03-0.353D-02-0.580D-02-0.161D-01 0.933D-01
 Coeff-Com:  0.276D+00 0.656D+00
 Coeff:      0.132D-03-0.153D-03-0.353D-02-0.580D-02-0.161D-01 0.933D-01
 Coeff:      0.276D+00 0.656D+00
 Gap=     0.320 Goal=   None    Shift=    0.000
 RMSDP=8.69D-07 MaxDP=2.66D-05 DE=-3.26D-07 OVMax= 3.40D-05

 Cycle   9  Pass 1  IDiag  1:
 E= -644.130862024510     Delta-E=       -0.000000021217 Rises=F Damp=F
 DIIS: error= 2.09D-06 at cycle   9 NSaved=   9.
 NSaved= 9 IEnMin= 9 EnMin= -644.130862024510     IErMin= 9 ErrMin= 2.09D-06
 ErrMax= 2.09D-06  0.00D+00 EMaxC= 1.00D-01 BMatC= 1.16D-09 BMatP= 2.64D-08
 IDIUse=1 WtCom= 1.00D+00 WtEn= 0.00D+00
 Coeff-Com: -0.296D-04 0.586D-04 0.276D-03 0.623D-03-0.904D-03-0.211D-01
 Coeff-Com: -0.294D-01 0.988D-01 0.952D+00
 Coeff:     -0.296D-04 0.586D-04 0.276D-03 0.623D-03-0.904D-03-0.211D-01
 Coeff:     -0.294D-01 0.988D-01 0.952D+00
 Gap=     0.320 Goal=   None    Shift=    0.000
 RMSDP=4.10D-07 MaxDP=1.11D-05 DE=-2.12D-08 OVMax= 1.46D-05

 Cycle  10  Pass 1  IDiag  1:
 E= -644.130862025955     Delta-E=       -0.000000001445 Rises=F Damp=F
 DIIS: error= 3.55D-07 at cycle  10 NSaved=  10.
 NSaved=10 IEnMin=10 EnMin= -644.130862025955     IErMin=10 ErrMin= 3.55D-07
 ErrMax= 3.55D-07  0.00D+00 EMaxC= 1.00D-01 BMatC= 2.43D-11 BMatP= 1.16D-09
 IDIUse=1 WtCom= 1.00D+00 WtEn= 0.00D+00
 Coeff-Com: -0.310D-05 0.495D-05 0.110D-03 0.182D-03 0.525D-03-0.408D-02
 Coeff-Com: -0.119D-01-0.195D-01 0.233D-01 0.101D+01
 Coeff:     -0.310D-05 0.495D-05 0.110D-03 0.182D-03 0.525D-03-0.408D-02
 Coeff:     -0.119D-01-0.195D-01 0.233D-01 0.101D+01
 Gap=     0.320 Goal=   None    Shift=    0.000
 RMSDP=8.28D-08 MaxDP=1.59D-06 DE=-1.45D-09 OVMax= 3.92D-06

 Cycle  11  Pass 1  IDiag  1:
 E= -644.130862025996     Delta-E=       -0.000000000040 Rises=F Damp=F
 DIIS: error= 2.30D-07 at cycle  11 NSaved=  11.
 NSaved=11 IEnMin=11 EnMin= -644.130862025996     IErMin=11 ErrMin= 2.30D-07
 ErrMax= 2.30D-07  0.00D+00 EMaxC= 1.00D-01 BMatC= 1.18D-11 BMatP= 2.43D-11
 IDIUse=1 WtCom= 1.00D+00 WtEn= 0.00D+00
 Coeff-Com:  0.556D-06-0.152D-05 0.346D-04 0.470D-04 0.297D-03-0.679D-03
 Coeff-Com: -0.370D-02-0.144D-01-0.482D-01 0.482D+00 0.585D+00
 Coeff:      0.556D-06-0.152D-05 0.346D-04 0.470D-04 0.297D-03-0.679D-03
 Coeff:     -0.370D-02-0.144D-01-0.482D-01 0.482D+00 0.585D+00
 Gap=     0.320 Goal=   None    Shift=    0.000
 RMSDP=2.03D-08 MaxDP=5.20D-07 DE=-4.02D-11 OVMax= 7.80D-07

 Cycle  12  Pass 1  IDiag  1:
 E= -644.130862026005     Delta-E=       -0.000000000010 Rises=F Damp=F
 DIIS: error= 6.41D-08 at cycle  12 NSaved=  12.
 NSaved=12 IEnMin=12 EnMin= -644.130862026005     IErMin=12 ErrMin= 6.41D-08
 ErrMax= 6.41D-08  0.00D+00 EMaxC= 1.00D-01 BMatC= 1.01D-12 BMatP= 1.18D-11
 IDIUse=1 WtCom= 1.00D+00 WtEn= 0.00D+00
 Coeff-Com:  0.736D-06-0.141D-05-0.582D-05-0.129D-04 0.114D-04 0.445D-03
 Coeff-Com:  0.886D-03-0.119D-02-0.215D-01-0.850D-02 0.218D+00 0.812D+00
 Coeff:      0.736D-06-0.141D-05-0.582D-05-0.129D-04 0.114D-04 0.445D-03
 Coeff:      0.886D-03-0.119D-02-0.215D-01-0.850D-02 0.218D+00 0.812D+00
 Gap=     0.320 Goal=   None    Shift=    0.000
 RMSDP=9.19D-09 MaxDP=1.84D-07 DE=-9.55D-12 OVMax= 3.87D-07

 SCF Done:  E(RM062X) =  -644.130862026     A.U. after   12 cycles
            NFock= 12  Conv=0.92D-08     -V/T= 2.0026
 KE= 6.424884523753D+02 PE=-2.087446221235D+03 EE= 5.209110037743D+02
 Leave Link  502 at Mon Feb 20 08:50:21 2023, MaxMem=  6710886400 cpu:              99.5 elap:               5.4
 (Enter /data0/home/software/g16/l601.exe)
 Copying SCF densities to generalized density rwf, IOpCl= 0 IROHF=0.

 **********************************************************************

            Population analysis using the SCF density.

 **********************************************************************

 Alpha  occ. eigenvalues --  -78.16746 -19.70099 -19.69392 -19.67894 -19.57525
 Alpha  occ. eigenvalues --   -6.97546  -5.09465  -5.09459  -5.09186  -1.24754
 Alpha  occ. eigenvalues --   -1.17671  -1.16698  -1.07757  -0.72744  -0.66129
 Alpha  occ. eigenvalues --   -0.63599  -0.59145  -0.53881  -0.51738  -0.49689
 Alpha  occ. eigenvalues --   -0.46315  -0.45757  -0.44717  -0.37326  -0.36412
 Alpha virt. eigenvalues --   -0.04452   0.00841   0.02799   0.04671   0.07883
 Alpha virt. eigenvalues --    0.08488   0.10703   0.12526   0.15687   0.17103
 Alpha virt. eigenvalues --    0.17490   0.18753   0.19367   0.19795   0.21648
 Alpha virt. eigenvalues --    0.22491   0.24713   0.25750   0.25822   0.27213
 Alpha virt. eigenvalues --    0.28527   0.29056   0.30486   0.32289   0.32595
 Alpha virt. eigenvalues --    0.34010   0.36440   0.37965   0.39876   0.43251
 Alpha virt. eigenvalues --    0.43943   0.44904   0.52552   0.55465   0.57841
 Alpha virt. eigenvalues --    0.73384   0.75935   0.76492   0.86050   0.98148
 Alpha virt. eigenvalues --    0.99652   1.00404   1.04169   1.06230   1.11308
 Alpha virt. eigenvalues --    1.14042   1.15402   1.18549   1.18687   1.20584
 Alpha virt. eigenvalues --    1.22227   1.23571   1.26673   1.27114   1.32138
 Alpha virt. eigenvalues --    1.32911   1.42149   1.43009   1.49007   1.50489
 Alpha virt. eigenvalues --    1.52716   1.54928   1.58066   1.58924   1.63810
 Alpha virt. eigenvalues --    1.67274   1.68865   1.70494   1.72163   1.82279
 Alpha virt. eigenvalues --    1.82661   1.85072   1.87223   1.88371   1.97241
 Alpha virt. eigenvalues --    1.98144   2.04045   2.09147   2.12005   2.14709
 Alpha virt. eigenvalues --    2.18583   2.21365   2.25573   2.36870   2.42111
 Alpha virt. eigenvalues --    2.43223   2.57725   2.61461   2.61949   2.69944
 Alpha virt. eigenvalues --    2.72794   2.81498   2.86762   2.88987   2.93907
 Alpha virt. eigenvalues --    5.01154   5.02471   5.06271   5.06615   5.10840
 Alpha virt. eigenvalues --    5.13867   5.17186   5.23512   5.34870   5.41654
 Alpha virt. eigenvalues --    5.44135   5.51788   6.71830   6.73849   6.74217
 Alpha virt. eigenvalues --    6.76021   6.79375   6.80880   6.84022   6.85341
 Alpha virt. eigenvalues --    6.91041   6.91683   6.94551   6.97770   7.00491
 Alpha virt. eigenvalues --    7.02496   7.10445   7.24779   7.26165   7.27935
 Alpha virt. eigenvalues --    7.31351   7.40689   7.64093  14.23709  14.24456
 Alpha virt. eigenvalues --   14.33525  49.96687  49.98891  50.00548  50.11178
 Alpha virt. eigenvalues --  163.85806
          Condensed to atoms (all electrons):
              25         26         27         28         29         30
    25  P   12.492987   0.567506   0.226023  -0.000344   0.153229   0.045644
    26  O    0.567506   8.121439  -0.004985  -0.012674  -0.039572   0.003513
    27  O    0.226023  -0.004985   8.056704   0.252561   0.004622  -0.014993
    28  H   -0.000344  -0.012674   0.252561   0.454695  -0.001176   0.001817
    29  O    0.153229  -0.039572   0.004622  -0.001176   8.149657   0.218300
    30  H    0.045644   0.003513  -0.014993   0.001817   0.218300   0.458418
    31  O    0.228377  -0.007966   0.034270  -0.005487   0.006608  -0.014942
    32  H    0.002562  -0.012802  -0.006320  -0.003169  -0.001543   0.002112
              31         32
    25  P    0.228377   0.002562
    26  O   -0.007966  -0.012802
    27  O    0.034270  -0.006320
    28  H   -0.005487  -0.003169
    29  O    0.006608  -0.001543
    30  H   -0.014942   0.002112
    31  O    8.057094   0.251929
    32  H    0.251929   0.462807
 Mulliken charges:
               1
     1  C    0.000000
     2  C    0.000000
     3  C    0.000000
     4  N    0.000000
     5  H    0.000000
     6  H    0.000000
     7  H    0.000000
     8  C    0.000000
     9  H    0.000000
    10  H    0.000000
    11  H    0.000000
    12  N    0.000000
    13  C    0.000000
    14  H    0.000000
    15  H    0.000000
    16  C    0.000000
    17  H    0.000000
    18  H    0.000000
    19  C    0.000000
    20  H    0.000000
    21  H    0.000000
    22  C    0.000000
    23  O    0.000000
    24  O    0.000000
    25  P    1.284016
    26  O   -0.614459
    27  O   -0.547881
    28  H    0.313776
    29  O   -0.490125
    30  H    0.300132
    31  O   -0.549883
    32  H    0.304424
 Sum of Mulliken charges =  -0.00000
 Mulliken charges with hydrogens summed into heavy atoms:
               1
     1  C    0.000000
     2  C    0.000000
     3  C    0.000000
     4  N    0.000000
     8  C    0.000000
    12  N    0.000000
    13  C    0.000000
    16  C    0.000000
    19  C    0.000000
    22  C    0.000000
    23  O    0.000000
    24  O    0.000000
    25  P    1.284016
    26  O   -0.614459
    27  O   -0.234105
    29  O   -0.189994
    31  O   -0.245459
         Mulliken charges condensed to fragments:
      1      0.000000
      2     -0.000000
 Electronic spatial extent (au):  <R**2>=          44396.9796
 Charge=             -0.0000 electrons
 Dipole moment (field-independent basis, Debye):
    X=              5.1216    Y=             -0.5580    Z=              3.3150  Tot=              6.1263
 Quadrupole moment (field-independent basis, Debye-Ang):
   XX=             67.5835   YY=            -48.1936   ZZ=             20.4808
   XY=             42.2445   XZ=             71.3208   YZ=             26.6677
 Traceless Quadrupole moment (field-independent basis, Debye-Ang):
   XX=             54.2932   YY=            -61.4838   ZZ=              7.1905
   XY=             42.2445   XZ=             71.3208   YZ=             26.6677
 Octapole moment (field-independent basis, Debye-Ang**2):
  XXX=            457.6308  YYY=          -1205.3832  ZZZ=            -43.7191  XYY=            -52.9377
  XXY=            574.2035  XXZ=            843.5846  XZZ=            489.0330  YZZ=            157.0275
  YYZ=            -54.3622  XYZ=            623.5453
 Hexadecapole moment (field-independent basis, Debye-Ang**3):
 XXXX=          -1945.5242 YYYY=         -21788.4508 ZZZZ=          -2818.7985 XXXY=           3682.9608
 XXXZ=           6975.9338 YYYX=          -8376.0169 YYYZ=          -5810.2061 ZZZX=           1690.7486
 ZZZY=           -689.0614 XXYY=            639.2019 XXZZ=           5885.6613 YYZZ=           -727.9850
 XXYZ=           7451.0772 YYXZ=           2673.8650 ZZXY=           4230.5166
 N-N= 2.799159030591D+02 E-N=-2.087446225777D+03  KE= 6.424884523753D+02
 No NMR shielding tensors so no spin-rotation constants.
 Leave Link  601 at Mon Feb 20 08:50:21 2023, MaxMem=  6710886400 cpu:               2.0 elap:               0.1
 (Enter /data0/home/software/g16/l122.exe)
 CPIOFr:  IOpCl= 0 IRwI=-1 IRwCP=  731 ICalc=  4 LCPTot=      476096 Len1MO=     1252357 IndFrg=     6737881
 Restoring MOs from calculation   1 to rwf.
 CPIOFr:  IOpCl= 0 IRwI=-2 IRwCP=  731 ICalc=  0 LCPTot=      476096 Len1MO=     1252357 IndFrg=     1728453
 Counterpoise corrected energy =   -1216.158195732039
                   BSSE energy =       0.003002794704
              sum of fragments =   -1216.051212108908
           complexation energy =     -69.02 kcal/mole (raw)
           complexation energy =     -67.13 kcal/mole (corrected)
 Leave Link  122 at Mon Feb 20 08:50:21 2023, MaxMem=  6710886400 cpu:               0.4 elap:               0.0
 (Enter /data0/home/software/g16/l9999.exe)
 1\1\GINC-LOCALHOST\SP\RM062X\6-311+G(2d,p)\C8H15N2O6P1\WUHANYU\20-Feb-
 2023\0\\#p M062X/6-311+G(2d,p) nosymm em=GD3 counterpoise=2\\Title Car
 d Required\\0,1\C,0,7.412586,10.236837,9.458117\C,0,7.587109,9.731091,
 10.743511\C,0,8.845724,11.585301,10.54813\N,0,8.188275,11.388639,9.364
 593\H,0,6.82973,9.845525,8.635859\H,0,7.173088,8.84001,11.195885\H,0,9
 .560341,12.382714,10.762421\C,0,8.312341,12.249198,8.202663\H,0,9.3833
 05,12.455415,7.973076\H,0,7.895994,11.755416,7.29639\H,0,7.787208,13.2
 06046,8.362616\N,0,8.469876,10.583249,11.404221\C,0,8.943651,10.432451
 ,12.780915\H,0,8.056659,10.440888,13.458326\H,0,9.572141,11.319895,13.
 054124\C,0,9.750413,9.139725,12.983117\H,0,9.777934,8.906695,14.067683
 \H,0,9.230129,8.272127,12.516986\C,0,11.176253,9.235686,12.447731\H,0,
 11.77066,8.360078,12.780059\H,0,11.696188,10.131166,12.837786\C,0,11.1
 55251,9.25409,10.922502\O,0,11.260607,10.377079,10.363444\O,0,11.00817
 9,8.17735,10.324257\P,0,10.338659,9.340932,7.101706\O,0,8.874535,9.452
 103,7.212651\O,0,10.990602,8.019934,7.660698\H,0,11.025402,8.077787,8.
 738108\O,0,10.743814,9.352399,5.560659\H,0,11.774316,9.284946,5.516526
 \O,0,11.121618,10.584385,7.696369\H,0,11.219787,10.468202,8.754817\\Ve
 rsion=ES64L-G16RevA.03\HF=-644.130862\RMSD=9.188e-09\Dipole=-1.8122318
 ,2.1807491,3.0182239\Quadrupole=-107.0243788,38.0608881,68.9634907,4.5
 176135,17.5292658,92.421438\PG=C01 [X(C8H15N2O6P1)]\\@


 The number of Unix installations has grown to 10,
  with more expected.
                  -- The Unix Programmer's Manual,
                     2nd Edition, June, 1972.
 Job cpu time:       0 days  2 hours 47 minutes 17.7 seconds.
 Elapsed time:       0 days  0 hours  7 minutes  1.5 seconds.
 File lengths (MBytes):  RWF=    234 Int=      0 D2E=      0 Chk=     70 Scr=      1
 Normal termination of Gaussian 16 at Mon Feb 20 08:50:22 2023.
