 Entering Gaussian System, Link 0=g16
 Initial command:
 /data0/hywu0/study/g16/l1.exe "/data0/hywu0/study/g16/scratch/Gau-1332739.inp" -scrdir="/data0/hywu0/study/g16/scratch/"
 Default is to use a total of  16 processors:
                               16 via shared-memory
                                1 via Linda
 Entering Link 1 = /data0/hywu0/study/g16/l1.exe PID=   1332740.
  
 Copyright (c) 1988,1990,1992,1993,1995,1998,2003,2009,2016,
            Gaussian, Inc.  All Rights Reserved.
  
 This is part of the Gaussian(R) 16 program.  It is based on
 the Gaussian(R) 09 system (copyright 2009, Gaussian, Inc.),
 the Gaussian(R) 03 system (copyright 2003, Gaussian, Inc.),
 the Gaussian(R) 98 system (copyright 1998, Gaussian, Inc.),
 the Gaussian(R) 94 system (copyright 1995, Gaussian, Inc.),
 the Gaussian 92(TM) system (copyright 1992, Gaussian, Inc.),
 the Gaussian 90(TM) system (copyright 1990, Gaussian, Inc.),
 the Gaussian 88(TM) system (copyright 1988, Gaussian, Inc.),
 the Gaussian 86(TM) system (copyright 1986, Carnegie Mellon
 University), and the Gaussian 82(TM) system (copyright 1983,
 Carnegie Mellon University). Gaussian is a federally registered
 trademark of Gaussian, Inc.
  
 This software contains proprietary and confidential information,
 including trade secrets, belonging to Gaussian, Inc.
  
 This software is provided under written license and may be
 used, copied, transmitted, or stored only in accord with that
 written license.
  
 The following legend is applicable only to US Government
 contracts under FAR:
  
                    RESTRICTED RIGHTS LEGEND
  
 Use, reproduction and disclosure by the US Government is
 subject to restrictions as set forth in subparagraphs (a)
 and (c) of the Commercial Computer Software - Restricted
 Rights clause in FAR 52.227-19.
  
 Gaussian, Inc.
 340 Quinnipiac St., Bldg. 40, Wallingford CT 06492
  
  
 ---------------------------------------------------------------
 Warning -- This program may not be used in any manner that
 competes with the business of Gaussian, Inc. or will provide
 assistance to any competitor of Gaussian, Inc.  The licensee
 of this program is prohibited from giving any competitor of
 Gaussian, Inc. access to this program.  By using this program,
 the user acknowledges that Gaussian, Inc. is engaged in the
 business of creating and licensing software in the field of
 computational chemistry and represents and warrants to the
 licensee that it is not a competitor of Gaussian, Inc. and that
 it will not use this program in any manner prohibited above.
 ---------------------------------------------------------------
  

 Cite this work as:
 Gaussian 16, Revision A.03,
 M. J. Frisch, G. W. Trucks, H. B. Schlegel, G. E. Scuseria, 
 M. A. Robb, J. R. Cheeseman, G. Scalmani, V. Barone, 
 G. A. Petersson, H. Nakatsuji, X. Li, M. Caricato, A. V. Marenich, 
 J. Bloino, B. G. Janesko, R. Gomperts, B. Mennucci, H. P. Hratchian, 
 J. V. Ortiz, A. F. Izmaylov, J. L. Sonnenberg, D. Williams-Young, 
 F. Ding, F. Lipparini, F. Egidi, J. Goings, B. Peng, A. Petrone, 
 T. Henderson, D. Ranasinghe, V. G. Zakrzewski, J. Gao, N. Rega, 
 G. Zheng, W. Liang, M. Hada, M. Ehara, K. Toyota, R. Fukuda, 
 J. Hasegawa, M. Ishida, T. Nakajima, Y. Honda, O. Kitao, H. Nakai, 
 T. Vreven, K. Throssell, J. A. Montgomery, Jr., J. E. Peralta, 
 F. Ogliaro, M. J. Bearpark, J. J. Heyd, E. N. Brothers, K. N. Kudin, 
 V. N. Staroverov, T. A. Keith, R. Kobayashi, J. Normand, 
 K. Raghavachari, A. P. Rendell, J. C. Burant, S. S. Iyengar, 
 J. Tomasi, M. Cossi, J. M. Millam, M. Klene, C. Adamo, R. Cammi, 
 J. W. Ochterski, R. L. Martin, K. Morokuma, O. Farkas, 
 J. B. Foresman, and D. J. Fox, Gaussian, Inc., Wallingford CT, 2016.
 
 ******************************************
 Gaussian 16:  ES64L-G16RevA.03 25-Dec-2016
                12-May-2022 
 ******************************************
 %nproc=16
 Will use up to   16 processors via shared memory.
 %mem=80000MB
 ---------------------------------------------------
 #p M062X/6-311+G(2d,p) nosymm em=GD3 counterpoise=3
 ---------------------------------------------------
 1/38=1,62=3,172=1/1;
 2/12=2,15=1,17=6,18=5,40=1/2;
 1/38=1,53=2,62=3,63=1/22;
 3/5=4,6=6,7=112,11=2,25=1,30=1,74=-55,124=31/1,2,3;
 4//1;
 5/5=2,38=5/2;
 6/7=2,8=2,9=2,10=2,28=1/1;
 1/53=2,62=3,63=1/22;
 3/5=7,6=11,7=112,11=2,25=1,30=1,74=-55,82=7,124=31/1,2,3;
 4//1;
 5/5=2,38=5/2;
 6/7=2,8=2,9=2,10=2,28=1/1;
 1/53=2,62=3,63=1/22(-4);
 99/5=1,9=1/99;
 Leave Link    1 at Thu May 12 13:04:38 2022, MaxMem= 10485760000 cpu:               0.5 elap:               0.0
 (Enter /data0/hywu0/study/g16/l101.exe)
 -------------------
 Title Card Required
 -------------------
 Symbolic Z-matrix:
 Charge =  0 Multiplicity = 1 in supermolecule
 Charge =  0 Multiplicity = 1 in fragment      1.
 Charge =  0 Multiplicity = 1 in fragment      2.
 Charge =  0 Multiplicity = 1 in fragment      3.
 C                     12.77238   10.61012   9.47119    
 C                     12.86615   9.99694   10.714     
 C                     11.09586   9.1138    9.63397    
 N                     11.68448   10.03672   8.81283    
 H                     13.34586   11.4199   9.04886    
 H                     13.55405   10.17579   11.51705    
 H                     10.18415   8.54904   9.41438    
 C                     11.16828   10.44717   7.51943    
 H                     11.26318   9.63956   6.77609    
 H                     10.09145   10.73791   7.60082    
 H                     11.69328   11.35344   7.15413    
 N                     11.82195   9.0702    10.79812    
 C                     11.44238   8.32588   12.00153    
 H                     12.26283   7.61173   12.24324    
 H                     10.52655   7.72035   11.77787    
 C                     11.17438   9.2536    13.20917    
 H                     11.44516   8.70547   14.13528    
 H                     11.85974   10.13169   13.17798    
 C                     9.73052   9.73291   13.31521    
 H                     9.59813   10.35937   14.21586    
 H                     9.03194   8.88697   13.43381    
 S                     9.24519   10.68887   11.85762    
 O                     7.98474   11.38343   12.14416    
 O                     10.41655   11.53687   11.55828    
 O                     9.07873   9.60807   10.81693    
 P                     7.07019   11.46718   8.61171    
 O                     8.22561   12.25684   8.18771    
 O                     6.27483   11.93495   9.90155    
 H                     6.86998   11.80768   10.75733    
 O                     5.93327   11.51211   7.49228    
 H                     5.12859   10.97532   7.84645    
 O                     7.32919   9.90695   8.76125    
 H                     7.97315   9.73237   9.58141    
 O                     11.15794   12.72823   9.15334    
 H                     10.98929   12.41316   10.06758    
 H                     10.27007   12.84943   8.81159    
 
 ITRead=  0  0  0  0  0  0  0  0  0  0  0  0  0  0  0  0  0  0  0  0
 ITRead=  0  0  0  0  0  0  0  0  0  0  0  0  0  0  0  0
 MicOpt= -1 -1 -1 -1 -1 -1 -1 -1 -1 -1 -1 -1 -1 -1 -1 -1 -1 -1 -1 -1
 MicOpt= -1 -1 -1 -1 -1 -1 -1 -1 -1 -1 -1 -1 -1 -1 -1 -1
 NAtoms=     36 NQM=       36 NQMF=       0 NMMI=      0 NMMIF=      0
                NMic=       0 NMicF=      0.
                    Isotopes and Nuclear Properties:
 (Nuclear quadrupole moments (NQMom) in fm**2, nuclear magnetic moments (NMagM)
  in nuclear magnetons)

  Atom         1           2           3           4           5           6           7           8           9          10
 IAtWgt=          12          12          12          14           1           1           1          12           1           1
 AtmWgt=  12.0000000  12.0000000  12.0000000  14.0030740   1.0078250   1.0078250   1.0078250  12.0000000   1.0078250   1.0078250
 NucSpn=           0           0           0           2           1           1           1           0           1           1
 AtZEff=  -0.0000000  -0.0000000  -0.0000000  -0.0000000  -0.0000000  -0.0000000  -0.0000000  -0.0000000  -0.0000000  -0.0000000
 NQMom=    0.0000000   0.0000000   0.0000000   2.0440000   0.0000000   0.0000000   0.0000000   0.0000000   0.0000000   0.0000000
 NMagM=    0.0000000   0.0000000   0.0000000   0.4037610   2.7928460   2.7928460   2.7928460   0.0000000   2.7928460   2.7928460
 AtZNuc=   6.0000000   6.0000000   6.0000000   7.0000000   1.0000000   1.0000000   1.0000000   6.0000000   1.0000000   1.0000000

  Atom        11          12          13          14          15          16          17          18          19          20
 IAtWgt=           1          14          12           1           1          12           1           1          12           1
 AtmWgt=   1.0078250  14.0030740  12.0000000   1.0078250   1.0078250  12.0000000   1.0078250   1.0078250  12.0000000   1.0078250
 NucSpn=           1           2           0           1           1           0           1           1           0           1
 AtZEff=  -0.0000000  -0.0000000  -0.0000000  -0.0000000  -0.0000000  -0.0000000  -0.0000000  -0.0000000  -0.0000000  -0.0000000
 NQMom=    0.0000000   2.0440000   0.0000000   0.0000000   0.0000000   0.0000000   0.0000000   0.0000000   0.0000000   0.0000000
 NMagM=    2.7928460   0.4037610   0.0000000   2.7928460   2.7928460   0.0000000   2.7928460   2.7928460   0.0000000   2.7928460
 AtZNuc=   1.0000000   7.0000000   6.0000000   1.0000000   1.0000000   6.0000000   1.0000000   1.0000000   6.0000000   1.0000000

  Atom        21          22          23          24          25          26          27          28          29          30
 IAtWgt=           1          32          16          16          16          31          16          16           1          16
 AtmWgt=   1.0078250  31.9720718  15.9949146  15.9949146  15.9949146  30.9737634  15.9949146  15.9949146   1.0078250  15.9949146
 NucSpn=           1           0           0           0           0           1           0           0           1           0
 AtZEff=  -0.0000000  -0.0000000  -0.0000000  -0.0000000  -0.0000000  -0.0000000  -0.0000000  -0.0000000  -0.0000000  -0.0000000
 NQMom=    0.0000000   0.0000000   0.0000000   0.0000000   0.0000000   0.0000000   0.0000000   0.0000000   0.0000000   0.0000000
 NMagM=    2.7928460   0.0000000   0.0000000   0.0000000   0.0000000   1.1316000   0.0000000   0.0000000   2.7928460   0.0000000
 AtZNuc=   1.0000000  16.0000000   8.0000000   8.0000000   8.0000000  15.0000000   8.0000000   8.0000000   1.0000000   8.0000000

  Atom        31          32          33          34          35          36
 IAtWgt=           1          16           1          16           1           1
 AtmWgt=   1.0078250  15.9949146   1.0078250  15.9949146   1.0078250   1.0078250
 NucSpn=           1           0           1           0           1           1
 AtZEff=  -0.0000000  -0.0000000  -0.0000000  -0.0000000  -0.0000000  -0.0000000
 NQMom=    0.0000000   0.0000000   0.0000000   0.0000000   0.0000000   0.0000000
 NMagM=    2.7928460   0.0000000   2.7928460   0.0000000   2.7928460   2.7928460
 AtZNuc=   1.0000000   8.0000000   1.0000000   8.0000000   1.0000000   1.0000000
 Leave Link  101 at Thu May 12 13:04:38 2022, MaxMem= 10485760000 cpu:               1.5 elap:               0.1
 (Enter /data0/hywu0/study/g16/l202.exe)
                          Input orientation:                          
 ---------------------------------------------------------------------
 Center     Atomic      Atomic             Coordinates (Angstroms)
 Number     Number       Type             X           Y           Z
 ---------------------------------------------------------------------
      1          6           0       12.772379   10.610123    9.471187
      2          6           0       12.866145    9.996941   10.713998
      3          6           0       11.095861    9.113804    9.633972
      4          7           0       11.684480   10.036722    8.812830
      5          1           0       13.345858   11.419902    9.048859
      6          1           0       13.554045   10.175787   11.517046
      7          1           0       10.184146    8.549041    9.414385
      8          6           0       11.168283   10.447171    7.519432
      9          1           0       11.263179    9.639560    6.776093
     10          1           0       10.091450   10.737906    7.600823
     11          1           0       11.693285   11.353442    7.154126
     12          7           0       11.821951    9.070203   10.798123
     13          6           0       11.442380    8.325877   12.001531
     14          1           0       12.262829    7.611731   12.243242
     15          1           0       10.526547    7.720353   11.777872
     16          6           0       11.174381    9.253599   13.209170
     17          1           0       11.445160    8.705472   14.135275
     18          1           0       11.859738   10.131687   13.177979
     19          6           0        9.730524    9.732906   13.315213
     20          1           0        9.598127   10.359368   14.215863
     21          1           0        9.031937    8.886970   13.433811
     22         16           0        9.245190   10.688869   11.857622
     23          8           0        7.984744   11.383432   12.144156
     24          8           0       10.416551   11.536874   11.558279
     25          8           0        9.078726    9.608071   10.816926
     26         15           0        7.070194   11.467178    8.611713
     27          8           0        8.225611   12.256842    8.187707
     28          8           0        6.274831   11.934951    9.901550
     29          1           0        6.869978   11.807684   10.757333
     30          8           0        5.933272   11.512106    7.492281
     31          1           0        5.128595   10.975316    7.846451
     32          8           0        7.329187    9.906952    8.761248
     33          1           0        7.973149    9.732366    9.581413
     34          8           0       11.157941   12.728227    9.153339
     35          1           0       10.989292   12.413159   10.067576
     36          1           0       10.270068   12.849430    8.811593
 ---------------------------------------------------------------------
                    Distance matrix (angstroms):
                    1          2          3          4          5
     1  C    0.000000
     2  C    1.389015   0.000000
     3  C    2.253038   2.253950   0.000000
     4  N    1.394900   2.238829   1.368402   0.000000
     5  H    1.078416   2.242238   3.274589   2.174643   0.000000
     6  H    2.232754   1.072417   3.273598   3.290501   2.771843
     7  H    3.309114   3.313386   1.094715   2.196831   4.286243
     8  C    2.531605   3.645640   2.500878   1.451829   2.833229
     9  H    3.237778   4.266652   2.910651   2.117435   3.559864
    10  H    3.271387   4.235542   2.789309   2.120935   3.626720
    11  H    2.661905   3.986024   3.394485   2.117812   2.515040
    12  N    2.243976   1.398664   1.372718   2.212339   3.302015
    13  C    3.659142   2.545055   2.519174   3.626764   4.681292
    14  H    4.115129   2.896861   3.228982   4.240613   5.087160
    15  H    4.326122   3.433424   2.619567   3.936731   5.392837
    16  C    4.285589   3.104916   3.578792   4.494584   5.168788
    17  H    5.209887   3.923293   4.533263   5.491623   6.070619
    18  H    3.847353   2.664998   3.765578   4.369698   4.573585
    19  C    4.979852   4.082665   3.974792   4.917489   5.841093
    20  H    5.714079   4.803577   4.978791   5.800839   6.470560
    21  H    5.715116   4.830173   4.330128   5.450815   6.652328
    22  S    4.259382   3.859787   3.293999   3.955526   5.023847
    23  O    5.537528   5.272171   4.596878   5.157461   6.190617
    24  O    3.280967   3.014086   3.167915   3.375736   3.858978
    25  O    4.056870   3.808721   2.390087   3.315131   4.961573
    26  P    5.829936   6.338316   4.773822   4.835110   6.291048
    27  O    5.003209   5.746639   4.495409   4.157341   5.259181
    28  O    6.645187   6.918192   5.592209   5.835485   7.140853
    29  H    6.158463   6.263760   5.135856   5.486058   6.708672
    30  O    7.176561   7.793582   6.082024   6.082516   7.574818
    31  H    7.823079   8.309616   6.501440   6.692867   8.316661
    32  O    5.534149   5.871902   3.946969   4.357531   6.210641
    33  H    4.880084   5.029330   3.183820   3.802280   5.656624
    34  O    2.682126   3.579601   3.646768   2.763583   2.551394
    35  H    2.604999   3.127067   3.329431   2.775811   2.752771
    36  H    3.422151   4.300634   3.913201   3.148315   3.400048
                    6          7          8          9         10
     6  H    0.000000
     7  H    4.292284   0.000000
     8  C    4.663306   2.856969   0.000000
     9  H    5.292659   3.051906   1.101723   0.000000
    10  H    5.257599   2.844069   1.118356   1.805406   0.000000
    11  H    4.887164   3.905245   1.109235   1.807012   1.773217
    12  N    2.176997   2.206523   3.615679   4.100380   3.999824
    13  C    2.848863   2.885529   4.966309   5.391018   5.197031
    14  H    2.961247   3.633443   5.617128   5.916173   6.003325
    15  H    3.906780   2.527851   5.097222   5.407751   5.171332
    16  C    3.062110   3.984641   5.813585   6.445256   5.901649
    17  H    3.669379   4.888909   6.846865   7.420458   6.975843
    18  H    2.373040   4.413277   5.709360   6.448427   5.882093
    19  C    4.248395   4.101679   6.014017   6.716981   5.813308
    20  H    4.792348   5.164774   6.878611   7.657722   6.644201
    21  H    5.077844   4.194945   6.479049   7.061872   6.210659
    22  S    4.352640   3.380815   4.751484   5.567339   4.340380
    23  O    5.733131   4.508081   5.692063   6.527276   5.049434
    24  O    3.420252   3.684758   4.250275   5.214008   4.050370
    25  O    4.565189   2.076203   3.992969   4.593600   3.556045
    26  P    7.221425   4.342408   4.362090   4.928571   3.268291
    27  O    6.618723   4.369026   3.518639   4.250840   2.476480
    28  O    7.661034   5.194657   5.642149   6.318300   4.614417
    29  H    6.922211   4.837972   5.550714   6.312785   4.635284
    30  O    8.721276   5.526678   5.342299   5.694494   4.231030
    31  H    9.225005   5.822699   6.071549   6.368911   4.974598
    32  O    6.812896   3.228204   4.070946   4.414593   3.109207
    33  H    5.923656   2.513297   3.869314   4.324665   3.069372
    34  O    4.224142   4.299072   2.805882   3.899005   2.740271
    35  H    3.699291   4.000791   3.223381   4.312972   3.114075
    36  H    5.025171   4.343281   2.871815   3.928460   2.440574
                   11         12         13         14         15
    11  H    0.000000
    12  N    4.302145   0.000000
    13  C    5.720703   1.465021   0.000000
    14  H    6.342230   2.099972   1.114255   0.000000
    15  H    5.994968   2.111889   1.120461   1.800845   0.000000
    16  C    6.429787   2.503224   1.546248   2.193961   2.195255
    17  H    7.470593   3.378104   2.167248   2.333375   2.715080
    18  H    6.148756   2.606126   2.195260   2.717792   3.090668
    19  C    6.666150   3.339009   2.576032   3.472906   2.654701
    20  H    7.432765   4.276481   3.526985   4.305970   3.710817
    21  H    7.252634   3.842474   2.859456   3.671832   2.517338
    22  S    5.343941   3.222160   3.229874   4.327081   3.234242
    23  O    6.217280   4.678353   4.617817   5.704170   4.473597
    24  O    4.589146   2.938954   3.399897   4.391431   3.824415
    25  O    4.826836   2.795521   2.938396   4.019734   2.565752
    26  P    4.848759   5.753701   6.361969   7.417273   6.000803
    27  O    3.729502   5.468327   6.351798   7.370451   6.226020
    28  O    6.102961   6.307231   6.643711   7.747895   6.273795
    29  H    6.037692   5.658401   5.880295   6.992624   5.578375
    30  O    5.772112   7.181088   7.799722   8.823143   7.337701
    31  H    6.611917   7.559288   8.009251   9.030104   7.428913
    32  O    4.870372   5.003393   5.469697   6.460120   4.909618
    33  H    4.728533   4.090491   4.457662   5.475745   3.923324
    34  O    2.484649   4.065386   5.251075   6.078389   5.689080
    35  H    3.179119   3.521701   4.544375   5.423019   5.016141
    36  H    2.647777   4.542818   5.657964   6.571210   5.930601
                   16         17         18         19         20
    16  C    0.000000
    17  H    1.109700   0.000000
    18  H    1.114327   1.767026   0.000000
    19  C    1.525026   2.160578   2.170579   0.000000
    20  H    2.172725   2.480604   2.498785   1.105058   0.000000
    21  H    2.185165   2.519650   3.100198   1.103493   1.760719
    22  S    2.758344   3.736500   2.981553   1.809416   2.407163
    23  O    3.980481   4.807339   4.201337   2.672706   2.818454
    24  O    2.917720   3.964314   2.584718   2.609933   3.019783
    25  O    3.200039   4.174462   3.685481   2.584930   3.519517
    26  P    6.548350   7.568163   6.750856   5.675206   6.246934
    27  O    6.552084   7.638802   6.528857   5.909851   6.467061
    28  O    6.491193   7.422012   6.721453   5.333283   5.669220
    29  H    5.573396   6.478156   5.793634   4.362359   4.637008
    30  O    8.077927   9.076755   8.328008   7.175738   7.743805
    31  H    8.262844   9.197853   8.628162   7.254563   7.805480
    32  O    5.915775   6.874951   6.331186   5.151243   5.924997
    33  H    4.861864   5.817820   5.310397   4.126697   4.950940
    34  O    5.340700   6.409738   4.840689   5.322656   5.802901
    35  H    4.459450   5.522765   3.954415   4.394929   4.833392
    36  H    5.752084   6.847979   5.383169   5.503310   5.988159
                   21         22         23         24         25
    21  H    0.000000
    22  S    2.403474   0.000000
    23  O    2.998691   1.467393   0.000000
    24  O    3.529415   1.476755   2.506089   0.000000
    25  O    2.714823   1.509597   2.471891   2.461638   0.000000
    26  P    5.810210   3.984005   3.649872   4.459284   3.514747
    27  O    6.287114   4.119024   4.058861   4.084033   3.828392
    28  O    5.419289   3.768550   2.873544   4.478511   3.756875
    29  H    4.513111   2.846755   1.829200   3.645961   3.117758
    30  O    7.196863   5.541004   5.085768   6.052499   4.957065
    31  H    7.128524   5.754815   5.176332   6.485021   5.128023
    32  O    5.076669   3.724244   3.748842   4.473460   2.715884
    33  H    4.083711   2.777429   3.048574   3.624150   1.662601
    34  O    6.131687   3.889826   4.563183   2.784370   4.101954
    35  H    5.253264   3.036335   3.794711   1.821566   3.475674
    36  H    6.212806   3.872556   4.298585   3.047711   3.993378
                   26         27         28         29         30
    26  P    0.000000
    27  O    1.462306   0.000000
    28  O    1.585905   2.616565   0.000000
    29  H    2.181677   2.939806   1.050124   0.000000
    30  O    1.596164   2.508599   2.469825   3.409597   0.000000
    31  H    2.144146   3.369017   2.541297   3.492633   1.030090
    32  O    1.588629   2.579633   2.554356   2.794282   2.476969
    33  H    2.182938   2.894673   2.799670   2.628064   3.419509
    34  O    4.311992   3.123013   5.003386   4.669778   5.615624
    35  H    4.286461   3.346084   4.741560   4.220321   5.745205
    36  H    3.491385   2.218152   4.241014   4.053610   4.726184
                   31         32         33         34         35
    31  H    0.000000
    32  O    2.611678   0.000000
    33  H    3.556193   1.057279   0.000000
    34  O    6.413553   4.772073   4.393328   0.000000
    35  H    6.430284   4.624277   4.064496   0.981601   0.000000
    36  H    5.556847   4.160468   3.947727   0.959061   1.511658
                   36
    36  H    0.000000
 Symmetry turned off by external request.
 Stoichiometry    C7H17N2O8PS
 Framework group  C1[X(C7H17N2O8PS)]
 Deg. of freedom   102
 Full point group                 C1      NOp   1
 Rotational constants (GHZ):           0.4696279           0.2511548           0.1989135
 Leave Link  202 at Thu May 12 13:04:38 2022, MaxMem= 10485760000 cpu:               0.1 elap:               0.0
 (Enter /data0/hywu0/study/g16/l122.exe)
 Counterpoise: doing full-system calculation.
 Leave Link  122 at Thu May 12 13:04:38 2022, MaxMem= 10485760000 cpu:               0.0 elap:               0.0
 (Enter /data0/hywu0/study/g16/l301.exe)
 Standard basis: 6-311+G(2d,p) (5D, 7F)
 Ernie: Thresh=  0.10000D-02 Tol=  0.10000D-05 Strict=F.
   631 basis functions,   962 primitive gaussians,   669 cartesian basis functions
    84 alpha electrons       84 beta electrons
       nuclear repulsion energy      2135.0695179265 Hartrees.
 IExCor= 4336 DFT=T Ex+Corr=M062X ExCW=0 ScaHFX=  0.540000
 ScaDFX=  1.000000  1.000000  1.000000  1.000000 ScalE2=  1.000000  1.000000
 IRadAn=      5 IRanWt=     -1 IRanGd=            0 ICorTp=0 IEmpDi=131
 NAtoms=   36 NActive=   36 NUniq=   36 SFac= 1.00D+00 NAtFMM=   60 NAOKFM=F Big=F
 Integral buffers will be    131072 words long.
 Raffenetti 2 integral format.
 Two-electron integral symmetry is turned off.
 R6Disp:  Grimme-D3 Dispersion energy=       -0.0028383741 Hartrees.
 Nuclear repulsion after empirical dispersion term =     2135.0666795524 Hartrees.
 Leave Link  301 at Thu May 12 13:04:38 2022, MaxMem= 10485760000 cpu:               0.8 elap:               0.1
 (Enter /data0/hywu0/study/g16/l302.exe)
 NPDir=0 NMtPBC=     1 NCelOv=     1 NCel=       1 NClECP=     1 NCelD=      1
         NCelK=      1 NCelE2=     1 NClLst=     1 CellRange=     0.0.
 One-electron integrals computed using PRISM.
 NBasis=   631 RedAO= T EigKep=  9.19D-06  NBF=   631
 NBsUse=   631 1.00D-06 EigRej= -1.00D+00 NBFU=   631
 Precomputing XC quadrature grid using
 IXCGrd= 4 IRadAn=           5 IRanWt=          -1 IRanGd=           0 AccXCQ= 0.00D+00.
 Generated NRdTot=       0 NPtTot=           0 NUsed=           0 NTot=          32
 NSgBfM=   668   668   668   668   668 MxSgAt=    36 MxSgA2=    36.
 Leave Link  302 at Thu May 12 13:04:39 2022, MaxMem= 10485760000 cpu:              11.1 elap:               0.7
 (Enter /data0/hywu0/study/g16/l303.exe)
 DipDrv:  MaxL=1.
 Leave Link  303 at Thu May 12 13:04:39 2022, MaxMem= 10485760000 cpu:               1.2 elap:               0.1
 (Enter /data0/hywu0/study/g16/l401.exe)
 ExpMin= 3.48D-02 ExpMax= 9.34D+04 ExpMxC= 3.17D+03 IAcc=3 IRadAn=         5 AccDes= 0.00D+00
 Harris functional with IExCor= 1009 and IRadAn=       5 diagonalized for initial guess.
 HarFok:  IExCor= 1009 AccDes= 0.00D+00 IRadAn=         5 IDoV= 1 UseB2=F ITyADJ=14
 ICtDFT=  3500011 ScaDFX=  1.000000  1.000000  1.000000  1.000000
 FoFCou: FMM=F IPFlag=           0 FMFlag=      100000 FMFlg1=           0
         NFxFlg=           0 DoJE=T BraDBF=F KetDBF=T FulRan=T
         wScrn=  0.000000 ICntrl=       500 IOpCl=  0 I1Cent=   200000004 NGrid=           0
         NMat0=    1 NMatS0=      1 NMatT0=    0 NMatD0=    1 NMtDS0=    0 NMtDT0=    0
 Symmetry not used in FoFCou.
 Harris En= -1727.17290941974    
 JPrj=0 DoOrth=F DoCkMO=F.
 Leave Link  401 at Thu May 12 13:04:42 2022, MaxMem= 10485760000 cpu:              52.3 elap:               3.3
 (Enter /data0/hywu0/study/g16/l502.exe)
 Two-electron integral symmetry not used.
 Closed shell SCF:
 Using DIIS extrapolation, IDIIS=  1040.
 NGot= 10485760000 LenX= 10484849541 LenY= 10484401311
 Requested convergence on RMS density matrix=1.00D-08 within 128 cycles.
 Requested convergence on MAX density matrix=1.00D-06.
 Requested convergence on             energy=1.00D-06.
 No special actions if energy rises.
 Fock matrices will be formed incrementally for  20 cycles.

 Cycle   1  Pass 1  IDiag  1:
 FoFJK:  IHMeth= 1 ICntrl=       0 DoSepK=F KAlg= 0 I1Cent=           0 FoldK=F
 IRaf= 840000000 NMat=       1 IRICut=       1 DoRegI=T DoRafI=F ISym2E= 0 IDoP0=0 IntGTp=1.
 FoFCou: FMM=F IPFlag=           0 FMFlag=      100000 FMFlg1=           0
         NFxFlg=           0 DoJE=F BraDBF=F KetDBF=F FulRan=T
         wScrn=  0.000000 ICntrl=         0 IOpCl=  0 I1Cent=           0 NGrid=           0
         NMat0=    1 NMatS0=      1 NMatT0=    0 NMatD0=    1 NMtDS0=    0 NMtDT0=    0
 Symmetry not used in FoFCou.
 E= -1727.11472549711    
 DIIS: error= 2.55D-02 at cycle   1 NSaved=   1.
 NSaved= 1 IEnMin= 1 EnMin= -1727.11472549711     IErMin= 1 ErrMin= 2.55D-02
 ErrMax= 2.55D-02  0.00D+00 EMaxC= 1.00D-01 BMatC= 1.29D+00 BMatP= 1.29D+00
 IDIUse=3 WtCom= 7.45D-01 WtEn= 2.55D-01
 Coeff-Com:  0.100D+01
 Coeff-En:   0.100D+01
 Coeff:      0.100D+01
 Gap=     0.275 Goal=   None    Shift=    0.000
 GapD=    0.275 DampG=1.000 DampE=0.500 DampFc=0.5000 IDamp=-1.
 Damping current iteration by 5.00D-01
 RMSDP=4.83D-03 MaxDP=5.47D-01              OVMax= 2.32D-01

 Cycle   2  Pass 1  IDiag  1:
 RMSU=  2.42D-03    CP:  1.00D+00
 E= -1727.44103547695     Delta-E=       -0.326309979840 Rises=F Damp=T
 DIIS: error= 5.57D-03 at cycle   2 NSaved=   2.
 NSaved= 2 IEnMin= 2 EnMin= -1727.44103547695     IErMin= 2 ErrMin= 5.57D-03
 ErrMax= 5.57D-03  0.00D+00 EMaxC= 1.00D-01 BMatC= 7.61D-02 BMatP= 1.29D+00
 IDIUse=3 WtCom= 9.44D-01 WtEn= 5.57D-02
 Coeff-Com:  0.351D-01 0.965D+00
 Coeff-En:   0.134D+00 0.866D+00
 Coeff:      0.406D-01 0.959D+00
 Gap=     0.340 Goal=   None    Shift=    0.000
 RMSDP=2.11D-03 MaxDP=3.77D-01 DE=-3.26D-01 OVMax= 1.40D-01

 Cycle   3  Pass 1  IDiag  1:
 RMSU=  1.65D-03    CP:  8.93D-01  7.97D-01
 E= -1727.84700256384     Delta-E=       -0.405967086896 Rises=F Damp=F
 DIIS: error= 3.46D-03 at cycle   3 NSaved=   3.
 NSaved= 3 IEnMin= 3 EnMin= -1727.84700256384     IErMin= 3 ErrMin= 3.46D-03
 ErrMax= 3.46D-03  0.00D+00 EMaxC= 1.00D-01 BMatC= 2.56D-02 BMatP= 7.61D-02
 IDIUse=3 WtCom= 9.65D-01 WtEn= 3.46D-02
 Coeff-Com: -0.485D-01 0.325D+00 0.724D+00
 Coeff-En:   0.000D+00 0.000D+00 0.100D+01
 Coeff:     -0.468D-01 0.314D+00 0.733D+00
 Gap=     0.302 Goal=   None    Shift=    0.000
 RMSDP=5.25D-04 MaxDP=5.32D-02 DE=-4.06D-01 OVMax= 3.23D-02

 Cycle   4  Pass 1  IDiag  1:
 RMSU=  4.03D-04    CP:  8.94D-01  9.30D-01  9.42D-01
 E= -1727.86098752642     Delta-E=       -0.013984962582 Rises=F Damp=F
 DIIS: error= 2.21D-03 at cycle   4 NSaved=   4.
 NSaved= 4 IEnMin= 4 EnMin= -1727.86098752642     IErMin= 4 ErrMin= 2.21D-03
 ErrMax= 2.21D-03  0.00D+00 EMaxC= 1.00D-01 BMatC= 7.23D-03 BMatP= 2.56D-02
 IDIUse=3 WtCom= 9.78D-01 WtEn= 2.21D-02
 Coeff-Com: -0.285D-01 0.820D-01 0.396D+00 0.551D+00
 Coeff-En:   0.000D+00 0.000D+00 0.198D+00 0.802D+00
 Coeff:     -0.279D-01 0.802D-01 0.392D+00 0.556D+00
 Gap=     0.299 Goal=   None    Shift=    0.000
 RMSDP=2.07D-04 MaxDP=1.94D-02 DE=-1.40D-02 OVMax= 1.12D-02

 Cycle   5  Pass 1  IDiag  1:
 RMSU=  1.26D-04    CP:  8.92D-01  9.07D-01  9.73D-01  6.45D-01
 E= -1727.86622690606     Delta-E=       -0.005239379637 Rises=F Damp=F
 DIIS: error= 3.67D-04 at cycle   5 NSaved=   5.
 NSaved= 5 IEnMin= 5 EnMin= -1727.86622690606     IErMin= 5 ErrMin= 3.67D-04
 ErrMax= 3.67D-04  0.00D+00 EMaxC= 1.00D-01 BMatC= 2.89D-04 BMatP= 7.23D-03
 IDIUse=3 WtCom= 9.96D-01 WtEn= 3.67D-03
 Coeff-Com: -0.904D-02 0.179D-01 0.131D+00 0.250D+00 0.610D+00
 Coeff-En:   0.000D+00 0.000D+00 0.000D+00 0.000D+00 0.100D+01
 Coeff:     -0.900D-02 0.178D-01 0.130D+00 0.249D+00 0.612D+00
 Gap=     0.298 Goal=   None    Shift=    0.000
 RMSDP=4.94D-05 MaxDP=5.47D-03 DE=-5.24D-03 OVMax= 2.69D-03

 Cycle   6  Pass 1  IDiag  1:
 RMSU=  3.33D-05    CP:  8.91D-01  9.07D-01  9.76D-01  6.86D-01  7.59D-01
 E= -1727.86642862539     Delta-E=       -0.000201719329 Rises=F Damp=F
 DIIS: error= 1.05D-04 at cycle   6 NSaved=   6.
 NSaved= 6 IEnMin= 6 EnMin= -1727.86642862539     IErMin= 6 ErrMin= 1.05D-04
 ErrMax= 1.05D-04  0.00D+00 EMaxC= 1.00D-01 BMatC= 2.67D-05 BMatP= 2.89D-04
 IDIUse=3 WtCom= 9.99D-01 WtEn= 1.05D-03
 Coeff-Com: -0.187D-02 0.184D-02 0.281D-01 0.717D-01 0.291D+00 0.609D+00
 Coeff-En:   0.000D+00 0.000D+00 0.000D+00 0.000D+00 0.000D+00 0.100D+01
 Coeff:     -0.187D-02 0.184D-02 0.280D-01 0.716D-01 0.291D+00 0.609D+00
 Gap=     0.298 Goal=   None    Shift=    0.000
 RMSDP=1.70D-05 MaxDP=1.68D-03 DE=-2.02D-04 OVMax= 9.13D-04

 Cycle   7  Pass 1  IDiag  1:
 RMSU=  1.51D-05    CP:  8.91D-01  9.06D-01  9.78D-01  6.92D-01  7.62D-01
                    CP:  8.55D-01
 E= -1727.86644884281     Delta-E=       -0.000020217416 Rises=F Damp=F
 DIIS: error= 3.07D-05 at cycle   7 NSaved=   7.
 NSaved= 7 IEnMin= 7 EnMin= -1727.86644884281     IErMin= 7 ErrMin= 3.07D-05
 ErrMax= 3.07D-05  0.00D+00 EMaxC= 1.00D-01 BMatC= 2.43D-06 BMatP= 2.67D-05
 IDIUse=1 WtCom= 1.00D+00 WtEn= 0.00D+00
 Coeff-Com:  0.152D-03-0.109D-02-0.249D-02 0.424D-02 0.651D-01 0.263D+00
 Coeff-Com:  0.671D+00
 Coeff:      0.152D-03-0.109D-02-0.249D-02 0.424D-02 0.651D-01 0.263D+00
 Coeff:      0.671D+00
 Gap=     0.298 Goal=   None    Shift=    0.000
 RMSDP=5.04D-06 MaxDP=4.43D-04 DE=-2.02D-05 OVMax= 2.73D-04

 Cycle   8  Pass 1  IDiag  1:
 RMSU=  3.92D-06    CP:  8.91D-01  9.06D-01  9.79D-01  6.94D-01  7.80D-01
                    CP:  8.96D-01  9.53D-01
 E= -1727.86645071347     Delta-E=       -0.000001870665 Rises=F Damp=F
 DIIS: error= 1.27D-05 at cycle   8 NSaved=   8.
 NSaved= 8 IEnMin= 8 EnMin= -1727.86645071347     IErMin= 8 ErrMin= 1.27D-05
 ErrMax= 1.27D-05  0.00D+00 EMaxC= 1.00D-01 BMatC= 3.18D-07 BMatP= 2.43D-06
 IDIUse=1 WtCom= 1.00D+00 WtEn= 0.00D+00
 Coeff-Com:  0.327D-03-0.696D-03-0.554D-02-0.894D-02-0.150D-01 0.161D-01
 Coeff-Com:  0.280D+00 0.734D+00
 Coeff:      0.327D-03-0.696D-03-0.554D-02-0.894D-02-0.150D-01 0.161D-01
 Coeff:      0.280D+00 0.734D+00
 Gap=     0.298 Goal=   None    Shift=    0.000
 RMSDP=2.54D-06 MaxDP=2.44D-04 DE=-1.87D-06 OVMax= 1.78D-04

 Cycle   9  Pass 1  IDiag  1:
 RMSU=  1.84D-06    CP:  8.91D-01  9.06D-01  9.79D-01  6.95D-01  7.89D-01
                    CP:  9.27D-01  9.57D-01  8.91D-01
 E= -1727.86645098524     Delta-E=       -0.000000271769 Rises=F Damp=F
 DIIS: error= 3.65D-06 at cycle   9 NSaved=   9.
 NSaved= 9 IEnMin= 9 EnMin= -1727.86645098524     IErMin= 9 ErrMin= 3.65D-06
 ErrMax= 3.65D-06  0.00D+00 EMaxC= 1.00D-01 BMatC= 4.30D-08 BMatP= 3.18D-07
 IDIUse=1 WtCom= 1.00D+00 WtEn= 0.00D+00
 Coeff-Com:  0.128D-03-0.209D-03-0.237D-02-0.445D-02-0.123D-01-0.148D-01
 Coeff-Com:  0.715D-01 0.342D+00 0.621D+00
 Coeff:      0.128D-03-0.209D-03-0.237D-02-0.445D-02-0.123D-01-0.148D-01
 Coeff:      0.715D-01 0.342D+00 0.621D+00
 Gap=     0.298 Goal=   None    Shift=    0.000
 RMSDP=8.01D-07 MaxDP=1.08D-04 DE=-2.72D-07 OVMax= 3.99D-05

 Cycle  10  Pass 1  IDiag  1:
 RMSU=  5.13D-07    CP:  8.91D-01  9.06D-01  9.79D-01  6.95D-01  7.89D-01
                    CP:  9.31D-01  9.80D-01  9.64D-01  9.07D-01
 E= -1727.86645102310     Delta-E=       -0.000000037859 Rises=F Damp=F
 DIIS: error= 1.47D-06 at cycle  10 NSaved=  10.
 NSaved=10 IEnMin=10 EnMin= -1727.86645102310     IErMin=10 ErrMin= 1.47D-06
 ErrMax= 1.47D-06  0.00D+00 EMaxC= 1.00D-01 BMatC= 3.99D-09 BMatP= 4.30D-08
 IDIUse=1 WtCom= 1.00D+00 WtEn= 0.00D+00
 Coeff-Com:  0.881D-05 0.603D-06-0.272D-03-0.650D-03-0.311D-02-0.809D-02
 Coeff-Com: -0.615D-02 0.436D-01 0.239D+00 0.735D+00
 Coeff:      0.881D-05 0.603D-06-0.272D-03-0.650D-03-0.311D-02-0.809D-02
 Coeff:     -0.615D-02 0.436D-01 0.239D+00 0.735D+00
 Gap=     0.298 Goal=   None    Shift=    0.000
 RMSDP=2.26D-07 MaxDP=2.47D-05 DE=-3.79D-08 OVMax= 2.87D-05

 Cycle  11  Pass 1  IDiag  1:
 RMSU=  1.79D-07    CP:  8.91D-01  9.06D-01  9.79D-01  6.95D-01  7.89D-01
                    CP:  9.32D-01  9.82D-01  9.81D-01  9.61D-01  9.56D-01
 E= -1727.86645102743     Delta-E=       -0.000000004328 Rises=F Damp=F
 DIIS: error= 6.00D-07 at cycle  11 NSaved=  11.
 NSaved=11 IEnMin=11 EnMin= -1727.86645102743     IErMin=11 ErrMin= 6.00D-07
 ErrMax= 6.00D-07  0.00D+00 EMaxC= 1.00D-01 BMatC= 7.26D-10 BMatP= 3.99D-09
 IDIUse=1 WtCom= 1.00D+00 WtEn= 0.00D+00
 Coeff-Com: -0.155D-04 0.324D-04 0.251D-03 0.400D-03 0.462D-03-0.123D-02
 Coeff-Com: -0.140D-01-0.364D-01-0.276D-02 0.321D+00 0.732D+00
 Coeff:     -0.155D-04 0.324D-04 0.251D-03 0.400D-03 0.462D-03-0.123D-02
 Coeff:     -0.140D-01-0.364D-01-0.276D-02 0.321D+00 0.732D+00
 Gap=     0.298 Goal=   None    Shift=    0.000
 RMSDP=1.18D-07 MaxDP=1.33D-05 DE=-4.33D-09 OVMax= 1.50D-05

 Cycle  12  Pass 1  IDiag  1:
 RMSU=  5.83D-08    CP:  8.91D-01  9.06D-01  9.79D-01  6.95D-01  7.89D-01
                    CP:  9.32D-01  9.81D-01  9.87D-01  9.97D-01  1.05D+00
                    CP:  1.01D+00
 E= -1727.86645102814     Delta-E=       -0.000000000715 Rises=F Damp=F
 DIIS: error= 1.67D-07 at cycle  12 NSaved=  12.
 NSaved=12 IEnMin=12 EnMin= -1727.86645102814     IErMin=12 ErrMin= 1.67D-07
 ErrMax= 1.67D-07  0.00D+00 EMaxC= 1.00D-01 BMatC= 8.69D-11 BMatP= 7.26D-10
 IDIUse=1 WtCom= 1.00D+00 WtEn= 0.00D+00
 Coeff-Com: -0.632D-05 0.118D-04 0.127D-03 0.224D-03 0.490D-03 0.414D-03
 Coeff-Com: -0.490D-02-0.188D-01-0.284D-01 0.532D-01 0.306D+00 0.692D+00
 Coeff:     -0.632D-05 0.118D-04 0.127D-03 0.224D-03 0.490D-03 0.414D-03
 Coeff:     -0.490D-02-0.188D-01-0.284D-01 0.532D-01 0.306D+00 0.692D+00
 Gap=     0.298 Goal=   None    Shift=    0.000
 RMSDP=3.57D-08 MaxDP=3.04D-06 DE=-7.15D-10 OVMax= 3.74D-06

 Cycle  13  Pass 1  IDiag  1:
 RMSU=  2.48D-08    CP:  8.91D-01  9.06D-01  9.79D-01  6.95D-01  7.89D-01
                    CP:  9.32D-01  9.80D-01  9.88D-01  1.00D+00  1.06D+00
                    CP:  1.06D+00  1.04D+00
 E= -1727.86645102819     Delta-E=       -0.000000000053 Rises=F Damp=F
 DIIS: error= 6.96D-08 at cycle  13 NSaved=  13.
 NSaved=13 IEnMin=13 EnMin= -1727.86645102819     IErMin=13 ErrMin= 6.96D-08
 ErrMax= 6.96D-08  0.00D+00 EMaxC= 1.00D-01 BMatC= 1.56D-11 BMatP= 8.69D-11
 IDIUse=1 WtCom= 1.00D+00 WtEn= 0.00D+00
 Coeff-Com: -0.206D-06-0.987D-07 0.185D-04 0.383D-04 0.147D-03 0.402D-03
 Coeff-Com: -0.301D-04-0.246D-02-0.126D-01-0.269D-01 0.249D-01 0.331D+00
 Coeff-Com:  0.686D+00
 Coeff:     -0.206D-06-0.987D-07 0.185D-04 0.383D-04 0.147D-03 0.402D-03
 Coeff:     -0.301D-04-0.246D-02-0.126D-01-0.269D-01 0.249D-01 0.331D+00
 Coeff:      0.686D+00
 Gap=     0.298 Goal=   None    Shift=    0.000
 RMSDP=1.47D-08 MaxDP=1.75D-06 DE=-5.28D-11 OVMax= 2.42D-06

 Cycle  14  Pass 1  IDiag  1:
 RMSU=  9.34D-09    CP:  8.91D-01  9.06D-01  9.79D-01  6.95D-01  7.89D-01
                    CP:  9.32D-01  9.80D-01  9.88D-01  1.00D+00  1.06D+00
                    CP:  1.09D+00  1.15D+00  8.86D-01
 E= -1727.86645102826     Delta-E=       -0.000000000064 Rises=F Damp=F
 DIIS: error= 2.77D-08 at cycle  14 NSaved=  14.
 NSaved=14 IEnMin=14 EnMin= -1727.86645102826     IErMin=14 ErrMin= 2.77D-08
 ErrMax= 2.77D-08  0.00D+00 EMaxC= 1.00D-01 BMatC= 2.11D-12 BMatP= 1.56D-11
 IDIUse=1 WtCom= 1.00D+00 WtEn= 0.00D+00
 Coeff-Com:  0.765D-06-0.162D-05-0.829D-05-0.129D-04-0.597D-05 0.108D-03
 Coeff-Com:  0.581D-03 0.148D-02-0.197D-02-0.205D-01-0.319D-01 0.568D-01
 Coeff-Com:  0.321D+00 0.674D+00
 Coeff:      0.765D-06-0.162D-05-0.829D-05-0.129D-04-0.597D-05 0.108D-03
 Coeff:      0.581D-03 0.148D-02-0.197D-02-0.205D-01-0.319D-01 0.568D-01
 Coeff:      0.321D+00 0.674D+00
 Gap=     0.298 Goal=   None    Shift=    0.000
 RMSDP=4.83D-09 MaxDP=2.20D-07 DE=-6.37D-11 OVMax= 6.85D-07

 SCF Done:  E(RM062X) =  -1727.86645103     A.U. after   14 cycles
            NFock= 14  Conv=0.48D-08     -V/T= 2.0030
 KE= 1.722616965400D+03 PE=-8.347974053337D+03 EE= 2.762423957356D+03
 Leave Link  502 at Thu May 12 13:08:13 2022, MaxMem= 10485760000 cpu:            3369.2 elap:             211.2
 (Enter /data0/hywu0/study/g16/l601.exe)
 Copying SCF densities to generalized density rwf, IOpCl= 0 IROHF=0.

 **********************************************************************

            Population analysis using the SCF density.

 **********************************************************************

 Alpha  occ. eigenvalues --  -90.10647 -78.13334 -19.64181 -19.63212 -19.62781
 Alpha  occ. eigenvalues --  -19.61696 -19.61579 -19.60988 -19.57680 -19.56404
 Alpha  occ. eigenvalues --  -14.86647 -14.86477 -10.67739 -10.63528 -10.62245
 Alpha  occ. eigenvalues --  -10.62095 -10.59732 -10.58971 -10.58777  -8.44111
 Alpha  occ. eigenvalues --   -6.94062  -6.36405  -6.36349  -6.36317  -5.05999
 Alpha  occ. eigenvalues --   -5.05934  -5.05775  -1.25143  -1.19937  -1.19403
 Alpha  occ. eigenvalues --   -1.12367  -1.12247  -1.11478  -1.10742  -1.09103
 Alpha  occ. eigenvalues --   -1.08013  -1.06792  -0.94222  -0.90707  -0.86876
 Alpha  occ. eigenvalues --   -0.82268  -0.76882  -0.73280  -0.71470  -0.69178
 Alpha  occ. eigenvalues --   -0.67425  -0.65638  -0.62194  -0.61035  -0.60139
 Alpha  occ. eigenvalues --   -0.58925  -0.58386  -0.57933  -0.57372  -0.56279
 Alpha  occ. eigenvalues --   -0.55466  -0.55186  -0.54724  -0.54061  -0.53368
 Alpha  occ. eigenvalues --   -0.51367  -0.50530  -0.49120  -0.48366  -0.47827
 Alpha  occ. eigenvalues --   -0.47165  -0.46822  -0.46030  -0.45130  -0.44673
 Alpha  occ. eigenvalues --   -0.43164  -0.42646  -0.42070  -0.41950  -0.40442
 Alpha  occ. eigenvalues --   -0.39358  -0.38646  -0.37841  -0.36932  -0.36542
 Alpha  occ. eigenvalues --   -0.36342  -0.35115  -0.34682  -0.32257
 Alpha virt. eigenvalues --   -0.02467  -0.00669   0.00298   0.00502   0.01176
 Alpha virt. eigenvalues --    0.01640   0.02375   0.02780   0.02855   0.03230
 Alpha virt. eigenvalues --    0.04699   0.04966   0.05323   0.05781   0.06194
 Alpha virt. eigenvalues --    0.06691   0.07544   0.07634   0.07964   0.08587
 Alpha virt. eigenvalues --    0.09103   0.09596   0.09903   0.10030   0.10850
 Alpha virt. eigenvalues --    0.11556   0.11949   0.12241   0.12672   0.13032
 Alpha virt. eigenvalues --    0.13311   0.14036   0.14279   0.14742   0.14950
 Alpha virt. eigenvalues --    0.15123   0.15520   0.16092   0.16511   0.16727
 Alpha virt. eigenvalues --    0.16901   0.17033   0.17924   0.18190   0.18387
 Alpha virt. eigenvalues --    0.18498   0.19046   0.19471   0.19821   0.20217
 Alpha virt. eigenvalues --    0.20707   0.20901   0.21353   0.21544   0.22185
 Alpha virt. eigenvalues --    0.22508   0.22605   0.23374   0.23889   0.24144
 Alpha virt. eigenvalues --    0.24350   0.24958   0.25164   0.25687   0.25924
 Alpha virt. eigenvalues --    0.26436   0.26651   0.27347   0.27640   0.27910
 Alpha virt. eigenvalues --    0.28130   0.28464   0.28494   0.29332   0.29867
 Alpha virt. eigenvalues --    0.30002   0.30635   0.31093   0.31311   0.31638
 Alpha virt. eigenvalues --    0.31860   0.32078   0.32695   0.33085   0.33215
 Alpha virt. eigenvalues --    0.33863   0.33989   0.34747   0.34993   0.35432
 Alpha virt. eigenvalues --    0.35577   0.36080   0.36642   0.37581   0.37997
 Alpha virt. eigenvalues --    0.38346   0.38774   0.39396   0.39822   0.40692
 Alpha virt. eigenvalues --    0.41030   0.41390   0.41844   0.42203   0.42464
 Alpha virt. eigenvalues --    0.43162   0.44289   0.44416   0.45188   0.46001
 Alpha virt. eigenvalues --    0.46718   0.47772   0.48049   0.48501   0.49011
 Alpha virt. eigenvalues --    0.49502   0.50659   0.51150   0.51776   0.52875
 Alpha virt. eigenvalues --    0.53567   0.54125   0.54943   0.55818   0.56271
 Alpha virt. eigenvalues --    0.57334   0.58298   0.58606   0.58896   0.59677
 Alpha virt. eigenvalues --    0.60154   0.60722   0.61070   0.61728   0.62124
 Alpha virt. eigenvalues --    0.63382   0.63919   0.64605   0.64974   0.66071
 Alpha virt. eigenvalues --    0.67106   0.67271   0.67759   0.68712   0.68768
 Alpha virt. eigenvalues --    0.69148   0.69957   0.70227   0.70754   0.71832
 Alpha virt. eigenvalues --    0.72000   0.73088   0.73813   0.74027   0.74981
 Alpha virt. eigenvalues --    0.75597   0.75789   0.76153   0.78314   0.78938
 Alpha virt. eigenvalues --    0.79139   0.80470   0.82419   0.83241   0.83751
 Alpha virt. eigenvalues --    0.84393   0.85298   0.86413   0.86692   0.87406
 Alpha virt. eigenvalues --    0.88926   0.89192   0.90236   0.91235   0.92072
 Alpha virt. eigenvalues --    0.92521   0.93023   0.93847   0.95024   0.96335
 Alpha virt. eigenvalues --    0.96639   0.97826   0.99356   1.01024   1.03086
 Alpha virt. eigenvalues --    1.04338   1.06024   1.06975   1.07560   1.08793
 Alpha virt. eigenvalues --    1.09687   1.10505   1.11853   1.12205   1.12876
 Alpha virt. eigenvalues --    1.13336   1.13785   1.16216   1.16742   1.17239
 Alpha virt. eigenvalues --    1.17813   1.18869   1.19532   1.20553   1.20649
 Alpha virt. eigenvalues --    1.21096   1.22653   1.22954   1.23286   1.23763
 Alpha virt. eigenvalues --    1.23963   1.25570   1.26027   1.26417   1.26804
 Alpha virt. eigenvalues --    1.27265   1.27907   1.28303   1.28995   1.29868
 Alpha virt. eigenvalues --    1.29997   1.31086   1.31300   1.31726   1.32603
 Alpha virt. eigenvalues --    1.33593   1.34016   1.34126   1.34778   1.35353
 Alpha virt. eigenvalues --    1.36565   1.37163   1.37200   1.38609   1.38810
 Alpha virt. eigenvalues --    1.41044   1.41282   1.41568   1.42064   1.43145
 Alpha virt. eigenvalues --    1.43574   1.43851   1.44827   1.45304   1.46202
 Alpha virt. eigenvalues --    1.47716   1.48273   1.49290   1.49691   1.50949
 Alpha virt. eigenvalues --    1.52146   1.53315   1.53660   1.54847   1.55471
 Alpha virt. eigenvalues --    1.56561   1.57424   1.58257   1.59643   1.60112
 Alpha virt. eigenvalues --    1.61544   1.62388   1.63319   1.64184   1.65169
 Alpha virt. eigenvalues --    1.66599   1.67775   1.69202   1.69567   1.70176
 Alpha virt. eigenvalues --    1.71351   1.72667   1.74387   1.74973   1.75763
 Alpha virt. eigenvalues --    1.76677   1.77470   1.77713   1.78966   1.79978
 Alpha virt. eigenvalues --    1.81823   1.82387   1.84169   1.85875   1.87289
 Alpha virt. eigenvalues --    1.87385   1.88540   1.88719   1.88974   1.90217
 Alpha virt. eigenvalues --    1.91161   1.91994   1.92895   1.94117   1.95223
 Alpha virt. eigenvalues --    1.96317   1.97003   1.97580   1.97706   2.00088
 Alpha virt. eigenvalues --    2.00782   2.01544   2.03080   2.04333   2.05990
 Alpha virt. eigenvalues --    2.06548   2.07121   2.09579   2.10616   2.11095
 Alpha virt. eigenvalues --    2.12472   2.13312   2.13760   2.14638   2.15624
 Alpha virt. eigenvalues --    2.17402   2.18718   2.18969   2.19927   2.21219
 Alpha virt. eigenvalues --    2.22838   2.24330   2.25047   2.26369   2.26475
 Alpha virt. eigenvalues --    2.27309   2.27944   2.29756   2.30067   2.30834
 Alpha virt. eigenvalues --    2.31414   2.32406   2.33138   2.34395   2.35242
 Alpha virt. eigenvalues --    2.36388   2.37413   2.39043   2.40166   2.41129
 Alpha virt. eigenvalues --    2.42675   2.43522   2.45406   2.46143   2.46936
 Alpha virt. eigenvalues --    2.51169   2.52244   2.53125   2.55338   2.56045
 Alpha virt. eigenvalues --    2.57142   2.58039   2.65053   2.67158   2.68393
 Alpha virt. eigenvalues --    2.72029   2.72303   2.73638   2.75551   2.76100
 Alpha virt. eigenvalues --    2.78462   2.78901   2.79967   2.80790   2.81911
 Alpha virt. eigenvalues --    2.82303   2.83503   2.85663   2.87676   2.88553
 Alpha virt. eigenvalues --    2.89294   2.90211   2.91333   2.93655   2.94428
 Alpha virt. eigenvalues --    2.95132   2.97883   2.98920   2.99396   3.02512
 Alpha virt. eigenvalues --    3.04492   3.06622   3.07067   3.07876   3.09295
 Alpha virt. eigenvalues --    3.10243   3.14692   3.18748   3.19440   3.22597
 Alpha virt. eigenvalues --    3.24757   3.28469   3.28899   3.30487   3.31664
 Alpha virt. eigenvalues --    3.33250   3.34647   3.36940   3.38916   3.40396
 Alpha virt. eigenvalues --    3.42786   3.44934   3.47134   3.47920   3.48476
 Alpha virt. eigenvalues --    3.48942   3.50748   3.51866   3.53747   3.55223
 Alpha virt. eigenvalues --    3.55587   3.57838   3.58161   3.62172   3.62947
 Alpha virt. eigenvalues --    3.63083   3.64216   3.65846   3.67454   3.68505
 Alpha virt. eigenvalues --    3.69852   3.71631   3.72488   3.81501   3.83852
 Alpha virt. eigenvalues --    3.85517   3.88770   3.90561   3.93299   3.96663
 Alpha virt. eigenvalues --    4.03774   4.05992   4.06361   4.14408   4.14827
 Alpha virt. eigenvalues --    4.17893   4.19214   4.20636   4.23090   4.36430
 Alpha virt. eigenvalues --    4.47568   4.53579   4.96932   5.01659   5.03981
 Alpha virt. eigenvalues --    5.07196   5.08768   5.09788   5.11792   5.11961
 Alpha virt. eigenvalues --    5.13975   5.15866   5.16417   5.17312   5.19357
 Alpha virt. eigenvalues --    5.20847   5.22475   5.24536   5.27954   5.29341
 Alpha virt. eigenvalues --    5.30876   5.31680   5.32503   5.33084   5.36782
 Alpha virt. eigenvalues --    5.39849   5.43015   5.43877   5.45242   5.49789
 Alpha virt. eigenvalues --    5.52636   5.54521   5.57472   5.57698   5.63971
 Alpha virt. eigenvalues --    5.64426   5.68230   5.68654   5.84748   6.02288
 Alpha virt. eigenvalues --    6.76255   6.77921   6.78268   6.80369   6.80680
 Alpha virt. eigenvalues --    6.81372   6.83020   6.84604   6.85393   6.85477
 Alpha virt. eigenvalues --    6.86470   6.87110   6.89807   6.90767   6.92384
 Alpha virt. eigenvalues --    6.94392   6.94943   6.96121   6.96566   6.98962
 Alpha virt. eigenvalues --    6.99711   7.00299   7.02674   7.03553   7.05396
 Alpha virt. eigenvalues --    7.06435   7.06624   7.10477   7.17735   7.19441
 Alpha virt. eigenvalues --    7.21390   7.25957   7.29509   7.30536   7.32173
 Alpha virt. eigenvalues --    7.34837   7.38129   7.40295   7.41643   7.47520
 Alpha virt. eigenvalues --    7.72715   8.61460  14.29409  14.30907  14.41522
 Alpha virt. eigenvalues --   17.75435  17.78433  17.84511  23.91577  23.95411
 Alpha virt. eigenvalues --   23.99209  24.02561  24.05667  24.10579  24.17041
 Alpha virt. eigenvalues --   35.61034  35.69854  50.05915  50.07496  50.08513
 Alpha virt. eigenvalues --   50.09860  50.10844  50.13561  50.15304  50.18532
 Alpha virt. eigenvalues --  163.96331 189.92905
          Condensed to atoms (all electrons):
               1          2          3          4          5          6
     1  C    6.835919  -0.547621  -1.017725   0.396043   0.392921  -0.016861
     2  C   -0.547621   6.370120  -0.132254  -0.001008  -0.006707   0.387306
     3  C   -1.017725  -0.132254   8.501987  -0.311999   0.010927   0.011830
     4  N    0.396043  -0.001008  -0.311999   6.361676  -0.035714   0.007224
     5  H    0.392921  -0.006707   0.010927  -0.035714   0.455510  -0.001354
     6  H   -0.016861   0.387306   0.011830   0.007224  -0.001354   0.480123
     7  H    0.013830   0.013789   0.323387  -0.008554  -0.000000  -0.000071
     8  C   -0.148790   0.032758  -0.264575   0.232499  -0.003350  -0.001154
     9  H    0.018773  -0.002514  -0.031048  -0.051262   0.000258   0.000011
    10  H   -0.015186  -0.003535   0.039042  -0.032521   0.000160   0.000010
    11  H   -0.003433   0.020977   0.014834  -0.069040   0.002565  -0.000024
    12  N    0.192082   0.179005  -0.136013   0.039203   0.006852  -0.034680
    13  C    0.026909  -0.037577  -0.435359   0.029039   0.001546   0.006457
    14  H    0.006764  -0.012617  -0.003991  -0.002934  -0.000020   0.000487
    15  H   -0.001796  -0.004290  -0.007439   0.006008   0.000009  -0.000109
    16  C    0.044205  -0.290672   0.370885  -0.083009  -0.000698   0.004948
    17  H    0.001380   0.007584  -0.004920   0.000061  -0.000000  -0.000415
    18  H   -0.007963   0.015101  -0.010725   0.001403   0.000035  -0.000209
    19  C   -0.089920   0.240929  -0.038766   0.029796   0.000475  -0.003685
    20  H    0.000396   0.000122   0.000318   0.000057  -0.000001   0.000011
    21  H    0.000055  -0.002098   0.000787  -0.000017  -0.000000   0.000011
    22  S    0.099944  -0.092850  -0.116499  -0.022571   0.000444   0.001147
    23  O   -0.009333   0.019922  -0.037545   0.002578   0.000002  -0.000010
    24  O   -0.023284   0.033858  -0.033565   0.051908  -0.000098  -0.003905
    25  O    0.072251  -0.054689  -0.258502   0.054900   0.000036  -0.000206
    26  P   -0.002644   0.002261   0.034202  -0.008528  -0.000097   0.000011
    27  O    0.017304  -0.011192  -0.019637   0.012946  -0.000013   0.000001
    28  O   -0.000841   0.000187  -0.000142  -0.000781   0.000001  -0.000000
    29  H   -0.000313   0.000480   0.002557  -0.000179  -0.000000  -0.000000
    30  O   -0.000179   0.000175   0.000354   0.000109   0.000000  -0.000000
    31  H   -0.000086   0.000055   0.000090  -0.000057   0.000000  -0.000000
    32  O   -0.000132   0.002173  -0.024669  -0.001716  -0.000002  -0.000002
    33  H   -0.008707   0.001959   0.069754  -0.014424   0.000006   0.000001
    34  O   -0.074214   0.022394   0.060964   0.043857  -0.012724  -0.000027
    35  H    0.050060  -0.035563  -0.001989  -0.020566   0.001349   0.000011
    36  H    0.005373  -0.001706  -0.010732  -0.003751   0.000314  -0.000010
               7          8          9         10         11         12
     1  C    0.013830  -0.148790   0.018773  -0.015186  -0.003433   0.192082
     2  C    0.013789   0.032758  -0.002514  -0.003535   0.020977   0.179005
     3  C    0.323387  -0.264575  -0.031048   0.039042   0.014834  -0.136013
     4  N   -0.008554   0.232499  -0.051262  -0.032521  -0.069040   0.039203
     5  H   -0.000000  -0.003350   0.000258   0.000160   0.002565   0.006852
     6  H   -0.000071  -0.001154   0.000011   0.000010  -0.000024  -0.034680
     7  H    0.436554   0.009438   0.001256  -0.000764   0.000075  -0.017324
     8  C    0.009438   5.475689   0.424789   0.366780   0.412157  -0.016229
     9  H    0.001256   0.424789   0.502313  -0.025546  -0.017116  -0.004465
    10  H   -0.000764   0.366780  -0.025546   0.418406  -0.015498   0.007633
    11  H    0.000075   0.412157  -0.017116  -0.015498   0.470610  -0.002657
    12  N   -0.017324  -0.016229  -0.004465   0.007633  -0.002657   6.402599
    13  C    0.004890   0.018443  -0.000318   0.001549   0.000698   0.179273
    14  H    0.000362  -0.000402  -0.000011   0.000003  -0.000002  -0.058445
    15  H    0.002901   0.000479  -0.000002   0.000002  -0.000001  -0.048485
    16  C   -0.009146  -0.027868   0.000046   0.000303   0.000214  -0.005456
    17  H   -0.000001   0.000102  -0.000000  -0.000000  -0.000000  -0.001667
    18  H    0.000157  -0.000116   0.000000   0.000004   0.000001  -0.004846
    19  C    0.000468   0.013701  -0.000256   0.000037  -0.000033   0.012227
    20  H   -0.000003   0.000009   0.000000  -0.000001  -0.000000   0.000928
    21  H    0.000111  -0.000231   0.000000   0.000000   0.000000  -0.000968
    22  S    0.007841  -0.015626  -0.000087   0.001695   0.000824  -0.010025
    23  O    0.000725   0.002896   0.000013   0.000248  -0.000011  -0.006067
    24  O    0.000811   0.016135   0.000056  -0.001607  -0.000567  -0.002032
    25  O   -0.019524   0.001733  -0.000107   0.000828  -0.000253   0.033091
    26  P   -0.001108  -0.017400  -0.000005   0.011599   0.000185  -0.002167
    27  O   -0.000799   0.000373   0.000818   0.004728  -0.002509  -0.001535
    28  O    0.000056   0.001016  -0.000004   0.000995  -0.000007   0.000217
    29  H   -0.000026   0.000020  -0.000002  -0.000129  -0.000001  -0.000069
    30  O    0.000040  -0.001551   0.000015   0.000153   0.000007  -0.000053
    31  H    0.000010   0.000164  -0.000001   0.000081  -0.000000   0.000012
    32  O   -0.000538  -0.000724   0.000248   0.000828   0.000009   0.009873
    33  H   -0.000080  -0.007389   0.000155   0.000452   0.000100  -0.010174
    34  O   -0.001561  -0.028713   0.003859  -0.021200  -0.020603  -0.032745
    35  H    0.000394  -0.002720  -0.000284   0.002188   0.002431   0.011846
    36  H    0.000174   0.016954  -0.000624   0.004091   0.003425   0.001370
              13         14         15         16         17         18
     1  C    0.026909   0.006764  -0.001796   0.044205   0.001380  -0.007963
     2  C   -0.037577  -0.012617  -0.004290  -0.290672   0.007584   0.015101
     3  C   -0.435359  -0.003991  -0.007439   0.370885  -0.004920  -0.010725
     4  N    0.029039  -0.002934   0.006008  -0.083009   0.000061   0.001403
     5  H    0.001546  -0.000020   0.000009  -0.000698  -0.000000   0.000035
     6  H    0.006457   0.000487  -0.000109   0.004948  -0.000415  -0.000209
     7  H    0.004890   0.000362   0.002901  -0.009146  -0.000001   0.000157
     8  C    0.018443  -0.000402   0.000479  -0.027868   0.000102  -0.000116
     9  H   -0.000318  -0.000011  -0.000002   0.000046  -0.000000   0.000000
    10  H    0.001549   0.000003   0.000002   0.000303  -0.000000   0.000004
    11  H    0.000698  -0.000002  -0.000001   0.000214  -0.000000   0.000001
    12  N    0.179273  -0.058445  -0.048485  -0.005456  -0.001667  -0.004846
    13  C    6.222793   0.455285   0.450510  -0.503010  -0.018618  -0.045888
    14  H    0.455285   0.508507  -0.021312  -0.064458  -0.006426  -0.000121
    15  H    0.450510  -0.021312   0.454547  -0.029345   0.000056   0.003541
    16  C   -0.503010  -0.064458  -0.029345   6.902214   0.380132   0.457209
    17  H   -0.018618  -0.006426   0.000056   0.380132   0.517212  -0.028447
    18  H   -0.045888  -0.000121   0.003541   0.457209  -0.028447   0.475795
    19  C    0.001452   0.006387  -0.018468  -0.972744  -0.006583  -0.036798
    20  H    0.020647  -0.000082  -0.000088  -0.068203  -0.004218  -0.005372
    21  H   -0.014068   0.000009   0.002728  -0.021892  -0.005664   0.004633
    22  S   -0.077757   0.004936   0.006633   0.212925  -0.004032   0.003029
    23  O    0.013877  -0.000015  -0.000064  -0.028367  -0.000350   0.000130
    24  O    0.068499   0.000547   0.000399  -0.094016   0.001818  -0.006048
    25  O    0.046960   0.000882  -0.000395  -0.002307   0.000111   0.001417
    26  P   -0.002733  -0.000004   0.000148  -0.002923   0.000004   0.000046
    27  O   -0.002630   0.000002   0.000015   0.002791  -0.000001  -0.000006
    28  O    0.001873   0.000000   0.000001   0.000218  -0.000001   0.000002
    29  H   -0.000697  -0.000000  -0.000011  -0.002523   0.000002  -0.000006
    30  O   -0.000106  -0.000000  -0.000000  -0.000217   0.000000   0.000000
    31  H    0.000043  -0.000000  -0.000000  -0.000039   0.000000   0.000000
    32  O    0.006564   0.000014   0.000273  -0.000593  -0.000005   0.000023
    33  H   -0.006622  -0.000022  -0.000661  -0.000613   0.000018  -0.000067
    34  O   -0.008703   0.000021   0.000055  -0.001476  -0.000019   0.000043
    35  H   -0.000858   0.000004  -0.000026   0.007625   0.000023  -0.000353
    36  H    0.000443  -0.000001  -0.000002  -0.000606   0.000001   0.000011
              19         20         21         22         23         24
     1  C   -0.089920   0.000396   0.000055   0.099944  -0.009333  -0.023284
     2  C    0.240929   0.000122  -0.002098  -0.092850   0.019922   0.033858
     3  C   -0.038766   0.000318   0.000787  -0.116499  -0.037545  -0.033565
     4  N    0.029796   0.000057  -0.000017  -0.022571   0.002578   0.051908
     5  H    0.000475  -0.000001  -0.000000   0.000444   0.000002  -0.000098
     6  H   -0.003685   0.000011   0.000011   0.001147  -0.000010  -0.003905
     7  H    0.000468  -0.000003   0.000111   0.007841   0.000725   0.000811
     8  C    0.013701   0.000009  -0.000231  -0.015626   0.002896   0.016135
     9  H   -0.000256   0.000000   0.000000  -0.000087   0.000013   0.000056
    10  H    0.000037  -0.000001   0.000000   0.001695   0.000248  -0.001607
    11  H   -0.000033  -0.000000   0.000000   0.000824  -0.000011  -0.000567
    12  N    0.012227   0.000928  -0.000968  -0.010025  -0.006067  -0.002032
    13  C    0.001452   0.020647  -0.014068  -0.077757   0.013877   0.068499
    14  H    0.006387  -0.000082   0.000009   0.004936  -0.000015   0.000547
    15  H   -0.018468  -0.000088   0.002728   0.006633  -0.000064   0.000399
    16  C   -0.972744  -0.068203  -0.021892   0.212925  -0.028367  -0.094016
    17  H   -0.006583  -0.004218  -0.005664  -0.004032  -0.000350   0.001818
    18  H   -0.036798  -0.005372   0.004633   0.003029   0.000130  -0.006048
    19  C    7.196580   0.434669   0.428883  -0.338049  -0.118155  -0.064609
    20  H    0.434669   0.461646  -0.025479  -0.048467   0.012456   0.005676
    21  H    0.428883  -0.025479   0.449410  -0.044200   0.008097  -0.005048
    22  S   -0.338049  -0.048467  -0.044200  14.198149   0.441702   0.337771
    23  O   -0.118155   0.012456   0.008097   0.441702   8.239176  -0.049938
    24  O   -0.064609   0.005676  -0.005048   0.337771  -0.049938   8.382819
    25  O   -0.137352  -0.002248   0.010926   0.249025  -0.075028  -0.020540
    26  P    0.005457  -0.000004   0.000310  -0.001980   0.029166  -0.012319
    27  O   -0.004126   0.000010   0.000002   0.041979  -0.021705  -0.000317
    28  O   -0.004801   0.000065   0.000052  -0.025568  -0.002294  -0.002601
    29  H    0.007340  -0.000044  -0.000164   0.027929   0.030421   0.002397
    30  O    0.001428  -0.000001  -0.000001  -0.001286   0.001454  -0.000062
    31  H    0.000088   0.000000  -0.000000  -0.002080   0.000524   0.000018
    32  O   -0.000229   0.000022   0.000176  -0.045946   0.003427  -0.001309
    33  H   -0.004692   0.000029  -0.000523   0.037522   0.007652   0.000522
    34  O   -0.007423   0.000037   0.000021  -0.025671  -0.000094   0.000589
    35  H    0.003069  -0.000047  -0.000006   0.032777  -0.002501   0.029699
    36  H    0.002378  -0.000006  -0.000002   0.010456  -0.000292  -0.005504
              25         26         27         28         29         30
     1  C    0.072251  -0.002644   0.017304  -0.000841  -0.000313  -0.000179
     2  C   -0.054689   0.002261  -0.011192   0.000187   0.000480   0.000175
     3  C   -0.258502   0.034202  -0.019637  -0.000142   0.002557   0.000354
     4  N    0.054900  -0.008528   0.012946  -0.000781  -0.000179   0.000109
     5  H    0.000036  -0.000097  -0.000013   0.000001  -0.000000   0.000000
     6  H   -0.000206   0.000011   0.000001  -0.000000  -0.000000  -0.000000
     7  H   -0.019524  -0.001108  -0.000799   0.000056  -0.000026   0.000040
     8  C    0.001733  -0.017400   0.000373   0.001016   0.000020  -0.001551
     9  H   -0.000107  -0.000005   0.000818  -0.000004  -0.000002   0.000015
    10  H    0.000828   0.011599   0.004728   0.000995  -0.000129   0.000153
    11  H   -0.000253   0.000185  -0.002509  -0.000007  -0.000001   0.000007
    12  N    0.033091  -0.002167  -0.001535   0.000217  -0.000069  -0.000053
    13  C    0.046960  -0.002733  -0.002630   0.001873  -0.000697  -0.000106
    14  H    0.000882  -0.000004   0.000002   0.000000  -0.000000  -0.000000
    15  H   -0.000395   0.000148   0.000015   0.000001  -0.000011  -0.000000
    16  C   -0.002307  -0.002923   0.002791   0.000218  -0.002523  -0.000217
    17  H    0.000111   0.000004  -0.000001  -0.000001   0.000002   0.000000
    18  H    0.001417   0.000046  -0.000006   0.000002  -0.000006   0.000000
    19  C   -0.137352   0.005457  -0.004126  -0.004801   0.007340   0.001428
    20  H   -0.002248  -0.000004   0.000010   0.000065  -0.000044  -0.000001
    21  H    0.010926   0.000310   0.000002   0.000052  -0.000164  -0.000001
    22  S    0.249025  -0.001980   0.041979  -0.025568   0.027929  -0.001286
    23  O   -0.075028   0.029166  -0.021705  -0.002294   0.030421   0.001454
    24  O   -0.020540  -0.012319  -0.000317  -0.002601   0.002397  -0.000062
    25  O    8.819655   0.021189  -0.009666   0.000731   0.001218   0.001784
    26  P    0.021189  12.500487   0.458942   0.261240   0.029985   0.199409
    27  O   -0.009666   0.458942   8.246079  -0.008032   0.003989  -0.011881
    28  O    0.000731   0.261240  -0.008032   8.108103   0.233953  -0.021655
    29  H    0.001218   0.029985   0.003989   0.233953   0.304361   0.005906
    30  O    0.001784   0.199409  -0.011881  -0.021655   0.005906   8.021378
    31  H    0.000591   0.008236  -0.008901  -0.005257  -0.000139   0.241398
    32  O    0.042748   0.289172  -0.036941   0.008608  -0.013633   0.006251
    33  H    0.019561   0.026204  -0.005548  -0.005852   0.006563   0.000308
    34  O   -0.003900  -0.011557   0.001691   0.002944  -0.000373  -0.001081
    35  H    0.002837   0.001335  -0.002156  -0.000759   0.000031   0.000063
    36  H   -0.001196   0.000874   0.028831  -0.001768   0.000421   0.000956
              31         32         33         34         35         36
     1  C   -0.000086  -0.000132  -0.008707  -0.074214   0.050060   0.005373
     2  C    0.000055   0.002173   0.001959   0.022394  -0.035563  -0.001706
     3  C    0.000090  -0.024669   0.069754   0.060964  -0.001989  -0.010732
     4  N   -0.000057  -0.001716  -0.014424   0.043857  -0.020566  -0.003751
     5  H    0.000000  -0.000002   0.000006  -0.012724   0.001349   0.000314
     6  H   -0.000000  -0.000002   0.000001  -0.000027   0.000011  -0.000010
     7  H    0.000010  -0.000538  -0.000080  -0.001561   0.000394   0.000174
     8  C    0.000164  -0.000724  -0.007389  -0.028713  -0.002720   0.016954
     9  H   -0.000001   0.000248   0.000155   0.003859  -0.000284  -0.000624
    10  H    0.000081   0.000828   0.000452  -0.021200   0.002188   0.004091
    11  H   -0.000000   0.000009   0.000100  -0.020603   0.002431   0.003425
    12  N    0.000012   0.009873  -0.010174  -0.032745   0.011846   0.001370
    13  C    0.000043   0.006564  -0.006622  -0.008703  -0.000858   0.000443
    14  H   -0.000000   0.000014  -0.000022   0.000021   0.000004  -0.000001
    15  H   -0.000000   0.000273  -0.000661   0.000055  -0.000026  -0.000002
    16  C   -0.000039  -0.000593  -0.000613  -0.001476   0.007625  -0.000606
    17  H    0.000000  -0.000005   0.000018  -0.000019   0.000023   0.000001
    18  H    0.000000   0.000023  -0.000067   0.000043  -0.000353   0.000011
    19  C    0.000088  -0.000229  -0.004692  -0.007423   0.003069   0.002378
    20  H    0.000000   0.000022   0.000029   0.000037  -0.000047  -0.000006
    21  H   -0.000000   0.000176  -0.000523   0.000021  -0.000006  -0.000002
    22  S   -0.002080  -0.045946   0.037522  -0.025671   0.032777   0.010456
    23  O    0.000524   0.003427   0.007652  -0.000094  -0.002501  -0.000292
    24  O    0.000018  -0.001309   0.000522   0.000589   0.029699  -0.005504
    25  O    0.000591   0.042748   0.019561  -0.003900   0.002837  -0.001196
    26  P    0.008236   0.289172   0.026204  -0.011557   0.001335   0.000874
    27  O   -0.008901  -0.036941  -0.005548   0.001691  -0.002156   0.028831
    28  O   -0.005257   0.008608  -0.005852   0.002944  -0.000759  -0.001768
    29  H   -0.000139  -0.013633   0.006563  -0.000373   0.000031   0.000421
    30  O    0.241398   0.006251   0.000308  -0.001081   0.000063   0.000956
    31  H    0.468943  -0.008376   0.000276   0.000047  -0.000007  -0.000041
    32  O   -0.008376   8.221557   0.178604  -0.000040  -0.000099  -0.000490
    33  H    0.000276   0.178604   0.278291  -0.000031   0.000178   0.000521
    34  O    0.000047  -0.000040  -0.000031   8.162070   0.244703   0.278257
    35  H   -0.000007  -0.000099   0.000178   0.244703   0.364356   0.001211
    36  H   -0.000041  -0.000490   0.000521   0.278257   0.001211   0.359044
 Mulliken charges:
               1
     1  C   -0.205180
     2  C   -0.114261
     3  C   -0.543826
     4  N    0.399323
     5  H    0.187369
     6  H    0.163133
     7  H    0.242230
     8  C   -0.489297
     9  H    0.181041
    10  H    0.254173
    11  H    0.202641
    12  N    0.319889
    13  C   -0.402808
    14  H    0.186653
    15  H    0.204189
    16  C   -0.173535
    17  H    0.172864
    18  H    0.184384
    19  C   -0.538675
    20  H    0.217168
    21  H    0.214150
    22  S    1.155965
    23  O   -0.462694
    24  O   -0.606155
    25  O   -0.796561
    26  P    1.183008
    27  O   -0.672906
    28  O   -0.539899
    29  H    0.360737
    30  O   -0.443114
    31  H    0.304412
    32  O   -0.635126
    33  H    0.436732
    34  O   -0.569396
    35  H    0.311745
    36  H    0.311627
 Sum of Mulliken charges =  -0.00000
 Mulliken charges with hydrogens summed into heavy atoms:
               1
     1  C   -0.017810
     2  C    0.048872
     3  C   -0.301596
     4  N    0.399323
     8  C    0.148558
    12  N    0.319889
    13  C   -0.011966
    16  C    0.183714
    19  C   -0.107357
    22  S    1.155965
    23  O   -0.462694
    24  O   -0.606155
    25  O   -0.796561
    26  P    1.183008
    27  O   -0.672906
    28  O   -0.179163
    30  O   -0.138703
    32  O   -0.198393
    34  O    0.053975
         Mulliken charges condensed to fragments:
      1     -0.047818
      2     -0.006157
      3      0.053975
 Electronic spatial extent (au):  <R**2>=         190436.9626
 Charge=             -0.0000 electrons
 Dipole moment (field-independent basis, Debye):
    X=              6.9360    Y=             -8.5908    Z=              3.4033  Tot=             11.5539
 Quadrupole moment (field-independent basis, Debye-Ang):
   XX=             17.2928   YY=           -315.0985   ZZ=            -48.8550
   XY=            -10.5228   XZ=            104.8830   YZ=            -53.3459
 Traceless Quadrupole moment (field-independent basis, Debye-Ang):
   XX=            132.8464   YY=           -199.5450   ZZ=             66.6986
   XY=            -10.5228   XZ=            104.8830   YZ=            -53.3459
 Octapole moment (field-independent basis, Debye-Ang**2):
  XXX=          -1423.7857  YYY=          -7154.8998  ZZZ=          -2517.8564  XYY=          -2272.7876
  XXY=           -657.3517  XXZ=            514.6853  XZZ=            324.9054  YZZ=          -1484.6767
  YYZ=          -2846.8584  XYZ=            219.1228
 Hexadecapole moment (field-independent basis, Debye-Ang**3):
 XXXX=         -42746.2891 YYYY=        -133073.4167 ZZZZ=         -60253.6091 XXXY=         -23146.1878
 XXXZ=         -11424.5647 YYYX=         -60361.5205 YYYZ=         -68461.5725 ZZZX=         -15493.7272
 ZZZY=         -37155.3382 XXYY=         -28853.6107 XXZZ=          -2359.3771 YYZZ=         -39990.2541
 XXYZ=          -3521.4925 YYXZ=         -20003.9151 ZZXY=          -6210.7930
 N-N= 2.135066679552D+03 E-N=-8.347974061348D+03  KE= 1.722616965400D+03
 No NMR shielding tensors so no spin-rotation constants.
 Leave Link  601 at Thu May 12 13:08:13 2022, MaxMem= 10485760000 cpu:               3.1 elap:               0.2
 (Enter /data0/hywu0/study/g16/l122.exe)
 CPIOFr:  IOpCl= 0 IRwI=-1 IRwCP=  731 ICalc= -1 LCPTot=      609947 Len1MO=     1605619 IndFrg=      609947
 CPIOFr:  IOpCl= 0 IRwI=-1 IRwCP=  731 ICalc=  0 LCPTot=      609947 Len1MO=     1605619 IndFrg=     2215566
 Counterpoise: doing calculation for fragment   1 using the basis set of the full-system, NewBq=T
 Leave Link  122 at Thu May 12 13:08:13 2022, MaxMem= 10485760000 cpu:               0.4 elap:               0.0
 (Enter /data0/hywu0/study/g16/l301.exe)
 Basis read from rwf:  (5D, 7F)
 No pseudopotential information found on rwf file.
   631 basis functions,   962 primitive gaussians,   669 cartesian basis functions
    54 alpha electrons       54 beta electrons
       nuclear repulsion energy      1039.1401123642 Hartrees.
 IExCor= 4336 DFT=T Ex+Corr=M062X ExCW=0 ScaHFX=  0.540000
 ScaDFX=  1.000000  1.000000  1.000000  1.000000 ScalE2=  1.000000  1.000000
 IRadAn=      5 IRanWt=     -1 IRanGd=            0 ICorTp=0 IEmpDi=131
 NAtoms=   36 NActive=   36 NUniq=   36 SFac= 1.00D+00 NAtFMM=   60 NAOKFM=F Big=F
 Integral buffers will be    131072 words long.
 Raffenetti 2 integral format.
 Two-electron integral symmetry is turned off.
 R6Disp:  Grimme-D3 Dispersion energy=       -0.0011979944 Hartrees.
 Nuclear repulsion after empirical dispersion term =     1039.1389143698 Hartrees.
 No density basis found on file   718.
 Leave Link  301 at Thu May 12 13:08:13 2022, MaxMem= 10485760000 cpu:               0.8 elap:               0.1
 (Enter /data0/hywu0/study/g16/l302.exe)
 NPDir=0 NMtPBC=     1 NCelOv=     1 NCel=       1 NClECP=     1 NCelD=      1
         NCelK=      1 NCelE2=     1 NClLst=     1 CellRange=     0.0.
 One-electron integrals computed using PRISM.
 NBasis=   631 RedAO= T EigKep=  9.19D-06  NBF=   631
 NBsUse=   631 1.00D-06 EigRej= -1.00D+00 NBFU=   631
 Precomputing XC quadrature grid using
 IXCGrd= 4 IRadAn=           5 IRanWt=          -1 IRanGd=           0 AccXCQ= 0.00D+00.
 Generated NRdTot=       0 NPtTot=           0 NUsed=           0 NTot=          32
 NSgBfM=   668   668   668   668   668 MxSgAt=    36 MxSgA2=    36.
 Leave Link  302 at Thu May 12 13:08:14 2022, MaxMem= 10485760000 cpu:              12.0 elap:               0.8
 (Enter /data0/hywu0/study/g16/l303.exe)
 DipDrv:  MaxL=1.
 Leave Link  303 at Thu May 12 13:08:14 2022, MaxMem= 10485760000 cpu:               1.2 elap:               0.1
 (Enter /data0/hywu0/study/g16/l401.exe)
 ExpMin= 3.48D-02 ExpMax= 9.34D+04 ExpMxC= 3.17D+03 IAcc=3 IRadAn=         5 AccDes= 0.00D+00
 Harris functional with IExCor= 1009 and IRadAn=       5 diagonalized for initial guess.
 HarFok:  IExCor= 1009 AccDes= 0.00D+00 IRadAn=         5 IDoV= 1 UseB2=F ITyADJ=14
 ICtDFT=  3500011 ScaDFX=  1.000000  1.000000  1.000000  1.000000
 FoFCou: FMM=F IPFlag=           0 FMFlag=      100000 FMFlg1=           0
         NFxFlg=           0 DoJE=T BraDBF=F KetDBF=T FulRan=T
         wScrn=  0.000000 ICntrl=       500 IOpCl=  0 I1Cent=   200000004 NGrid=           0
         NMat0=    1 NMatS0=      1 NMatT0=    0 NMatD0=    1 NMtDS0=    0 NMtDT0=    0
 Symmetry not used in FoFCou.
 Harris En= -1006.80594124800    
 JPrj=0 DoOrth=F DoCkMO=F.
 Leave Link  401 at Thu May 12 13:08:18 2022, MaxMem= 10485760000 cpu:              51.8 elap:               3.3
 (Enter /data0/hywu0/study/g16/l502.exe)
 Two-electron integral symmetry not used.
 Closed shell SCF:
 Using DIIS extrapolation, IDIIS=  1040.
 NGot= 10485760000 LenX= 10484849541 LenY= 10484401311
 Requested convergence on RMS density matrix=1.00D-08 within 128 cycles.
 Requested convergence on MAX density matrix=1.00D-06.
 Requested convergence on             energy=1.00D-06.
 No special actions if energy rises.
 Fock matrices will be formed incrementally for  20 cycles.

 Cycle   1  Pass 1  IDiag  1:
 FoFJK:  IHMeth= 1 ICntrl=       0 DoSepK=F KAlg= 0 I1Cent=           0 FoldK=F
 IRaf= 840000000 NMat=       1 IRICut=       1 DoRegI=T DoRafI=F ISym2E= 0 IDoP0=0 IntGTp=1.
 FoFCou: FMM=F IPFlag=           0 FMFlag=      100000 FMFlg1=           0
         NFxFlg=           0 DoJE=F BraDBF=F KetDBF=F FulRan=T
         wScrn=  0.000000 ICntrl=         0 IOpCl=  0 I1Cent=           0 NGrid=           0
         NMat0=    1 NMatS0=      1 NMatT0=    0 NMatD0=    1 NMtDS0=    0 NMtDT0=    0
 Symmetry not used in FoFCou.
 E= -1006.77625864950    
 DIIS: error= 1.32D-02 at cycle   1 NSaved=   1.
 NSaved= 1 IEnMin= 1 EnMin= -1006.77625864950     IErMin= 1 ErrMin= 1.32D-02
 ErrMax= 1.32D-02  0.00D+00 EMaxC= 1.00D-01 BMatC= 7.13D-01 BMatP= 7.13D-01
 IDIUse=3 WtCom= 8.68D-01 WtEn= 1.32D-01
 Coeff-Com:  0.100D+01
 Coeff-En:   0.100D+01
 Coeff:      0.100D+01
 Gap=     0.277 Goal=   None    Shift=    0.000
 GapD=    0.277 DampG=1.000 DampE=0.500 DampFc=0.5000 IDamp=-1.
 Damping current iteration by 5.00D-01
 RMSDP=4.75D-03 MaxDP=9.43D-01              OVMax= 1.82D-01

 Cycle   2  Pass 1  IDiag  1:
 RMSU=  2.35D-03    CP:  1.03D+00
 E= -1006.96898149655     Delta-E=       -0.192722847059 Rises=F Damp=T
 DIIS: error= 3.62D-03 at cycle   2 NSaved=   2.
 NSaved= 2 IEnMin= 2 EnMin= -1006.96898149655     IErMin= 2 ErrMin= 3.62D-03
 ErrMax= 3.62D-03  0.00D+00 EMaxC= 1.00D-01 BMatC= 5.00D-02 BMatP= 7.13D-01
 IDIUse=3 WtCom= 9.64D-01 WtEn= 3.62D-02
 Coeff-Com:  0.315D-01 0.968D+00
 Coeff-En:   0.112D+00 0.888D+00
 Coeff:      0.344D-01 0.966D+00
 Gap=     0.266 Goal=   None    Shift=    0.000
 RMSDP=1.99D-03 MaxDP=4.35D-01 DE=-1.93D-01 OVMax= 1.18D-01

 Cycle   3  Pass 1  IDiag  1:
 RMSU=  1.45D-03    CP:  9.09D-01  6.67D-01
 E= -1007.20201329365     Delta-E=       -0.233031797096 Rises=F Damp=F
 DIIS: error= 3.18D-03 at cycle   3 NSaved=   3.
 NSaved= 3 IEnMin= 3 EnMin= -1007.20201329365     IErMin= 3 ErrMin= 3.18D-03
 ErrMax= 3.18D-03  0.00D+00 EMaxC= 1.00D-01 BMatC= 1.87D-02 BMatP= 5.00D-02
 IDIUse=3 WtCom= 9.68D-01 WtEn= 3.18D-02
 Coeff-Com: -0.640D-01 0.349D+00 0.715D+00
 Coeff-En:   0.000D+00 0.000D+00 0.100D+01
 Coeff:     -0.619D-01 0.338D+00 0.724D+00
 Gap=     0.262 Goal=   None    Shift=    0.000
 RMSDP=3.89D-04 MaxDP=3.86D-02 DE=-2.33D-01 OVMax= 2.99D-02

 Cycle   4  Pass 1  IDiag  1:
 RMSU=  3.39D-04    CP:  9.08D-01  7.47D-01  9.86D-01
 E= -1007.21362843522     Delta-E=       -0.011615141570 Rises=F Damp=F
 DIIS: error= 1.37D-03 at cycle   4 NSaved=   4.
 NSaved= 4 IEnMin= 4 EnMin= -1007.21362843522     IErMin= 4 ErrMin= 1.37D-03
 ErrMax= 1.37D-03  0.00D+00 EMaxC= 1.00D-01 BMatC= 2.63D-03 BMatP= 1.87D-02
 IDIUse=3 WtCom= 9.86D-01 WtEn= 1.37D-02
 Coeff-Com: -0.289D-01 0.798D-01 0.336D+00 0.613D+00
 Coeff-En:   0.000D+00 0.000D+00 0.825D-01 0.917D+00
 Coeff:     -0.285D-01 0.787D-01 0.333D+00 0.617D+00
 Gap=     0.260 Goal=   None    Shift=    0.000
 RMSDP=1.50D-04 MaxDP=1.10D-02 DE=-1.16D-02 OVMax= 1.18D-02

 Cycle   5  Pass 1  IDiag  1:
 RMSU=  1.03D-04    CP:  9.06D-01  7.32D-01  1.00D+00  7.10D-01
 E= -1007.21600690345     Delta-E=       -0.002378468233 Rises=F Damp=F
 DIIS: error= 2.19D-04 at cycle   5 NSaved=   5.
 NSaved= 5 IEnMin= 5 EnMin= -1007.21600690345     IErMin= 5 ErrMin= 2.19D-04
 ErrMax= 2.19D-04  0.00D+00 EMaxC= 1.00D-01 BMatC= 8.42D-05 BMatP= 2.63D-03
 IDIUse=3 WtCom= 9.98D-01 WtEn= 2.19D-03
 Coeff-Com: -0.720D-02 0.134D-01 0.866D-01 0.230D+00 0.678D+00
 Coeff-En:   0.000D+00 0.000D+00 0.000D+00 0.000D+00 0.100D+01
 Coeff:     -0.719D-02 0.134D-01 0.864D-01 0.229D+00 0.678D+00
 Gap=     0.260 Goal=   None    Shift=    0.000
 RMSDP=4.74D-05 MaxDP=5.57D-03 DE=-2.38D-03 OVMax= 2.30D-03

 Cycle   6  Pass 1  IDiag  1:
 RMSU=  2.83D-05    CP:  9.05D-01  7.33D-01  1.01D+00  7.77D-01  7.24D-01
 E= -1007.21607582539     Delta-E=       -0.000068921941 Rises=F Damp=F
 DIIS: error= 8.53D-05 at cycle   6 NSaved=   6.
 NSaved= 6 IEnMin= 6 EnMin= -1007.21607582539     IErMin= 6 ErrMin= 8.53D-05
 ErrMax= 8.53D-05  0.00D+00 EMaxC= 1.00D-01 BMatC= 1.31D-05 BMatP= 8.42D-05
 IDIUse=1 WtCom= 1.00D+00 WtEn= 0.00D+00
 Coeff-Com: -0.136D-02 0.800D-03 0.173D-01 0.689D-01 0.336D+00 0.578D+00
 Coeff:     -0.136D-02 0.800D-03 0.173D-01 0.689D-01 0.336D+00 0.578D+00
 Gap=     0.260 Goal=   None    Shift=    0.000
 RMSDP=1.01D-05 MaxDP=1.06D-03 DE=-6.89D-05 OVMax= 1.00D-03

 Cycle   7  Pass 1  IDiag  1:
 RMSU=  7.58D-06    CP:  9.05D-01  7.31D-01  1.01D+00  7.80D-01  7.58D-01
                    CP:  9.20D-01
 E= -1007.21608654750     Delta-E=       -0.000010722110 Rises=F Damp=F
 DIIS: error= 3.45D-05 at cycle   7 NSaved=   7.
 NSaved= 7 IEnMin= 7 EnMin= -1007.21608654750     IErMin= 7 ErrMin= 3.45D-05
 ErrMax= 3.45D-05  0.00D+00 EMaxC= 1.00D-01 BMatC= 1.68D-06 BMatP= 1.31D-05
 IDIUse=1 WtCom= 1.00D+00 WtEn= 0.00D+00
 Coeff-Com:  0.517D-03-0.182D-02-0.629D-02-0.341D-02 0.579D-01 0.280D+00
 Coeff-Com:  0.674D+00
 Coeff:      0.517D-03-0.182D-02-0.629D-02-0.341D-02 0.579D-01 0.280D+00
 Coeff:      0.674D+00
 Gap=     0.260 Goal=   None    Shift=    0.000
 RMSDP=5.09D-06 MaxDP=6.37D-04 DE=-1.07D-05 OVMax= 3.43D-04

 Cycle   8  Pass 1  IDiag  1:
 RMSU=  3.21D-06    CP:  9.04D-01  7.30D-01  1.01D+00  7.83D-01  7.78D-01
                    CP:  9.62D-01  9.49D-01
 E= -1007.21608805683     Delta-E=       -0.000001509322 Rises=F Damp=F
 DIIS: error= 1.12D-05 at cycle   8 NSaved=   8.
 NSaved= 8 IEnMin= 8 EnMin= -1007.21608805683     IErMin= 8 ErrMin= 1.12D-05
 ErrMax= 1.12D-05  0.00D+00 EMaxC= 1.00D-01 BMatC= 1.44D-07 BMatP= 1.68D-06
 IDIUse=1 WtCom= 1.00D+00 WtEn= 0.00D+00
 Coeff-Com:  0.351D-03-0.725D-03-0.488D-02-0.105D-01-0.231D-01 0.254D-01
 Coeff-Com:  0.256D+00 0.758D+00
 Coeff:      0.351D-03-0.725D-03-0.488D-02-0.105D-01-0.231D-01 0.254D-01
 Coeff:      0.256D+00 0.758D+00
 Gap=     0.260 Goal=   None    Shift=    0.000
 RMSDP=1.61D-06 MaxDP=1.27D-04 DE=-1.51D-06 OVMax= 1.95D-04

 Cycle   9  Pass 1  IDiag  1:
 RMSU=  1.17D-06    CP:  9.04D-01  7.30D-01  1.01D+00  7.84D-01  7.86D-01
                    CP:  9.80D-01  9.73D-01  9.96D-01
 E= -1007.21608822177     Delta-E=       -0.000000164943 Rises=F Damp=F
[...]
     3  C    0.000000
     4  N    0.000000
     8  C    0.000000
    12  N    0.000000
    13  C    0.000000
    16  C    0.000000
    19  C    0.000000
    22  S    0.000000
    23  O    0.000000
    24  O    0.000000
    25  O    0.000000
    26  P    1.287989
    27  O   -0.604577
    28  O   -0.244469
    30  O   -0.191701
    32  O   -0.247242
    34  O    0.000000
         Mulliken charges condensed to fragments:
      1      0.000000
      2     -0.000000
      3      0.000000
 Electronic spatial extent (au):  <R**2>=          45560.4320
 Charge=             -0.0000 electrons
 Dipole moment (field-independent basis, Debye):
    X=             -1.5842    Y=             -2.9846    Z=              4.3795  Tot=              5.5315
 Quadrupole moment (field-independent basis, Debye-Ang):
   XX=            -57.2164   YY=           -105.6899   ZZ=             44.9319
   XY=            -41.2340   XZ=             22.1491   YZ=             23.4466
 Traceless Quadrupole moment (field-independent basis, Debye-Ang):
   XX=            -17.8916   YY=            -66.3651   ZZ=             84.2567
   XY=            -41.2340   XZ=             22.1491   YZ=             23.4466
 Octapole moment (field-independent basis, Debye-Ang**2):
  XXX=           -979.6516  YYY=          -2453.7498  ZZZ=            204.6795  XYY=           -995.7812
  XXY=           -841.2707  XXZ=           -207.2342  XZZ=            291.8048  YZZ=            274.8053
  YYZ=           -354.8455  XYZ=             44.4751
 Hexadecapole moment (field-independent basis, Debye-Ang**3):
 XXXX=         -12925.9894 YYYY=         -47322.4803 ZZZZ=          -1874.5553 XXXY=         -12754.2660
 XXXZ=          -6186.2937 YYYX=         -20355.2673 YYYZ=         -14819.5052 ZZZX=           1730.6670
 ZZZY=            189.1052 XXYY=         -13612.1353 XXZZ=           -785.8762 YYZZ=          -2345.7612
 XXYZ=          -4070.2833 YYXZ=          -4081.2804 ZZXY=           1441.5677
 N-N= 2.800152422111D+02 E-N=-2.087701005083D+03  KE= 6.425369870939D+02
 No NMR shielding tensors so no spin-rotation constants.
 Leave Link  601 at Thu May 12 13:17:25 2022, MaxMem= 10485760000 cpu:               1.1 elap:               0.1
 (Enter /data0/hywu0/study/g16/l122.exe)
 CPIOFr:  IOpCl= 0 IRwI=-1 IRwCP=  731 ICalc=  5 LCPTot=      609947 Len1MO=     1605619 IndFrg=    10243661
 Counterpoise: doing calculation for fragment   3 using the basis set of the fragment.
 Leave Link  122 at Thu May 12 13:17:25 2022, MaxMem= 10485760000 cpu:               0.2 elap:               0.0
 (Enter /data0/hywu0/study/g16/l301.exe)
 Basis read from rwf:  (5D, 7F)
 No pseudopotential information found on rwf file.
    39 basis functions,    58 primitive gaussians,    41 cartesian basis functions
     5 alpha electrons        5 beta electrons
       nuclear repulsion energy         9.0769598796 Hartrees.
 IExCor= 4336 DFT=T Ex+Corr=M062X ExCW=0 ScaHFX=  0.540000
 ScaDFX=  1.000000  1.000000  1.000000  1.000000 ScalE2=  1.000000  1.000000
 IRadAn=      5 IRanWt=     -1 IRanGd=            0 ICorTp=0 IEmpDi=131
 NAtoms=   36 NActive=    3 NUniq=    3 SFac= 1.00D+00 NAtFMM=   60 NAOKFM=F Big=F
 Integral buffers will be    131072 words long.
 Raffenetti 2 integral format.
 Two-electron integral symmetry is turned off.
 R6Disp:  Grimme-D3 Dispersion energy=       -0.0000000072 Hartrees.
 Nuclear repulsion after empirical dispersion term =        9.0769598724 Hartrees.
 No density basis found on file   718.
 Leave Link  301 at Thu May 12 13:17:25 2022, MaxMem= 10485760000 cpu:               0.8 elap:               0.1
 (Enter /data0/hywu0/study/g16/l302.exe)
 NPDir=0 NMtPBC=     1 NCelOv=     1 NCel=       1 NClECP=     1 NCelD=      1
         NCelK=      1 NCelE2=     1 NClLst=     1 CellRange=     0.0.
 One-electron integrals computed using PRISM.
 NBasis=    39 RedAO= T EigKep=  3.00D-03  NBF=    39
 NBsUse=    39 1.00D-06 EigRej= -1.00D+00 NBFU=    39
 Precomputing XC quadrature grid using
 IXCGrd= 4 IRadAn=           5 IRanWt=          -1 IRanGd=           0 AccXCQ= 0.00D+00.
 Generated NRdTot=       0 NPtTot=           0 NUsed=           0 NTot=          32
 NSgBfM=    41    41    41    41    41 MxSgAt=     3 MxSgA2=     3.
 Leave Link  302 at Thu May 12 13:17:25 2022, MaxMem= 10485760000 cpu:               1.3 elap:               0.1
 (Enter /data0/hywu0/study/g16/l303.exe)
 DipDrv:  MaxL=1.
 Leave Link  303 at Thu May 12 13:17:25 2022, MaxMem= 10485760000 cpu:               0.3 elap:               0.0
 (Enter /data0/hywu0/study/g16/l401.exe)
 ExpMin= 8.45D-02 ExpMax= 8.59D+03 ExpMxC= 1.30D+03 IAcc=3 IRadAn=         5 AccDes= 0.00D+00
 Harris functional with IExCor= 1009 and IRadAn=       5 diagonalized for initial guess.
 HarFok:  IExCor= 1009 AccDes= 0.00D+00 IRadAn=         5 IDoV= 1 UseB2=F ITyADJ=14
 ICtDFT=  3500011 ScaDFX=  1.000000  1.000000  1.000000  1.000000
 FoFCou: FMM=F IPFlag=           0 FMFlag=      100000 FMFlg1=           0
         NFxFlg=           0 DoJE=T BraDBF=F KetDBF=T FulRan=T
         wScrn=  0.000000 ICntrl=       500 IOpCl=  0 I1Cent=   200000004 NGrid=           0
         NMat0=    1 NMatS0=      1 NMatT0=    0 NMatD0=    1 NMtDS0=    0 NMtDT0=    0
 Symmetry not used in FoFCou.
 Harris En= -76.4158716069349    
 JPrj=0 DoOrth=F DoCkMO=F.
 Leave Link  401 at Thu May 12 13:17:25 2022, MaxMem= 10485760000 cpu:               1.7 elap:               0.1
 (Enter /data0/hywu0/study/g16/l502.exe)
 Keep R1 ints in memory in canonical form, NReq=14132037.
 FoFCou: FMM=F IPFlag=           0 FMFlag=           0 FMFlg1=           0
         NFxFlg=           0 DoJE=F BraDBF=F KetDBF=F FulRan=T
         wScrn=  0.000000 ICntrl=       600 IOpCl=  0 I1Cent=           0 NGrid=           0
         NMat0=    1 NMatS0=    780 NMatT0=    0 NMatD0=    1 NMtDS0=    0 NMtDT0=    0
 Symmetry not used in FoFCou.
 Two-electron integral symmetry not used.
 Closed shell SCF:
 Using DIIS extrapolation, IDIIS=  1040.
 NGot= 10485760000 LenX= 10485449899 LenY= 10485447777
 Requested convergence on RMS density matrix=1.00D-08 within 128 cycles.
 Requested convergence on MAX density matrix=1.00D-06.
 Requested convergence on             energy=1.00D-06.
 No special actions if energy rises.
 Integral accuracy reduced to 1.0D-05 until final iterations.

 Cycle   1  Pass 0  IDiag  1:
 E= -76.3465470509297    
 DIIS: error= 6.96D-02 at cycle   1 NSaved=   1.
 NSaved= 1 IEnMin= 1 EnMin= -76.3465470509297     IErMin= 1 ErrMin= 6.96D-02
 ErrMax= 6.96D-02  0.00D+00 EMaxC= 1.00D-01 BMatC= 1.20D-01 BMatP= 1.20D-01
 IDIUse=3 WtCom= 3.04D-01 WtEn= 6.96D-01
 Coeff-Com:  0.100D+01
 Coeff-En:   0.100D+01
 Coeff:      0.100D+01
 Gap=     0.324 Goal=   None    Shift=    0.000
 GapD=    0.324 DampG=1.000 DampE=0.500 DampFc=0.5000 IDamp=-1.
 Damping current iteration by 5.00D-01
 RMSDP=8.00D-03 MaxDP=1.00D-01              OVMax= 1.67D-01

 Cycle   2  Pass 0  IDiag  1:
 E= -76.3776531964756     Delta-E=       -0.031106145546 Rises=F Damp=T
 DIIS: error= 1.12D-02 at cycle   2 NSaved=   2.
 NSaved= 2 IEnMin= 2 EnMin= -76.3776531964756     IErMin= 2 ErrMin= 1.12D-02
 ErrMax= 1.12D-02  0.00D+00 EMaxC= 1.00D-01 BMatC= 4.87D-03 BMatP= 1.20D-01
 IDIUse=3 WtCom= 8.88D-01 WtEn= 1.12D-01
 Coeff-Com:  0.842D-01 0.916D+00
 Coeff-En:   0.190D+00 0.810D+00
 Coeff:      0.960D-01 0.904D+00
 Gap=     0.457 Goal=   None    Shift=    0.000
 RMSDP=9.56D-04 MaxDP=1.42D-02 DE=-3.11D-02 OVMax= 1.00D-01

 Cycle   3  Pass 0  IDiag  1:
 E= -76.4213890486698     Delta-E=       -0.043735852194 Rises=F Damp=F
 DIIS: error= 2.16D-03 at cycle   3 NSaved=   3.
 NSaved= 3 IEnMin= 3 EnMin= -76.4213890486698     IErMin= 3 ErrMin= 2.16D-03
 ErrMax= 2.16D-03  0.00D+00 EMaxC= 1.00D-01 BMatC= 9.11D-05 BMatP= 4.87D-03
 IDIUse=3 WtCom= 9.78D-01 WtEn= 2.16D-02
 Coeff-Com: -0.200D-01 0.393D-01 0.981D+00
 Coeff-En:   0.000D+00 0.000D+00 0.100D+01
 Coeff:     -0.196D-01 0.385D-01 0.981D+00
 Gap=     0.461 Goal=   None    Shift=    0.000
 RMSDP=1.15D-04 MaxDP=1.03D-03 DE=-4.37D-02 OVMax= 3.34D-03

 Cycle   4  Pass 0  IDiag  1:
 E= -76.4214668905139     Delta-E=       -0.000077841844 Rises=F Damp=F
 DIIS: error= 4.16D-04 at cycle   4 NSaved=   4.
 NSaved= 4 IEnMin= 4 EnMin= -76.4214668905139     IErMin= 4 ErrMin= 4.16D-04
 ErrMax= 4.16D-04  0.00D+00 EMaxC= 1.00D-01 BMatC= 3.29D-06 BMatP= 9.11D-05
 IDIUse=3 WtCom= 9.96D-01 WtEn= 4.16D-03
 Coeff-Com: -0.190D-02-0.229D-02 0.161D+00 0.843D+00
 Coeff-En:   0.000D+00 0.000D+00 0.000D+00 0.100D+01
 Coeff:     -0.189D-02-0.228D-02 0.161D+00 0.843D+00
 Gap=     0.461 Goal=   None    Shift=    0.000
 RMSDP=2.23D-05 MaxDP=3.56D-04 DE=-7.78D-05 OVMax= 5.43D-04

 Cycle   5  Pass 0  IDiag  1:
 E= -76.4214689333281     Delta-E=       -0.000002042814 Rises=F Damp=F
 DIIS: error= 8.92D-05 at cycle   5 NSaved=   5.
 NSaved= 5 IEnMin= 5 EnMin= -76.4214689333281     IErMin= 5 ErrMin= 8.92D-05
 ErrMax= 8.92D-05  0.00D+00 EMaxC= 1.00D-01 BMatC= 8.32D-08 BMatP= 3.29D-06
 IDIUse=1 WtCom= 1.00D+00 WtEn= 0.00D+00
 Coeff-Com:  0.119D-02-0.182D-02-0.371D-01-0.628D-01 0.110D+01
 Coeff:      0.119D-02-0.182D-02-0.371D-01-0.628D-01 0.110D+01
 Gap=     0.462 Goal=   None    Shift=    0.000
 RMSDP=9.06D-06 MaxDP=1.02D-04 DE=-2.04D-06 OVMax= 2.05D-04

 Initial convergence to 1.0D-05 achieved.  Increase integral accuracy.
 Cycle   6  Pass 1  IDiag  1:
 E= -76.4214586400456     Delta-E=        0.000010293283 Rises=F Damp=F
 DIIS: error= 2.35D-05 at cycle   1 NSaved=   1.
 NSaved= 1 IEnMin= 1 EnMin= -76.4214586400456     IErMin= 1 ErrMin= 2.35D-05
 ErrMax= 2.35D-05  0.00D+00 EMaxC= 1.00D-01 BMatC= 1.36D-08 BMatP= 1.36D-08
 IDIUse=1 WtCom= 1.00D+00 WtEn= 0.00D+00
 Coeff-Com:  0.100D+01
 Coeff:      0.100D+01
 Gap=     0.462 Goal=   None    Shift=    0.000
 RMSDP=9.06D-06 MaxDP=1.02D-04 DE= 1.03D-05 OVMax= 5.48D-05

 Cycle   7  Pass 1  IDiag  1:
 E= -76.4214586517457     Delta-E=       -0.000000011700 Rises=F Damp=F
 DIIS: error= 1.23D-05 at cycle   2 NSaved=   2.
 NSaved= 2 IEnMin= 2 EnMin= -76.4214586517457     IErMin= 2 ErrMin= 1.23D-05
 ErrMax= 1.23D-05  0.00D+00 EMaxC= 1.00D-01 BMatC= 2.25D-09 BMatP= 1.36D-08
 IDIUse=1 WtCom= 1.00D+00 WtEn= 0.00D+00
 Coeff-Com:  0.151D+00 0.849D+00
 Coeff:      0.151D+00 0.849D+00
 Gap=     0.462 Goal=   None    Shift=    0.000
 RMSDP=9.38D-07 MaxDP=1.61D-05 DE=-1.17D-08 OVMax= 2.41D-05

 Cycle   8  Pass 1  IDiag  1:
 E= -76.4214586524705     Delta-E=       -0.000000000725 Rises=F Damp=F
 DIIS: error= 7.64D-06 at cycle   3 NSaved=   3.
 NSaved= 3 IEnMin= 3 EnMin= -76.4214586524705     IErMin= 3 ErrMin= 7.64D-06
 ErrMax= 7.64D-06  0.00D+00 EMaxC= 1.00D-01 BMatC= 1.56D-09 BMatP= 2.25D-09
 IDIUse=1 WtCom= 1.00D+00 WtEn= 0.00D+00
 Coeff-Com: -0.563D-01 0.464D+00 0.593D+00
 Coeff:     -0.563D-01 0.464D+00 0.593D+00
 Gap=     0.462 Goal=   None    Shift=    0.000
 RMSDP=4.42D-07 MaxDP=5.80D-06 DE=-7.25D-10 OVMax= 1.15D-05

 Cycle   9  Pass 1  IDiag  1:
 E= -76.4214586535167     Delta-E=       -0.000000001046 Rises=F Damp=F
 DIIS: error= 4.66D-07 at cycle   4 NSaved=   4.
 NSaved= 4 IEnMin= 4 EnMin= -76.4214586535167     IErMin= 4 ErrMin= 4.66D-07
 ErrMax= 4.66D-07  0.00D+00 EMaxC= 1.00D-01 BMatC= 3.27D-12 BMatP= 1.56D-09
 IDIUse=1 WtCom= 1.00D+00 WtEn= 0.00D+00
 Coeff-Com:  0.664D-02-0.976D-01-0.111D+00 0.120D+01
 Coeff:      0.664D-02-0.976D-01-0.111D+00 0.120D+01
 Gap=     0.462 Goal=   None    Shift=    0.000
 RMSDP=9.07D-08 MaxDP=8.43D-07 DE=-1.05D-09 OVMax= 2.27D-06

 Cycle  10  Pass 1  IDiag  1:
 E= -76.4214586535262     Delta-E=       -0.000000000010 Rises=F Damp=F
 DIIS: error= 8.54D-08 at cycle   5 NSaved=   5.
 NSaved= 5 IEnMin= 5 EnMin= -76.4214586535262     IErMin= 5 ErrMin= 8.54D-08
 ErrMax= 8.54D-08  0.00D+00 EMaxC= 1.00D-01 BMatC= 1.62D-13 BMatP= 3.27D-12
 IDIUse=1 WtCom= 1.00D+00 WtEn= 0.00D+00
 Coeff-Com:  0.236D-02-0.260D-01-0.270D-01 0.135D+00 0.916D+00
 Coeff:      0.236D-02-0.260D-01-0.270D-01 0.135D+00 0.916D+00
 Gap=     0.462 Goal=   None    Shift=    0.000
 RMSDP=1.23D-08 MaxDP=8.88D-08 DE=-9.55D-12 OVMax= 2.89D-07

 Cycle  11  Pass 1  IDiag  1:
 E= -76.4214586535265     Delta-E=       -0.000000000000 Rises=F Damp=F
 DIIS: error= 1.63D-08 at cycle   6 NSaved=   6.
 NSaved= 6 IEnMin= 6 EnMin= -76.4214586535265     IErMin= 6 ErrMin= 1.63D-08
 ErrMax= 1.63D-08  0.00D+00 EMaxC= 1.00D-01 BMatC= 4.60D-15 BMatP= 1.62D-13
 IDIUse=1 WtCom= 1.00D+00 WtEn= 0.00D+00
 Coeff-Com: -0.184D-04 0.870D-03 0.174D-02-0.367D-01 0.386D-01 0.995D+00
 Coeff:     -0.184D-04 0.870D-03 0.174D-02-0.367D-01 0.386D-01 0.995D+00
 Gap=     0.462 Goal=   None    Shift=    0.000
 RMSDP=2.93D-09 MaxDP=2.10D-08 DE=-2.56D-13 OVMax= 5.84D-08

 SCF Done:  E(RM062X) =  -76.4214586535     A.U. after   11 cycles
            NFock= 11  Conv=0.29D-08     -V/T= 2.0031
 KE= 7.618737325504D+01 PE=-1.989982092278D+02 EE= 3.731241744688D+01
 Leave Link  502 at Thu May 12 13:17:26 2022, MaxMem= 10485760000 cpu:               5.8 elap:               0.4
 (Enter /data0/hywu0/study/g16/l601.exe)
 Copying SCF densities to generalized density rwf, IOpCl= 0 IROHF=0.

 **********************************************************************

            Population analysis using the SCF density.

 **********************************************************************

 Alpha  occ. eigenvalues --  -19.62730  -1.13333  -0.60269  -0.47814  -0.40002
 Alpha virt. eigenvalues --    0.06161   0.13282   0.17435   0.17941   0.18889
 Alpha virt. eigenvalues --    0.23473   0.50537   0.53520   0.98200   1.00331
 Alpha virt. eigenvalues --    1.05988   1.17020   1.20251   1.31692   1.34111
 Alpha virt. eigenvalues --    1.70795   1.74225   1.75138   2.06833   2.09945
 Alpha virt. eigenvalues --    2.36131   2.38977   2.55104   2.87222   3.01305
 Alpha virt. eigenvalues --    5.05596   5.49002   5.89654   6.78585   6.79939
 Alpha virt. eigenvalues --    6.87331   6.91793   7.09529  49.95340
          Condensed to atoms (all electrons):
              34         35         36
    34  O    7.920184   0.313782   0.317492
    35  H    0.313782   0.432264  -0.023408
    36  H    0.317492  -0.023408   0.431821
 Mulliken charges:
               1
     1  C    0.000000
     2  C    0.000000
     3  C    0.000000
     4  N    0.000000
     5  H    0.000000
     6  H    0.000000
     7  H    0.000000
     8  C    0.000000
     9  H    0.000000
    10  H    0.000000
    11  H    0.000000
    12  N    0.000000
    13  C    0.000000
    14  H    0.000000
    15  H    0.000000
    16  C    0.000000
    17  H    0.000000
    18  H    0.000000
    19  C    0.000000
    20  H    0.000000
    21  H    0.000000
    22  S    0.000000
    23  O    0.000000
    24  O    0.000000
    25  O    0.000000
    26  P    0.000000
    27  O    0.000000
    28  O    0.000000
    29  H    0.000000
    30  O    0.000000
    31  H    0.000000
    32  O    0.000000
    33  H    0.000000
    34  O   -0.551458
    35  H    0.277363
    36  H    0.274095
 Sum of Mulliken charges =  -0.00000
 Mulliken charges with hydrogens summed into heavy atoms:
               1
     1  C    0.000000
     2  C    0.000000
     3  C    0.000000
     4  N    0.000000
     8  C    0.000000
    12  N    0.000000
    13  C    0.000000
    16  C    0.000000
    19  C    0.000000
    22  S    0.000000
    23  O    0.000000
    24  O    0.000000
    25  O    0.000000
    26  P    0.000000
    27  O    0.000000
    28  O    0.000000
    30  O    0.000000
    32  O    0.000000
    34  O   -0.000000
         Mulliken charges condensed to fragments:
      1      0.000000
      2      0.000000
      3     -0.000000
 Electronic spatial extent (au):  <R**2>=          13202.9002
 Charge=             -0.0000 electrons
 Dipole moment (field-independent basis, Debye):
    X=             -1.8714    Y=             -0.3381    Z=              0.9988  Tot=              2.1480
 Quadrupole moment (field-independent basis, Debye-Ang):
   XX=            -47.2746   YY=            -16.0305   ZZ=             13.2223
   XY=            -27.7769   XZ=             -5.4733   YZ=              8.6900
 Traceless Quadrupole moment (field-independent basis, Debye-Ang):
   XX=            -30.5803   YY=              0.6638   ZZ=             29.9165
   XY=            -27.7769   XZ=             -5.4733   YZ=              8.6900
 Octapole moment (field-independent basis, Debye-Ang**2):
  XXX=           -883.5413  YYY=           -447.5757  ZZZ=            112.7160  XYY=           -486.3506
  XXY=           -647.6721  XXZ=           -297.7185  XZZ=              0.0752  YZZ=            122.5627
  YYZ=             -8.6318  XYZ=           -116.0712
 Hexadecapole moment (field-independent basis, Debye-Ang**3):
 XXXX=         -14525.2021 YYYY=         -10001.1966 ZZZZ=            537.5966 XXXY=         -11775.8637
 XXXZ=          -6533.7823 YYYX=          -8927.5034 YYYZ=          -2491.5752 ZZZX=            -49.9529
 ZZZY=            930.2128 XXYY=          -9746.3903 XXZZ=          -2122.8034 YYZZ=            351.9386
 XXYZ=          -4321.7682 YYXZ=          -2823.5539 ZZXY=           -521.6032
 N-N= 9.076959872358D+00 E-N=-1.989982094458D+02  KE= 7.618737325504D+01
 No NMR shielding tensors so no spin-rotation constants.
 Leave Link  601 at Thu May 12 13:17:26 2022, MaxMem= 10485760000 cpu:               1.0 elap:               0.1
 (Enter /data0/hywu0/study/g16/l122.exe)
 CPIOFr:  IOpCl= 0 IRwI=-1 IRwCP=  731 ICalc=  6 LCPTot=      609947 Len1MO=     1605619 IndFrg=    11849280
 Restoring MOs from calculation   1 to rwf.
 CPIOFr:  IOpCl= 0 IRwI=-2 IRwCP=  731 ICalc=  0 LCPTot=      609947 Len1MO=     1605619 IndFrg=     2215566
 Counterpoise corrected energy =   -1727.861755220541
                   BSSE energy =       0.004695807716
              sum of fragments =   -1727.778298997337
           complexation energy =     -55.32 kcal/mole (raw)
           complexation energy =     -52.37 kcal/mole (corrected)
 Leave Link  122 at Thu May 12 13:17:26 2022, MaxMem= 10485760000 cpu:               0.4 elap:               0.0
 (Enter /data0/hywu0/study/g16/l9999.exe)
 1\1\GINC-LOCALHOST\SP\RM062X\6-311+G(2d,p)\C7H17N2O8P1S1\HYWU0\12-May-
 2022\0\\#p M062X/6-311+G(2d,p) nosymm em=GD3 counterpoise=3\\Title Car
 d Required\\0,1\C,0,12.772379,10.610123,9.471187\C,0,12.866145,9.99694
 1,10.713998\C,0,11.095861,9.113804,9.633972\N,0,11.68448,10.036722,8.8
 1283\H,0,13.345858,11.419902,9.048859\H,0,13.554045,10.175787,11.51704
 6\H,0,10.184146,8.549041,9.414385\C,0,11.168283,10.447171,7.519432\H,0
 ,11.263179,9.63956,6.776093\H,0,10.09145,10.737906,7.600823\H,0,11.693
 285,11.353442,7.154126\N,0,11.821951,9.070203,10.798123\C,0,11.44238,8
 .325877,12.001531\H,0,12.262829,7.611731,12.243242\H,0,10.526547,7.720
 353,11.777872\C,0,11.174381,9.253599,13.20917\H,0,11.44516,8.705472,14
 .135275\H,0,11.859738,10.131687,13.177979\C,0,9.730524,9.732906,13.315
 213\H,0,9.598127,10.359368,14.215863\H,0,9.031937,8.88697,13.433811\S,
 0,9.24519,10.688869,11.857622\O,0,7.984744,11.383432,12.144156\O,0,10.
 416551,11.536874,11.558279\O,0,9.078726,9.608071,10.816926\P,0,7.07019
 4,11.467178,8.611713\O,0,8.225611,12.256842,8.187707\O,0,6.274831,11.9
 34951,9.90155\H,0,6.869978,11.807684,10.757333\O,0,5.933272,11.512106,
 7.492281\H,0,5.128595,10.975316,7.846451\O,0,7.329187,9.906952,8.76124
 8\H,0,7.973149,9.732366,9.581413\O,0,11.157941,12.728227,9.153339\H,0,
 10.989292,12.413159,10.067576\H,0,10.270068,12.84943,8.811593\\Version
 =ES64L-G16RevA.03\HF=-76.4214587\RMSD=2.935e-09\Dipole=2.7046631,-3.40
 00199,1.3879099\Quadrupole=97.6653463,-149.1636665,51.4983202,-8.83645
 42,78.4590155,-38.9804492\PG=C01 [X(C7H17N2O8P1S1)]\\@


 I do not feel obliged to believe that the same God who
 has endowed us with sense, reason, and intellect has
 intended us to forgo their use.
                   --Galileo Galilei
 Job cpu time:       0 days  3 hours 23 minutes 38.0 seconds.
 Elapsed time:       0 days  0 hours 12 minutes 48.2 seconds.
 File lengths (MBytes):  RWF=    329 Int=      0 D2E=      0 Chk=    113 Scr=      1
 Normal termination of Gaussian 16 at Thu May 12 13:17:26 2022.
