
    -----------------------------------------------------------------------
          Psi4: An Open-Source Ab Initio Electronic Structure Package
                               Psi4 1.3.2 release

                         Git: Rev {HEAD} ecbda83 


    R. M. Parrish, L. A. Burns, D. G. A. Smith, A. C. Simmonett,
    A. E. DePrince III, E. G. Hohenstein, U. Bozkaya, A. Yu. Sokolov,
    R. Di Remigio, R. M. Richard, J. F. Gonthier, A. M. James,
    H. R. McAlexander, A. Kumar, M. Saitow, X. Wang, B. P. Pritchard,
    P. Verma, H. F. Schaefer III, K. Patkowski, R. A. King, E. F. Valeev,
    F. A. Evangelista, J. M. Turney, T. D. Crawford, and C. D. Sherrill,
    J. Chem. Theory Comput. 13(7) pp 3185--3197 (2017).
    (doi: 10.1021/acs.jctc.7b00174)


                         Additional Contributions by
    P. Kraus, H. Kruse, M. H. Lechner, M. C. Schieber, R. A. Shaw,
    A. Alenaizan, R. Galvelis, Z. L. Glick, S. Lehtola, and J. P. Misiewicz

    -----------------------------------------------------------------------


    Psi4 started on: Thursday, 09 June 2022 07:30PM

    Process ID: 3916720
    Host:       localhost.localdomain
    PSIDATADIR: /data0/home/wuhanyu/software/psi4_132/share/psi4
    Memory:     500.0 MiB
    Threads:    24
    
  ==> Input File <==

--------------------------------------------------------------------------
memory 200 GB

molecule dimer {
0 1
C     18.42000000    2.62100000   13.84400000
C     18.59000000    1.60000000   14.76700000
C     16.43300100    1.58600000   14.10000000
N     17.08200100    2.59200000   13.43800000
H     19.12599900    3.33700000   13.46900000
H     19.46500000    1.29800000   15.30900000
H     15.38000000    1.28300000   13.98600000
C     16.47300000    3.54200000   12.52500000
H     17.23300000    4.12800000   11.98600000
H     15.83100000    3.02500000   11.77600000
H     15.81200000    4.24800000   13.08400000
N     17.35600100    0.95700000   14.90000000
C     17.03700100   -0.03900000   15.92300000
H     17.79200000   -0.85500000   15.87800000
H     16.04200000   -0.50500000   15.68300000
C     17.01300000    0.61300000   17.32399900
H     17.63800000    0.01200000   18.01499900
H     17.49799900    1.61400000   17.28900000
C     15.61100000    0.74400000   17.89399900
H     15.65200000    1.17700000   18.91099900
H     15.13600000   -0.24700000   18.01800000
S     14.49100000    1.77400000   16.89600000
O     13.67000000    2.49500000   17.85300100
O     15.34900000    2.61700000   15.99600000
O     13.79400000    0.77600000   16.01800000
--
0 1
P     12.80500000    2.67100000   13.28500000
O     13.71300000    1.96800000   12.37500000
O     13.52600000    3.85500000   14.08300000
H     14.18200000    3.47800000   14.79300000
O     11.68700000    3.46900000   12.47800000
H     11.09300000    3.94700000   13.17600000
O     11.97800000    1.81400000   14.31200000
H     12.66100000    1.28700000   14.96800000
}

set {
    scf_type DF
    freeze_core True
    basis aug-cc-pVTZ
}

energy('sapt2+(3)dmp2')
--------------------------------------------------------------------------

  Memory set to 186.265 GiB by Python driver.

  //>>>>>>>>>>>>>>>>>>>>>>>>>>>>>>>>>>>//
  //              Dimer HF             //
  //<<<<<<<<<<<<<<<<<<<<<<<<<<<<<<<<<<<//


*** tstart() called on localhost.localdomain
*** at Thu Jun  9 19:30:56 2022

   => Loading Basis Set <=

    Name: AUG-CC-PVTZ
    Role: ORBITAL
    Keyword: BASIS
    atoms 1-3, 8, 13, 16, 19                         entry C          line   235 file /data0/home/wuhanyu/software/psi4_132/share/psi4/basis/aug-cc-pvtz.gbs 
    atoms 4, 12                                      entry N          line   281 file /data0/home/wuhanyu/software/psi4_132/share/psi4/basis/aug-cc-pvtz.gbs 
    atoms 5-7, 9-11, 14-15, 17-18, 20-21, 29, 31, 33 entry H          line    36 file /data0/home/wuhanyu/software/psi4_132/share/psi4/basis/aug-cc-pvtz.gbs 
    atoms 22                                         entry S          line   902 file /data0/home/wuhanyu/software/psi4_132/share/psi4/basis/aug-cc-pvtz.gbs 
    atoms 23-25, 27-28, 30, 32                       entry O          line   327 file /data0/home/wuhanyu/software/psi4_132/share/psi4/basis/aug-cc-pvtz.gbs 
    atoms 26                                         entry P          line   820 file /data0/home/wuhanyu/software/psi4_132/share/psi4/basis/aug-cc-pvtz.gbs 


         ---------------------------------------------------------
                                   SCF
               by Justin Turney, Rob Parrish, Andy Simmonett
                          and Daniel G. A. Smith
                              RHF Reference
                       24 Threads, 190734 MiB Core
         ---------------------------------------------------------

  ==> Geometry <==

    Molecular point group: c1
    Full point group: C1

    Geometry (in Angstrom), charge = 0, multiplicity = 1:

       Center              X                  Y                   Z               Mass       
    ------------   -----------------  -----------------  -----------------  -----------------
         C            3.459729043066     0.580142330854    -1.063132915608    12.000000000000
         C            3.629729043066    -0.440857669146    -0.140132915608    12.000000000000
         C            1.472730043066    -0.454857669146    -0.807132915608    12.000000000000
         N            2.121730043066     0.551142330854    -1.469132915608    14.003074004430
         H            4.165728043066     1.296142330854    -1.438132915608     1.007825032230
         H            4.504729043066    -0.742857669146     0.401867084392     1.007825032230
         H            0.419729043066    -0.757857669146    -0.921132915608     1.007825032230
         C            1.512729043066     1.501142330854    -2.382132915608    12.000000000000
         H            2.272729043066     2.087142330854    -2.921132915608     1.007825032230
         H            0.870729043066     0.984142330854    -3.131132915608     1.007825032230
         H            0.851729043066     2.207142330854    -1.823132915608     1.007825032230
         N            2.395730043066    -1.083857669146    -0.007132915608    14.003074004430
         C            2.076730043066    -2.079857669146     1.015867084392    12.000000000000
         H            2.831729043066    -2.895857669146     0.970867084392     1.007825032230
         H            1.081729043066    -2.545857669146     0.775867084392     1.007825032230
         C            2.052729043066    -1.427857669146     2.416866084392    12.000000000000
         H            2.677729043066    -2.028857669146     3.107866084392     1.007825032230
         H            2.537728043066    -0.426857669146     2.381867084392     1.007825032230
         C            0.650729043066    -1.296857669146     2.986866084392    12.000000000000
         H            0.691729043066    -0.863857669146     4.003866084392     1.007825032230
         H            0.175729043066    -2.287857669146     3.110867084392     1.007825032230
         S           -0.469270956934    -0.266857669146     1.988867084392    31.972071174400
         O           -1.290270956934     0.454142330854     2.945868084392    15.994914619570
         O            0.388729043066     0.576142330854     1.088867084392    15.994914619570
         O           -1.166270956934    -1.264857669146     1.110867084392    15.994914619570
         P           -2.155270956934     0.630142330854    -1.622132915608    30.973761998420
         O           -1.247270956934    -0.072857669146    -2.532132915608    15.994914619570
         O           -1.434270956934     1.814142330854    -0.824132915608    15.994914619570
         H           -0.778270956934     1.437142330854    -0.114132915608     1.007825032230
         O           -3.273270956934     1.428142330854    -2.429132915608    15.994914619570
         H           -3.867270956934     1.906142330854    -1.731132915608     1.007825032230
         O           -2.982270956934    -0.226857669146    -0.595132915608    15.994914619570
         H           -2.299270956934    -0.753857669146     0.060867084392     1.007825032230

  Running in c1 symmetry.

  Rotational constants: A =      0.01537  B =      0.01014  C =      0.00702 [cm^-1]
  Rotational constants: A =    460.87424  B =    303.96104  C =    210.38973 [MHz]
  Nuclear repulsion = 1915.370167661988262

  Charge       = 0
  Multiplicity = 1
  Electrons    = 158
  Nalpha       = 79
  Nbeta        = 79

  ==> Algorithm <==

  SCF Algorithm Type is DF.
  DIIS enabled.
  MOM disabled.
  Fractional occupation disabled.
  Guess Type is SAD.
  Energy threshold   = 1.00e-08
  Density threshold  = 1.00e-08
  Integral threshold = 0.00e+00

  ==> Primary Basis <==

  Basis Set: AUG-CC-PVTZ
    Blend: AUG-CC-PVTZ
    Number of shells: 391
    Number of basis function: 1181
    Number of Cartesian functions: 1373
    Spherical Harmonics?: true
    Max angular momentum: 3

   => Loading Basis Set <=

    Name: (AUG-CC-PVTZ AUX)
    Role: JKFIT
    Keyword: DF_BASIS_SCF
    atoms 1-3, 8, 13, 16, 19                         entry C          line   162 file /data0/home/wuhanyu/software/psi4_132/share/psi4/basis/aug-cc-pvtz-jkfit.gbs 
    atoms 4, 12                                      entry N          line   224 file /data0/home/wuhanyu/software/psi4_132/share/psi4/basis/aug-cc-pvtz-jkfit.gbs 
    atoms 5-7, 9-11, 14-15, 17-18, 20-21, 29, 31, 33 entry H          line    70 file /data0/home/wuhanyu/software/psi4_132/share/psi4/basis/aug-cc-pvtz-jkfit.gbs 
    atoms 22                                         entry S          line   730 file /data0/home/wuhanyu/software/psi4_132/share/psi4/basis/aug-cc-pvtz-jkfit.gbs 
    atoms 23-25, 27-28, 30, 32                       entry O          line   286 file /data0/home/wuhanyu/software/psi4_132/share/psi4/basis/aug-cc-pvtz-jkfit.gbs 
    atoms 26                                         entry P          line   644 file /data0/home/wuhanyu/software/psi4_132/share/psi4/basis/aug-cc-pvtz-jkfit.gbs 

  ==> Pre-Iterations <==

   -------------------------------------------------------
    Irrep   Nso     Nmo     Nalpha   Nbeta   Ndocc  Nsocc
   -------------------------------------------------------
     A       1181    1181       0       0       0       0
   -------------------------------------------------------
    Total    1181    1181      79      79      79       0
   -------------------------------------------------------

  ==> Integral Setup <==

  ==> DiskDFJK: Density-Fitted J/K Matrices <==

    J tasked:                  Yes
    K tasked:                  Yes
    wK tasked:                  No
    OpenMP threads:             24
    Integrals threads:          24
    Memory [MiB]:           143051
    Algorithm:                Core
    Integral Cache:           SAVE
    Schwarz Cutoff:          1E-12
    Fitting Condition:       1E-10

   => Auxiliary Basis Set <=

  Basis Set: (AUG-CC-PVTZ AUX)
    Blend: AUG-CC-PVTZ-JKFIT
    Number of shells: 774
    Number of basis function: 2646
    Number of Cartesian functions: 3281
    Spherical Harmonics?: true
    Max angular momentum: 4

  Minimum eigenvalue in the overlap matrix is 1.0621330032E-06.
  Using Symmetric Orthogonalization.

  SCF Guess: Superposition of Atomic Densities via on-the-fly atomic UHF.

  ==> Iterations <==

                           Total Energy        Delta E     RMS |[F,P]|

   @DF-RHF iter SAD: -1645.07508248555359   -1.64508e+03   0.00000e+00 
   @DF-RHF iter   1: -1644.83790603743046    2.37176e-01   1.02588e-03 DIIS
   @DF-RHF iter   2: -1645.28112532858995   -4.43219e-01   6.33499e-04 DIIS
   @DF-RHF iter   3: -1645.46417594147283   -1.83051e-01   8.90000e-05 DIIS
   @DF-RHF iter   4: -1645.47085186128606   -6.67592e-03   3.39970e-05 DIIS
   @DF-RHF iter   5: -1645.47172719532546   -8.75334e-04   8.95114e-06 DIIS
   @DF-RHF iter   6: -1645.47181348719141   -8.62919e-05   3.24591e-06 DIIS
   @DF-RHF iter   7: -1645.47183068446907   -1.71973e-05   1.35646e-06 DIIS
   @DF-RHF iter   8: -1645.47183454362880   -3.85916e-06   6.41602e-07 DIIS
   @DF-RHF iter   9: -1645.47183556564369   -1.02201e-06   2.72450e-07 DIIS
   @DF-RHF iter  10: -1645.47183575831650   -1.92673e-07   8.53779e-08 DIIS
   @DF-RHF iter  11: -1645.47183577289775   -1.45812e-08   3.05797e-08 DIIS
   @DF-RHF iter  12: -1645.47183577443707   -1.53932e-09   1.19517e-08 DIIS
   @DF-RHF iter  13: -1645.47183577461988   -1.82808e-10   3.97936e-09 DIIS
  Energy and wave function converged.


  ==> Post-Iterations <==

    Orbital Energies [Eh]
    ---------------------

    Doubly Occupied:                                                      

       1A    -92.186485     2A    -80.073606     3A    -20.583028  
       4A    -20.571480     5A    -20.561808     6A    -20.534789  
       7A    -20.533460     8A    -20.522394     9A    -20.489044  
      10A    -15.685610    11A    -15.682345    12A    -11.392471  
      13A    -11.327364    14A    -11.325803    15A    -11.323384  
      16A    -11.296314    17A    -11.273273    18A    -11.272368  
      19A     -9.149176    20A     -7.591437    21A     -6.834331  
      22A     -6.834190    23A     -6.833864    24A     -5.490057  
      25A     -5.489304    26A     -5.488641    27A     -1.457623  
      28A     -1.420508    29A     -1.411634    30A     -1.342567  
      31A     -1.335563    32A     -1.316787    33A     -1.305712  
      34A     -1.283694    35A     -1.278563    36A     -1.114168  
      37A     -1.079584    38A     -1.027745    39A     -0.973706  
      40A     -0.902070    41A     -0.867165    42A     -0.846089  
      43A     -0.808970    44A     -0.788446    45A     -0.770174  
      46A     -0.723043    47A     -0.714285    48A     -0.706124  
      49A     -0.688796    50A     -0.677840    51A     -0.671818  
      52A     -0.665247    53A     -0.660215    54A     -0.654354  
      55A     -0.644973    56A     -0.643278    57A     -0.628954  
      58A     -0.606334    59A     -0.600878    60A     -0.589158  
      61A     -0.582398    62A     -0.572854    63A     -0.571824  
      64A     -0.557487    65A     -0.544078    66A     -0.535865  
      67A     -0.532136    68A     -0.521627    69A     -0.515291  
      70A     -0.509267    71A     -0.499563    72A     -0.475087  
      73A     -0.464859    74A     -0.455621    75A     -0.448763  
      76A     -0.440647    77A     -0.435965    78A     -0.435095  
      79A     -0.373447  

    Virtual:                                                              

      80A      0.008402    81A      0.017477    82A      0.026203  
      83A      0.029730    84A      0.041798    85A      0.044974  
      86A      0.046559    87A      0.049607    88A      0.055778  
      89A      0.057350    90A      0.066926    91A      0.068977  
      92A      0.077176    93A      0.078042    94A      0.080830  
      95A      0.088119    96A      0.091847    97A      0.093126  
      98A      0.098127    99A      0.100210   100A      0.100819  
     101A      0.103529   102A      0.107288   103A      0.109310  
     104A      0.111891   105A      0.117520   106A      0.124556  
     107A      0.128673   108A      0.130960   109A      0.132933  
     110A      0.135551   111A      0.136891   112A      0.139750  
     113A      0.143462   114A      0.144773   115A      0.149345  
     116A      0.153049   117A      0.154647   118A      0.158562  
     119A      0.160916   120A      0.167800   121A      0.169939  
     122A      0.174219   123A      0.180074   124A      0.182550  
     125A      0.193293   126A      0.194058   127A      0.198215  
     128A      0.199424   129A      0.200472   130A      0.205829  
     131A      0.210789   132A      0.211351   133A      0.217425  
     134A      0.224984   135A      0.226312   136A      0.229662  
     137A      0.231628   138A      0.235738   139A      0.237878  
     140A      0.245561   141A      0.247452   142A      0.251551  
     143A      0.253607   144A      0.256895   145A      0.257454  
     146A      0.262045   147A      0.262915   148A      0.265648  
     149A      0.269495   150A      0.272942   151A      0.275236  
     152A      0.279130   153A      0.281967   154A      0.286341  
     155A      0.286654   156A      0.291000   157A      0.294803  
     158A      0.297169   159A      0.300317   160A      0.301293  
     161A      0.305600   162A      0.309120   163A      0.310684  
     164A      0.313077   165A      0.317971   166A      0.319634  
     167A      0.322120   168A      0.325966   169A      0.329920  
     170A      0.330776   171A      0.332208   172A      0.335491  
     173A      0.338577   174A      0.342721   175A      0.345450  
     176A      0.347866   177A      0.351736   178A      0.355002  
     179A      0.358308   180A      0.361041   181A      0.363428  
     182A      0.364279   183A      0.368458   184A      0.374357  
     185A      0.380083   186A      0.381046   187A      0.385803  
     188A      0.388883   189A      0.389908   190A      0.393441  
     191A      0.395920   192A      0.401108   193A      0.402746  
     194A      0.406068   195A      0.408440   196A      0.412042  
     197A      0.417742   198A      0.419924   199A      0.421372  
     200A      0.426946   201A      0.430593   202A      0.435767  
     203A      0.437287   204A      0.437500   205A      0.442966  
     206A      0.446664   207A      0.449031   208A      0.453676  
     209A      0.456235   210A      0.458746   211A      0.461142  
     212A      0.463324   213A      0.465917   214A      0.467157  
     215A      0.468965   216A      0.473382   217A      0.477457  
     218A      0.479420   219A      0.481196   220A      0.486302  
     221A      0.486796   222A      0.488071   223A      0.496299  
     224A      0.497345   225A      0.498658   226A      0.501821  
     227A      0.506493   228A      0.510739   229A      0.512286  
     230A      0.515202   231A      0.516145   232A      0.521910  
     233A      0.523296   234A      0.526659   235A      0.530063  
     236A      0.535925   237A      0.539279   238A      0.541734  
     239A      0.543830   240A      0.549767   241A      0.552904  
     242A      0.557878   243A      0.560224   244A      0.563088  
     245A      0.564217   246A      0.568790   247A      0.570616  
     248A      0.573788   249A      0.574776   250A      0.581764  
     251A      0.585970   252A      0.586754   253A      0.588425  
     254A      0.592309   255A      0.595466   256A      0.599672  
     257A      0.604835   258A      0.607996   259A      0.614122  
     260A      0.614656   261A      0.622812   262A      0.625228  
     263A      0.629535   264A      0.632652   265A      0.634169  
     266A      0.640423   267A      0.641316   268A      0.642807  
     269A      0.648084   270A      0.653629   271A      0.658180  
     272A      0.663846   273A      0.668470   274A      0.673412  
     275A      0.681199   276A      0.682929   277A      0.685687  
     278A      0.691295   279A      0.698198   280A      0.703091  
     281A      0.705332   282A      0.707355   283A      0.712090  
     284A      0.717511   285A      0.722640   286A      0.726471  
     287A      0.727241   288A      0.730458   289A      0.734924  
     290A      0.741275   291A      0.748751   292A      0.750159  
     293A      0.756941   294A      0.762176   295A      0.768869  
     296A      0.770549   297A      0.773292   298A      0.776412  
     299A      0.788464   300A      0.790014   301A      0.797987  
     302A      0.800845   303A      0.803574   304A      0.806775  
     305A      0.811785   306A      0.813494   307A      0.821244  
     308A      0.825218   309A      0.828209   310A      0.829218  
     311A      0.834363   312A      0.838850   313A      0.840771  
     314A      0.846631   315A      0.851112   316A      0.854250  
     317A      0.858391   318A      0.863928   319A      0.866885  
     320A      0.871917   321A      0.872958   322A      0.874902  
     323A      0.882336   324A      0.885655   325A      0.890272  
     326A      0.897003   327A      0.900631   328A      0.905585  
     329A      0.908278   330A      0.914292   331A      0.917275  
     332A      0.923629   333A      0.928890   334A      0.935185  
     335A      0.935691   336A      0.938430   337A      0.946611  
     338A      0.948366   339A      0.949697   340A      0.957071  
     341A      0.959465   342A      0.964630   343A      0.970510  
     344A      0.971493   345A      0.974642   346A      0.978561  
     347A      0.984938   348A      0.988333   349A      0.989584  
     350A      0.994743   351A      0.996520   352A      0.999903  
     353A      1.002268   354A      1.010864   355A      1.013015  
     356A      1.018376   357A      1.020018   358A      1.025466  
     359A      1.027448   360A      1.031410   361A      1.035557  
     362A      1.037401   363A      1.042791   364A      1.051281  
     365A      1.052080   366A      1.053597   367A      1.057920  
     368A      1.064221   369A      1.065322   370A      1.071131  
     371A      1.072700   372A      1.080210   373A      1.081980  
     374A      1.086411   375A      1.089897   376A      1.096579  
     377A      1.097077   378A      1.098779   379A      1.103759  
     380A      1.104829   381A      1.112740   382A      1.113863  
     383A      1.118534   384A      1.123490   385A      1.125311  
     386A      1.129212   387A      1.133644   388A      1.135081  
     389A      1.138592   390A      1.143610   391A      1.148020  
     392A      1.151214   393A      1.152989   394A      1.157738  
     395A      1.161801   396A      1.165419   397A      1.167413  
     398A      1.172348   399A      1.177185   400A      1.177599  
     401A      1.183297   402A      1.187290   403A      1.188167  
     404A      1.189784   405A      1.198224   406A      1.201092  
     407A      1.202907   408A      1.206439   409A      1.216095  
     410A      1.223162   411A      1.227392   412A      1.227802  
     413A      1.232922   414A      1.236656   415A      1.240086  
     416A      1.246434   417A      1.250200   418A      1.257672  
     419A      1.257951   420A      1.262860   421A      1.268840  
     422A      1.272266   423A      1.277268   424A      1.282904  
     425A      1.284796   426A      1.288020   427A      1.291473  
     428A      1.296425   429A      1.303663   430A      1.305430  
     431A      1.308652   432A      1.310652   433A      1.317581  
     434A      1.323510   435A      1.327136   436A      1.331052  
     437A      1.332378   438A      1.336836   439A      1.340631  
     440A      1.344357   441A      1.347371   442A      1.351793  
     443A      1.363646   444A      1.368465   445A      1.374427  
     446A      1.379928   447A      1.381434   448A      1.389047  
     449A      1.395136   450A      1.397947   451A      1.407798  
     452A      1.409637   453A      1.418148   454A      1.419381  
     455A      1.422070   456A      1.428569   457A      1.432808  
     458A      1.436096   459A      1.440792   460A      1.443636  
     461A      1.447976   462A      1.451168   463A      1.455296  
     464A      1.459258   465A      1.463334   466A      1.468529  
     467A      1.473919   468A      1.480431   469A      1.483122  
     470A      1.490113   471A      1.492798   472A      1.494768  
     473A      1.500296   474A      1.503573   475A      1.514010  
     476A      1.514906   477A      1.520950   478A      1.527317  
     479A      1.532001   480A      1.535175   481A      1.536092  
     482A      1.547526   483A      1.549083   484A      1.552355  
     485A      1.555732   486A      1.559093   487A      1.564461  
     488A      1.570241   489A      1.576251   490A      1.576881  
     491A      1.583376   492A      1.588402   493A      1.592414  
     494A      1.597904   495A      1.605629   496A      1.610215  
     497A      1.612523   498A      1.613970   499A      1.618211  
     500A      1.626349   501A      1.635437   502A      1.638106  
     503A      1.644920   504A      1.646390   505A      1.648534  
     506A      1.651713   507A      1.660473   508A      1.664944  
     509A      1.667654   510A      1.673658   511A      1.677348  
     512A      1.684868   513A      1.689127   514A      1.696572  
     515A      1.697824   516A      1.709964   517A      1.711865  
     518A      1.718302   519A      1.720727   520A      1.721225  
     521A      1.723823   522A      1.732025   523A      1.740242  
     524A      1.740606   525A      1.751246   526A      1.753563  
     527A      1.761051   528A      1.763323   529A      1.764242  
     530A      1.774229   531A      1.779651   532A      1.784520  
     533A      1.790121   534A      1.797466   535A      1.802688  
     536A      1.810152   537A      1.815101   538A      1.819563  
     539A      1.821298   540A      1.827778   541A      1.835811  
     542A      1.839494   543A      1.842260   544A      1.848825  
     545A      1.852472   546A      1.861692   547A      1.864543  
     548A      1.872714   549A      1.885685   550A      1.887840  
     551A      1.893260   552A      1.901720   553A      1.905729  
     554A      1.907695   555A      1.915869   556A      1.921752  
     557A      1.924930   558A      1.936556   559A      1.938814  
     560A      1.944237   561A      1.945844   562A      1.948975  
     563A      1.955959   564A      1.963846   565A      1.971740  
     566A      1.973992   567A      1.976498   568A      1.982156  
     569A      1.984873   570A      1.991692   571A      1.992832  
     572A      2.003444   573A      2.004636   574A      2.012324  
     575A      2.014098   576A      2.016657   577A      2.023818  
     578A      2.038069   579A      2.041311   580A      2.046732  
     581A      2.052520   582A      2.060909   583A      2.066938  
     584A      2.069066   585A      2.074910   586A      2.083412  
     587A      2.087751   588A      2.088754   589A      2.102985  
     590A      2.110073   591A      2.117368   592A      2.119278  
     593A      2.130883   594A      2.133994   595A      2.135653  
     596A      2.140602   597A      2.146340   598A      2.155343  
     599A      2.164788   600A      2.170758   601A      2.179897  
     602A      2.182470   603A      2.188764   604A      2.196354  
     605A      2.199247   606A      2.203140   607A      2.215578  
     608A      2.226496   609A      2.232494   610A      2.236400  
     611A      2.248876   612A      2.254257   613A      2.260443  
     614A      2.267184   615A      2.270590   616A      2.279959  
     617A      2.284330   618A      2.287342   619A      2.291694  
     620A      2.298279   621A      2.299650   622A      2.306024  
     623A      2.316905   624A      2.322110   625A      2.326835  
     626A      2.329272   627A      2.334164   628A      2.349136  
     629A      2.350468   630A      2.354174   631A      2.364610  
     632A      2.366683   633A      2.371558   634A      2.383830  
     635A      2.388456   636A      2.393935   637A      2.399812  
     638A      2.403535   639A      2.414297   640A      2.417466  
     641A      2.420942   642A      2.426260   643A      2.431152  
     644A      2.440468   645A      2.442994   646A      2.447631  
     647A      2.452799   648A      2.469949   649A      2.477932  
     650A      2.490877   651A      2.497831   652A      2.502196  
     653A      2.505307   654A      2.510203   655A      2.512465  
     656A      2.518897   657A      2.523466   658A      2.531136  
     659A      2.536422   660A      2.537547   661A      2.546854  
     662A      2.553424   663A      2.562260   664A      2.567906  
     665A      2.573970   666A      2.585170   667A      2.591742  
     668A      2.596310   669A      2.601451   670A      2.604105  
     671A      2.607964   672A      2.613523   673A      2.618279  
     674A      2.627644   675A      2.630133   676A      2.638787  
     677A      2.648236   678A      2.651803   679A      2.653711  
     680A      2.663635   681A      2.666881   682A      2.676091  
     683A      2.683993   684A      2.689072   685A      2.695807  
     686A      2.706559   687A      2.708244   688A      2.711896  
     689A      2.721065   690A      2.726064   691A      2.738431  
     692A      2.742902   693A      2.745321   694A      2.753907  
     695A      2.762079   696A      2.767267   697A      2.773086  
     698A      2.774151   699A      2.786138   700A      2.790758  
     701A      2.801060   702A      2.810788   703A      2.817109  
     704A      2.823923   705A      2.829301   706A      2.838177  
     707A      2.852363   708A      2.856499   709A      2.859932  
     710A      2.870347   711A      2.883571   712A      2.888413  
     713A      2.898244   714A      2.902817   715A      2.913151  
     716A      2.917565   717A      2.926250   718A      2.932042  
     719A      2.936183   720A      2.946968   721A      2.964381  
     722A      2.967826   723A      2.979941   724A      2.983014  
     725A      2.995269   726A      3.000908   727A      3.006633  
     728A      3.015601   729A      3.027302   730A      3.032535  
     731A      3.044011   732A      3.059317   733A      3.070744  
     734A      3.076031   735A      3.083937   736A      3.088699  
     737A      3.101631   738A      3.103851   739A      3.119096  
     740A      3.122562   741A      3.142911   742A      3.149992  
     743A      3.162585   744A      3.168195   745A      3.182095  
     746A      3.188985   747A      3.200251   748A      3.211861  
     749A      3.231336   750A      3.245348   751A      3.248213  
     752A      3.261359   753A      3.267852   754A      3.285893  
     755A      3.305211   756A      3.319898   757A      3.329027  
     758A      3.339977   759A      3.352341   760A      3.354997  
     761A      3.372037   762A      3.379508   763A      3.393894  
     764A      3.402722   765A      3.408037   766A      3.412815  
     767A      3.431300   768A      3.433927   769A      3.445708  
     770A      3.452508   771A      3.459849   772A      3.477030  
     773A      3.484945   774A      3.489061   775A      3.503901  
     776A      3.509615   777A      3.522375   778A      3.530813  
     779A      3.539197   780A      3.545209   781A      3.555839  
     782A      3.564526   783A      3.576083   784A      3.586015  
     785A      3.590191   786A      3.599735   787A      3.613159  
     788A      3.623970   789A      3.628992   790A      3.634134  
     791A      3.639227   792A      3.645049   793A      3.648947  
     794A      3.663334   795A      3.681831   796A      3.686773  
     797A      3.692318   798A      3.694581   799A      3.700297  
     800A      3.713769   801A      3.721606   802A      3.728686  
     803A      3.734807   804A      3.737842   805A      3.750841  
     806A      3.752529   807A      3.769774   808A      3.772024  
     809A      3.782399   810A      3.784766   811A      3.798448  
     812A      3.806836   813A      3.812393   814A      3.821250  
     815A      3.829521   816A      3.834029   817A      3.840326  
     818A      3.843867   819A      3.850143   820A      3.856258  
     821A      3.871579   822A      3.876176   823A      3.886083  
     824A      3.889653   825A      3.897467   826A      3.903695  
     827A      3.911791   828A      3.922938   829A      3.926581  
     830A      3.932116   831A      3.937770   832A      3.942557  
     833A      3.958641   834A      3.965586   835A      3.971960  
     836A      3.982528   837A      3.985286   838A      3.994185  
     839A      4.006107   840A      4.008323   841A      4.010363  
     842A      4.022695   843A      4.036533   844A      4.038543  
     845A      4.044766   846A      4.054368   847A      4.064436  
     848A      4.069250   849A      4.072275   850A      4.087591  
     851A      4.091375   852A      4.097139   853A      4.109805  
     854A      4.114334   855A      4.117415   856A      4.129391  
     857A      4.142504   858A      4.150160   859A      4.153976  
     860A      4.170873   861A      4.177920   862A      4.186394  
     863A      4.192671   864A      4.208957   865A      4.210946  
     866A      4.218892   867A      4.233802   868A      4.247018  
     869A      4.249775   870A      4.256253   871A      4.263388  
     872A      4.274696   873A      4.279637   874A      4.285835  
     875A      4.298016   876A      4.301578   877A      4.314382  
     878A      4.319478   879A      4.327312   880A      4.327818  
     881A      4.331209   882A      4.341513   883A      4.357918  
     884A      4.359940   885A      4.366355   886A      4.384668  
     887A      4.388232   888A      4.399925   889A      4.411438  
     890A      4.417384   891A      4.431346   892A      4.432168  
     893A      4.455532   894A      4.462146   895A      4.470527  
     896A      4.479118   897A      4.489546   898A      4.493942  
     899A      4.502246   900A      4.505181   901A      4.520276  
     902A      4.524221   903A      4.541937   904A      4.552675  
     905A      4.555110   906A      4.564890   907A      4.571517  
     908A      4.581154   909A      4.591616   910A      4.604905  
     911A      4.623929   912A      4.629329   913A      4.640350  
     914A      4.653341   915A      4.661767   916A      4.668816  
     917A      4.671483   918A      4.681934   919A      4.692934  
     920A      4.709731   921A      4.721514   922A      4.726525  
     923A      4.729682   924A      4.737650   925A      4.754087  
     926A      4.758793   927A      4.767504   928A      4.773593  
     929A      4.793667   930A      4.802074   931A      4.818321  
     932A      4.820658   933A      4.846953   934A      4.862871  
     935A      4.870679   936A      4.886462   937A      4.901501  
     938A      4.913489   939A      4.919867   940A      4.926648  
     941A      4.932070   942A      4.943622   943A      4.949643  
     944A      4.963129   945A      4.972502   946A      4.974818  
     947A      4.990434   948A      5.000257   949A      5.006358  
     950A      5.018826   951A      5.025027   952A      5.039216  
     953A      5.053035   954A      5.058699   955A      5.065901  
     956A      5.073205   957A      5.079736   958A      5.088398  
     959A      5.097140   960A      5.113826   961A      5.127312  
     962A      5.135053   963A      5.141612   964A      5.153235  
     965A      5.164641   966A      5.172197   967A      5.178533  
     968A      5.191103   969A      5.193016   970A      5.204906  
     971A      5.220003   972A      5.225038   973A      5.240804  
     974A      5.248513   975A      5.258996   976A      5.260586  
     977A      5.268745   978A      5.278479   979A      5.283904  
     980A      5.295422   981A      5.315873   982A      5.320469  
     983A      5.322641   984A      5.334332   985A      5.346388  
     986A      5.360639   987A      5.366075   988A      5.375374  
     989A      5.385257   990A      5.394800   991A      5.414740  
     992A      5.419605   993A      5.432789   994A      5.442620  
     995A      5.456921   996A      5.461632   997A      5.472067  
     998A      5.490191   999A      5.495916  1000A      5.512640  
    1001A      5.523865  1002A      5.534399  1003A      5.539287  
    1004A      5.551224  1005A      5.573960  1006A      5.578211  
    1007A      5.583645  1008A      5.597945  1009A      5.608428  
    1010A      5.625799  1011A      5.634695  1012A      5.659628  
    1013A      5.678148  1014A      5.694224  1015A      5.718464  
    1016A      5.724522  1017A      5.746419  1018A      5.752707  
    1019A      5.768829  1020A      5.774411  1021A      5.778758  
    1022A      5.813578  1023A      5.829920  1024A      5.835612  
    1025A      5.837677  1026A      5.856454  1027A      5.874236  
    1028A      5.885780  1029A      5.893789  1030A      5.903132  
    1031A      5.924444  1032A      5.953948  1033A      5.957416  
    1034A      5.985790  1035A      5.998709  1036A      6.012392  
    1037A      6.026639  1038A      6.048043  1039A      6.064795  
    1040A      6.074180  1041A      6.092031  1042A      6.116294  
    1043A      6.141074  1044A      6.152104  1045A      6.162355  
    1046A      6.177571  1047A      6.202839  1048A      6.211249  
    1049A      6.251819  1050A      6.266313  1051A      6.292805  
    1052A      6.319935  1053A      6.333051  1054A      6.458791  
    1055A      6.463541  1056A      6.500087  1057A      6.516423  
    1058A      6.535100  1059A      6.557186  1060A      6.592458  
    1061A      6.597062  1062A      6.662830  1063A      6.718417  
    1064A      6.741536  1065A      6.754847  1066A      6.766106  
    1067A      6.772101  1068A      6.800325  1069A      6.814368  
    1070A      6.826578  1071A      6.843506  1072A      6.854386  
    1073A      6.858679  1074A      6.865173  1075A      6.872777  
    1076A      6.878092  1077A      6.890504  1078A      6.900391  
    1079A      6.907703  1080A      6.914357  1081A      6.926134  
    1082A      6.931865  1083A      6.937289  1084A      6.944912  
    1085A      6.949456  1086A      6.957977  1087A      6.961369  
    1088A      6.982942  1089A      6.985582  1090A      7.000780  
    1091A      7.007748  1092A      7.011816  1093A      7.025339  
    1094A      7.028713  1095A      7.041002  1096A      7.046334  
    1097A      7.054675  1098A      7.063716  1099A      7.069169  
    1100A      7.074984  1101A      7.083004  1102A      7.094872  
    1103A      7.105890  1104A      7.118780  1105A      7.122783  
    1106A      7.136628  1107A      7.143443  1108A      7.152457  
    1109A      7.158187  1110A      7.170493  1111A      7.185552  
    1112A      7.190769  1113A      7.237246  1114A      7.246791  
    1115A      7.264415  1116A      7.273505  1117A      7.282316  
    1118A      7.306119  1119A      7.318832  1120A      7.319627  
    1121A      7.348643  1122A      7.358446  1123A      7.371968  
    1124A      7.377335  1125A      7.396540  1126A      7.406927  
    1127A      7.415990  1128A      7.430551  1129A      7.443287  
    1130A      7.456998  1131A      7.465063  1132A      7.476668  
    1133A      7.487594  1134A      7.516315  1135A      7.532510  
    1136A      7.550149  1137A      7.577411  1138A      7.583357  
    1139A      7.597228  1140A      7.625892  1141A      7.637365  
    1142A      7.666598  1143A      7.696223  1144A      7.711329  
    1145A      7.741907  1146A      7.759015  1147A      7.782362  
    1148A      7.804601  1149A      7.813338  1150A      7.842624  
    1151A      7.854354  1152A      7.894398  1153A      7.917247  
    1154A      7.944647  1155A      7.965032  1156A      7.985606  
    1157A      8.021774  1158A      8.069990  1159A      8.109327  
    1160A      8.140217  1161A      8.340244  1162A      8.446709  
    1163A      8.549670  1164A     11.656817  1165A     13.505077  
    1166A     13.735931  1167A     14.123959  1168A     14.248821  
    1169A     14.592477  1170A     15.292903  1171A     15.853460  
    1172A     16.198528  1173A     16.683653  1174A     16.825607  
    1175A     17.850451  1176A     18.089555  1177A     18.821027  
    1178A     19.506168  1179A     19.709039  1180A     20.148510  
    1181A     21.158576  

    Final Occupation by Irrep:
              A 
    DOCC [    79 ]

  @DF-RHF Final Energy: -1645.47183577461988

   => Energetics <=

    Nuclear Repulsion Energy =           1915.3701676619882619
    One-Electron Energy =               -6079.6360776558640282
    Two-Electron Energy =                2518.7940742192558901
    Total Energy =                      -1645.4718357746196489

Computation Completed


Properties will be evaluated at   0.000000,   0.000000,   0.000000 [a0]

Properties computed using the SCF density matrix

  Nuclear Dipole Moment: [e a0]
     X:    17.0325      Y:    -3.7464      Z:     4.1064

  Electronic Dipole Moment: [e a0]
     X:   -12.5613      Y:     3.0745      Z:    -3.9573

  Dipole Moment: [e a0]
     X:     4.4712      Y:    -0.6719      Z:     0.1490     Total:     4.5239

  Dipole Moment: [D]
     X:    11.3647      Y:    -1.7079      Z:     0.3788     Total:    11.4986


*** tstop() called on localhost.localdomain at Thu Jun  9 19:32:35 2022
Module time:
	user time   =    1892.37 seconds =      31.54 minutes
	system time =      27.27 seconds =       0.45 minutes
	total time  =         99 seconds =       1.65 minutes
Total time:
	user time   =    1892.37 seconds =      31.54 minutes
	system time =      27.27 seconds =       0.45 minutes
	total time  =         99 seconds =       1.65 minutes

*** tstart() called on localhost.localdomain
*** at Thu Jun  9 19:32:35 2022


  //>>>>>>>>>>>>>>>>>>>>>>>>>>>>>>>>>>>//
  //               DFMP2               //
  //<<<<<<<<<<<<<<<<<<<<<<<<<<<<<<<<<<<//

   => Loading Basis Set <=

    Name: (AUG-CC-PVTZ AUX)
    Role: RIFIT
    Keyword: DF_BASIS_MP2
    atoms 1-3, 8, 13, 16, 19                         entry C          line   148 file /data0/home/wuhanyu/software/psi4_132/share/psi4/basis/aug-cc-pvtz-ri.gbs 
    atoms 4, 12                                      entry N          line   206 file /data0/home/wuhanyu/software/psi4_132/share/psi4/basis/aug-cc-pvtz-ri.gbs 
    atoms 5-7, 9-11, 14-15, 17-18, 20-21, 29, 31, 33 entry H          line    30 file /data0/home/wuhanyu/software/psi4_132/share/psi4/basis/aug-cc-pvtz-ri.gbs 
    atoms 22                                         entry S          line   666 file /data0/home/wuhanyu/software/psi4_132/share/psi4/basis/aug-cc-pvtz-ri.gbs 
    atoms 23-25, 27-28, 30, 32                       entry O          line   264 file /data0/home/wuhanyu/software/psi4_132/share/psi4/basis/aug-cc-pvtz-ri.gbs 
    atoms 26                                         entry P          line   590 file /data0/home/wuhanyu/software/psi4_132/share/psi4/basis/aug-cc-pvtz-ri.gbs 

	 --------------------------------------------------------
	                          DF-MP2                         
	      2nd-Order Density-Fitted Moller-Plesset Theory     
	              RMP2 Wavefunction,  24 Threads             
	                                                         
	        Rob Parrish, Justin Turney, Andy Simmonett,      
	           Ed Hohenstein, and C. David Sherrill          
	 --------------------------------------------------------

   => Auxiliary Basis Set <=

  Basis Set: (AUG-CC-PVTZ AUX)
    Blend: AUG-CC-PVTZ-RI
    Number of shells: 732
    Number of basis function: 2680
    Number of Cartesian functions: 3383
    Spherical Harmonics?: true
    Max angular momentum: 4

	 --------------------------------------------------------
	                 NBF =  1181, NAUX =  2680
	 --------------------------------------------------------
	   CLASS    FOCC     OCC    AOCC    AVIR     VIR    FVIR
	   PAIRS      26      79      53    1102    1102       0
	 --------------------------------------------------------

	 Will save fitting metric to file 97.

	-----------------------------------------------------------
	 ==================> DF-MP2 Energies <==================== 
	-----------------------------------------------------------
	 Reference Energy          =   -1645.4718357746198762 [Eh]
	 Singles Energy            =      -0.0000000000000000 [Eh]
	 Same-Spin Energy          =      -0.9512359628159498 [Eh]
	 Opposite-Spin Energy      =      -2.7405982935767241 [Eh]
	 Correlation Energy        =      -3.6918342563926738 [Eh]
	 Total Energy              =   -1649.1636700310125434 [Eh]
	-----------------------------------------------------------
	 ================> DF-SCS-MP2 Energies <================== 
	-----------------------------------------------------------
	 SCS Same-Spin Scale       =       0.3333333333333333 [-]
	 SCS Opposite-Spin Scale   =       1.2000000000000000 [-]
	 SCS Same-Spin Energy      =      -0.3170786542719832 [Eh]
	 SCS Opposite-Spin Energy  =      -3.2887179522920689 [Eh]
	 SCS Correlation Energy    =      -3.6057966065640521 [Eh]
	 SCS Total Energy          =   -1649.0776323811840030 [Eh]
	-----------------------------------------------------------


*** tstop() called on localhost.localdomain at Thu Jun  9 19:33:13 2022
Module time:
	user time   =     542.99 seconds =       9.05 minutes
	system time =      11.15 seconds =       0.19 minutes
	total time  =         38 seconds =       0.63 minutes
Total time:
	user time   =    2435.36 seconds =      40.59 minutes
	system time =      38.42 seconds =       0.64 minutes
	total time  =        137 seconds =       2.28 minutes

  //>>>>>>>>>>>>>>>>>>>>>>>>>>>>>>>>>>>//
  //            Monomer A HF           //
  //<<<<<<<<<<<<<<<<<<<<<<<<<<<<<<<<<<<//


*** tstart() called on localhost.localdomain
*** at Thu Jun  9 19:33:13 2022

   => Loading Basis Set <=

    Name: AUG-CC-PVTZ
    Role: ORBITAL
    Keyword: BASIS
    atoms 1-3, 8, 13, 16, 19                         entry C          line   235 file /data0/home/wuhanyu/software/psi4_132/share/psi4/basis/aug-cc-pvtz.gbs 
    atoms 4, 12                                      entry N          line   281 file /data0/home/wuhanyu/software/psi4_132/share/psi4/basis/aug-cc-pvtz.gbs 
    atoms 5-7, 9-11, 14-15, 17-18, 20-21, 29, 31, 33 entry H          line    36 file /data0/home/wuhanyu/software/psi4_132/share/psi4/basis/aug-cc-pvtz.gbs 
    atoms 22                                         entry S          line   902 file /data0/home/wuhanyu/software/psi4_132/share/psi4/basis/aug-cc-pvtz.gbs 
    atoms 23-25, 27-28, 30, 32                       entry O          line   327 file /data0/home/wuhanyu/software/psi4_132/share/psi4/basis/aug-cc-pvtz.gbs 
    atoms 26                                         entry P          line   820 file /data0/home/wuhanyu/software/psi4_132/share/psi4/basis/aug-cc-pvtz.gbs 


         ---------------------------------------------------------
                                   SCF
               by Justin Turney, Rob Parrish, Andy Simmonett
                          and Daniel G. A. Smith
                              RHF Reference
                       24 Threads, 190734 MiB Core
         ---------------------------------------------------------

  ==> Geometry <==

    Molecular point group: c1
    Full point group: C1

    Geometry (in Angstrom), charge = 0, multiplicity = 1:

       Center              X                  Y                   Z               Mass       
    ------------   -----------------  -----------------  -----------------  -----------------
         C            3.459729043066     0.580142330854    -1.063132915608    12.000000000000
         C            3.629729043066    -0.440857669146    -0.140132915608    12.000000000000
         C            1.472730043066    -0.454857669146    -0.807132915608    12.000000000000
         N            2.121730043066     0.551142330854    -1.469132915608    14.003074004430
         H            4.165728043066     1.296142330854    -1.438132915608     1.007825032230
         H            4.504729043066    -0.742857669146     0.401867084392     1.007825032230
         H            0.419729043066    -0.757857669146    -0.921132915608     1.007825032230
         C            1.512729043066     1.501142330854    -2.382132915608    12.000000000000
         H            2.272729043066     2.087142330854    -2.921132915608     1.007825032230
         H            0.870729043066     0.984142330854    -3.131132915608     1.007825032230
         H            0.851729043066     2.207142330854    -1.823132915608     1.007825032230
         N            2.395730043066    -1.083857669146    -0.007132915608    14.003074004430
         C            2.076730043066    -2.079857669146     1.015867084392    12.000000000000
         H            2.831729043066    -2.895857669146     0.970867084392     1.007825032230
         H            1.081729043066    -2.545857669146     0.775867084392     1.007825032230
         C            2.052729043066    -1.427857669146     2.416866084392    12.000000000000
         H            2.677729043066    -2.028857669146     3.107866084392     1.007825032230
         H            2.537728043066    -0.426857669146     2.381867084392     1.007825032230
         C            0.650729043066    -1.296857669146     2.986866084392    12.000000000000
         H            0.691729043066    -0.863857669146     4.003866084392     1.007825032230
         H            0.175729043066    -2.287857669146     3.110867084392     1.007825032230
         S           -0.469270956934    -0.266857669146     1.988867084392    31.972071174400
         O           -1.290270956934     0.454142330854     2.945868084392    15.994914619570
         O            0.388729043066     0.576142330854     1.088867084392    15.994914619570
         O           -1.166270956934    -1.264857669146     1.110867084392    15.994914619570
      Gh(P)          -2.155270956934     0.630142330854    -1.622132915608    30.973761998420
      Gh(O)          -1.247270956934    -0.072857669146    -2.532132915608    15.994914619570
      Gh(O)          -1.434270956934     1.814142330854    -0.824132915608    15.994914619570
      Gh(H)          -0.778270956934     1.437142330854    -0.114132915608     1.007825032230
      Gh(O)          -3.273270956934     1.428142330854    -2.429132915608    15.994914619570
      Gh(H)          -3.867270956934     1.906142330854    -1.731132915608     1.007825032230
      Gh(O)          -2.982270956934    -0.226857669146    -0.595132915608    15.994914619570
      Gh(H)          -2.299270956934    -0.753857669146     0.060867084392     1.007825032230

  Running in c1 symmetry.

  Rotational constants: A =      0.01537  B =      0.01014  C =      0.00702 [cm^-1]
  Rotational constants: A =    460.87424  B =    303.96104  C =    210.38973 [MHz]
  Nuclear repulsion = 1013.778889521485894

  Charge       = 0
  Multiplicity = 1
  Electrons    = 108
  Nalpha       = 54
  Nbeta        = 54

  ==> Algorithm <==

  SCF Algorithm Type is DF.
  DIIS enabled.
  MOM disabled.
  Fractional occupation disabled.
  Guess Type is SAD.
  Energy threshold   = 1.00e-08
  Density threshold  = 1.00e-08
  Integral threshold = 0.00e+00

  ==> Primary Basis <==

  Basis Set: AUG-CC-PVTZ
    Blend: AUG-CC-PVTZ
    Number of shells: 391
    Number of basis function: 1181
    Number of Cartesian functions: 1373
    Spherical Harmonics?: true
    Max angular momentum: 3

   => Loading Basis Set <=

    Name: (AUG-CC-PVTZ AUX)
    Role: JKFIT
    Keyword: DF_BASIS_SCF
    atoms 1-3, 8, 13, 16, 19                         entry C          line   162 file /data0/home/wuhanyu/software/psi4_132/share/psi4/basis/aug-cc-pvtz-jkfit.gbs 
    atoms 4, 12                                      entry N          line   224 file /data0/home/wuhanyu/software/psi4_132/share/psi4/basis/aug-cc-pvtz-jkfit.gbs 
    atoms 5-7, 9-11, 14-15, 17-18, 20-21, 29, 31, 33 entry H          line    70 file /data0/home/wuhanyu/software/psi4_132/share/psi4/basis/aug-cc-pvtz-jkfit.gbs 
    atoms 22                                         entry S          line   730 file /data0/home/wuhanyu/software/psi4_132/share/psi4/basis/aug-cc-pvtz-jkfit.gbs 
    atoms 23-25, 27-28, 30, 32                       entry O          line   286 file /data0/home/wuhanyu/software/psi4_132/share/psi4/basis/aug-cc-pvtz-jkfit.gbs 
    atoms 26                                         entry P          line   644 file /data0/home/wuhanyu/software/psi4_132/share/psi4/basis/aug-cc-pvtz-jkfit.gbs 

  ==> Pre-Iterations <==

   -------------------------------------------------------
    Irrep   Nso     Nmo     Nalpha   Nbeta   Ndocc  Nsocc
   -------------------------------------------------------
     A       1181    1181       0       0       0       0
   -------------------------------------------------------
    Total    1181    1181      54      54      54       0
   -------------------------------------------------------

  ==> Integral Setup <==

  ==> DiskDFJK: Density-Fitted J/K Matrices <==

    J tasked:                  Yes
    K tasked:                  Yes
    wK tasked:                  No
    OpenMP threads:             24
    Integrals threads:          24
    Memory [MiB]:           143051
    Algorithm:                Core
    Integral Cache:           LOAD
    Schwarz Cutoff:          1E-12
    Fitting Condition:       1E-10

   => Auxiliary Basis Set <=

  Basis Set: (AUG-CC-PVTZ AUX)
    Blend: AUG-CC-PVTZ-JKFIT
    Number of shells: 774
    Number of basis function: 2646
    Number of Cartesian functions: 3281
    Spherical Harmonics?: true
    Max angular momentum: 4

  Minimum eigenvalue in the overlap matrix is 1.0621330032E-06.
  Using Symmetric Orthogonalization.

  SCF Guess: Superposition of Atomic Densities via on-the-fly atomic UHF.

  ==> Iterations <==

                           Total Energy        Delta E     RMS |[F,P]|

   @DF-RHF iter SAD: -1003.23401053974817   -1.00323e+03   0.00000e+00 
   @DF-RHF iter   1: -1002.80465983908630    4.29351e-01   8.05849e-04 DIIS
   @DF-RHF iter   2: -1003.11242911985573   -3.07769e-01   4.97307e-04 DIIS
   @DF-RHF iter   3: -1003.22860543664740   -1.16176e-01   7.93093e-05 DIIS
   @DF-RHF iter   4: -1003.23407431984879   -5.46888e-03   2.64166e-05 DIIS
   @DF-RHF iter   5: -1003.23472398858382   -6.49669e-04   6.42957e-06 DIIS
   @DF-RHF iter   6: -1003.23478654569476   -6.25571e-05   2.52467e-06 DIIS
   @DF-RHF iter   7: -1003.23479906839373   -1.25227e-05   1.07384e-06 DIIS
   @DF-RHF iter   8: -1003.23480216674238   -3.09835e-06   5.88230e-07 DIIS
   @DF-RHF iter   9: -1003.23480289512781   -7.28385e-07   2.05818e-07 DIIS
   @DF-RHF iter  10: -1003.23480300382653   -1.08699e-07   5.83706e-08 DIIS
   @DF-RHF iter  11: -1003.23480300989991   -6.07338e-09   2.44333e-08 DIIS
   @DF-RHF iter  12: -1003.23480301081406   -9.14156e-10   9.26076e-09 DIIS
  Energy and wave function converged.


  ==> Post-Iterations <==

    Orbital Energies [Eh]
    ---------------------

    Doubly Occupied:                                                      

       1A    -92.135272     2A    -20.480739     3A    -20.477656  
       4A    -20.467910     5A    -15.688022     6A    -15.678343  
       7A    -11.395794     8A    -11.326342     9A    -11.324608  
      10A    -11.320727    11A    -11.308837    12A    -11.252037  
      13A    -11.237790    14A     -9.097277    15A     -6.782536  
      16A     -6.782352    17A     -6.782021    18A     -1.411931  
      19A     -1.399832    20A     -1.283513    21A     -1.265888  
      22A     -1.240937    23A     -1.101333    24A     -1.071706  
      25A     -1.025136    26A     -0.964359    27A     -0.886892  
      28A     -0.861345    29A     -0.838658    30A     -0.771536  
      31A     -0.743841    32A     -0.704971    33A     -0.685816  
      34A     -0.669788    35A     -0.664764    36A     -0.655687  
      37A     -0.640688    38A     -0.623240    39A     -0.614653  
      40A     -0.597451    41A     -0.588492    42A     -0.582073  
      43A     -0.569807    44A     -0.541055    45A     -0.523449  
      46A     -0.506729    47A     -0.464796    48A     -0.456605  
      49A     -0.449431    50A     -0.420834    51A     -0.408096  
      52A     -0.388831    53A     -0.384467    54A     -0.361996  

    Virtual:                                                              

      55A      0.008160    56A      0.016206    57A      0.022249  
      58A      0.031933    59A      0.035164    60A      0.040823  
      61A      0.043385    62A      0.052619    63A      0.059573  
      64A      0.061408    65A      0.061687    66A      0.065078  
      67A      0.069404    68A      0.076630    69A      0.081155  
      70A      0.086241    71A      0.088782    72A      0.091486  
      73A      0.095081    74A      0.095736    75A      0.096588  
      76A      0.100496    77A      0.101357    78A      0.108244  
      79A      0.111811    80A      0.114540    81A      0.119887  
      82A      0.121472    83A      0.125084    84A      0.128820  
      85A      0.132264    86A      0.133605    87A      0.140216  
      88A      0.144142    89A      0.146214    90A      0.150628  
      91A      0.151900    92A      0.155426    93A      0.158631  
      94A      0.160883    95A      0.161577    96A      0.169576  
      97A      0.171977    98A      0.174594    99A      0.178756  
     100A      0.180866   101A      0.183872   102A      0.188938  
     103A      0.193679   104A      0.197529   105A      0.203186  
     106A      0.204438   107A      0.205778   108A      0.213456  
     109A      0.214708   110A      0.218750   111A      0.224200  
     112A      0.226905   113A      0.232334   114A      0.233452  
     115A      0.237597   116A      0.238075   117A      0.244209  
     118A      0.245632   119A      0.252212   120A      0.256947  
     121A      0.258181   122A      0.264316   123A      0.264523  
     124A      0.268737   125A      0.273280   126A      0.273460  
     127A      0.278552   128A      0.281289   129A      0.282477  
     130A      0.286747   131A      0.291833   132A      0.292533  
     133A      0.295313   134A      0.298044   135A      0.301207  
     136A      0.302472   137A      0.309943   138A      0.310183  
     139A      0.313650   140A      0.317887   141A      0.320008  
     142A      0.324381   143A      0.328531   144A      0.329880  
     145A      0.333377   146A      0.338979   147A      0.340193  
     148A      0.341978   149A      0.346535   150A      0.347759  
     151A      0.350447   152A      0.354914   153A      0.356956  
     154A      0.357730   155A      0.362969   156A      0.366458  
     157A      0.368843   158A      0.373493   159A      0.380893  
     160A      0.384386   161A      0.385467   162A      0.390930  
     163A      0.393481   164A      0.395714   165A      0.397196  
     166A      0.402853   167A      0.404717   168A      0.406522  
     169A      0.410188   170A      0.411982   171A      0.414721  
     172A      0.417739   173A      0.426082   174A      0.426877  
     175A      0.428193   176A      0.432945   177A      0.435615  
     178A      0.438168   179A      0.441549   180A      0.443790  
     181A      0.447261   182A      0.452517   183A      0.455990  
     184A      0.456799   185A      0.463178   186A      0.466525  
     187A      0.469324   188A      0.471635   189A      0.476647  
     190A      0.478356   191A      0.480651   192A      0.484302  
     193A      0.487272   194A      0.488612   195A      0.491138  
     196A      0.493637   197A      0.497014   198A      0.498976  
     199A      0.505036   200A      0.506688   201A      0.511328  
     202A      0.514106   203A      0.515993   204A      0.519012  
     205A      0.525362   206A      0.527513   207A      0.529471  
     208A      0.531025   209A      0.533134   210A      0.536999  
     211A      0.545790   212A      0.547864   213A      0.550685  
     214A      0.555696   215A      0.560040   216A      0.561967  
     217A      0.565826   218A      0.572107   219A      0.573975  
     220A      0.578219   221A      0.578927   222A      0.581582  
     223A      0.586218   224A      0.589863   225A      0.592357  
     226A      0.595102   227A      0.598199   228A      0.601046  
     229A      0.606414   230A      0.610722   231A      0.611703  
     232A      0.614869   233A      0.621886   234A      0.625605  
     235A      0.627717   236A      0.632166   237A      0.637965  
     238A      0.641129   239A      0.644267   240A      0.650217  
     241A      0.650853   242A      0.657857   243A      0.659593  
     244A      0.663024   245A      0.669584   246A      0.671871  
     247A      0.675252   248A      0.680009   249A      0.687784  
     250A      0.691711   251A      0.694293   252A      0.695988  
     253A      0.700444   254A      0.707944   255A      0.708926  
     256A      0.711126   257A      0.720362   258A      0.721770  
     259A      0.723380   260A      0.732296   261A      0.735979  
     262A      0.749962   263A      0.752336   264A      0.755594  
     265A      0.761314   266A      0.763071   267A      0.769889  
     268A      0.773554   269A      0.777878   270A      0.786069  
     271A      0.791328   272A      0.792986   273A      0.799446  
     274A      0.805450   275A      0.807634   276A      0.812842  
     277A      0.817217   278A      0.818630   279A      0.819802  
     280A      0.826455   281A      0.833790   282A      0.840273  
     283A      0.842034   284A      0.846129   285A      0.850882  
     286A      0.853599   287A      0.855513   288A      0.858131  
     289A      0.864396   290A      0.868129   291A      0.870693  
     292A      0.875324   293A      0.878743   294A      0.882813  
     295A      0.883481   296A      0.890392   297A      0.894236  
     298A      0.894386   299A      0.900513   300A      0.906957  
     301A      0.912758   302A      0.920728   303A      0.921920  
     304A      0.926134   305A      0.930063   306A      0.934936  
     307A      0.938338   308A      0.940543   309A      0.947436  
     310A      0.947966   311A      0.950710   312A      0.956102  
     313A      0.958131   314A      0.960092   315A      0.966653  
     316A      0.970122   317A      0.973572   318A      0.977146  
     319A      0.979478   320A      0.986727   321A      0.988095  
     322A      0.989646   323A      0.993740   324A      0.995127  
     325A      1.003924   326A      1.006684   327A      1.010205  
     328A      1.013938   329A      1.022103   330A      1.024036  
     331A      1.027023   332A      1.028439   333A      1.035192  
     334A      1.037870   335A      1.041018   336A      1.044553  
     337A      1.049051   338A      1.053170   339A      1.057445  
     340A      1.060945   341A      1.065804   342A      1.074533  
     343A      1.075412   344A      1.077637   345A      1.078118  
     346A      1.086504   347A      1.090096   348A      1.091752  
     349A      1.094187   350A      1.098767   351A      1.101035  
     352A      1.108739   353A      1.110823   354A      1.112784  
     355A      1.115650   356A      1.121421   357A      1.123885  
     358A      1.126022   359A      1.129497   360A      1.133263  
     361A      1.138295   362A      1.140180   363A      1.150495  
     364A      1.153520   365A      1.159755   366A      1.160988  
     367A      1.164985   368A      1.166366   369A      1.173224  
     370A      1.175384   371A      1.179650   372A      1.182499  
     373A      1.184103   374A      1.186768   375A      1.192401  
     376A      1.196468   377A      1.202655   378A      1.206151  
     379A      1.210438   380A      1.211550   381A      1.219109  
     382A      1.225536   383A      1.229007   384A      1.231024  
     385A      1.237700   386A      1.242535   387A      1.246078  
     388A      1.256586   389A      1.260683   390A      1.262258  
     391A      1.265484   392A      1.265934   393A      1.273821  
     394A      1.278080   395A      1.284866   396A      1.286978  
     397A      1.289818   398A      1.292969   399A      1.298895  
     400A      1.302401   401A      1.306841   402A      1.309506  
     403A      1.313581   404A      1.320363   405A      1.332882  
     406A      1.334592   407A      1.338282   408A      1.340157  
     409A      1.345588   410A      1.348584   411A      1.354905  
     412A      1.359485   413A      1.364233   414A      1.365472  
     415A      1.372370   416A      1.377384   417A      1.381488  
     418A      1.383680   419A      1.389639   420A      1.395375  
     421A      1.400735   422A      1.405355   423A      1.408411  
     424A      1.415059   425A      1.416858   426A      1.425922  
     427A      1.428912   428A      1.436669   429A      1.440769  
     430A      1.442692   431A      1.447200   432A      1.447958  
     433A      1.454220   434A      1.457907   435A      1.462822  
     436A      1.473415   437A      1.476338   438A      1.478269  
     439A      1.485219   440A      1.488529   441A      1.491795  
     442A      1.495727   443A      1.499847   444A      1.504348  
     445A      1.508688   446A      1.515611   447A      1.517975  
     448A      1.527700   449A      1.530949   450A      1.534242  
     451A      1.535489   452A      1.547084   453A      1.548260  
     454A      1.549637   455A      1.555112   456A      1.557369  
     457A      1.565069   458A      1.570630   459A      1.573014  
     460A      1.578572   461A      1.581323   462A      1.585317  
     463A      1.589891   464A      1.592404   465A      1.599433  
     466A      1.600786   467A      1.606889   468A      1.612542  
     469A      1.613378   470A      1.618402   471A      1.624765  
     472A      1.629056   473A      1.631957   474A      1.639970  
     475A      1.642167   476A      1.649963   477A      1.652573  
     478A      1.658183   479A      1.666586   480A      1.669241  
     481A      1.672680   482A      1.675951   483A      1.682406  
     484A      1.687552   485A      1.694837   486A      1.697955  
     487A      1.710281   488A      1.711066   489A      1.720782  
     490A      1.723315   491A      1.727592   492A      1.728737  
     493A      1.729694   494A      1.736997   495A      1.744741  
     496A      1.745041   497A      1.749437   498A      1.753112  
     499A      1.766389   500A      1.768326   501A      1.777934  
     502A      1.783318   503A      1.783874   504A      1.791170  
     505A      1.800576   506A      1.806122   507A      1.810409  
     508A      1.812825   509A      1.820434   510A      1.825357  
     511A      1.837460   512A      1.841162   513A      1.843444  
     514A      1.848185   515A      1.850531   516A      1.854433  
     517A      1.863345   518A      1.869586   519A      1.875501  
     520A      1.877456   521A      1.887086   522A      1.890854  
     523A      1.898574   524A      1.903504   525A      1.913610  
     526A      1.916948   527A      1.923198   528A      1.925275  
     529A      1.932732   530A      1.936870   531A      1.941802  
     532A      1.947598   533A      1.951883   534A      1.953856  
     535A      1.959525   536A      1.964815   537A      1.968064  
     538A      1.973789   539A      1.980999   540A      1.988748  
     541A      1.991372   542A      1.996113   543A      2.002078  
     544A      2.010386   545A      2.014983   546A      2.018162  
     547A      2.021715   548A      2.025059   549A      2.031012  
     550A      2.034477   551A      2.046971   552A      2.050294  
     553A      2.058563   554A      2.066293   555A      2.076419  
     556A      2.080666   557A      2.082356   558A      2.095521  
     559A      2.099434   560A      2.104570   561A      2.112721  
     562A      2.119576   563A      2.130172   564A      2.130402  
     565A      2.147383   566A      2.151195   567A      2.152441  
     568A      2.157285   569A      2.166265   570A      2.172068  
     571A      2.184334   572A      2.184846   573A      2.199661  
     574A      2.202195   575A      2.207824   576A      2.215748  
     577A      2.233424   578A      2.242267   579A      2.244154  
     580A      2.249718   581A      2.255605   582A      2.259058  
     583A      2.270623   584A      2.272484   585A      2.285275  
     586A      2.289245   587A      2.292764   588A      2.302632  
     589A      2.308752   590A      2.313840   591A      2.318154  
     592A      2.321062   593A      2.334164   594A      2.342853  
     595A      2.347551   596A      2.358005   597A      2.363886  
     598A      2.372727   599A      2.383142   600A      2.390526  
     601A      2.398057   602A      2.403049   603A      2.408262  
     604A      2.419093   605A      2.424179   606A      2.437497  
     607A      2.439060   608A      2.445643   609A      2.455701  
     610A      2.459390   611A      2.468130   612A      2.480889  
     613A      2.491770   614A      2.497625   615A      2.510184  
     616A      2.516379   617A      2.527916   618A      2.532109  
     619A      2.534174   620A      2.542135   621A      2.547372  
     622A      2.552778   623A      2.556266   624A      2.563363  
     625A      2.574701   626A      2.579767   627A      2.585258  
     628A      2.594766   629A      2.598641   630A      2.605580  
     631A      2.607904   632A      2.615281   633A      2.621779  
     634A      2.622327   635A      2.629682   636A      2.631869  
     637A      2.640319   638A      2.649405   639A      2.655931  
     640A      2.661083   641A      2.666708   642A      2.678169  
     643A      2.681851   644A      2.688383   645A      2.692980  
     646A      2.703650   647A      2.709924   648A      2.714776  
     649A      2.724296   650A      2.727562   651A      2.731019  
     652A      2.739811   653A      2.741253   654A      2.748684  
     655A      2.759092   656A      2.765092   657A      2.766580  
     658A      2.772069   659A      2.779195   660A      2.795790  
     661A      2.798475   662A      2.803696   663A      2.809511  
     664A      2.818398   665A      2.822651   666A      2.832344  
     667A      2.836042   668A      2.845819   669A      2.850316  
     670A      2.855528   671A      2.867542   672A      2.876065  
     673A      2.888207   674A      2.892700   675A      2.900317  
     676A      2.908341   677A      2.913886   678A      2.917849  
     679A      2.921749   680A      2.931843   681A      2.945735  
     682A      2.952230   683A      2.955110   684A      2.965529  
     685A      2.968352   686A      2.976217   687A      2.983257  
     688A      2.985469   689A      2.991095   690A      3.000555  
     691A      3.009194   692A      3.015813   693A      3.024276  
     694A      3.032815   695A      3.033636   696A      3.048508  
     697A      3.054784   698A      3.059761   699A      3.076638  
     700A      3.077154   701A      3.088819   702A      3.097167  
     703A      3.104488   704A      3.120543   705A      3.129254  
     706A      3.135068   707A      3.138531   708A      3.147748  
     709A      3.153605   710A      3.159962   711A      3.175079  
     712A      3.182659   713A      3.187973   714A      3.194850  
     715A      3.207002   716A      3.219824   717A      3.222207  
     718A      3.235383   719A      3.238215   720A      3.248702  
     721A      3.255891   722A      3.261145   723A      3.275960  
     724A      3.292192   725A      3.295721   726A      3.314130  
     727A      3.316950   728A      3.325183   729A      3.338264  
     730A      3.341806   731A      3.359745   732A      3.367559  
     733A      3.374288   734A      3.379592   735A      3.389757  
     736A      3.399327   737A      3.405907   738A      3.417647  
     739A      3.426634   740A      3.434500   741A      3.441868  
     742A      3.456026   743A      3.459277   744A      3.466548  
     745A      3.482748   746A      3.496895   747A      3.516952  
     748A      3.520329   749A      3.527578   750A      3.537882  
     751A      3.544733   752A      3.552632   753A      3.563110  
     754A      3.571207   755A      3.574152   756A      3.588822  
     757A      3.596073   758A      3.607792   759A      3.611926  
     760A      3.621241   761A      3.623149   762A      3.636444  
     763A      3.638352   764A      3.646968   765A      3.657492  
     766A      3.668689   767A      3.675126   768A      3.680456  
     769A      3.685194   770A      3.698899   771A      3.701896  
     772A      3.708451   773A      3.719055   774A      3.726117  
     775A      3.736468   776A      3.739531   777A      3.752332  
     778A      3.755908   779A      3.760967   780A      3.766909  
     781A      3.774807   782A      3.778264   783A      3.793190  
     784A      3.799058   785A      3.806239   786A      3.811065  
     787A      3.818494   788A      3.820808   789A      3.836076  
     790A      3.841180   791A      3.849751   792A      3.861661  
     793A      3.863604   794A      3.868096   795A      3.877798  
     796A      3.888830   797A      3.892699   798A      3.898086  
     799A      3.908767   800A      3.919481   801A      3.922210  
     802A      3.928755   803A      3.934431   804A      3.940975  
     805A      3.944770   806A      3.954656   807A      3.957248  
     808A      3.968090   809A      3.975307   810A      3.984911  
     811A      3.998486   812A      4.001939   813A      4.008470  
     814A      4.019665   815A      4.023605   816A      4.031088  
     817A      4.033379   818A      4.043112   819A      4.048878  
     820A      4.053937   821A      4.060731   822A      4.079950  
     823A      4.081267   824A      4.087429   825A      4.097826  
     826A      4.099931   827A      4.106221   828A      4.108140  
     829A      4.118830   830A      4.127807   831A      4.129277  
     832A      4.132217   833A      4.140633   834A      4.151784  
     835A      4.159391   836A      4.167166   837A      4.182126  
     838A      4.186201   839A      4.192911   840A      4.199906  
     841A      4.214144   842A      4.217048   843A      4.228308  
     844A      4.232445   845A      4.235607   846A      4.240880  
     847A      4.256555   848A      4.261601   849A      4.269313  
     850A      4.276657   851A      4.285570   852A      4.286573  
     853A      4.301862   854A      4.310365   855A      4.317178  
     856A      4.331019   857A      4.343581   858A      4.346345  
     859A      4.352198   860A      4.358118   861A      4.362643  
     862A      4.368792   863A      4.385531   864A      4.396590  
     865A      4.411586   866A      4.421835   867A      4.425348  
     868A      4.442661   869A      4.444655   870A      4.461446  
     871A      4.468982   872A      4.475925   873A      4.484218  
     874A      4.488440   875A      4.497195   876A      4.502148  
     877A      4.518826   878A      4.519526   879A      4.526888  
     880A      4.530145   881A      4.544582   882A      4.554619  
     883A      4.559207   884A      4.568214   885A      4.583200  
     886A      4.584859   887A      4.596867   888A      4.604402  
     889A      4.619977   890A      4.628500   891A      4.634267  
     892A      4.640784   893A      4.660189   894A      4.665039  
     895A      4.680855   896A      4.684307   897A      4.707292  
     898A      4.728246   899A      4.730880   900A      4.740384  
     901A      4.747233   902A      4.755339   903A      4.772685  
     904A      4.788924   905A      4.803364   906A      4.811864  
     907A      4.826171   908A      4.833300   909A      4.849511  
     910A      4.869708   911A      4.876810   912A      4.886929  
     913A      4.909499   914A      4.930862   915A      4.934964  
     916A      4.940720   917A      4.944429   918A      4.956335  
     919A      4.967486   920A      4.975765   921A      4.985436  
     922A      4.994291   923A      5.003037   924A      5.015375  
     925A      5.021947   926A      5.028099   927A      5.035274  
     928A      5.050827   929A      5.072270   930A      5.077878  
     931A      5.088164   932A      5.098896   933A      5.102166  
     934A      5.120830   935A      5.124103   936A      5.128187  
     937A      5.133308   938A      5.153145   939A      5.163135  
     940A      5.176594   941A      5.197624   942A      5.202441  
     943A      5.207094   944A      5.215647   945A      5.228154  
     946A      5.233803   947A      5.238361   948A      5.262320  
     949A      5.264553   950A      5.272926   951A      5.286320  
     952A      5.290047   953A      5.310984   954A      5.315018  
     955A      5.325100   956A      5.341505   957A      5.351243  
     958A      5.360366   959A      5.368308   960A      5.380449  
     961A      5.391959   962A      5.404912   963A      5.416703  
     964A      5.435577   965A      5.438504   966A      5.458660  
     967A      5.466215   968A      5.467551   969A      5.473439  
     970A      5.489105   971A      5.493879   972A      5.499236  
     973A      5.506898   974A      5.530649   975A      5.540848  
     976A      5.551680   977A      5.555207   978A      5.561633  
     979A      5.566434   980A      5.585859   981A      5.599831  
     982A      5.604641   983A      5.606119   984A      5.635162  
     985A      5.638548   986A      5.648265   987A      5.662059  
     988A      5.674121   989A      5.684632   990A      5.692338  
     991A      5.711049   992A      5.728097   993A      5.735015  
     994A      5.738841   995A      5.759758   996A      5.770865  
     997A      5.783522   998A      5.821162   999A      5.836019  
    1000A      5.844901  1001A      5.856971  1002A      5.860410  
    1003A      5.880103  1004A      5.895013  1005A      5.905843  
    1006A      5.920841  1007A      5.928446  1008A      5.956582  
    1009A      5.977832  1010A      6.001146  1011A      6.018077  
    1012A      6.030077  1013A      6.054979  1014A      6.067872  
    1015A      6.080610  1016A      6.092126  1017A      6.098513  
    1018A      6.115902  1019A      6.142927  1020A      6.156820  
    1021A      6.163686  1022A      6.197448  1023A      6.203317  
    1024A      6.217585  1025A      6.253912  1026A      6.263984  
    1027A      6.278145  1028A      6.303752  1029A      6.327082  
    1030A      6.339182  1031A      6.373926  1032A      6.465757  
    1033A      6.509400  1034A      6.528281  1035A      6.557281  
    1036A      6.572402  1037A      6.584210  1038A      6.602740  
    1039A      6.618628  1040A      6.675598  1041A      6.725119  
    1042A      6.752778  1043A      6.765624  1044A      6.784333  
    1045A      6.796051  1046A      6.807770  1047A      6.815436  
    1048A      6.844675  1049A      6.854337  1050A      6.885380  
    1051A      6.902175  1052A      6.917065  1053A      6.957542  
    1054A      6.972234  1055A      6.976061  1056A      7.016226  
    1057A      7.024044  1058A      7.025808  1059A      7.042557  
    1060A      7.062630  1061A      7.068824  1062A      7.085332  
    1063A      7.094612  1064A      7.120052  1065A      7.146340  
    1066A      7.154343  1067A      7.171085  1068A      7.181132  
    1069A      7.192264  1070A      7.220430  1071A      7.228544  
    1072A      7.275454  1073A      7.294035  1074A      7.311985  
    1075A      7.333634  1076A      7.375293  1077A      7.381145  
    1078A      7.394657  1079A      7.415649  1080A      7.466867  
    1081A      7.493330  1082A      7.569127  1083A      7.581621  
    1084A      7.604945  1085A      7.636153  1086A      7.659071  
    1087A      7.738124  1088A      7.742009  1089A      7.762323  
    1090A      7.769435  1091A      7.799447  1092A      7.820616  
    1093A      7.845955  1094A      7.855256  1095A      7.866672  
    1096A      7.878242  1097A      7.882598  1098A      7.907602  
    1099A      7.915194  1100A      7.926378  1101A      7.936675  
    1102A      7.951643  1103A      7.968005  1104A      7.990875  
    1105A      8.010612  1106A      8.018984  1107A      8.029931  
    1108A      8.036836  1109A      8.058645  1110A      8.102420  
    1111A      8.111890  1112A      8.116328  1113A      8.137397  
    1114A      8.158028  1115A      8.188312  1116A      8.310197  
    1117A      8.340536  1118A      8.354593  1119A      8.472794  
    1120A      8.529968  1121A      8.574658  1122A      8.726908  
    1123A      8.760006  1124A      9.685129  1125A      9.818512  
[...]
     980A      6.626555   981A      6.658058   982A      6.702141  
     983A      6.747996   984A      6.754709   985A      6.773135  
     986A      6.777689   987A      6.787988   988A      6.792054  
     989A      6.816039   990A      6.819535   991A      6.834682  
     992A      6.841320   993A      6.857243   994A      6.860164  
     995A      6.879033   996A      6.880538   997A      6.893012  
     998A      6.900723   999A      6.913191  1000A      6.913452  
    1001A      6.934530  1002A      6.942966  1003A      6.958476  
    1004A      6.964675  1005A      6.976417  1006A      6.983806  
    1007A      6.993708  1008A      7.000942  1009A      7.012025  
    1010A      7.017583  1011A      7.028707  1012A      7.062013  
    1013A      7.064104  1014A      7.092890  1015A      7.103219  
    1016A      7.115147  1017A      7.130408  1018A      7.136598  
    1019A      7.144602  1020A      7.156250  1021A      7.176632  
    1022A      7.182769  1023A      7.215941  1024A      7.223340  
    1025A      7.244299  1026A      7.267547  1027A      7.288644  
    1028A      7.309138  1029A      7.318084  1030A      7.330428  
    1031A      7.338275  1032A      7.361779  1033A      7.367127  
    1034A      7.382180  1035A      7.392893  1036A      7.402172  
    1037A      7.420145  1038A      7.436722  1039A      7.454334  
    1040A      7.473169  1041A      7.483118  1042A      7.493898  
    1043A      7.508377  1044A      7.533098  1045A      7.545512  
    1046A      7.578347  1047A      7.592158  1048A      7.602822  
    1049A      7.608328  1050A      7.635869  1051A      7.650746  
    1052A      7.703284  1053A      7.723636  1054A      7.730643  
    1055A      7.739556  1056A      7.754261  1057A      7.755877  
    1058A      7.775427  1059A      7.791146  1060A      7.802156  
    1061A      7.808372  1062A      7.820431  1063A      7.831160  
    1064A      7.840598  1065A      7.866357  1066A      7.867460  
    1067A      7.872455  1068A      7.875004  1069A      7.882445  
    1070A      7.900142  1071A      7.907137  1072A      7.920404  
    1073A      7.937571  1074A      7.942276  1075A      7.964508  
    1076A      7.982596  1077A      7.987530  1078A      7.992323  
    1079A      8.009937  1080A      8.018103  1081A      8.036741  
    1082A      8.040417  1083A      8.060271  1084A      8.072087  
    1085A      8.097156  1086A      8.112060  1087A      8.120549  
    1088A      8.136646  1089A      8.147853  1090A      8.166680  
    1091A      8.183527  1092A      8.196921  1093A      8.235215  
    1094A      8.266182  1095A      8.290389  1096A      8.296138  
    1097A      8.307343  1098A      8.325115  1099A      8.331821  
    1100A      8.356430  1101A      8.385595  1102A      8.392800  
    1103A      8.442820  1104A      8.493153  1105A      8.530950  
    1106A      8.544170  1107A      8.588681  1108A      8.674008  
    1109A      8.699363  1110A      8.776178  1111A      8.896669  
    1112A      8.974495  1113A      9.089806  1114A      9.147288  
    1115A      9.354715  1116A      9.451466  1117A      9.634864  
    1118A      9.743855  1119A      9.777545  1120A      9.875356  
    1121A      9.903574  1122A      9.934014  1123A      9.958481  
    1124A      9.990510  1125A     10.012330  1126A     10.071722  
    1127A     10.122029  1128A     10.182377  1129A     10.216344  
    1130A     10.268450  1131A     10.301186  1132A     10.347710  
    1133A     10.358341  1134A     10.424015  1135A     10.501592  
    1136A     10.536667  1137A     10.578467  1138A     10.770965  
    1139A     10.798617  1140A     10.998133  1141A     11.266081  
    1142A     11.425486  1143A     11.520070  1144A     11.621142  
    1145A     11.729924  1146A     11.768983  1147A     11.908802  
    1148A     11.937561  1149A     12.050179  1150A     12.086591  
    1151A     12.161032  1152A     12.235220  1153A     12.249584  
    1154A     12.301067  1155A     12.406743  1156A     12.626883  
    1157A     12.741208  1158A     13.136195  1159A     13.218041  
    1160A     13.272593  1161A     13.642116  1162A     14.524987  
    1163A     14.767086  1164A     16.158712  1165A     23.868624  
    1166A     25.999856  1167A     26.184485  1168A     26.464322  
    1169A     52.271190  1170A     52.531624  1171A     53.004100  
    1172A     55.356240  1173A     55.585774  1174A     56.233692  
    1175A     57.288036  1176A     61.834316  1177A     62.094903  
    1178A     63.408891  1179A     64.610667  1180A     67.126208  
    1181A    141.915239  

    Final Occupation by Irrep:
              A 
    DOCC [    25 ]

  @DF-RHF Final Energy:  -642.18213448373456

   => Energetics <=

    Nuclear Repulsion Energy =            279.9291963197819086
    One-Electron Energy =               -1444.7374936595217605
    Two-Electron Energy =                 522.6261628560054078
    Total Energy =                       -642.1821344837345578

Computation Completed


Properties will be evaluated at   0.000000,   0.000000,   0.000000 [a0]

Properties computed using the SCF density matrix

  Nuclear Dipole Moment: [e a0]
     X:  -209.3260      Y:    67.2405      Z:  -145.8125

  Electronic Dipole Moment: [e a0]
     X:   208.9655      Y:   -67.0009      Z:   148.0572

  Dipole Moment: [e a0]
     X:    -0.3605      Y:     0.2396      Z:     2.2447     Total:     2.2861

  Dipole Moment: [D]
     X:    -0.9163      Y:     0.6090      Z:     5.7056     Total:     5.8107


*** tstop() called on localhost.localdomain at Thu Jun  9 19:35:43 2022
Module time:
	user time   =    1045.67 seconds =      17.43 minutes
	system time =      11.30 seconds =       0.19 minutes
	total time  =         53 seconds =       0.88 minutes
Total time:
	user time   =    5171.34 seconds =      86.19 minutes
	system time =      71.35 seconds =       1.19 minutes
	total time  =        287 seconds =       4.78 minutes

*** tstart() called on localhost.localdomain
*** at Thu Jun  9 19:35:43 2022


  //>>>>>>>>>>>>>>>>>>>>>>>>>>>>>>>>>>>//
  //               DFMP2               //
  //<<<<<<<<<<<<<<<<<<<<<<<<<<<<<<<<<<<//

   => Loading Basis Set <=

    Name: (AUG-CC-PVTZ AUX)
    Role: RIFIT
    Keyword: DF_BASIS_MP2
    atoms 1-3, 8, 13, 16, 19                         entry C          line   148 file /data0/home/wuhanyu/software/psi4_132/share/psi4/basis/aug-cc-pvtz-ri.gbs 
    atoms 4, 12                                      entry N          line   206 file /data0/home/wuhanyu/software/psi4_132/share/psi4/basis/aug-cc-pvtz-ri.gbs 
    atoms 5-7, 9-11, 14-15, 17-18, 20-21, 29, 31, 33 entry H          line    30 file /data0/home/wuhanyu/software/psi4_132/share/psi4/basis/aug-cc-pvtz-ri.gbs 
    atoms 22                                         entry S          line   666 file /data0/home/wuhanyu/software/psi4_132/share/psi4/basis/aug-cc-pvtz-ri.gbs 
    atoms 23-25, 27-28, 30, 32                       entry O          line   264 file /data0/home/wuhanyu/software/psi4_132/share/psi4/basis/aug-cc-pvtz-ri.gbs 
    atoms 26                                         entry P          line   590 file /data0/home/wuhanyu/software/psi4_132/share/psi4/basis/aug-cc-pvtz-ri.gbs 

	 --------------------------------------------------------
	                          DF-MP2                         
	      2nd-Order Density-Fitted Moller-Plesset Theory     
	              RMP2 Wavefunction,  24 Threads             
	                                                         
	        Rob Parrish, Justin Turney, Andy Simmonett,      
	           Ed Hohenstein, and C. David Sherrill          
	 --------------------------------------------------------

   => Auxiliary Basis Set <=

  Basis Set: (AUG-CC-PVTZ AUX)
    Blend: AUG-CC-PVTZ-RI
    Number of shells: 732
    Number of basis function: 2680
    Number of Cartesian functions: 3383
    Spherical Harmonics?: true
    Max angular momentum: 4

	 --------------------------------------------------------
	                 NBF =  1181, NAUX =  2680
	 --------------------------------------------------------
	   CLASS    FOCC     OCC    AOCC    AVIR     VIR    FVIR
	   PAIRS       9      25      16    1156    1156       0
	 --------------------------------------------------------

	 Will attempt to load fitting metric from file 97.

	-----------------------------------------------------------
	 ==================> DF-MP2 Energies <==================== 
	-----------------------------------------------------------
	 Reference Energy          =    -642.1821344837345578 [Eh]
	 Singles Energy            =      -0.0000000000000000 [Eh]
	 Same-Spin Energy          =      -0.2983114818791134 [Eh]
	 Opposite-Spin Energy      =      -0.8463725688650220 [Eh]
	 Correlation Energy        =      -1.1446840507441354 [Eh]
	 Total Energy              =    -643.3268185344786616 [Eh]
	-----------------------------------------------------------
	 ================> DF-SCS-MP2 Energies <================== 
	-----------------------------------------------------------
	 SCS Same-Spin Scale       =       0.3333333333333333 [-]
	 SCS Opposite-Spin Scale   =       1.2000000000000000 [-]
	 SCS Same-Spin Energy      =      -0.0994371606263711 [Eh]
	 SCS Opposite-Spin Energy  =      -1.0156470826380264 [Eh]
	 SCS Correlation Energy    =      -1.1150842432643975 [Eh]
	 SCS Total Energy          =    -643.2972187269989490 [Eh]
	-----------------------------------------------------------


*** tstop() called on localhost.localdomain at Thu Jun  9 19:36:09 2022
Module time:
	user time   =     318.60 seconds =       5.31 minutes
	system time =       6.76 seconds =       0.11 minutes
	total time  =         26 seconds =       0.43 minutes
Total time:
	user time   =    5489.94 seconds =      91.50 minutes
	system time =      78.11 seconds =       1.30 minutes
	total time  =        313 seconds =       5.22 minutes
  Constructing Basis Sets for SAPT...

   => Loading Basis Set <=

    Name: (AUG-CC-PVTZ AUX)
    Role: RIFIT
    Keyword: DF_BASIS_SAPT
    atoms 1-3, 8, 13, 16, 19                         entry C          line   148 file /data0/home/wuhanyu/software/psi4_132/share/psi4/basis/aug-cc-pvtz-ri.gbs 
    atoms 4, 12                                      entry N          line   206 file /data0/home/wuhanyu/software/psi4_132/share/psi4/basis/aug-cc-pvtz-ri.gbs 
    atoms 5-7, 9-11, 14-15, 17-18, 20-21, 29, 31, 33 entry H          line    30 file /data0/home/wuhanyu/software/psi4_132/share/psi4/basis/aug-cc-pvtz-ri.gbs 
    atoms 22                                         entry S          line   666 file /data0/home/wuhanyu/software/psi4_132/share/psi4/basis/aug-cc-pvtz-ri.gbs 
    atoms 23-25, 27-28, 30, 32                       entry O          line   264 file /data0/home/wuhanyu/software/psi4_132/share/psi4/basis/aug-cc-pvtz-ri.gbs 
    atoms 26                                         entry P          line   590 file /data0/home/wuhanyu/software/psi4_132/share/psi4/basis/aug-cc-pvtz-ri.gbs 


  //>>>>>>>>>>>>>>>>>>>>>>>>>>>>>>>>>>>//
  //           SAPT2+(3)DMP2           //
  //<<<<<<<<<<<<<<<<<<<<<<<<<<<<<<<<<<<//


*** tstart() called on localhost.localdomain
*** at Thu Jun  9 19:36:09 2022

      SAPT2+(3)  
    Ed Hohenstein
     6 June 2009

      Orbital Information
  --------------------------
    NSO        =      1181
    NMO        =      1181
    NRI        =      2680
    NOCC A     =        54
    NOCC B     =        25
    FOCC A     =        17
    FOCC B     =         9
    NVIR A     =      1127
    NVIR B     =      1156

    Estimated memory usage: 122173.2 MB

    Natural Orbital Cutoff:   1.000E-06
    Disp(T3) Truncation:            Yes
    CCD (vv|vv) Truncation:         Yes
    MBPT T2 Truncation:             Yes

    Monomer A: 374 virtual orbitals dropped
    Monomer B: 882 virtual orbitals dropped

    Elst10,r            =    -0.081979468901 [Eh]
    Exch10 (S^2)        =     0.061391312683 [Eh]
    Exch10              =     0.062186853397 [Eh]
    Ind20,r (A<-B)      =    -0.025801117306 [Eh]
    Ind20,r (B<-A)      =    -0.013636116923 [Eh]
    Ind20,r             =    -0.039437234229 [Eh]
    Exch-Ind20,r (A<-B) =     0.010747484290 [Eh]
    Exch-Ind20,r (B<-A) =     0.007626814961 [Eh]
    Exch-Ind20,r        =     0.018374299251 [Eh]
    Disp20              =    -0.028754369819 [Eh]
    Disp20 (NO)         =    -0.025844619333 [Eh]
    Exch-Disp20         =     0.004755744878 [Eh]
    Elst12,r            =     0.003375142180 [Eh]
    Exch11              =     0.000778848124 [Eh]
    Exch12              =     0.008739974600 [Eh]
    Ind22               =    -0.005509728186 [Eh]
    Disp21              =     0.003430096124 [Eh]
    Disp22 (SDQ)        =    -0.001351845657 [Eh]

    (i =   1 of  16)       3215 seconds
    (i =   2 of  16)       6387 seconds
    (i =   3 of  16)       9592 seconds
    (i =   4 of  16)      12812 seconds
    (i =   5 of  16)      16011 seconds
    (i =   6 of  16)      19217 seconds
    (i =   7 of  16)      22410 seconds
    (i =   8 of  16)      25607 seconds
    (i =   9 of  16)      28785 seconds
    (i =  10 of  16)      31954 seconds
    (i =  11 of  16)      35129 seconds
    (i =  12 of  16)      38347 seconds
    (i =  13 of  16)      41557 seconds
    (i =  14 of  16)      44796 seconds
    (i =  15 of  16)      48009 seconds
    (i =  16 of  16)      51233 seconds

    Disp220 (T)         =    -0.002659184202 [Eh]

    (i =   1 of  37)        201 seconds
    (i =   2 of  37)        399 seconds
    (i =   3 of  37)        597 seconds
    (i =   4 of  37)        795 seconds
    (i =   5 of  37)        993 seconds
    (i =   6 of  37)       1189 seconds
    (i =   7 of  37)       1389 seconds
    (i =   8 of  37)       1594 seconds
    (i =   9 of  37)       1801 seconds
    (i =  10 of  37)       1997 seconds
    (i =  11 of  37)       2192 seconds
    (i =  12 of  37)       2388 seconds
    (i =  13 of  37)       2583 seconds
    (i =  14 of  37)       2779 seconds
    (i =  15 of  37)       2974 seconds
    (i =  16 of  37)       3170 seconds
    (i =  17 of  37)       3366 seconds
    (i =  18 of  37)       3562 seconds
    (i =  19 of  37)       3761 seconds
    (i =  20 of  37)       3967 seconds
    (i =  21 of  37)       4178 seconds
    (i =  22 of  37)       4395 seconds
    (i =  23 of  37)       4612 seconds
    (i =  24 of  37)       4826 seconds
    (i =  25 of  37)       5025 seconds
    (i =  26 of  37)       5224 seconds
    (i =  27 of  37)       5422 seconds
    (i =  28 of  37)       5622 seconds
    (i =  29 of  37)       5823 seconds
    (i =  30 of  37)       6023 seconds
    (i =  31 of  37)       6223 seconds
    (i =  32 of  37)       6424 seconds
    (i =  33 of  37)       6625 seconds
    (i =  34 of  37)       6827 seconds
    (i =  35 of  37)       7029 seconds
    (i =  36 of  37)       7230 seconds
    (i =  37 of  37)       7431 seconds

    Disp202 (T)         =    -0.002813727788 [Eh]

    Disp22 (T)          =    -0.005472911991 [Eh]

    Est. Disp220 (T)    =    -0.002958571956 [Eh]
    Est. Disp202 (T)    =    -0.003130515035 [Eh]

    Est. Disp22 (T)     =    -0.006089086991 [Eh]
    Elst13,r            =    -0.000260691405 [Eh]
    Disp30              =     0.000933697276 [Eh]

    SAPT Results 
  --------------------------------------------------------------------------------------------------------
    Electrostatics                -78.86501813 [mEh]     -49.48854602 [kcal/mol]    -207.06007656 [kJ/mol]
      Elst10,r                    -81.97946890 [mEh]     -51.44289339 [kcal/mol]    -215.23706595 [kJ/mol]
      Elst12,r                      3.37514218 [mEh]       2.11793369 [kcal/mol]       8.86143457 [kJ/mol]
      Elst13,r                     -0.26069140 [mEh]      -0.16358633 [kcal/mol]      -0.68444519 [kJ/mol]

    Exchange                       71.70567612 [mEh]      44.99599109 [kcal/mol]     188.26322672 [kJ/mol]
      Exch10                       62.18685340 [mEh]      39.02283965 [kcal/mol]     163.27156110 [kJ/mol]
      Exch10(S^2)                  61.39131268 [mEh]      38.52363032 [kcal/mol]     161.18286924 [kJ/mol]
      Exch11(S^2)                   0.77884812 [mEh]       0.48873458 [kcal/mol]       2.04486547 [kJ/mol]
      Exch12(S^2)                   8.73997460 [mEh]       5.48441686 [kcal/mol]      22.94680015 [kJ/mol]

    Induction                     -36.87678867 [mEh]     -23.14053425 [kcal/mol]     -96.81999531 [kJ/mol]
      Ind20,r                     -39.43723423 [mEh]     -24.74723810 [kcal/mol]    -103.54244420 [kJ/mol]
      Ind22                        -5.50972819 [mEh]      -3.45740663 [kcal/mol]     -14.46578936 [kJ/mol]
      Exch-Ind20,r                 18.37429925 [mEh]      11.53004685 [kcal/mol]      48.24171604 [kJ/mol]
      Exch-Ind22                    2.56705107 [mEh]       1.61084887 [kcal/mol]       6.73979167 [kJ/mol]
      delta HF,r (2)              -14.04272959 [mEh]      -8.81194586 [kcal/mol]     -36.86918146 [kJ/mol]
      delta MP2,r (2)               1.17155301 [mEh]       0.73516061 [kcal/mol]       3.07591201 [kJ/mol]

    Dispersion                    -27.07576419 [mEh]     -16.99029854 [kcal/mol]     -71.08740908 [kJ/mol]
      Disp20                      -28.75436982 [mEh]     -18.04363947 [kcal/mol]     -75.49458756 [kJ/mol]
      Disp30                        0.93369728 [mEh]       0.58590389 [kcal/mol]       2.45142186 [kJ/mol]
      Disp21                        3.43009612 [mEh]       2.15241781 [kcal/mol]       9.00571613 [kJ/mol]
      Disp22 (SDQ)                 -1.35184566 [mEh]      -0.84829596 [kcal/mol]      -3.54927028 [kJ/mol]
      Disp22 (T)                   -5.47291199 [mEh]      -3.43430412 [kcal/mol]     -14.36912845 [kJ/mol]
      Est. Disp22 (T)              -6.08908699 [mEh]      -3.82095977 [kcal/mol]     -15.98689569 [kJ/mol]
      Exch-Disp20                   4.75574488 [mEh]       2.98427497 [kcal/mol]      12.48620646 [kJ/mol]

  Total HF                        -54.89828007 [mEh]     -34.44919084 [kcal/mol]    -144.13541447 [kJ/mol]
  Total SAPT0                     -78.89690501 [mEh]     -49.50855535 [kcal/mol]    -207.14379557 [kJ/mol]
  Total SAPT2                     -68.94561722 [mEh]     -43.26402798 [kcal/mol]    -181.01669308 [kJ/mol]
  Total SAPT2+                    -72.95645375 [mEh]     -45.78086590 [kcal/mol]    -191.54714292 [kJ/mol]
  Total SAPT2+(3)                 -72.28344787 [mEh]     -45.35854834 [kcal/mol]    -189.78016625 [kJ/mol]
  Total SAPT2+dMP2                -71.78490073 [mEh]     -45.04570528 [kcal/mol]    -188.47123091 [kJ/mol]
  Total SAPT2+(3)dMP2             -71.11189486 [mEh]     -44.62338772 [kcal/mol]    -186.70425424 [kJ/mol]

  Special recipe for scaled SAPT0 (see Manual):
    Electrostatics sSAPT0         -81.97946890 [mEh]     -51.44289339 [kcal/mol]    -215.23706595 [kJ/mol]
    Exchange sSAPT0                62.18685340 [mEh]      39.02283965 [kcal/mol]     163.27156110 [kJ/mol]
    Induction sSAPT0              -34.38205685 [mEh]     -21.57506640 [kcal/mol]     -90.27007782 [kJ/mol]
    Dispersion sSAPT0             -23.81133651 [mEh]     -14.94183924 [kcal/mol]     -62.51665539 [kJ/mol]
  Total sSAPT0                    -77.98600886 [mEh]     -48.93695938 [kcal/mol]    -204.75223805 [kJ/mol]
  --------------------------------------------------------------------------------------------------------

*** tstop() called on localhost.localdomain at Fri Jun 10 15:11:11 2022
Module time:
	user time   =  919587.91 seconds =   15326.47 minutes
	system time =    6081.55 seconds =     101.36 minutes
	total time  =      70502 seconds =    1175.03 minutes
Total time:
	user time   =  925080.50 seconds =   15418.01 minutes
	system time =    6159.70 seconds =     102.66 minutes
	total time  =      70815 seconds =    1180.25 minutes

    Psi4 stopped on: Friday, 10 June 2022 03:11PM
    Psi4 wall time for execution: 19:40:15.17

*** Psi4 exiting successfully. Buy a developer a beer!
