          40
 G =       -0.526906 Gcorr = 0.218894 a.u. Nimag =   0 Frame:     1 Step:     1 Geom:     1
C           9.32907100      9.14918900     10.59800800
C           8.36504800     10.05545900     10.11937800
C           8.21164900     11.28681200     10.77871300
C           9.03553700     11.59592200     11.86050900
C           9.98201400     10.67137400     12.31192500
H           7.46250800     12.02483800     10.40308400
H           9.51375600      8.18246900     10.07339700
H           8.97005500     12.57727900     12.34148100
H          10.65600000     10.90628500     13.14524800
C           7.57839900      9.71746100      8.90865800
H           8.20906700      9.87281500      8.00126100
H           7.23298700      8.67721600      8.88492500
H           6.69794800     10.36663500      8.77847900
N          10.10909900      9.45549900     11.68287800
C          11.10094200      8.44569900     12.17694900
H          10.75545600      8.07626900     13.16912100
H          11.09067200      7.55814100     11.47852800
C          12.53289100      8.99082100     12.27250900
H          12.55336600     10.00008500     12.73916400
H          13.11017100      8.33389600     12.95751600
C          13.24061300      9.05074600     10.91883300
H          14.30395700      9.33774000     11.05198900
H          13.25019300      8.05787500     10.42397000
C          12.56255700     10.07715900     10.01962900
O          12.57580800     11.27688900     10.36966600
O          11.97428100      9.63005000      8.98409000
P          10.02966000     12.57887200      8.15355200
O           8.66858200     13.14307200      7.97148800
O          11.17637200     13.24511500      7.16792300
H          10.88003400     13.92863800      6.52440600
O          10.63964900     12.77858600      9.62650100
H          11.61311500     12.33163000      9.83204100
O          10.13219900     11.00332300      7.82835000
H          11.04631800     10.49186600      8.12390000
O          11.05888300      7.17009000      9.39668900
H          11.04476000      6.53683600      8.69208100
H          11.49889900      7.99417900      9.02379500
O           6.51538500     13.08780000      9.10666300
H           7.12307900     13.84656600      9.14438300
H           6.76904200     12.65882600      8.26833900
          40
 G =       -0.528781 Gcorr = 0.239012 a.u. Nimag =   0 Frame:     2 Step:     2 Geom:     2
C           9.49373600      8.90625700     10.24422300
C           8.45923700      9.39827100      9.44465500
C           7.70510500     10.48846200      9.89898800
C           7.99872000     11.04253400     11.14511300
C           9.02582500     10.51435000     11.92186100
H           6.90576000     10.90928000      9.27847900
H          10.13031800      8.06979700      9.89797600
H           7.45919300     11.92488500     11.49907400
H           9.28185500     10.93532200     12.90581100
C           8.22107000      8.78434400      8.11485300
H           9.16794100      8.66569600      7.55184600
H           7.75197300      7.79504300      8.18783300
H           7.58828100      9.41543000      7.46843600
N           9.75543400      9.45672500     11.46280600
C          10.85136900      8.90982400     12.29710700
H          10.42027300      8.58597500     13.27162000
H          11.26706900      7.98802900     11.81144800
C          11.98506200      9.92423400     12.52218300
H          11.58224500     10.94857400     12.69077900
H          12.51206300      9.66178100     13.46294800
C          12.98955400      9.95564900     11.37315800
H          13.89191600     10.52999100     11.66360800
H          13.34175400      8.94134900     11.10818300
C          12.34857500     10.63473900     10.16176500
O          12.35863100     11.87425300     10.12497400
O          11.81628300      9.88488600      9.30593200
P           9.80302900     12.43319900      7.88291800
O           8.84071700     12.49677900      8.99191800
O           9.17174100     13.07692100      6.56903500
H           9.89053300     13.02119400      5.82791200
O          11.16711300     13.20917100      8.08104400
H          11.70583800     12.72030800      8.86809700
O          10.18471700     10.96277000      7.41329100
H          10.86746300     10.54858400      8.11441000
O          12.09221200      7.25611600      9.64545700
H          12.54203100      6.88528000      8.89775700
H          12.06846200      8.23479900      9.47472900
O          10.24083500     12.81508700     11.76382400
H          11.08060900     12.61906600     11.31174800
H           9.66547700     13.06507000     11.03221800
          40
 G =       -0.528198 Gcorr = 0.221382 a.u. Nimag =   0 Frame:     3 Step:     3 Geom:     3
C           9.25778100      8.97734800     10.27928600
C           8.22801100      9.50604700      9.48810100
C           7.51047700     10.62063600      9.96647400
C           7.82644800     11.15707500     11.21531700
C           8.87013200     10.61453000     11.97198900
H           6.73954600     11.08860900      9.34750500
H           9.87855500      8.12356400      9.91939000
H           7.30600000     12.04596800     11.58453600
H           9.18581800     11.07803200     12.92087900
C           7.96494400      8.92715300      8.14637500
H           8.00934100      7.83103700      8.13109200
H           6.99674900      9.22872100      7.72678900
H           8.73968200      9.28969000      7.42853700
N           9.56759400      9.52961100     11.49834900
C          10.67615500      8.93827200     12.31464500
H          10.25356900      8.60776700     13.29015600
H          11.05350000      8.00824000     11.80009200
C          11.83636700      9.91759100     12.53423600
H          11.46322800     10.96983900     12.61678900
H          12.30390000      9.69805700     13.51640500
C          12.90446100      9.84414200     11.44387200
H          13.82359200     10.36841600     11.78037700
H          13.20481500      8.79439700     11.24760400
C          12.41909500     10.49590800     10.15658700
O          12.40107600     11.74419800     10.07517600
O          12.03503900      9.72412200      9.21955200
P          10.03757000     12.28504500      8.01593000
O           9.20255700     12.43648600      9.23188400
O           9.33455400     12.91932300      6.67667900
H           9.91532700     12.97783600      5.86967800
O          11.49773600     12.99002300      7.99770200
H          12.17486800     12.67038200      8.74840500
O          10.32904300     10.75553800      7.54869100
H          11.14485800     10.25726900      8.05400200
O          11.61652600      7.22460500      9.94424900
H          11.90750600      6.51399100      9.39134200
H          11.97386400      8.07079000      9.53286100
O          10.47468000     12.67071300     11.78180500
H           9.91138100     12.85386400     10.99797100
H          11.38367600     12.68518800     11.42870400
          40
 G =       -0.531674 Gcorr = 0.235981 a.u. Nimag =   0 Frame:     4 Step:     4 Geom:     4
C           9.26694300      9.04659900     10.24101800
C           8.30673900      9.63045000      9.41229500
C           7.65399100     10.79548200      9.83852200
C           7.98049300     11.33740700     11.08140700
C           8.93832600     10.72311700     11.88390000
H           6.91093100     11.28305400      9.19770400
H           9.82315300      8.14598700      9.91859000
H           7.52761700     12.27581000     11.41167200
H           9.23445100     11.14967600     12.85581900
C           8.04291900      9.03215900      8.08037400
H           8.97948600      8.95272600      7.49097800
H           7.61095000      8.02573600      8.14753500
H           7.37204600      9.65125400      7.46399600
N           9.55753600      9.58449000     11.45935600
C          10.55519700      8.92308100     12.33339800
H          10.05099900      8.64572700     13.28728500
H          10.88866500      7.96274100     11.85885600
C          11.78323400      9.80431200     12.61434900
H          11.48906100     10.86267000     12.79345000
H          12.24755000      9.46860100     13.56504700
C          12.82235800      9.74612300     11.49773900
H          13.76858400     10.22217100     11.82392900
H          13.07788500      8.70414500     11.22910500
C          12.29223400     10.50099200     10.27791800
O          12.41171100     11.73570300     10.26984000
O          11.73129300      9.81737000      9.38619400
P          10.00768300     12.55428000      7.94468000
O           9.01049900     12.67036400      9.01770200
O           9.48430300     13.27838100      6.62517100
H          10.22388600     13.17756100      5.90959800
O          11.41911200     13.21503000      8.21854200
H          11.88561300     12.66275400      9.00904800
O          10.29465400     11.07127700      7.44952400
H          10.90266300     10.58330300      8.17277700
O          11.70733000      7.17229100      9.70898100
H          12.13667100      6.76156900      8.97012400
H          11.79304300      8.14938800      9.54803400
O          10.34899000     12.84407100     11.86552400
H           9.83594400     13.20337300     11.13284300
H          11.17527600     12.56879100     11.42718900
          40
 G =       -0.531714 Gcorr = 0.235941 a.u. Nimag =   0 Frame:     5 Step:     5 Geom:     5
C           9.28733500      9.02823000     10.22561700
C           8.32255700      9.61765900      9.40617300
C           7.66853600     10.77684900      9.84610800
C           7.99827600     11.30744300     11.09305300
C           8.96030000     10.68756100     11.88615300
H           6.92187000     11.26875800      9.21281600
H           9.84490700      8.13248600      9.89211000
H           7.54443000     12.24153500     11.43402200
H           9.25862900     11.10509700     12.86130800
C           8.05526200      9.03159500      8.06951700
H           7.37090100      9.64856000      7.46613500
H           8.98806800      8.97170400      7.47171600
H           7.63773700      8.01855600      8.12818100
N           9.58083200      9.55472700     11.44820300
C          10.58272800      8.88685300     12.31245700
H          10.08190300      8.59795900     13.26469700
H          10.91747800      7.93248600     11.82687800
C          11.80916000      9.76835300     12.59940200
H          11.51272900     10.82400800     12.79045500
H          12.27698700      9.42391600     13.54521800
C          12.84532200      9.72471500     11.47935700
H          13.79135200     10.19944300     11.80807200
H          13.10254900      8.68633600     11.19873400
C          12.30990700     10.49157900     10.26939700
O          12.42524600     11.72670300     10.27509400
O          11.74918400      9.81626000      9.37123500
P          10.01237500     12.56197200      7.96394300
O           9.01646600     12.66231600      9.03970100
O           9.48401600     13.29875700      6.65344300
H          10.22216100     13.20761800      5.93515300
O          11.42156200     13.22547800      8.24292400
H          11.89166000     12.66653100      9.02646800
O          10.30477800     11.08590700      7.45169800
H          10.91592900     10.59221600      8.16852400
O          11.73048300      7.16794100      9.66555900
H          12.15767700      6.76625100      8.92052700
H          11.81421000      8.14694500      9.51537800
O          10.36533800     12.81337800     11.88849200
H           9.84897100     13.18101700     11.16248800
H          11.19020600     12.54431900     11.44360700
          40
 G =       -0.528795 Gcorr = 0.238724 a.u. Nimag =   0 Frame:     6 Step:     6 Geom:     6
C           9.14558700      9.18292800     10.17978100
C           8.24865900      9.82929200      9.32604800
C           7.67947400     11.04513200      9.72846200
C           8.00775400     11.56433400     10.98073200
C           8.88783900     10.87941700     11.81397300
H           6.99816600     11.58751600      9.06346000
H           9.64368500      8.24354500      9.87306000
H           7.61631500     12.53439100     11.29775500
H           9.16484300     11.26827400     12.80550600
C           7.96228000      9.23596100      7.99640000
H           7.45256100      9.94315200      7.32137900
H           8.89802600      8.96548800      7.46780000
H           7.34739800      8.32966100      8.06562300
N           9.44355900      9.70334500     11.40329300
C          10.38271200      8.98682200     12.29840600
H           9.83944000      8.72373300     13.23411400
H          10.68523100      8.01427100     11.82300400
C          11.64130400      9.80946200     12.62014900
H          11.39742900     10.88725400     12.75473000
H          12.03910900      9.47746900     13.60154900
C          12.73056500      9.66449000     11.56020800
H          13.68008700     10.11054000     11.91777800
H          12.95085500      8.60299400     11.34209200
C          12.29557200     10.39365700     10.28830700
O          12.51431200     11.61239100     10.22008700
O          11.70584900      9.70956300      9.41470800
P          10.22305400     12.50566100      7.81241900
O           9.22209600     12.76118000      8.85786400
O           9.78197900     13.19991500      6.44760400
H          10.52061800     12.99950700      5.75235200
O          11.68195400     13.05564700      8.07780700
H          12.08690300     12.50914200      8.90685300
O          10.38517700     10.97835900      7.40037800
H          10.94917000     10.48109100      8.15106800
O          11.44594800      7.11239300      9.90809900
H          11.88956000      6.60660800      9.24053500
H          11.62402500      8.06500000      9.67758400
O          10.48979600     12.93883100     11.70468800
H          10.00998700     13.25817600     10.93227000
H          11.31114500     12.59342400     11.31209700
          40
 G =       -0.521214 Gcorr = 0.236375 a.u. Nimag =   0 Frame:     7 Step:     7 Geom:     7
C           8.88512800      9.79472200     10.46421400
C           7.52613700     10.11546300     10.22386100
C           6.61707000     10.00970900     11.26519100
C           7.05374300      9.57192000     12.52473900
C           8.38122200      9.23624000     12.71432000
H           5.56815500     10.27274900     11.11615000
H           9.64741100      9.88884900      9.65316400
H           6.34908900      9.50114500     13.35435100
H           8.76191800      8.89051500     13.68085700
C           7.12664800     10.57732300      8.87613600
H           6.11054300     10.27347000      8.59652700
H           7.16350900     11.68407400      8.80535700
H           7.80374400     10.22024900      8.07533700
N           9.27428400      9.33642200     11.67595600
C          10.68403800      8.95494000     11.92045700
H          10.71404100      8.01192500     12.50830100
H          11.17587500      8.70498800     10.94018400
C          11.45034400     10.08227900     12.63554900
H          10.84231200     11.01557900     12.67909100
H          11.64095000      9.81031700     13.68984900
C          12.76736800     10.38319900     11.92265700
H          13.36465700     11.11777000     12.49587600
H          13.39638600      9.48286400     11.81541700
C          12.45093400     10.97708400     10.54498800
O          12.05940400     12.15896300     10.51454100
O          12.55737100     10.21863400      9.56008400
P          10.71241100     12.29939100      7.33578600
O           9.37562000     12.11624900      7.90916900
O          10.61170400     12.86403200      5.85150300
H          11.57764800     12.96329600      5.49689300
O          11.67023700     13.31968000      8.07581600
H          11.87210300     12.93042800      9.05157900
O          11.53999800     10.95156900      7.16386700
H          12.04038000     10.73447300      8.07679200
O          10.67040100      8.42444000      8.58550900
H          10.57454100      8.68743400      7.66495800
H          11.45099500      8.93345400      8.88185800
O           9.31657300     12.05289000     10.96358400
H           9.04726100     12.40175200     10.10300200
H          10.28786500     12.19953800     10.94654400
          40
 G =       -0.519582 Gcorr = 0.233858 a.u. Nimag =   0 Frame:     8 Step:     8 Geom:     8
C           8.62902900     10.53095200     11.14781900
C           7.42075600     10.71903700     10.45876100
C           6.95819700      9.71104600      9.60932600
C           7.72163400      8.55670400      9.44688200
C           8.93773900      8.42949500     10.11426100
H           6.03592000      9.84843400      9.04328200
H           9.02019500     11.33486400     11.81097400
H           7.40855700      7.77477200      8.75366000
H           9.59535200      7.56556400      9.94679400
C           6.70527000     12.01017800     10.59145900
H           5.61953200     11.89429300     10.68964200
H           7.05676100     12.61986500     11.44222400
H           6.88926100     12.63349400      9.68967300
N           9.36643100      9.40943500     10.96915300
C          10.69593800      9.19902100     11.59557700
H          10.65772400      8.24576800     12.17078100
H          11.42643100      9.02902500     10.74921400
C          11.22909000     10.32642900     12.49023200
H          10.59398100     11.24244700     12.45939800
H          11.21977800     10.00791000     13.54981200
C          12.64795300     10.72224100     12.07289200
H          13.13448100     11.32631700     12.86166100
H          13.29623200      9.84645600     11.90662900
C          12.54474600     11.57335300     10.79913500
O          12.25505600     12.75841900     10.89365500
O          12.74017900     10.95156300      9.70913000
P           9.98267100     10.95756900      7.78378200
O           9.01936000     11.64091000      8.65308200
O           9.37452800     10.84710900      6.31390500
H          10.11798200     10.51706600      5.68301700
O          11.42583300     11.51384900      7.57646200
H          12.00703400     11.45116100      8.54012300
O          10.10302600      9.42233400      8.25739300
H          11.07047000      9.10644500      8.35654400
O          12.68125000      8.41180300      9.06713100
H          13.33278300      8.28806200      8.38531900
H          12.83103400      9.35154500      9.38322000
O           9.53568600     13.21747500     11.20835100
H           9.31946200     13.02918800     10.29032900
H          10.51267500     13.25842000     11.18933700
          40
 G =       -0.518905 Gcorr = 0.236744 a.u. Nimag =   0 Frame:     9 Step:     9 Geom:     9
C           9.07641000     10.74136000     11.12095600
C           7.83490400     11.15458900     10.61331900
C           6.98980200     10.20633200     10.03214200
C           7.39434600      8.87379500      9.97951800
C           8.63475100      8.50536700     10.49840600
H           6.04132700     10.51303600      9.58803200
H           9.78316600     11.49311600     11.52058000
H           6.77526300      8.12226400      9.48739000
H           9.00202800      7.47646100     10.41264600
C           7.47703000     12.58910200     10.63991300
H           6.41035300     12.77135800     10.81116600
H           8.04246800     13.17424000     11.38835400
H           7.74301200     13.06993800      9.67178400
N           9.45198000      9.43859600     11.07214200
C          10.80025800      8.99329900     11.49661900
H          10.77953600      7.89793300     11.69046700
H          11.48623300      9.13052900     10.60629500
C          11.37143200      9.73287000     12.71573000
H          10.62335800     10.40099000     13.18767500
H          11.63248700      9.00000800     13.50575600
C          12.61743500     10.53993900     12.34164100
H          13.05531900     11.02632300     13.23272700
H          13.40625600      9.89775900     11.91307500
C          12.20172600     11.61668300     11.33024300
O          11.83836500     12.71169900     11.75050400
O          12.18201100     11.24675300     10.12448500
P           9.99133200     10.31487000      7.53371300
O           9.15873200      9.46531200      8.38711400
O           9.18048300     10.76314200      6.23854200
H           9.80455100     11.37784500      5.68527300
O          10.44713800     11.70323300      8.14677900
H          11.15722500     11.56346100      8.93495600
O          11.29004600      9.64041100      6.91159300
H          11.95685500      9.38604800      7.67142600
O          13.26492500      9.15672900      8.94554800
H          14.07534900      9.44800900      8.53901700
H          12.95084200      9.95000200      9.46369500
O          10.00089200     13.97354800     10.13672700
H          10.13190500     13.42455700      9.36753100
H          10.71849000     13.68851400     10.73653800
          40
 G =       -0.518525 Gcorr = 0.236193 a.u. Nimag =   0 Frame:    10 Step:    10 Geom:    10
C           8.71608900     10.00255600     10.24816900
C           7.33348000     10.29931900     10.22408600
C           6.53821700      9.85944500     11.27281500
C           7.11577600      9.12520300     12.31887600
C           8.47098800      8.84377200     12.30083700
H           5.47094700     10.08623800     11.29486000
H           9.38951300     10.35395800      9.42960800
H           6.49994600      8.78218300     13.15148600
H           8.96222000      8.28118500     13.10210000
C           6.80563900     11.08417900      9.08716800
H           5.71882800     11.21840600      9.10616700
H           7.26290800     12.09618600      9.04922000
H           7.06798600     10.63607600      8.10814500
N           9.24850800      9.27931400     11.25933100
C          10.70258500      8.99634100     11.26943100
H          10.88407000      7.91398000     11.45481800
H          11.10670100      9.17750300     10.23558700
C          11.42303400      9.87312800     12.30932200
H          10.78825500     10.73500200     12.61525000
H          11.60813700      9.29825400     13.23542000
C          12.74265500     10.40565900     11.75352200
H          13.23973400     11.06663700     12.48765100
H          13.45329200      9.58255600     11.54341100
C          12.46277800     11.20930200     10.47915300
O          11.82871600     12.27655100     10.60134400
O          12.83936700     10.71095100      9.39928000
P          10.49602800     12.38044700      7.36391400
O           9.33801500     11.56418000      7.74611500
O          10.17376500     13.17498500      6.01976300
H          11.01350000     13.72882500      5.78500200
O          10.88658900     13.53083300      8.38424900
H          11.33043700     13.08726600      9.24492400
O          11.82976700     11.59801800      7.02141900
H          12.26996200     11.26619700      7.93254200
O          13.07344200      7.97488500      9.56899500
H          13.54207200      7.66595200      8.80276000
H          13.06773900      8.95452800      9.47527500
O           9.20499500     12.06174600     11.31747500
H           8.81964200     12.81697000     10.87419400
H          10.17369700     12.17129400     11.14633500
          40
 G =       -0.517361 Gcorr = 0.237842 a.u. Nimag =   0 Frame:    11 Step:    11 Geom:    11
C           8.92525800      9.75650500     10.39885700
C           7.59961300     10.20656900     10.21973100
C           6.73745700     10.20318500     11.31237400
C           7.18915300      9.72771200     12.54765600
C           8.48253000      9.24257300     12.66894200
H           5.71791800     10.58097600     11.21124200
H           9.66401300      9.81363200      9.57016300
H           6.53158000      9.74271700     13.41823800
H           8.86999200      8.85619700     13.61790100
C           7.16000500     10.67809300      8.88948300
H           7.04593300     11.78356300      8.87116100
H           7.88703900     10.46630400      8.08163200
H           6.19695300     10.25378600      8.58004800
N           9.32370300      9.24686300     11.58958600
C          10.68733300      8.69169500     11.74953400
H          10.63073500      7.73544400     12.31435800
H          11.08984200      8.41181900     10.73730800
C          11.62995700      9.69050200     12.44431300
H          11.09032300     10.62337300     12.72650400
H          11.99736800      9.26455100     13.39723500
C          12.81385000     10.04875300     11.54676200
H          13.55415800     10.65942600     12.09797000
H          13.35205300      9.14757500     11.19582800
C          12.28450400     10.85563100     10.35981100
O          12.08302200     12.06939200     10.53391200
O          12.01502200     10.22432600      9.31147900
P          10.18072600     12.94233100      7.75880000
O           9.00474000     13.23785000      8.58096400
O          10.01498900     13.57214000      6.30576100
H          10.86213300     13.33318600      5.76725600
O          11.58138000     13.49161000      8.25038500
H          11.82619700     13.00230200      9.16722400
O          10.36639500     11.38506100      7.47148900
H          11.08965900     10.97963700      8.12133700
O          12.72644200      7.61178100      9.17408400
H          13.12226800      7.46560700      8.32422700
H          12.50994800      8.57223900      9.18427100
O           9.38357400     11.94968300     11.35178300
H          10.34390500     12.08626900     11.22458800
H           9.00834600     12.51915400     10.66582100
          40
 G =       -0.519169 Gcorr = 0.237695 a.u. Nimag =   0 Frame:    12 Step:    12 Geom:    12
C           9.02890600      9.78676600     10.47878700
C           7.67224800      9.99027500     10.12691200
C           6.69819300      9.86940900     11.10741500
C           7.06977500      9.52959200     12.41592100
C           8.40071500      9.30244300     12.71501100
H           5.64687400     10.04371900     10.86989200
H           9.84058700      9.90916700      9.72666500
H           6.31294600      9.44655000     13.19720700
H           8.73197200      9.03058300     13.72287100
C           7.33461300     10.34217500      8.73043000
H           8.04011800      9.91213400      7.99203900
H           6.32815100     10.02426200      8.43181700
H           7.38527800     11.43877200      8.56903200
N           9.35814000      9.41945700     11.73888500
C          10.76865400      9.15518900     12.10290700
H          10.82156400      8.25920500     12.75794500
H          11.34462300      8.87333500     11.17439200
C          11.40391900     10.38300800     12.77934000
H          10.73562700     11.27151000     12.70454400
H          11.53227600     10.20464800     13.86256000
C          12.74892400     10.72099700     12.13792100
H          13.23002700     11.57136600     12.65672200
H          13.45692900      9.87632000     12.19197500
C          12.49569500     11.10401500     10.67514300
O          12.13882500     12.27260700     10.44360100
O          12.59944900     10.18941900      9.83072700
P          10.98391000     11.89856900      7.20552800
O           9.62639100     11.74850000      7.73951400
O          10.94152400     12.24242000      5.65231100
H          11.92119400     12.33122900      5.33384100
O          11.86566600     13.05379800      7.83487300
H          12.01921200     12.81958700      8.86566500
O          11.86546800     10.57773000      7.27024900
H          12.25319200     10.47769600      8.25843800
O          11.06176000      8.02798600      8.87901800
H          11.00771300      8.20528900      7.93609700
H          11.72056400      8.67501300      9.18702100
O           9.35685900     12.12462300     10.77391600
H          10.32124900     12.30720100     10.78517300
H           9.12028500     12.36345800      9.86771000
          40
 G =       -0.528758 Gcorr = 0.239035 a.u. Nimag =   0 Frame:    13 Step:    13 Geom:    13
C           9.46986900      8.91557800     10.23366500
C           8.52010000      9.39404800      9.32781000
C           7.73144200     10.49605600      9.68452000
C           7.90627200     11.07528700     10.94151100
C           8.85059100     10.56011200     11.82471500
H           6.99806600     10.90644300      8.98109700
H          10.13265900      8.07006500      9.96785500
H           7.33991100     11.96680600     11.22320100
H           9.01264000     11.00076900     12.81993100
C           8.40824200      8.75310600      7.99414100
H           7.92702700      7.76807000      8.04153900
H           7.84598400      9.37355400      7.27616600
H           9.40453500      8.61751800      7.52874600
N           9.61542200      9.49057800     11.46027800
C          10.62240000      8.95745500     12.40787000
H          10.09716400      8.65553700     13.34244400
H          11.07806600      8.02422900     11.98384900
C          11.73446500      9.97240300     12.72100300
H          11.32293100     11.00146100     12.82843400
H          12.16629700      9.72788500     13.71372700
C          12.84591000      9.97593100     11.67461700
H          13.71913000     10.55289200     12.03968700
H          13.21635900      8.95499900     11.46609300
C          12.32979400     10.63203000     10.39305500
O          12.34957700     11.87048400     10.33255600
O          11.88001600      9.86657300      9.50422400
P          10.02595100     12.38963900      7.84236100
O           8.96165700     12.48020900      8.85191300
O           9.52783900     13.00779200      6.46073500
H          10.31387500     12.93207500      5.79318200
O          11.36898900     13.16479600      8.15480600
H          11.82611400     12.69174000      9.00065000
O          10.44255900     10.90812100      7.44278300
H          11.05351500     10.50702300      8.21473600
O          12.10527600      7.24479000      9.92331200
H          12.62356900      6.85732100      9.23039600
H          12.10342800      8.21997200      9.73151600
O          10.08788900     12.85286500     11.73804700
H          10.96686500     12.64558200     11.37420800
H           9.58762500     13.08822900     10.94864800
          40