 Entering Gaussian System, Link 0=g16
 Initial command:
 /data0/home/software/g16/l1.exe "/data0/home/software/g16/scratch/Gau-279847.inp" -scrdir="/data0/home/software/g16/scratch/"
 Default is to use a total of  22 processors:
                               22 via shared-memory
                                1 via Linda
 Entering Link 1 = /data0/home/software/g16/l1.exe PID=    279848.
  
 Copyright (c) 1988,1990,1992,1993,1995,1998,2003,2009,2016,
            Gaussian, Inc.  All Rights Reserved.
  
 This is part of the Gaussian(R) 16 program.  It is based on
 the Gaussian(R) 09 system (copyright 2009, Gaussian, Inc.),
 the Gaussian(R) 03 system (copyright 2003, Gaussian, Inc.),
 the Gaussian(R) 98 system (copyright 1998, Gaussian, Inc.),
 the Gaussian(R) 94 system (copyright 1995, Gaussian, Inc.),
 the Gaussian 92(TM) system (copyright 1992, Gaussian, Inc.),
 the Gaussian 90(TM) system (copyright 1990, Gaussian, Inc.),
 the Gaussian 88(TM) system (copyright 1988, Gaussian, Inc.),
 the Gaussian 86(TM) system (copyright 1986, Carnegie Mellon
 University), and the Gaussian 82(TM) system (copyright 1983,
 Carnegie Mellon University). Gaussian is a federally registered
 trademark of Gaussian, Inc.
  
 This software contains proprietary and confidential information,
 including trade secrets, belonging to Gaussian, Inc.
  
 This software is provided under written license and may be
 used, copied, transmitted, or stored only in accord with that
 written license.
  
 The following legend is applicable only to US Government
 contracts under FAR:
  
                    RESTRICTED RIGHTS LEGEND
  
 Use, reproduction and disclosure by the US Government is
 subject to restrictions as set forth in subparagraphs (a)
 and (c) of the Commercial Computer Software - Restricted
 Rights clause in FAR 52.227-19.
  
 Gaussian, Inc.
 340 Quinnipiac St., Bldg. 40, Wallingford CT 06492
  
  
 ---------------------------------------------------------------
 Warning -- This program may not be used in any manner that
 competes with the business of Gaussian, Inc. or will provide
 assistance to any competitor of Gaussian, Inc.  The licensee
 of this program is prohibited from giving any competitor of
 Gaussian, Inc. access to this program.  By using this program,
 the user acknowledges that Gaussian, Inc. is engaged in the
 business of creating and licensing software in the field of
 computational chemistry and represents and warrants to the
 licensee that it is not a competitor of Gaussian, Inc. and that
 it will not use this program in any manner prohibited above.
 ---------------------------------------------------------------
  

 Cite this work as:
 Gaussian 16, Revision A.03,
 M. J. Frisch, G. W. Trucks, H. B. Schlegel, G. E. Scuseria, 
 M. A. Robb, J. R. Cheeseman, G. Scalmani, V. Barone, 
 G. A. Petersson, H. Nakatsuji, X. Li, M. Caricato, A. V. Marenich, 
 J. Bloino, B. G. Janesko, R. Gomperts, B. Mennucci, H. P. Hratchian, 
 J. V. Ortiz, A. F. Izmaylov, J. L. Sonnenberg, D. Williams-Young, 
 F. Ding, F. Lipparini, F. Egidi, J. Goings, B. Peng, A. Petrone, 
 T. Henderson, D. Ranasinghe, V. G. Zakrzewski, J. Gao, N. Rega, 
 G. Zheng, W. Liang, M. Hada, M. Ehara, K. Toyota, R. Fukuda, 
 J. Hasegawa, M. Ishida, T. Nakajima, Y. Honda, O. Kitao, H. Nakai, 
 T. Vreven, K. Throssell, J. A. Montgomery, Jr., J. E. Peralta, 
 F. Ogliaro, M. J. Bearpark, J. J. Heyd, E. N. Brothers, K. N. Kudin, 
 V. N. Staroverov, T. A. Keith, R. Kobayashi, J. Normand, 
 K. Raghavachari, A. P. Rendell, J. C. Burant, S. S. Iyengar, 
 J. Tomasi, M. Cossi, J. M. Millam, M. Klene, C. Adamo, R. Cammi, 
 J. W. Ochterski, R. L. Martin, K. Morokuma, O. Farkas, 
 J. B. Foresman, and D. J. Fox, Gaussian, Inc., Wallingford CT, 2016.
 
 ******************************************
 Gaussian 16:  ES64L-G16RevA.03 25-Dec-2016
                19-Feb-2023 
 ******************************************
 %nproc=24
 Will use up to   24 processors via shared memory.
 %mem=50GB
 ---------------------------------------------------
 #p M062X/6-311+G(2d,p) nosymm em=GD3 counterpoise=4
 ---------------------------------------------------
 1/38=1,62=4,172=1/1;
 2/12=2,15=1,17=6,18=5,40=1/2;
 1/38=1,53=2,62=4,63=1/22;
 3/5=4,6=6,7=112,11=2,25=1,30=1,74=-55,124=31/1,2,3;
 4//1;
 5/5=2,38=5/2;
 6/7=2,8=2,9=2,10=2,28=1/1;
 1/53=2,62=4,63=1/22;
 3/5=7,6=11,7=112,11=2,25=1,30=1,74=-55,82=7,124=31/1,2,3;
 4//1;
 5/5=2,38=5/2;
 6/7=2,8=2,9=2,10=2,28=1/1;
 1/53=2,62=4,63=1/22(-4);
 99/5=1,9=1/99;
 Leave Link    1 at Sun Feb 19 12:05:07 2023, MaxMem=  6710886400 cpu:               0.7 elap:               0.0
 (Enter /data0/home/software/g16/l101.exe)
 -------------------
 Title Card Required
 -------------------
 Symbolic Z-matrix:
 Charge =  0 Multiplicity = 1 in supermolecule
 Charge =  0 Multiplicity = 1 in fragment      1.
 Charge =  0 Multiplicity = 1 in fragment      2.
 Charge =  0 Multiplicity = 1 in fragment      3.
 Charge =  0 Multiplicity = 1 in fragment      4.
 P                     12.63864   5.4428    6.38168    
 O                     13.07041   6.401     5.36271    
 O                     13.91517   4.81638   7.09594    
 H                     13.60054   4.05584   7.71207    
 O                     11.7049   6.02041   7.53166    
 H                     12.06035   6.96363   7.83744    
 O                     11.83261   4.16794   5.89884    
 H                     10.80012   4.37738   5.93348    
 O                     11.30381   7.65713   3.37872    
 H                     11.93085   7.1331    3.90848    
 H                     11.33164   8.52447   3.78122    
 O                     8.83684   6.5088    3.81854    
 H                     9.7072    6.93505   3.68269    
 H                     8.65939   6.05874   2.9963     
 O                     9.09672   4.7561    5.95447    
 H                     9.01343   5.33755   6.71324    
 H                     8.96261   5.3435    5.18467    
 
 ITRead=  0  0  0  0  0  0  0  0  0  0  0  0  0  0  0  0  0
 MicOpt= -1 -1 -1 -1 -1 -1 -1 -1 -1 -1 -1 -1 -1 -1 -1 -1 -1
 NAtoms=     17 NQM=       17 NQMF=       0 NMMI=      0 NMMIF=      0
                NMic=       0 NMicF=      0.
                    Isotopes and Nuclear Properties:
 (Nuclear quadrupole moments (NQMom) in fm**2, nuclear magnetic moments (NMagM)
  in nuclear magnetons)

  Atom         1           2           3           4           5           6           7           8           9          10
 IAtWgt=          31          16          16           1          16           1          16           1          16           1
 AtmWgt=  30.9737634  15.9949146  15.9949146   1.0078250  15.9949146   1.0078250  15.9949146   1.0078250  15.9949146   1.0078250
 NucSpn=           1           0           0           1           0           1           0           1           0           1
 AtZEff=  -0.0000000  -0.0000000  -0.0000000  -0.0000000  -0.0000000  -0.0000000  -0.0000000  -0.0000000  -0.0000000  -0.0000000
 NQMom=    0.0000000   0.0000000   0.0000000   0.0000000   0.0000000   0.0000000   0.0000000   0.0000000   0.0000000   0.0000000
 NMagM=    1.1316000   0.0000000   0.0000000   2.7928460   0.0000000   2.7928460   0.0000000   2.7928460   0.0000000   2.7928460
 AtZNuc=  15.0000000   8.0000000   8.0000000   1.0000000   8.0000000   1.0000000   8.0000000   1.0000000   8.0000000   1.0000000

  Atom        11          12          13          14          15          16          17
 IAtWgt=           1          16           1           1          16           1           1
 AtmWgt=   1.0078250  15.9949146   1.0078250   1.0078250  15.9949146   1.0078250   1.0078250
 NucSpn=           1           0           1           1           0           1           1
 AtZEff=  -0.0000000  -0.0000000  -0.0000000  -0.0000000  -0.0000000  -0.0000000  -0.0000000
 NQMom=    0.0000000   0.0000000   0.0000000   0.0000000   0.0000000   0.0000000   0.0000000
 NMagM=    2.7928460   0.0000000   2.7928460   2.7928460   0.0000000   2.7928460   2.7928460
 AtZNuc=   1.0000000   8.0000000   1.0000000   1.0000000   8.0000000   1.0000000   1.0000000
 Leave Link  101 at Sun Feb 19 12:05:07 2023, MaxMem=  6710886400 cpu:               2.1 elap:               0.1
 (Enter /data0/home/software/g16/l202.exe)
                          Input orientation:                          
 ---------------------------------------------------------------------
 Center     Atomic      Atomic             Coordinates (Angstroms)
 Number     Number       Type             X           Y           Z
 ---------------------------------------------------------------------
      1         15           0       12.638642    5.442800    6.381676
      2          8           0       13.070413    6.401000    5.362707
      3          8           0       13.915170    4.816378    7.095938
      4          1           0       13.600535    4.055842    7.712065
      5          8           0       11.704900    6.020409    7.531657
      6          1           0       12.060355    6.963626    7.837443
      7          8           0       11.832608    4.167941    5.898838
      8          1           0       10.800121    4.377383    5.933475
      9          8           0       11.303810    7.657134    3.378717
     10          1           0       11.930852    7.133101    3.908484
     11          1           0       11.331639    8.524474    3.781223
     12          8           0        8.836836    6.508800    3.818537
     13          1           0        9.707202    6.935049    3.682691
     14          1           0        8.659386    6.058741    2.996304
     15          8           0        9.096724    4.756100    5.954467
     16          1           0        9.013434    5.337554    6.713238
     17          1           0        8.962606    5.343504    5.184670
 ---------------------------------------------------------------------
                    Distance matrix (angstroms):
                    1          2          3          4          5
     1  P    0.000000
     2  O    1.463855   0.000000
     3  O    1.591257   2.495743   0.000000
     4  H    2.149145   3.361589   1.028116   0.000000
     5  O    1.589957   2.591104   2.554376   2.735965   0.000000
     6  H    2.183251   2.731498   2.932719   3.292884   1.053334
     7  O    1.583695   2.608860   2.488088   2.534941   2.472659
     8  H    2.171671   3.094354   3.353739   3.333030   2.464213
     9  O    3.962678   2.938533   5.357875   6.084583   4.481814
    10  H    3.078110   1.987294   4.411869   5.169583   3.796909
    11  H    4.238788   3.167581   5.604636   6.369308   4.524977
    12  O    4.707416   4.507689   6.276554   6.623397   4.717158
    13  H    4.254958   3.797216   5.817733   6.299502   4.431919
    14  H    5.260666   5.017386   6.780393   7.117932   5.463154
    15  O    3.633077   4.341207   4.952172   4.885061   3.299786
    16  H    3.641860   4.406124   4.944199   4.866409   2.894838
    17  H    3.867289   4.245477   5.334669   5.436560   3.672428
                    6          7          8          9         10
     6  H    0.000000
     7  O    3.409679   0.000000
     8  H    3.449918   1.054085   0.000000
     9  O    4.575320   4.336485   4.187751   0.000000
    10  H    3.934744   3.572581   3.601822   0.973882   0.000000
    11  H    4.406835   4.869768   4.702453   0.956590   1.520253
    12  O    5.171996   4.333812   3.587532   2.756460   3.157654
    13  H    4.774946   4.133466   3.578010   1.778472   2.243842
    14  H    5.985151   4.697783   4.004583   3.113531   3.562136
    15  O    4.147515   2.798944   1.745116   4.463375   4.227110
    16  H    3.632035   3.158953   2.173064   4.663186   4.427410
    17  H    4.388399   3.182593   2.206935   3.754409   3.693480
                   11         12         13         14         15
    11  H    0.000000
    12  O    3.207550   0.000000
    13  H    2.274813   0.978611   0.000000
    14  H    3.719795   0.953996   1.528712   0.000000
    15  O    4.890652   2.775193   3.206473   3.261728   0.000000
    16  H    4.911949   3.127667   3.495357   3.802770   0.959562
    17  H    4.207202   1.800015   2.311575   2.322165   0.977557
                   16         17
    16  H    0.000000
    17  H    1.529424   0.000000
 Symmetry turned off by external request.
 Stoichiometry    H9O7P
 Framework group  C1[X(H9O7P)]
 Deg. of freedom    45
 Full point group                 C1      NOp   1
 Rotational constants (GHZ):           1.7286516           0.8228585           0.6381813
 Leave Link  202 at Sun Feb 19 12:05:07 2023, MaxMem=  6710886400 cpu:               0.1 elap:               0.0
 (Enter /data0/home/software/g16/l122.exe)
 Counterpoise: doing full-system calculation.
 Leave Link  122 at Sun Feb 19 12:05:07 2023, MaxMem=  6710886400 cpu:               0.0 elap:               0.0
 (Enter /data0/home/software/g16/l301.exe)
 Standard basis: 6-311+G(2d,p) (5D, 7F)
 Ernie: Thresh=  0.10000D-02 Tol=  0.10000D-05 Strict=F.
   278 basis functions,   422 primitive gaussians,   294 cartesian basis functions
    40 alpha electrons       40 beta electrons
       nuclear repulsion energy       552.3996534452 Hartrees.
 IExCor= 4336 DFT=T Ex+Corr=M062X ExCW=0 ScaHFX=  0.540000
 ScaDFX=  1.000000  1.000000  1.000000  1.000000 ScalE2=  1.000000  1.000000
 IRadAn=      5 IRanWt=     -1 IRanGd=            0 ICorTp=0 IEmpDi=131
 NAtoms=   17 NActive=   17 NUniq=   17 SFac= 1.00D+00 NAtFMM=   60 NAOKFM=F Big=F
 Integral buffers will be    131072 words long.
 Raffenetti 2 integral format.
 Two-electron integral symmetry is turned off.
 R6Disp:  Grimme-D3 Dispersion energy=       -0.0006606276 Hartrees.
 Nuclear repulsion after empirical dispersion term =      552.3989928176 Hartrees.
 Leave Link  301 at Sun Feb 19 12:05:07 2023, MaxMem=  6710886400 cpu:               1.1 elap:               0.1
 (Enter /data0/home/software/g16/l302.exe)
 NPDir=0 NMtPBC=     1 NCelOv=     1 NCel=       1 NClECP=     1 NCelD=      1
         NCelK=      1 NCelE2=     1 NClLst=     1 CellRange=     0.0.
 One-electron integrals computed using PRISM.
 NBasis=   278 RedAO= T EigKep=  3.39D-04  NBF=   278
 NBsUse=   278 1.00D-06 EigRej= -1.00D+00 NBFU=   278
 Precomputing XC quadrature grid using
 IXCGrd= 4 IRadAn=           5 IRanWt=          -1 IRanGd=           0 AccXCQ= 0.00D+00.
 Generated NRdTot=       0 NPtTot=           0 NUsed=           0 NTot=          32
 NSgBfM=   294   294   294   294   294 MxSgAt=    17 MxSgA2=    17.
 Leave Link  302 at Sun Feb 19 12:05:07 2023, MaxMem=  6710886400 cpu:               4.4 elap:               0.2
 (Enter /data0/home/software/g16/l303.exe)
 DipDrv:  MaxL=1.
 Leave Link  303 at Sun Feb 19 12:05:07 2023, MaxMem=  6710886400 cpu:               0.7 elap:               0.0
 (Enter /data0/home/software/g16/l401.exe)
 ExpMin= 3.48D-02 ExpMax= 7.75D+04 ExpMxC= 2.65D+03 IAcc=3 IRadAn=         5 AccDes= 0.00D+00
 Harris functional with IExCor= 1009 and IRadAn=       5 diagonalized for initial guess.
 HarFok:  IExCor= 1009 AccDes= 0.00D+00 IRadAn=         5 IDoV= 1 UseB2=F ITyADJ=14
 ICtDFT=  3500011 ScaDFX=  1.000000  1.000000  1.000000  1.000000
 FoFCou: FMM=F IPFlag=           0 FMFlag=      100000 FMFlg1=           0
         NFxFlg=           0 DoJE=T BraDBF=F KetDBF=T FulRan=T
         wScrn=  0.000000 ICntrl=       500 IOpCl=  0 I1Cent=   200000004 NGrid=           0
         NMat0=    1 NMatS0=      1 NMatT0=    0 NMatD0=    1 NMtDS0=    0 NMtDT0=    0
 Symmetry not used in FoFCou.
 Harris En= -873.207278344762    
 JPrj=0 DoOrth=F DoCkMO=F.
 Leave Link  401 at Sun Feb 19 12:05:08 2023, MaxMem=  6710886400 cpu:              12.9 elap:               0.6
 (Enter /data0/home/software/g16/l502.exe)
 Two-electron integral symmetry not used.
 Closed shell SCF:
 Using DIIS extrapolation, IDIIS=  1040.
 NGot=  6710886400 LenX=  6710704303 LenY=  6710617426
 Requested convergence on RMS density matrix=1.00D-08 within 128 cycles.
 Requested convergence on MAX density matrix=1.00D-06.
 Requested convergence on             energy=1.00D-06.
 No special actions if energy rises.
 Fock matrices will be formed incrementally for  20 cycles.

 Cycle   1  Pass 1  IDiag  1:
 FoFJK:  IHMeth= 1 ICntrl=       0 DoSepK=F KAlg= 0 I1Cent=           0 FoldK=F
 IRaf= 900000000 NMat=       1 IRICut=       1 DoRegI=T DoRafI=F ISym2E= 0 IDoP0=0 IntGTp=1.
 FoFCou: FMM=F IPFlag=           0 FMFlag=      100000 FMFlg1=           0
         NFxFlg=           0 DoJE=F BraDBF=F KetDBF=F FulRan=T
         wScrn=  0.000000 ICntrl=         0 IOpCl=  0 I1Cent=           0 NGrid=           0
         NMat0=    1 NMatS0=      1 NMatT0=    0 NMatD0=    1 NMtDS0=    0 NMtDT0=    0
 Symmetry not used in FoFCou.
 E= -873.026754461526    
 DIIS: error= 3.99D-02 at cycle   1 NSaved=   1.
 NSaved= 1 IEnMin= 1 EnMin= -873.026754461526     IErMin= 1 ErrMin= 3.99D-02
 ErrMax= 3.99D-02  0.00D+00 EMaxC= 1.00D-01 BMatC= 8.00D-01 BMatP= 8.00D-01
 IDIUse=3 WtCom= 6.01D-01 WtEn= 3.99D-01
 Coeff-Com:  0.100D+01
 Coeff-En:   0.100D+01
 Coeff:      0.100D+01
 Gap=     0.296 Goal=   None    Shift=    0.000
 GapD=    0.296 DampG=1.000 DampE=0.500 DampFc=0.5000 IDamp=-1.
 Damping current iteration by 5.00D-01
 RMSDP=5.23D-03 MaxDP=1.76D-01              OVMax= 2.10D-01

 Cycle   2  Pass 1  IDiag  1:
 RMSU=  2.61D-03    CP:  1.00D+00
 E= -873.225404006520     Delta-E=       -0.198649544993 Rises=F Damp=T
 DIIS: error= 8.79D-03 at cycle   2 NSaved=   2.
 NSaved= 2 IEnMin= 2 EnMin= -873.225404006520     IErMin= 2 ErrMin= 8.79D-03
 ErrMax= 8.79D-03  0.00D+00 EMaxC= 1.00D-01 BMatC= 3.38D-02 BMatP= 8.00D-01
 IDIUse=3 WtCom= 9.12D-01 WtEn= 8.79D-02
 Coeff-Com:  0.412D-01 0.959D+00
 Coeff-En:   0.141D+00 0.859D+00
 Coeff:      0.500D-01 0.950D+00
 Gap=     0.372 Goal=   None    Shift=    0.000
 RMSDP=1.02D-03 MaxDP=4.49D-02 DE=-1.99D-01 OVMax= 1.18D-01

 Cycle   3  Pass 1  IDiag  1:
 RMSU=  8.08D-04    CP:  9.97D-01  7.68D-01
 E= -873.473305217919     Delta-E=       -0.247901211399 Rises=F Damp=F
 DIIS: error= 4.66D-03 at cycle   3 NSaved=   3.
 NSaved= 3 IEnMin= 3 EnMin= -873.473305217919     IErMin= 3 ErrMin= 4.66D-03
 ErrMax= 4.66D-03  0.00D+00 EMaxC= 1.00D-01 BMatC= 7.41D-03 BMatP= 3.38D-02
 IDIUse=3 WtCom= 9.53D-01 WtEn= 4.66D-02
 Coeff-Com: -0.264D-01 0.245D+00 0.782D+00
 Coeff-En:   0.000D+00 0.000D+00 0.100D+01
 Coeff:     -0.252D-01 0.233D+00 0.792D+00
 Gap=     0.363 Goal=   None    Shift=    0.000
 RMSDP=3.84D-04 MaxDP=1.59D-02 DE=-2.48D-01 OVMax= 3.28D-02

 Cycle   4  Pass 1  IDiag  1:
 RMSU=  3.35D-04    CP:  9.97D-01  8.27D-01  8.63D-01
 E= -873.475322272916     Delta-E=       -0.002017054996 Rises=F Damp=F
 DIIS: error= 4.02D-03 at cycle   4 NSaved=   4.
 NSaved= 4 IEnMin= 4 EnMin= -873.475322272916     IErMin= 4 ErrMin= 4.02D-03
 ErrMax= 4.02D-03  0.00D+00 EMaxC= 1.00D-01 BMatC= 4.71D-03 BMatP= 7.41D-03
 IDIUse=3 WtCom= 9.60D-01 WtEn= 4.02D-02
 Coeff-Com: -0.200D-01 0.422D-01 0.474D+00 0.504D+00
 Coeff-En:   0.000D+00 0.000D+00 0.388D+00 0.612D+00
 Coeff:     -0.191D-01 0.405D-01 0.470D+00 0.508D+00
 Gap=     0.368 Goal=   None    Shift=    0.000
 RMSDP=1.82D-04 MaxDP=7.86D-03 DE=-2.02D-03 OVMax= 1.37D-02

 Cycle   5  Pass 1  IDiag  1:
 RMSU=  4.69D-05    CP:  9.97D-01  8.11D-01  9.60D-01  5.47D-01
 E= -873.478479115219     Delta-E=       -0.003156842303 Rises=F Damp=F
 DIIS: error= 1.78D-04 at cycle   5 NSaved=   5.
 NSaved= 5 IEnMin= 5 EnMin= -873.478479115219     IErMin= 5 ErrMin= 1.78D-04
 ErrMax= 1.78D-04  0.00D+00 EMaxC= 1.00D-01 BMatC= 1.92D-05 BMatP= 4.71D-03
 IDIUse=3 WtCom= 9.98D-01 WtEn= 1.78D-03
 Coeff-Com: -0.275D-02 0.229D-02 0.871D-01 0.122D+00 0.792D+00
 Coeff-En:   0.000D+00 0.000D+00 0.000D+00 0.000D+00 0.100D+01
 Coeff:     -0.275D-02 0.229D-02 0.869D-01 0.122D+00 0.792D+00
 Gap=     0.366 Goal=   None    Shift=    0.000
 RMSDP=1.76D-05 MaxDP=9.96D-04 DE=-3.16D-03 OVMax= 7.69D-04

 Cycle   6  Pass 1  IDiag  1:
 RMSU=  1.46D-05    CP:  9.96D-01  8.09D-01  9.63D-01  5.69D-01  9.61D-01
 E= -873.478492463949     Delta-E=       -0.000013348730 Rises=F Damp=F
 DIIS: error= 7.84D-05 at cycle   6 NSaved=   6.
 NSaved= 6 IEnMin= 6 EnMin= -873.478492463949     IErMin= 6 ErrMin= 7.84D-05
 ErrMax= 7.84D-05  0.00D+00 EMaxC= 1.00D-01 BMatC= 1.65D-06 BMatP= 1.92D-05
 IDIUse=1 WtCom= 1.00D+00 WtEn= 0.00D+00
 Coeff-Com:  0.415D-05-0.109D-02 0.572D-02 0.147D-01 0.243D+00 0.737D+00
 Coeff:      0.415D-05-0.109D-02 0.572D-02 0.147D-01 0.243D+00 0.737D+00
 Gap=     0.366 Goal=   None    Shift=    0.000
 RMSDP=6.04D-06 MaxDP=2.62D-04 DE=-1.33D-05 OVMax= 2.04D-04

 Cycle   7  Pass 1  IDiag  1:
 RMSU=  3.00D-06    CP:  9.96D-01  8.08D-01  9.64D-01  5.70D-01  1.05D+00
                    CP:  8.81D-01
 E= -873.478493722276     Delta-E=       -0.000001258327 Rises=F Damp=F
 DIIS: error= 2.11D-05 at cycle   7 NSaved=   7.
 NSaved= 7 IEnMin= 7 EnMin= -873.478493722276     IErMin= 7 ErrMin= 2.11D-05
 ErrMax= 2.11D-05  0.00D+00 EMaxC= 1.00D-01 BMatC= 1.92D-07 BMatP= 1.65D-06
 IDIUse=1 WtCom= 1.00D+00 WtEn= 0.00D+00
 Coeff-Com:  0.335D-03-0.596D-03-0.949D-02-0.106D-01-0.112D-01 0.229D+00
 Coeff-Com:  0.803D+00
 Coeff:      0.335D-03-0.596D-03-0.949D-02-0.106D-01-0.112D-01 0.229D+00
 Coeff:      0.803D+00
 Gap=     0.366 Goal=   None    Shift=    0.000
 RMSDP=2.35D-06 MaxDP=1.08D-04 DE=-1.26D-06 OVMax= 1.11D-04

 Cycle   8  Pass 1  IDiag  1:
 RMSU=  1.53D-06    CP:  9.96D-01  8.08D-01  9.64D-01  5.71D-01  1.07D+00
                    CP:  9.52D-01  9.84D-01
 E= -873.478493853121     Delta-E=       -0.000000130846 Rises=F Damp=F
 DIIS: error= 9.30D-06 at cycle   8 NSaved=   8.
 NSaved= 8 IEnMin= 8 EnMin= -873.478493853121     IErMin= 8 ErrMin= 9.30D-06
 ErrMax= 9.30D-06  0.00D+00 EMaxC= 1.00D-01 BMatC= 4.61D-08 BMatP= 1.92D-07
 IDIUse=1 WtCom= 1.00D+00 WtEn= 0.00D+00
 Coeff-Com:  0.151D-03-0.204D-03-0.495D-02-0.596D-02-0.191D-01 0.587D-01
 Coeff-Com:  0.397D+00 0.575D+00
 Coeff:      0.151D-03-0.204D-03-0.495D-02-0.596D-02-0.191D-01 0.587D-01
 Coeff:      0.397D+00 0.575D+00
 Gap=     0.366 Goal=   None    Shift=    0.000
 RMSDP=6.12D-07 MaxDP=2.46D-05 DE=-1.31D-07 OVMax= 3.56D-05

 Cycle   9  Pass 1  IDiag  1:
 RMSU=  3.68D-07    CP:  9.96D-01  8.08D-01  9.64D-01  5.71D-01  1.07D+00
                    CP:  9.61D-01  1.10D+00  8.10D-01
 E= -873.478493885612     Delta-E=       -0.000000032491 Rises=F Damp=F
 DIIS: error= 1.20D-06 at cycle   9 NSaved=   9.
 NSaved= 9 IEnMin= 9 EnMin= -873.478493885612     IErMin= 9 ErrMin= 1.20D-06
 ErrMax= 1.20D-06  0.00D+00 EMaxC= 1.00D-01 BMatC= 1.02D-09 BMatP= 4.61D-08
 IDIUse=1 WtCom= 1.00D+00 WtEn= 0.00D+00
 Coeff-Com: -0.308D-04 0.543D-04 0.532D-03 0.583D-03-0.683D-03-0.190D-01
 Coeff-Com: -0.494D-01 0.529D-01 0.102D+01
 Coeff:     -0.308D-04 0.543D-04 0.532D-03 0.583D-03-0.683D-03-0.190D-01
 Coeff:     -0.494D-01 0.529D-01 0.102D+01
 Gap=     0.366 Goal=   None    Shift=    0.000
 RMSDP=2.32D-07 MaxDP=5.01D-06 DE=-3.25D-08 OVMax= 9.63D-06

 Cycle  10  Pass 1  IDiag  1:
 RMSU=  1.13D-07    CP:  9.96D-01  8.08D-01  9.64D-01  5.71D-01  1.07D+00
                    CP:  9.62D-01  1.13D+00  9.03D-01  1.12D+00
 E= -873.478493886869     Delta-E=       -0.000000001257 Rises=F Damp=F
 DIIS: error= 8.36D-07 at cycle  10 NSaved=  10.
 NSaved=10 IEnMin=10 EnMin= -873.478493886869     IErMin=10 ErrMin= 8.36D-07
 ErrMax= 8.36D-07  0.00D+00 EMaxC= 1.00D-01 BMatC= 2.51D-10 BMatP= 1.02D-09
 IDIUse=1 WtCom= 1.00D+00 WtEn= 0.00D+00
 Coeff-Com: -0.209D-04 0.348D-04 0.477D-03 0.536D-03 0.407D-03-0.120D-01
 Coeff-Com: -0.434D-01-0.426D-02 0.480D+00 0.578D+00
 Coeff:     -0.209D-04 0.348D-04 0.477D-03 0.536D-03 0.407D-03-0.120D-01
 Coeff:     -0.434D-01-0.426D-02 0.480D+00 0.578D+00
 Gap=     0.366 Goal=   None    Shift=    0.000
 RMSDP=5.48D-08 MaxDP=2.58D-06 DE=-1.26D-09 OVMax= 3.53D-06

 Cycle  11  Pass 1  IDiag  1:
 RMSU=  3.88D-08    CP:  9.96D-01  8.08D-01  9.64D-01  5.71D-01  1.07D+00
                    CP:  9.62D-01  1.13D+00  9.15D-01  1.19D+00  8.69D-01
 E= -873.478493887062     Delta-E=       -0.000000000193 Rises=F Damp=F
 DIIS: error= 1.61D-07 at cycle  11 NSaved=  11.
 NSaved=11 IEnMin=11 EnMin= -873.478493887062     IErMin=11 ErrMin= 1.61D-07
 ErrMax= 1.61D-07  0.00D+00 EMaxC= 1.00D-01 BMatC= 1.42D-11 BMatP= 2.51D-10
 IDIUse=1 WtCom= 1.00D+00 WtEn= 0.00D+00
 Coeff-Com:  0.116D-05-0.193D-05 0.260D-04 0.266D-04 0.243D-03 0.429D-03
 Coeff-Com: -0.297D-02-0.115D-01-0.576D-01 0.145D+00 0.926D+00
 Coeff:      0.116D-05-0.193D-05 0.260D-04 0.266D-04 0.243D-03 0.429D-03
 Coeff:     -0.297D-02-0.115D-01-0.576D-01 0.145D+00 0.926D+00
 Gap=     0.366 Goal=   None    Shift=    0.000
 RMSDP=2.03D-08 MaxDP=5.90D-07 DE=-1.93D-10 OVMax= 1.22D-06

 Cycle  12  Pass 1  IDiag  1:
 RMSU=  9.63D-09    CP:  9.96D-01  8.08D-01  9.64D-01  5.71D-01  1.07D+00
                    CP:  9.62D-01  1.13D+00  9.19D-01  1.21D+00  9.92D-01
                    CP:  1.03D+00
 E= -873.478493887043     Delta-E=        0.000000000019 Rises=F Damp=F
 DIIS: error= 3.15D-08 at cycle  12 NSaved=  12.
 NSaved=12 IEnMin=11 EnMin= -873.478493887062     IErMin=12 ErrMin= 3.15D-08
 ErrMax= 3.15D-08  0.00D+00 EMaxC= 1.00D-01 BMatC= 3.83D-13 BMatP= 1.42D-11
 IDIUse=1 WtCom= 1.00D+00 WtEn= 0.00D+00
 Coeff-Com:  0.102D-05-0.172D-05-0.114D-04-0.135D-04 0.322D-04 0.529D-03
 Coeff-Com:  0.130D-02-0.154D-02-0.290D-01-0.770D-04 0.161D+00 0.868D+00
 Coeff:      0.102D-05-0.172D-05-0.114D-04-0.135D-04 0.322D-04 0.529D-03
 Coeff:      0.130D-02-0.154D-02-0.290D-01-0.770D-04 0.161D+00 0.868D+00
 Gap=     0.366 Goal=   None    Shift=    0.000
 RMSDP=3.83D-09 MaxDP=1.06D-07 DE= 1.91D-11 OVMax= 2.18D-07

 SCF Done:  E(RM062X) =  -873.478493887     A.U. after   12 cycles
            NFock= 12  Conv=0.38D-08     -V/T= 2.0026
 KE= 8.712057527085D+02 PE=-3.174919776781D+03 EE= 8.778365373679D+02
 Leave Link  502 at Sun Feb 19 12:05:25 2023, MaxMem=  6710886400 cpu:             406.8 elap:              17.0
 (Enter /data0/home/software/g16/l601.exe)
 Copying SCF densities to generalized density rwf, IOpCl= 0 IROHF=0.

 **********************************************************************

            Population analysis using the SCF density.

 **********************************************************************

 Alpha  occ. eigenvalues --  -78.16982 -19.69286 -19.67474 -19.65705 -19.63848
 Alpha  occ. eigenvalues --  -19.63215 -19.62585 -19.59760  -6.97732  -5.09661
 Alpha  occ. eigenvalues --   -5.09612  -5.09436  -1.23994  -1.16936  -1.15642
 Alpha  occ. eigenvalues --   -1.14880  -1.14415  -1.13200  -1.10234  -0.72164
 Alpha  occ. eigenvalues --   -0.65990  -0.63431  -0.62395  -0.61746  -0.61474
 Alpha  occ. eigenvalues --   -0.56211  -0.55330  -0.52033  -0.50537  -0.49472
 Alpha  occ. eigenvalues --   -0.48442  -0.47919  -0.46688  -0.44696  -0.44206
 Alpha  occ. eigenvalues --   -0.41707  -0.41121  -0.40611  -0.39385  -0.38688
 Alpha virt. eigenvalues --   -0.02053   0.01048   0.02675   0.03936   0.07284
 Alpha virt. eigenvalues --    0.08670   0.09222   0.11455   0.12688   0.12847
 Alpha virt. eigenvalues --    0.13675   0.14026   0.14701   0.15231   0.16510
 Alpha virt. eigenvalues --    0.17101   0.17713   0.17995   0.19359   0.19701
 Alpha virt. eigenvalues --    0.20322   0.21522   0.22035   0.22534   0.23616
 Alpha virt. eigenvalues --    0.24241   0.24801   0.25651   0.26282   0.27203
 Alpha virt. eigenvalues --    0.27614   0.28579   0.29165   0.29754   0.30451
 Alpha virt. eigenvalues --    0.31519   0.32336   0.32676   0.34588   0.35644
 Alpha virt. eigenvalues --    0.35832   0.37284   0.38147   0.40129   0.41712
 Alpha virt. eigenvalues --    0.42095   0.44540   0.47047   0.50055   0.52311
 Alpha virt. eigenvalues --    0.53362   0.53745   0.56658   0.57139   0.59432
 Alpha virt. eigenvalues --    0.62604   0.64218   0.66188   0.67879   0.75735
 Alpha virt. eigenvalues --    0.78385   0.78833   0.85612   0.95678   0.98471
 Alpha virt. eigenvalues --    0.99298   1.00719   1.03098   1.03907   1.04815
 Alpha virt. eigenvalues --    1.05725   1.06694   1.08206   1.10332   1.11079
 Alpha virt. eigenvalues --    1.12607   1.12826   1.13866   1.14785   1.16184
 Alpha virt. eigenvalues --    1.17553   1.19127   1.20136   1.20992   1.21487
 Alpha virt. eigenvalues --    1.22613   1.23053   1.23753   1.25532   1.25676
 Alpha virt. eigenvalues --    1.26949   1.27685   1.32259   1.34215   1.35287
 Alpha virt. eigenvalues --    1.37748   1.39510   1.40016   1.42459   1.43709
 Alpha virt. eigenvalues --    1.45553   1.46724   1.50085   1.51642   1.53503
 Alpha virt. eigenvalues --    1.56743   1.58913   1.59785   1.64286   1.67897
 Alpha virt. eigenvalues --    1.68273   1.69726   1.70100   1.71238   1.74231
 Alpha virt. eigenvalues --    1.74566   1.76264   1.77893   1.78325   1.80644
 Alpha virt. eigenvalues --    1.82890   1.84642   1.86637   1.92731   1.95672
 Alpha virt. eigenvalues --    1.97421   2.00710   2.02385   2.03491   2.06804
 Alpha virt. eigenvalues --    2.07930   2.09272   2.10110   2.10395   2.11953
 Alpha virt. eigenvalues --    2.16062   2.17546   2.19385   2.22487   2.24639
 Alpha virt. eigenvalues --    2.27885   2.29750   2.31070   2.36295   2.43119
 Alpha virt. eigenvalues --    2.45084   2.46389   2.47465   2.51211   2.54049
 Alpha virt. eigenvalues --    2.55419   2.58879   2.61509   2.63173   2.63546
 Alpha virt. eigenvalues --    2.65062   2.66226   2.66456   2.75299   2.76468
 Alpha virt. eigenvalues --    2.84615   2.86261   2.91247   2.93365   2.95948
 Alpha virt. eigenvalues --    3.01740   3.03527   3.08977   3.11785   3.14461
 Alpha virt. eigenvalues --    5.02666   5.06108   5.07481   5.10348   5.12259
 Alpha virt. eigenvalues --    5.12690   5.13537   5.14570   5.18677   5.21707
 Alpha virt. eigenvalues --    5.26039   5.36738   5.47703   5.52514   5.53709
 Alpha virt. eigenvalues --    5.54893   5.56222   5.59040   5.94141   5.94791
 Alpha virt. eigenvalues --    5.96054   6.72914   6.74269   6.75246   6.75820
 Alpha virt. eigenvalues --    6.77246   6.78671   6.79474   6.79882   6.81158
 Alpha virt. eigenvalues --    6.81979   6.82211   6.85283   6.86258   6.87971
 Alpha virt. eigenvalues --    6.89761   6.90232   6.91530   6.93346   6.93789
 Alpha virt. eigenvalues --    6.94824   6.97957   6.98952   7.00402   7.00921
 Alpha virt. eigenvalues --    7.03315   7.05941   7.10900   7.12501   7.15910
 Alpha virt. eigenvalues --    7.20945   7.22619   7.29449   7.30662   7.34675
 Alpha virt. eigenvalues --    7.40194   7.65548  14.22475  14.25989  14.36152
 Alpha virt. eigenvalues --   49.98661  49.99936  50.00997  50.01684  50.04175
 Alpha virt. eigenvalues --   50.05439  50.10172 163.88177
          Condensed to atoms (all electrons):
               1          2          3          4          5          6
     1  P   12.483013   0.524291   0.145767   0.039865   0.249840   0.007384
     2  O    0.524291   8.201398  -0.000241  -0.002426  -0.024214  -0.015958
     3  O    0.145767  -0.000241   8.144313   0.216227   0.017150  -0.007016
     4  H    0.039865  -0.002426   0.216227   0.451569  -0.008575   0.000319
     5  O    0.249840  -0.024214   0.017150  -0.008575   8.077965   0.257229
     6  H    0.007384  -0.015958  -0.007016   0.000319   0.257229   0.419971
     7  O    0.281457  -0.062504  -0.021700  -0.010536   0.016530   0.007064
     8  H    0.023330   0.006932   0.003035  -0.000221  -0.014580   0.000495
     9  O   -0.000010   0.001105   0.000326  -0.000015  -0.007340   0.000980
    10  H    0.009775   0.036232   0.000973  -0.000058   0.002613  -0.000487
    11  H   -0.000982   0.000897  -0.000049   0.000003   0.000819  -0.000098
    12  O    0.003896  -0.001739   0.000351  -0.000004  -0.002986   0.000254
    13  H    0.000471  -0.001545  -0.000154   0.000003   0.001485  -0.000169
    14  H   -0.000456   0.000213  -0.000013  -0.000000   0.000143  -0.000005
    15  O   -0.018985  -0.017185   0.002889   0.000137   0.008104   0.001286
    16  H    0.004596   0.001179  -0.000085  -0.000042   0.001321  -0.000545
    17  H    0.005028   0.003296  -0.000388  -0.000027   0.000987  -0.000239
               7          8          9         10         11         12
     1  P    0.281457   0.023330  -0.000010   0.009775  -0.000982   0.003896
     2  O   -0.062504   0.006932   0.001105   0.036232   0.000897  -0.001739
     3  O   -0.021700   0.003035   0.000326   0.000973  -0.000049   0.000351
     4  H   -0.010536  -0.000221  -0.000015  -0.000058   0.000003  -0.000004
     5  O    0.016530  -0.014580  -0.007340   0.002613   0.000819  -0.002986
     6  H    0.007064   0.000495   0.000980  -0.000487  -0.000098   0.000254
     7  O    8.197910   0.211755  -0.003612   0.000383   0.000255  -0.003338
     8  H    0.211755   0.324543   0.002015  -0.000702  -0.000140   0.003257
     9  O   -0.003612   0.002015   8.120337   0.273197   0.311439  -0.010675
    10  H    0.000383  -0.000702   0.273197   0.325102  -0.020360  -0.005528
    11  H    0.000255  -0.000140   0.311439  -0.020360   0.416481   0.001246
    12  O   -0.003338   0.003257  -0.010675  -0.005528   0.001246   8.238353
    13  H    0.001387  -0.001716  -0.033188   0.013351   0.003012   0.256427
    14  H    0.000225  -0.000448   0.006097   0.000094   0.000270   0.287356
    15  O    0.040515  -0.034214  -0.007859   0.000732   0.000795  -0.001042
    16  H   -0.008138   0.009301   0.000523   0.000059  -0.000048   0.002074
    17  H   -0.011548   0.012823   0.004473  -0.000412  -0.000472  -0.039919
              13         14         15         16         17
     1  P    0.000471  -0.000456  -0.018985   0.004596   0.005028
     2  O   -0.001545   0.000213  -0.017185   0.001179   0.003296
     3  O   -0.000154  -0.000013   0.002889  -0.000085  -0.000388
     4  H    0.000003  -0.000000   0.000137  -0.000042  -0.000027
     5  O    0.001485   0.000143   0.008104   0.001321   0.000987
     6  H   -0.000169  -0.000005   0.001286  -0.000545  -0.000239
     7  O    0.001387   0.000225   0.040515  -0.008138  -0.011548
     8  H   -0.001716  -0.000448  -0.034214   0.009301   0.012823
     9  O   -0.033188   0.006097  -0.007859   0.000523   0.004473
    10  H    0.013351   0.000094   0.000732   0.000059  -0.000412
    11  H    0.003012   0.000270   0.000795  -0.000048  -0.000472
    12  O    0.256427   0.287356  -0.001042   0.002074  -0.039919
    13  H    0.339647  -0.013227   0.005868  -0.000172   0.001492
    14  H   -0.013227   0.421226  -0.001303   0.000553   0.005773
    15  O    0.005868  -0.001303   8.152308   0.292069   0.261912
    16  H   -0.000172   0.000553   0.292069   0.421800  -0.007133
    17  H    0.001492   0.005773   0.261912  -0.007133   0.323586
 Mulliken charges:
               1
     1  P    1.241719
     2  O   -0.649732
     3  O   -0.501384
     4  H    0.313782
     5  O   -0.576493
     6  H    0.329535
     7  O   -0.636107
     8  H    0.454534
     9  O   -0.657793
    10  H    0.365034
    11  H    0.286931
    12  O   -0.727985
    13  H    0.427028
    14  H    0.293502
    15  O   -0.686030
    16  H    0.282689
    17  H    0.440768
 Sum of Mulliken charges =  -0.00000
 Mulliken charges with hydrogens summed into heavy atoms:
               1
     1  P    1.241719
     2  O   -0.649732
     3  O   -0.187602
     5  O   -0.246958
     7  O   -0.181572
     9  O   -0.005827
    12  O   -0.007455
    15  O    0.037427
         Mulliken charges condensed to fragments:
      1     -0.024145
      2     -0.005827
      3     -0.007455
      4      0.037427
 Electronic spatial extent (au):  <R**2>=          58515.7636
 Charge=             -0.0000 electrons
 Dipole moment (field-independent basis, Debye):
    X=             -1.0613    Y=              1.4818    Z=              3.2571  Tot=              3.7324
 Quadrupole moment (field-independent basis, Debye-Ang):
   XX=            -88.9842   YY=            -34.0047   ZZ=            -10.6465
   XY=              8.4180   XZ=             37.1747   YZ=             29.3868
 Traceless Quadrupole moment (field-independent basis, Debye-Ang):
   XX=            -44.4390   YY=             10.5405   ZZ=             33.8986
   XY=              8.4180   XZ=             37.1747   YZ=             29.3868
 Octapole moment (field-independent basis, Debye-Ang**2):
  XXX=          -2668.1578  YYY=           -705.0397  ZZZ=           -487.5774  XYY=           -445.5871
  XXY=           -379.3915  XXZ=             56.9522  XZZ=           -104.1904  YZZ=              3.0725
  YYZ=            -49.7378  XYZ=            311.9281
 Hexadecapole moment (field-independent basis, Debye-Ang**3):
 XXXX=         -59654.7681 YYYY=          -8688.7688 ZZZZ=          -7251.8575 XXXY=         -14241.3489
 XXXZ=          -8130.3614 YYYX=          -8369.9308 YYYZ=          -2870.7647 ZZZX=          -5573.8268
 ZZZY=          -2280.3411 XXYY=          -8203.2404 XXZZ=          -3285.7218 YYZZ=          -1299.4755
 XXYZ=           1207.3973 YYXZ=           -850.9804 ZZXY=            -44.5810
 N-N= 5.523989928176D+02 E-N=-3.174919779767D+03  KE= 8.712057527085D+02
 No NMR shielding tensors so no spin-rotation constants.
 Leave Link  601 at Sun Feb 19 12:05:25 2023, MaxMem=  6710886400 cpu:               2.3 elap:               0.1
 (Enter /data0/home/software/g16/l122.exe)
 CPIOFr:  IOpCl= 0 IRwI=-1 IRwCP=  731 ICalc= -1 LCPTot=      120517 Len1MO=      315166 IndFrg=      120517
 CPIOFr:  IOpCl= 0 IRwI=-1 IRwCP=  731 ICalc=  0 LCPTot=      120517 Len1MO=      315166 IndFrg=      435683
 Counterpoise: doing calculation for fragment   1 using the basis set of the full-system, NewBq=T
 Leave Link  122 at Sun Feb 19 12:05:25 2023, MaxMem=  6710886400 cpu:               0.2 elap:               0.0
 (Enter /data0/home/software/g16/l301.exe)
 Basis read from rwf:  (5D, 7F)
 No pseudopotential information found on rwf file.
   278 basis functions,   422 primitive gaussians,   294 cartesian basis functions
    25 alpha electrons       25 beta electrons
       nuclear repulsion energy       280.1811384759 Hartrees.
 IExCor= 4336 DFT=T Ex+Corr=M062X ExCW=0 ScaHFX=  0.540000
 ScaDFX=  1.000000  1.000000  1.000000  1.000000 ScalE2=  1.000000  1.000000
 IRadAn=      5 IRanWt=     -1 IRanGd=            0 ICorTp=0 IEmpDi=131
 NAtoms=   17 NActive=   17 NUniq=   17 SFac= 1.00D+00 NAtFMM=   60 NAOKFM=F Big=F
 Integral buffers will be    131072 words long.
 Raffenetti 2 integral format.
 Two-electron integral symmetry is turned off.
 R6Disp:  Grimme-D3 Dispersion energy=       -0.0000437195 Hartrees.
 Nuclear repulsion after empirical dispersion term =      280.1810947564 Hartrees.
 No density basis found on file   718.
 Leave Link  301 at Sun Feb 19 12:05:25 2023, MaxMem=  6710886400 cpu:               1.3 elap:               0.1
 (Enter /data0/home/software/g16/l302.exe)
 NPDir=0 NMtPBC=     1 NCelOv=     1 NCel=       1 NClECP=     1 NCelD=      1
         NCelK=      1 NCelE2=     1 NClLst=     1 CellRange=     0.0.
 One-electron integrals computed using PRISM.
 NBasis=   278 RedAO= T EigKep=  3.39D-04  NBF=   278
 NBsUse=   278 1.00D-06 EigRej= -1.00D+00 NBFU=   278
 Precomputing XC quadrature grid using
 IXCGrd= 4 IRadAn=           5 IRanWt=          -1 IRanGd=           0 AccXCQ= 0.00D+00.
 Generated NRdTot=       0 NPtTot=           0 NUsed=           0 NTot=          32
 NSgBfM=   294   294   294   294   294 MxSgAt=    17 MxSgA2=    17.
 Leave Link  302 at Sun Feb 19 12:05:25 2023, MaxMem=  6710886400 cpu:               4.3 elap:               0.2
 (Enter /data0/home/software/g16/l303.exe)
 DipDrv:  MaxL=1.
 Leave Link  303 at Sun Feb 19 12:05:26 2023, MaxMem=  6710886400 cpu:               0.7 elap:               0.0
 (Enter /data0/home/software/g16/l401.exe)
 ExpMin= 3.48D-02 ExpMax= 7.75D+04 ExpMxC= 2.65D+03 IAcc=3 IRadAn=         5 AccDes= 0.00D+00
 Harris functional with IExCor= 1009 and IRadAn=       5 diagonalized for initial guess.
 HarFok:  IExCor= 1009 AccDes= 0.00D+00 IRadAn=         5 IDoV= 1 UseB2=F ITyADJ=14
 ICtDFT=  3500011 ScaDFX=  1.000000  1.000000  1.000000  1.000000
 FoFCou: FMM=F IPFlag=           0 FMFlag=      100000 FMFlg1=           0
         NFxFlg=           0 DoJE=T BraDBF=F KetDBF=T FulRan=T
         wScrn=  0.000000 ICntrl=       500 IOpCl=  0 I1Cent=   200000004 NGrid=           0
         NMat0=    1 NMatS0=      1 NMatT0=    0 NMatD0=    1 NMtDS0=    0 NMtDT0=    0
 Symmetry not used in FoFCou.
 Harris En= -643.943691588870    
 JPrj=0 DoOrth=F DoCkMO=F.
 Leave Link  401 at Sun Feb 19 12:05:26 2023, MaxMem=  6710886400 cpu:              13.0 elap:               0.6
 (Enter /data0/home/software/g16/l502.exe)
 Two-electron integral symmetry not used.
 Closed shell SCF:
 Using DIIS extrapolation, IDIIS=  1040.
 NGot=  6710886400 LenX=  6710704303 LenY=  6710617426
 Requested convergence on RMS density matrix=1.00D-08 within 128 cycles.
 Requested convergence on MAX density matrix=1.00D-06.
 Requested convergence on             energy=1.00D-06.
 No special actions if energy rises.
 Fock matrices will be formed incrementally for  20 cycles.

 Cycle   1  Pass 1  IDiag  1:
 FoFJK:  IHMeth= 1 ICntrl=       0 DoSepK=F KAlg= 0 I1Cent=           0 FoldK=F
 IRaf= 900000000 NMat=       1 IRICut=       1 DoRegI=T DoRafI=F ISym2E= 0 IDoP0=0 IntGTp=1.
 FoFCou: FMM=F IPFlag=           0 FMFlag=      100000 FMFlg1=           0
         NFxFlg=           0 DoJE=F BraDBF=F KetDBF=F FulRan=T
         wScrn=  0.000000 ICntrl=         0 IOpCl=  0 I1Cent=           0 NGrid=           0
         NMat0=    1 NMatS0=      1 NMatT0=    0 NMatD0=    1 NMtDS0=    0 NMtDT0=    0
 Symmetry not used in FoFCou.
 E= -643.863855794153    
 DIIS: error= 3.70D-02 at cycle   1 NSaved=   1.
 NSaved= 1 IEnMin= 1 EnMin= -643.863855794153     IErMin= 1 ErrMin= 3.70D-02
 ErrMax= 3.70D-02  0.00D+00 EMaxC= 1.00D-01 BMatC= 5.05D-01 BMatP= 5.05D-01
 IDIUse=3 WtCom= 6.30D-01 WtEn= 3.70D-01
 Coeff-Com:  0.100D+01
 Coeff-En:   0.100D+01
 Coeff:      0.100D+01
 Gap=     0.271 Goal=   None    Shift=    0.000
 GapD=    0.271 DampG=1.000 DampE=0.500 DampFc=0.5000 IDamp=-1.
 Damping current iteration by 5.00D-01
 RMSDP=4.32D-03 MaxDP=1.69D-01              OVMax= 2.55D-01

 Cycle   2  Pass 1  IDiag  1:
 RMSU=  2.16D-03    CP:  1.00D+00
 E= -643.979584961778     Delta-E=       -0.115729167625 Rises=F Damp=T
 DIIS: error= 8.81D-03 at cycle   2 NSaved=   2.
 NSaved= 2 IEnMin= 2 EnMin= -643.979584961778     IErMin= 2 ErrMin= 8.81D-03
 ErrMax= 8.81D-03  0.00D+00 EMaxC= 1.00D-01 BMatC= 2.70D-02 BMatP= 5.05D-01
 IDIUse=3 WtCom= 9.12D-01 WtEn= 8.81D-02
 Coeff-Com:  0.697D-01 0.930D+00
 Coeff-En:   0.201D+00 0.799D+00
 Coeff:      0.813D-01 0.919D+00
 Gap=     0.356 Goal=   None    Shift=    0.000
 RMSDP=1.04D-03 MaxDP=5.58D-02 DE=-1.16D-01 OVMax= 1.66D-01

 Cycle   3  Pass 1  IDiag  1:
 RMSU=  7.47D-04    CP:  9.91D-01  6.67D-01
 E= -644.142676204834     Delta-E=       -0.163091243056 Rises=F Damp=F
 DIIS: error= 5.94D-03 at cycle   3 NSaved=   3.
 NSaved= 3 IEnMin= 3 EnMin= -644.142676204834     IErMin= 3 ErrMin= 5.94D-03
 ErrMax= 5.94D-03  0.00D+00 EMaxC= 1.00D-01 BMatC= 1.06D-02 BMatP= 2.70D-02
 IDIUse=3 WtCom= 9.41D-01 WtEn= 5.94D-02
 Coeff-Com: -0.160D-01 0.347D+00 0.669D+00
 Coeff-En:   0.000D+00 0.000D+00 0.100D+01
 Coeff:     -0.151D-01 0.326D+00 0.689D+00
 Gap=     0.346 Goal=   None    Shift=    0.000
 RMSDP=4.00D-04 MaxDP=1.54D-02 DE=-1.63D-01 OVMax= 3.47D-02

 Cycle   4  Pass 1  IDiag  1:
 RMSU=  3.19D-04    CP:  9.92D-01  7.68D-01  8.58D-01
 E= -644.147650092814     Delta-E=       -0.004973887980 Rises=F Damp=F
 DIIS: error= 3.47D-03 at cycle   4 NSaved=   4.
 NSaved= 4 IEnMin= 4 EnMin= -644.147650092814     IErMin= 4 ErrMin= 3.47D-03
 ErrMax= 3.47D-03  0.00D+00 EMaxC= 1.00D-01 BMatC= 3.76D-03 BMatP= 1.06D-02
 IDIUse=3 WtCom= 9.65D-01 WtEn= 3.47D-02
 Coeff-Com: -0.215D-01 0.491D-01 0.395D+00 0.578D+00
 Coeff-En:   0.000D+00 0.000D+00 0.260D+00 0.740D+00
 Coeff:     -0.208D-01 0.474D-01 0.390D+00 0.583D+00
 Gap=     0.351 Goal=   None    Shift=    0.000
 RMSDP=1.52D-04 MaxDP=6.16D-03 DE=-4.97D-03 OVMax= 1.10D-02

 Cycle   5  Pass 1  IDiag  1:
 RMSU=  4.33D-05    CP:  9.91D-01  7.41D-01  9.54D-01  6.47D-01
 E= -644.150125002793     Delta-E=       -0.002474909979 Rises=F Damp=F
 DIIS: error= 1.88D-04 at cycle   5 NSaved=   5.
 NSaved= 5 IEnMin= 5 EnMin= -644.150125002793     IErMin= 5 ErrMin= 1.88D-04
 ErrMax= 1.88D-04  0.00D+00 EMaxC= 1.00D-01 BMatC= 1.50D-05 BMatP= 3.76D-03
 IDIUse=3 WtCom= 9.98D-01 WtEn= 1.88D-03
 Coeff-Com: -0.261D-02 0.805D-03 0.589D-01 0.122D+00 0.821D+00
 Coeff-En:   0.000D+00 0.000D+00 0.000D+00 0.000D+00 0.100D+01
 Coeff:     -0.260D-02 0.803D-03 0.588D-01 0.121D+00 0.822D+00
 Gap=     0.350 Goal=   None    Shift=    0.000
 RMSDP=1.45D-05 MaxDP=8.46D-04 DE=-2.47D-03 OVMax= 7.62D-04

 Cycle   6  Pass 1  IDiag  1:
 RMSU=  1.15D-05    CP:  9.91D-01  7.39D-01  9.58D-01  6.68D-01  1.02D+00
 E= -644.150135201867     Delta-E=       -0.000010199074 Rises=F Damp=F
 DIIS: error= 6.47D-05 at cycle   6 NSaved=   6.
 NSaved= 6 IEnMin= 6 EnMin= -644.150135201867     IErMin= 6 ErrMin= 6.47D-05
 ErrMax= 6.47D-05  0.00D+00 EMaxC= 1.00D-01 BMatC= 1.08D-06 BMatP= 1.50D-05
 IDIUse=1 WtCom= 1.00D+00 WtEn= 0.00D+00
 Coeff-Com:  0.195D-04-0.141D-02 0.163D-02 0.104D-01 0.213D+00 0.776D+00
 Coeff:      0.195D-04-0.141D-02 0.163D-02 0.104D-01 0.213D+00 0.776D+00
 Gap=     0.350 Goal=   None    Shift=    0.000
 RMSDP=5.59D-06 MaxDP=2.37D-04 DE=-1.02D-05 OVMax= 2.17D-04

 Cycle   7  Pass 1  IDiag  1:
 RMSU=  2.68D-06    CP:  9.91D-01  7.37D-01  9.59D-01  6.71D-01  1.11D+00
                    CP:  9.09D-01
 E= -644.150136004114     Delta-E=       -0.000000802247 Rises=F Damp=F
 DIIS: error= 1.75D-05 at cycle   7 NSaved=   7.
 NSaved= 7 IEnMin= 7 EnMin= -644.150136004114     IErMin= 7 ErrMin= 1.75D-05
 ErrMax= 1.75D-05  0.00D+00 EMaxC= 1.00D-01 BMatC= 1.87D-07 BMatP= 1.08D-06
 IDIUse=1 WtCom= 1.00D+00 WtEn= 0.00D+00
 Coeff-Com:  0.353D-03-0.608D-03-0.770D-02-0.127D-01-0.208D-01 0.282D+00
 Coeff-Com:  0.760D+00
 Coeff:      0.353D-03-0.608D-03-0.770D-02-0.127D-01-0.208D-01 0.282D+00
 Coeff:      0.760D+00
 Gap=     0.350 Goal=   None    Shift=    0.000
 RMSDP=1.79D-06 MaxDP=6.11D-05 DE=-8.02D-07 OVMax= 8.94D-05

 Cycle   8  Pass 1  IDiag  1:
 RMSU=  1.27D-06    CP:  9.91D-01  7.37D-01  9.60D-01  6.71D-01  1.12D+00
                    CP:  9.81D-01  9.73D-01
 E= -644.150136128300     Delta-E=       -0.000000124186 Rises=F Damp=F
 DIIS: error= 9.56D-06 at cycle   8 NSaved=   8.
 NSaved= 8 IEnMin= 8 EnMin= -644.150136128300     IErMin= 8 ErrMin= 9.56D-06
 ErrMax= 9.56D-06  0.00D+00 EMaxC= 1.00D-01 BMatC= 3.56D-08 BMatP= 1.87D-07
 IDIUse=1 WtCom= 1.00D+00 WtEn= 0.00D+00
 Coeff-Com:  0.157D-03-0.204D-03-0.378D-02-0.634D-02-0.184D-01 0.902D-01
 Coeff-Com:  0.381D+00 0.558D+00
 Coeff:      0.157D-03-0.204D-03-0.378D-02-0.634D-02-0.184D-01 0.902D-01
 Coeff:      0.381D+00 0.558D+00
 Gap=     0.350 Goal=   None    Shift=    0.000
 RMSDP=4.86D-07 MaxDP=2.30D-05 DE=-1.24D-07 OVMax= 3.73D-05

 Cycle   9  Pass 1  IDiag  1:
 RMSU=  2.95D-07    CP:  9.91D-01  7.37D-01  9.60D-01  6.71D-01  1.12D+00
                    CP:  9.90D-01  1.07D+00  7.93D-01
 E= -644.150136153197     Delta-E=       -0.000000024897 Rises=F Damp=F
 DIIS: error= 1.03D-06 at cycle   9 NSaved=   9.
 NSaved= 9 IEnMin= 9 EnMin= -644.150136153197     IErMin= 9 ErrMin= 1.03D-06
 ErrMax= 1.03D-06  0.00D+00 EMaxC= 1.00D-01 BMatC= 7.32D-10 BMatP= 3.56D-08
 IDIUse=1 WtCom= 1.00D+00 WtEn= 0.00D+00
 Coeff-Com: -0.274D-04 0.512D-04 0.298D-03 0.614D-03-0.363D-03-0.207D-01
 Coeff-Com: -0.349D-01 0.629D-01 0.992D+00
 Coeff:     -0.274D-04 0.512D-04 0.298D-03 0.614D-03-0.363D-03-0.207D-01
 Coeff:     -0.349D-01 0.629D-01 0.992D+00
 Gap=     0.350 Goal=   None    Shift=    0.000
 RMSDP=1.76D-07 MaxDP=7.82D-06 DE=-2.49D-08 OVMax= 8.97D-06

 Cycle  10  Pass 1  IDiag  1:
 RMSU=  8.27D-08    CP:  9.91D-01  7.37D-01  9.60D-01  6.71D-01  1.12D+00
                    CP:  9.90D-01  1.09D+00  8.71D-01  1.13D+00
 E= -644.150136154089     Delta-E=       -0.000000000893 Rises=F Damp=F
 DIIS: error= 2.13D-07 at cycle  10 NSaved=  10.
 NSaved=10 IEnMin=10 EnMin= -644.150136154089     IErMin=10 ErrMin= 2.13D-07
 ErrMax= 2.13D-07  0.00D+00 EMaxC= 1.00D-01 BMatC= 1.58D-11 BMatP= 7.32D-10
 IDIUse=1 WtCom= 1.00D+00 WtEn= 0.00D+00
 Coeff-Com: -0.387D-05 0.637D-05 0.108D-03 0.177D-03 0.516D-03-0.378D-02
 Coeff-Com: -0.137D-01-0.139D-01 0.416D-01 0.989D+00
 Coeff:     -0.387D-05 0.637D-05 0.108D-03 0.177D-03 0.516D-03-0.378D-02
 Coeff:     -0.137D-01-0.139D-01 0.416D-01 0.989D+00
 Gap=     0.350 Goal=   None    Shift=    0.000
 RMSDP=3.38D-08 MaxDP=8.41D-07 DE=-8.93D-10 OVMax= 2.04D-06

 Cycle  11  Pass 1  IDiag  1:
 RMSU=  1.87D-08    CP:  9.91D-01  7.37D-01  9.60D-01  6.71D-01  1.12D+00
                    CP:  9.90D-01  1.10D+00  8.82D-01  1.18D+00  1.17D+00
 E= -644.150136154126     Delta-E=       -0.000000000036 Rises=F Damp=F
 DIIS: error= 1.50D-07 at cycle  11 NSaved=  11.
 NSaved=11 IEnMin=11 EnMin= -644.150136154126     IErMin=11 ErrMin= 1.50D-07
 ErrMax= 1.50D-07  0.00D+00 EMaxC= 1.00D-01 BMatC= 7.49D-12 BMatP= 1.58D-11
 IDIUse=1 WtCom= 1.00D+00 WtEn= 0.00D+00
 Coeff-Com:  0.364D-06-0.946D-06 0.289D-04 0.371D-04 0.260D-03-0.359D-03
 Coeff-Com: -0.379D-02-0.107D-01-0.522D-01 0.468D+00 0.599D+00
 Coeff:      0.364D-06-0.946D-06 0.289D-04 0.371D-04 0.260D-03-0.359D-03
 Coeff:     -0.379D-02-0.107D-01-0.522D-01 0.468D+00 0.599D+00
 Gap=     0.350 Goal=   None    Shift=    0.000
 RMSDP=9.62D-09 MaxDP=4.50D-07 DE=-3.65D-11 OVMax= 7.64D-07

 SCF Done:  E(RM062X) =  -644.150136154     A.U. after   11 cycles
            NFock= 11  Conv=0.96D-08     -V/T= 2.0025
 KE= 6.425291600307D+02 PE=-2.088077390019D+03 EE= 5.212169990773D+02
 Leave Link  502 at Sun Feb 19 12:05:40 2023, MaxMem=  6710886400 cpu:             332.0 elap:              13.9
 (Enter /data0/home/software/g16/l601.exe)
 Copying SCF densities to generalized density rwf, IOpCl= 0 IROHF=0.

 **********************************************************************

            Population analysis using the SCF density.

 **********************************************************************

 Alpha  occ. eigenvalues --  -78.16717 -19.68937 -19.68900 -19.67639 -19.58208
 Alpha  occ. eigenvalues --   -6.97506  -5.09424  -5.09406  -5.09171  -1.24448
 Alpha  occ. eigenvalues --   -1.17037  -1.16642  -1.08684  -0.72660  -0.66105
 Alpha  occ. eigenvalues --   -0.64421  -0.55721  -0.55635  -0.51397  -0.48729
 Alpha  occ. eigenvalues --   -0.48099  -0.45051  -0.44197  -0.37915  -0.37470
 Alpha virt. eigenvalues --   -0.02434   0.00922   0.01496   0.04483   0.06644
 Alpha virt. eigenvalues --    0.07366   0.10084   0.10809   0.11215   0.12345
 Alpha virt. eigenvalues --    0.13808   0.14303   0.15482   0.16116   0.16854
 Alpha virt. eigenvalues --    0.17526   0.18031   0.19621   0.19878   0.20549
 Alpha virt. eigenvalues --    0.21204   0.22133   0.23439   0.24890   0.24990
 Alpha virt. eigenvalues --    0.25350   0.26509   0.27490   0.28309   0.29021
 Alpha virt. eigenvalues --    0.29307   0.29682   0.31007   0.31518   0.32302
 Alpha virt. eigenvalues --    0.32502   0.34048   0.35732   0.36398   0.37752
 Alpha virt. eigenvalues --    0.38633   0.39651   0.40693   0.42469   0.43596
 Alpha virt. eigenvalues --    0.45185   0.45296   0.47133   0.50082   0.52336
 Alpha virt. eigenvalues --    0.55058   0.57791   0.62826   0.65916   0.67068
 Alpha virt. eigenvalues --    0.71871   0.72954   0.75509   0.77261   0.78043
 Alpha virt. eigenvalues --    0.78675   0.79940   0.80817   0.81645   0.82830
 Alpha virt. eigenvalues --    0.86687   0.89465   0.91523   0.93709   0.97461
 Alpha virt. eigenvalues --    0.98244   1.01044   1.02765   1.05131   1.06094
 Alpha virt. eigenvalues --    1.07029   1.07088   1.11153   1.12909   1.14445
 Alpha virt. eigenvalues --    1.15524   1.18833   1.21038   1.21095   1.22479
 Alpha virt. eigenvalues --    1.24653   1.25844   1.28007   1.29546   1.33326
 Alpha virt. eigenvalues --    1.36608   1.38195   1.41961   1.46010   1.50633
 Alpha virt. eigenvalues --    1.51087   1.55602   1.57555   1.60652   1.63749
 Alpha virt. eigenvalues --    1.67314   1.68323   1.69251   1.71460   1.73054
 Alpha virt. eigenvalues --    1.76232   1.78620   1.79870   1.82516   1.83084
 Alpha virt. eigenvalues --    1.84181   1.87151   1.87645   1.90236   1.93649
 Alpha virt. eigenvalues --    1.94627   1.99163   2.01705   2.03075   2.03433
 Alpha virt. eigenvalues --    2.06022   2.07218   2.10203   2.12073   2.16545
 Alpha virt. eigenvalues --    2.16856   2.19338   2.22546   2.23199   2.25149
 Alpha virt. eigenvalues --    2.26147   2.28064   2.33559   2.35433   2.39091
 Alpha virt. eigenvalues --    2.43584   2.45405   2.46574   2.47008   2.51828
 Alpha virt. eigenvalues --    2.54524   2.56534   2.58320   2.59244   2.60525
 Alpha virt. eigenvalues --    2.62625   2.63019   2.64678   2.66715   2.67788
 Alpha virt. eigenvalues --    2.68482   2.69360   2.71250   2.75267   2.75709
 Alpha virt. eigenvalues --    2.76717   2.79435   2.86183   2.86226   2.88034
 Alpha virt. eigenvalues --    2.90933   2.91622   2.94923   2.98526   2.99536
 Alpha virt. eigenvalues --    3.03268   3.09228   3.11564   3.16419   3.18610
 Alpha virt. eigenvalues --    3.49458   3.54416   3.62406   3.68440   3.72651
 Alpha virt. eigenvalues --    3.81855   4.55122   4.57903   4.75628   5.02538
 Alpha virt. eigenvalues --    5.05500   5.07411   5.09025   5.10423   5.12205
 Alpha virt. eigenvalues --    5.12486   5.18828   5.22925   5.28431   5.31231
 Alpha virt. eigenvalues --    5.39432   5.48196   5.54753   5.59085   6.72364
 Alpha virt. eigenvalues --    6.74739   6.75028   6.76826   6.78754   6.82037
 Alpha virt. eigenvalues --    6.84692   6.87888   6.90113   6.94197   6.97683
 Alpha virt. eigenvalues --    6.99285   7.00901   7.04523   7.09798   7.22257
 Alpha virt. eigenvalues --    7.28687   7.30284   7.33753   7.41389   7.65521
 Alpha virt. eigenvalues --    9.78955   9.79587   9.87704   9.90048   9.90620
 Alpha virt. eigenvalues --    9.97438   9.98015  10.04929  10.08455  10.18389
 Alpha virt. eigenvalues --   10.24146  10.26699  10.34586  10.43802  10.59636
 Alpha virt. eigenvalues --   12.89658  12.99307  13.25110  13.36699  13.40099
 Alpha virt. eigenvalues --   13.71523  13.81694  13.83929  14.22718  14.26219
 Alpha virt. eigenvalues --   14.28585  14.36409  17.70093  17.84016  18.42495
 Alpha virt. eigenvalues --   49.99519  50.01309  50.01959  50.11630 136.14096
 Alpha virt. eigenvalues --  137.47131 139.62446 163.88438
          Condensed to atoms (all electrons):
               1          2          3          4          5          6
     1  P   12.505999   0.564882   0.151984   0.043867   0.258824   0.001038
     2  O    0.564882   8.085072  -0.007358   0.001417  -0.019906  -0.015565
     3  O    0.151984  -0.007358   8.104788   0.214420   0.032461  -0.006750
     4  H    0.043867   0.001417   0.214420   0.459922  -0.013100   0.000517
     5  O    0.258824  -0.019906   0.032461  -0.013100   8.049782   0.266046
     6  H    0.001038  -0.015565  -0.006750   0.000517   0.266046   0.408703
     7  O    0.233383  -0.033278   0.002007  -0.013821   0.005717   0.007222
     8  H    0.011986  -0.001895   0.001250   0.000279  -0.012429  -0.000082
     9  O   -0.002588   0.008070  -0.000193  -0.000039  -0.000487   0.000237
    10  H    0.003670   0.001326   0.000419   0.000002   0.000844  -0.000268
    11  H    0.000462  -0.001108   0.000034   0.000001  -0.000229  -0.000019
    12  O   -0.000507  -0.001403   0.000039  -0.000000  -0.000862   0.000083
    13  H   -0.000467   0.000578  -0.000029   0.000002   0.000488  -0.000058
    14  H   -0.000044   0.000094  -0.000003  -0.000000   0.000066  -0.000001
    15  O   -0.009642  -0.004455  -0.000586   0.000301   0.000668   0.001169
    16  H    0.002663   0.000460   0.000129  -0.000041   0.000582  -0.000574
    17  H    0.003239   0.001312  -0.000066  -0.000029   0.001885  -0.000219
               7          8          9         10         11         12
     1  P    0.233383   0.011986  -0.002588   0.003670   0.000462  -0.000507
     2  O   -0.033278  -0.001895   0.008070   0.001326  -0.001108  -0.001403
     3  O    0.002007   0.001250  -0.000193   0.000419   0.000034   0.000039
     4  H   -0.013821   0.000279  -0.000039   0.000002   0.000001  -0.000000
     5  O    0.005717  -0.012429  -0.000487   0.000844  -0.000229  -0.000862
     6  H    0.007222  -0.000082   0.000237  -0.000268  -0.000019   0.000083
     7  O    8.113191   0.270368  -0.001427   0.000884   0.000013   0.000986
     8  H    0.270368   0.306886  -0.000102   0.000233   0.000019   0.000558
     9  O   -0.001427  -0.000102   0.011804  -0.007032  -0.002719  -0.000551
    10  H    0.000884   0.000233  -0.007032   0.006947   0.001175   0.000361
    11  H    0.000013   0.000019  -0.002719   0.001175   0.001239   0.000314
    12  O    0.000986   0.000558  -0.000551   0.000361   0.000314   0.006379
    13  H   -0.000121  -0.000123  -0.001016   0.000164  -0.000051  -0.002357
    14  H   -0.000060  -0.000206   0.000400  -0.000162  -0.000083  -0.002620
    15  O    0.027256   0.016675  -0.000566   0.000007   0.000053   0.003003
    16  H   -0.004228  -0.000801  -0.000013   0.000043   0.000000  -0.000304
    17  H   -0.005565  -0.003409   0.000427  -0.000061  -0.000058  -0.003196
              13         14         15         16         17
     1  P   -0.000467  -0.000044  -0.009642   0.002663   0.003239
     2  O    0.000578   0.000094  -0.004455   0.000460   0.001312
     3  O   -0.000029  -0.000003  -0.000586   0.000129  -0.000066
     4  H    0.000002  -0.000000   0.000301  -0.000041  -0.000029
     5  O    0.000488   0.000066   0.000668   0.000582   0.001885
     6  H   -0.000058  -0.000001   0.001169  -0.000574  -0.000219
     7  O   -0.000121  -0.000060   0.027256  -0.004228  -0.005565
     8  H   -0.000123  -0.000206   0.016675  -0.000801  -0.003409
     9  O   -0.001016   0.000400  -0.000566  -0.000013   0.000427
    10  H    0.000164  -0.000162   0.000007   0.000043  -0.000061
    11  H   -0.000051  -0.000083   0.000053   0.000000  -0.000058
    12  O   -0.002357  -0.002620   0.003003  -0.000304  -0.003196
    13  H    0.002081   0.000388  -0.000281   0.000041   0.000476
    14  H    0.000388   0.001728  -0.000924   0.000036   0.001029
    15  O   -0.000281  -0.000924   0.033124  -0.008131  -0.015231
    16  H    0.000041   0.000036  -0.008131   0.003474   0.002674
    17  H    0.000476   0.001029  -0.015231   0.002674   0.010461
 Mulliken charges:
               1
     1  P    1.231251
     2  O   -0.578245
     3  O   -0.492548
     4  H    0.306301
     5  O   -0.570351
     6  H    0.338520
     7  O   -0.602526
     8  H    0.410795
     9  O   -0.004206
    10  H   -0.008552
    11  H    0.000956
    12  O    0.000076
    13  H    0.000285
    14  H    0.000362
    15  O   -0.042441
    16  H    0.003989
    17  H    0.006333
 Sum of Mulliken charges =  -0.00000
 Mulliken charges with hydrogens summed into heavy atoms:
               1
     1  P    1.231251
     2  O   -0.578245
     3  O   -0.186247
     5  O   -0.231831
     7  O   -0.191731
     9  O   -0.011802
    12  O    0.000723
    15  O   -0.032118
         Mulliken charges condensed to fragments:
      1      0.043197
      2     -0.011802
      3      0.000723
      4     -0.032118
 Electronic spatial extent (au):  <R**2>=          41447.6573
 Charge=             -0.0000 electrons
 Dipole moment (field-independent basis, Debye):
    X=             -2.6795    Y=             -1.3105    Z=              3.6325  Tot=              4.7003
 Quadrupole moment (field-independent basis, Debye-Ang):
   XX=           -101.8592   YY=            -47.0185   ZZ=             10.8262
   XY=            -31.7750   XZ=             31.9694   YZ=             14.1260
 Traceless Quadrupole moment (field-independent basis, Debye-Ang):
   XX=            -55.8420   YY=             -1.0013   ZZ=             56.8434
   XY=            -31.7750   XZ=             31.9694   YZ=             14.1260
 Octapole moment (field-independent basis, Debye-Ang**2):
  XXX=          -2589.8492  YYY=           -641.3705  ZZZ=           -236.9506  XYY=           -680.6442
  XXY=           -783.6926  XXZ=              2.2605  XZZ=             70.2174  YZZ=             40.8443
  YYZ=           -150.9436  XYZ=             96.0102
 Hexadecapole moment (field-independent basis, Debye-Ang**3):
 XXXX=         -55088.0774 YYYY=          -6602.0114 ZZZZ=          -5066.6396 XXXY=         -17183.8953
 XXXZ=          -7966.6340 YYYX=          -8608.0459 YYYZ=          -3063.3447 ZZZX=          -3256.4379
 ZZZY=          -1280.6780 XXYY=         -10796.6938 XXZZ=          -1497.1239 YYZZ=          -1095.8453
 XXYZ=          -1081.5074 YYXZ=          -2391.0129 ZZXY=             86.7219
 N-N= 2.801810947564D+02 E-N=-2.088077391846D+03  KE= 6.425291600307D+02
 No NMR shielding tensors so no spin-rotation constants.
 Leave Link  601 at Sun Feb 19 12:05:40 2023, MaxMem=  6710886400 cpu:               2.3 elap:               0.1
 (Enter /data0/home/software/g16/l122.exe)
 CPIOFr:  IOpCl= 0 IRwI=-1 IRwCP=  731 ICalc=  1 LCPTot=      120517 Len1MO=      315166 IndFrg=      750849
 Counterpoise: doing calculation for fragment   2 using the basis set of the full-system, NewBq=T
 Leave Link  122 at Sun Feb 19 12:05:40 2023, MaxMem=  6710886400 cpu:               0.1 elap:               0.0
 (Enter /data0/home/software/g16/l301.exe)
 Basis read from rwf:  (5D, 7F)
 No pseudopotential information found on rwf file.
   278 basis functions,   422 primitive gaussians,   294 cartesian basis functions
     5 alpha electrons        5 beta electrons
       nuclear repulsion energy         9.1205685883 Hartrees.
 IExCor= 4336 DFT=T Ex+Corr=M062X ExCW=0 ScaHFX=  0.540000
 ScaDFX=  1.000000  1.000000  1.000000  1.000000 ScalE2=  1.000000  1.000000
 IRadAn=      5 IRanWt=     -1 IRanGd=            0 ICorTp=0 IEmpDi=131
 NAtoms=   17 NActive=   17 NUniq=   17 SFac= 1.00D+00 NAtFMM=   60 NAOKFM=F Big=F
 Integral buffers will be    131072 words long.
 Raffenetti 2 integral format.
 Two-electron integral symmetry is turned off.
 R6Disp:  Grimme-D3 Dispersion energy=       -0.0000000075 Hartrees.
 Nuclear repulsion after empirical dispersion term =        9.1205685808 Hartrees.
 No density basis found on file   718.
 Leave Link  301 at Sun Feb 19 12:05:40 2023, MaxMem=  6710886400 cpu:               1.3 elap:               0.1
 (Enter /data0/home/software/g16/l302.exe)
 NPDir=0 NMtPBC=     1 NCelOv=     1 NCel=       1 NClECP=     1 NCelD=      1
         NCelK=      1 NCelE2=     1 NClLst=     1 CellRange=     0.0.
 One-electron integrals computed using PRISM.
 NBasis=   278 RedAO= T EigKep=  3.39D-04  NBF=   278
 NBsUse=   278 1.00D-06 EigRej= -1.00D+00 NBFU=   278
 Precomputing XC quadrature grid using
 IXCGrd= 4 IRadAn=           5 IRanWt=          -1 IRanGd=           0 AccXCQ= 0.00D+00.
 Generated NRdTot=       0 NPtTot=           0 NUsed=           0 NTot=          32
 NSgBfM=   294   294   294   294   294 MxSgAt=    17 MxSgA2=    17.
 Leave Link  302 at Sun Feb 19 12:05:40 2023, MaxMem=  6710886400 cpu:               4.4 elap:               0.2
 (Enter /data0/home/software/g16/l303.exe)
 DipDrv:  MaxL=1.
 Leave Link  303 at Sun Feb 19 12:05:40 2023, MaxMem=  6710886400 cpu:               0.7 elap:               0.0
 (Enter /data0/home/software/g16/l401.exe)
 ExpMin= 3.48D-02 ExpMax= 7.75D+04 ExpMxC= 2.65D+03 IAcc=3 IRadAn=         5 AccDes= 0.00D+00
 Harris functional with IExCor= 1009 and IRadAn=       5 diagonalized for initial guess.
 HarFok:  IExCor= 1009 AccDes= 0.00D+00 IRadAn=         5 IDoV= 1 UseB2=F ITyADJ=14
 ICtDFT=  3500011 ScaDFX=  1.000000  1.000000  1.000000  1.000000
 FoFCou: FMM=F IPFlag=           0 FMFlag=      100000 FMFlg1=           0
         NFxFlg=           0 DoJE=T BraDBF=F KetDBF=T FulRan=T
         wScrn=  0.000000 ICntrl=       500 IOpCl=  0 I1Cent=   200000004 NGrid=           0
         NMat0=    1 NMatS0=      1 NMatT0=    0 NMatD0=    1 NMtDS0=    0 NMtDT0=    0
 Symmetry not used in FoFCou.
 Harris En= -76.4175412530569    
 JPrj=0 DoOrth=F DoCkMO=F.
 Leave Link  401 at Sun Feb 19 12:05:41 2023, MaxMem=  6710886400 cpu:              13.2 elap:               0.6
 (Enter /data0/home/software/g16/l502.exe)
 Two-electron integral symmetry not used.
 Closed shell SCF:
 Using DIIS extrapolation, IDIIS=  1040.
 NGot=  6710886400 LenX=  6710704303 LenY=  6710617426
 Requested convergence on RMS density matrix=1.00D-08 within 128 cycles.
 Requested convergence on MAX density matrix=1.00D-06.
 Requested convergence on             energy=1.00D-06.
 No special actions if energy rises.
 Fock matrices will be formed incrementally for  20 cycles.

 Cycle   1  Pass 1  IDiag  1:
 FoFJK:  IHMeth= 1 ICntrl=       0 DoSepK=F KAlg= 0 I1Cent=           0 FoldK=F
 IRaf= 900000000 NMat=       1 IRICut=       1 DoRegI=T DoRafI=F ISym2E= 0 IDoP0=0 IntGTp=1.
 FoFCou: FMM=F IPFlag=           0 FMFlag=      100000 FMFlg1=           0
         NFxFlg=           0 DoJE=F BraDBF=F KetDBF=F FulRan=T
         wScrn=  0.000000 ICntrl=         0 IOpCl=  0 I1Cent=           0 NGrid=           0
         NMat0=    1 NMatS0=      1 NMatT0=    0 NMatD0=    1 NMtDS0=    0 NMtDT0=    0
 Symmetry not used in FoFCou.
 E= -76.3477022342474    
 DIIS: error= 2.05D-02 at cycle   1 NSaved=   1.
 NSaved= 1 IEnMin= 1 EnMin= -76.3477022342474     IErMin= 1 ErrMin= 2.05D-02
 ErrMax= 2.05D-02  0.00D+00 EMaxC= 1.00D-01 BMatC= 1.21D-01 BMatP= 1.21D-01
 IDIUse=3 WtCom= 7.95D-01 WtEn= 2.05D-01
 Coeff-Com:  0.100D+01
 Coeff-En:   0.100D+01
 Coeff:      0.100D+01
 Gap=     0.269 Goal=   None    Shift=    0.000
 GapD=    0.269 DampG=1.000 DampE=0.500 DampFc=0.5000 IDamp=-1.
 Damping current iteration by 5.00D-01
 RMSDP=2.37D-03 MaxDP=1.48D-01              OVMax= 1.73D-01

 Cycle   2  Pass 1  IDiag  1:
 RMSU=  1.19D-03    CP:  1.01D+00
 E= -76.3787293084216     Delta-E=       -0.031027074174 Rises=F Damp=T
 DIIS: error= 4.18D-03 at cycle   2 NSaved=   2.
 NSaved= 2 IEnMin= 2 EnMin= -76.3787293084216     IErMin= 2 ErrMin= 4.18D-03
 ErrMax= 4.18D-03  0.00D+00 EMaxC= 1.00D-01 BMatC= 4.98D-03 BMatP= 1.21D-01
 IDIUse=3 WtCom= 9.58D-01 WtEn= 4.18D-02
 Coeff-Com:  0.863D-01 0.914D+00
 Coeff-En:   0.196D+00 0.804D+00
 Coeff:      0.909D-01 0.909D+00
 Gap=     0.395 Goal=   None    Shift=    0.000
 RMSDP=3.56D-04 MaxDP=2.78D-02 DE=-3.10D-02 OVMax= 1.04D-01

 Cycle   3  Pass 1  IDiag  1:
 RMSU=  2.25D-04    CP:  1.01D+00  7.68D-01
 E= -76.4230019186300     Delta-E=       -0.044272610208 Rises=F Damp=F
 DIIS: error= 7.48D-04 at cycle   3 NSaved=   3.
 NSaved= 3 IEnMin= 3 EnMin= -76.4230019186300     IErMin= 3 ErrMin= 7.48D-04
 ErrMax= 7.48D-04  0.00D+00 EMaxC= 1.00D-01 BMatC= 1.67D-04 BMatP= 4.98D-03
 IDIUse=3 WtCom= 9.93D-01 WtEn= 7.48D-03
 Coeff-Com: -0.295D-01 0.529D-01 0.977D+00
 Coeff-En:   0.000D+00 0.000D+00 0.100D+01
 Coeff:     -0.292D-01 0.525D-01 0.977D+00
 Gap=     0.397 Goal=   None    Shift=    0.000
 RMSDP=2.80D-05 MaxDP=1.28D-03 DE=-4.43D-02 OVMax= 4.02D-03

 Cycle   4  Pass 1  IDiag  1:
 RMSU=  2.46D-05    CP:  1.01D+00  7.70D-01  1.05D+00
 E= -76.4231330937025     Delta-E=       -0.000131175073 Rises=F Damp=F
 DIIS: error= 1.05D-04 at cycle   4 NSaved=   4.
 NSaved= 4 IEnMin= 4 EnMin= -76.4231330937025     IErMin= 4 ErrMin= 1.05D-04
 ErrMax= 1.05D-04  0.00D+00 EMaxC= 1.00D-01 BMatC= 2.45D-06 BMatP= 1.67D-04
 IDIUse=3 WtCom= 9.99D-01 WtEn= 1.05D-03
 Coeff-Com: -0.297D-02 0.658D-03 0.135D+00 0.867D+00
 Coeff-En:   0.000D+00 0.000D+00 0.000D+00 0.100D+01
 Coeff:     -0.297D-02 0.658D-03 0.135D+00 0.867D+00
 Gap=     0.398 Goal=   None    Shift=    0.000
 RMSDP=7.31D-06 MaxDP=4.77D-04 DE=-1.31D-04 OVMax= 5.04D-04

 Cycle   5  Pass 1  IDiag  1:
 RMSU=  3.37D-06    CP:  1.01D+00  7.66D-01  1.05D+00  1.11D+00
 E= -76.4231346927304     Delta-E=       -0.000001599028 Rises=F Damp=F
 DIIS: error= 2.13D-05 at cycle   5 NSaved=   5.
 NSaved= 5 IEnMin= 5 EnMin= -76.4231346927304     IErMin= 5 ErrMin= 2.13D-05
 ErrMax= 2.13D-05  0.00D+00 EMaxC= 1.00D-01 BMatC= 6.93D-08 BMatP= 2.45D-06
 IDIUse=1 WtCom= 1.00D+00 WtEn= 0.00D+00
 Coeff-Com:  0.149D-02-0.233D-02-0.361D-01-0.362D-01 0.107D+01
 Coeff:      0.149D-02-0.233D-02-0.361D-01-0.362D-01 0.107D+01
 Gap=     0.398 Goal=   None    Shift=    0.000
 RMSDP=5.43D-06 MaxDP=3.90D-04 DE=-1.60D-06 OVMax= 2.05D-04

 Cycle   6  Pass 1  IDiag  1:
 RMSU=  9.92D-07    CP:  1.01D+00  7.62D-01  1.06D+00  1.20D+00  1.28D+00
 E= -76.4231348178923     Delta-E=       -0.000000125162 Rises=F Damp=F
 DIIS: error= 1.97D-06 at cycle   6 NSaved=   6.
 NSaved= 6 IEnMin= 6 EnMin= -76.4231348178923     IErMin= 6 ErrMin= 1.97D-06
 ErrMax= 1.97D-06  0.00D+00 EMaxC= 1.00D-01 BMatC= 1.75D-09 BMatP= 6.93D-08
 IDIUse=1 WtCom= 1.00D+00 WtEn= 0.00D+00
 Coeff-Com: -0.280D-03 0.396D-03 0.382D-02-0.100D-01-0.155D+00 0.116D+01
 Coeff:     -0.280D-03 0.396D-03 0.382D-02-0.100D-01-0.155D+00 0.116D+01
 Gap=     0.398 Goal=   None    Shift=    0.000
 RMSDP=7.60D-07 MaxDP=5.58D-05 DE=-1.25D-07 OVMax= 3.85D-05

 Cycle   7  Pass 1  IDiag  1:
 RMSU=  1.04D-07    CP:  1.01D+00  7.61D-01  1.06D+00  1.22D+00  1.34D+00
                    CP:  1.23D+00
 E= -76.4231348214623     Delta-E=       -0.000000003570 Rises=F Damp=F
 DIIS: error= 2.78D-07 at cycle   7 NSaved=   7.
 NSaved= 7 IEnMin= 7 EnMin= -76.4231348214623     IErMin= 7 ErrMin= 2.78D-07
 ErrMax= 2.78D-07  0.00D+00 EMaxC= 1.00D-01 BMatC= 2.15D-11 BMatP= 1.75D-09
 IDIUse=1 WtCom= 1.00D+00 WtEn= 0.00D+00
 Coeff-Com:  0.265D-04-0.186D-04-0.295D-03 0.223D-02 0.872D-03-0.135D+00
 Coeff-Com:  0.113D+01
 Coeff:      0.265D-04-0.186D-04-0.295D-03 0.223D-02 0.872D-03-0.135D+00
 Coeff:      0.113D+01
 Gap=     0.398 Goal=   None    Shift=    0.000
 RMSDP=1.02D-07 MaxDP=7.70D-06 DE=-3.57D-09 OVMax= 5.10D-06

 Cycle   8  Pass 1  IDiag  1:
 RMSU=  1.57D-08    CP:  1.01D+00  7.61D-01  1.06D+00  1.22D+00  1.35D+00
                    CP:  1.26D+00  1.17D+00
 E= -76.4231348215144     Delta-E=       -0.000000000052 Rises=F Damp=F
 DIIS: error= 6.79D-08 at cycle   8 NSaved=   8.
 NSaved= 8 IEnMin= 8 EnMin= -76.4231348215144     IErMin= 8 ErrMin= 6.79D-08
 ErrMax= 6.79D-08  0.00D+00 EMaxC= 1.00D-01 BMatC= 8.25D-13 BMatP= 2.15D-11
 IDIUse=1 WtCom= 1.00D+00 WtEn= 0.00D+00
 Coeff-Com:  0.891D-05-0.117D-04-0.875D-04 0.514D-03 0.329D-02-0.376D-01
 Coeff-Com:  0.104D+00 0.930D+00
 Coeff:      0.891D-05-0.117D-04-0.875D-04 0.514D-03 0.329D-02-0.376D-01
 Coeff:      0.104D+00 0.930D+00
 Gap=     0.398 Goal=   None    Shift=    0.000
 RMSDP=5.09D-09 MaxDP=3.28D-07 DE=-5.21D-11 OVMax= 5.06D-07

 SCF Done:  E(RM062X) =  -76.4231348215     A.U. after    8 cycles
            NFock=  8  Conv=0.51D-08     -V/T= 2.0030
 KE= 7.619344177097D+01 PE=-1.990844654700D+02 EE= 3.734732029673D+01
 Leave Link  502 at Sun Feb 19 12:05:52 2023, MaxMem=  6710886400 cpu:             255.2 elap:              10.7
 (Enter /data0/home/software/g16/l601.exe)
 Copying SCF densities to generalized density rwf, IOpCl= 0 IROHF=0.

 **********************************************************************

            Population analysis using the SCF density.

 **********************************************************************

 Alpha  occ. eigenvalues --  -19.62675  -1.13439  -0.60767  -0.47653  -0.40059
 Alpha virt. eigenvalues --   -0.00265   0.04029   0.04332   0.04582   0.09263
 Alpha virt. eigenvalues --    0.09931   0.11488   0.12974   0.13891   0.13935
 Alpha virt. eigenvalues --    0.15527   0.16619   0.17307   0.18258   0.19107
 Alpha virt. eigenvalues --    0.19872   0.20786   0.22143   0.22355   0.23097
 Alpha virt. eigenvalues --    0.24688   0.25038   0.26016   0.27002   0.27443
 Alpha virt. eigenvalues --    0.28220   0.29008   0.31230   0.32447   0.33494
 Alpha virt. eigenvalues --    0.33835   0.34776   0.35526   0.36819   0.37283
 Alpha virt. eigenvalues --    0.37969   0.38254   0.40711   0.41530   0.42801
 Alpha virt. eigenvalues --    0.44041   0.44806   0.46680   0.48075   0.50083
 Alpha virt. eigenvalues --    0.55139   0.62060   0.65247   0.69106   0.69881
 Alpha virt. eigenvalues --    0.72065   0.72587   0.73737   0.74375   0.75520
 Alpha virt. eigenvalues --    0.76355   0.78858   0.79017   0.81011   0.81973
 Alpha virt. eigenvalues --    0.84656   0.85753   0.88547   0.89742   0.91630
 Alpha virt. eigenvalues --    0.92350   0.94035   0.97750   0.97862   0.98733
 Alpha virt. eigenvalues --    1.01863   1.02279   1.04265   1.05693   1.07900
 Alpha virt. eigenvalues --    1.08894   1.10886   1.12871   1.14642   1.16300
 Alpha virt. eigenvalues --    1.18007   1.20789   1.21691   1.24815   1.24897
 Alpha virt. eigenvalues --    1.27226   1.28271   1.32962   1.35259   1.45004
 Alpha virt. eigenvalues --    1.46910   1.49115   1.55547   1.66295   1.70406
 Alpha virt. eigenvalues --    1.77083   1.77294   1.83499   1.85223   1.85631
 Alpha virt. eigenvalues --    1.89242   1.94559   1.95707   1.98235   2.02605
 Alpha virt. eigenvalues --    2.04252   2.05597   2.07187   2.10633   2.11918
 Alpha virt. eigenvalues --    2.15963   2.16810   2.17896   2.23659   2.27182
 Alpha virt. eigenvalues --    2.28369   2.32075   2.34075   2.34961   2.38247
 Alpha virt. eigenvalues --    2.40860   2.42579   2.43938   2.46426   2.49116
 Alpha virt. eigenvalues --    2.50191   2.51154   2.53906   2.55482   2.56557
 Alpha virt. eigenvalues --    2.58209   2.58782   2.59997   2.61847   2.63618
 Alpha virt. eigenvalues --    2.65172   2.65528   2.68677   2.69939   2.71685
 Alpha virt. eigenvalues --    2.73651   2.75175   2.75578   2.76041   2.80678
 Alpha virt. eigenvalues --    2.83877   2.84283   2.85436   2.86499   2.88821
 Alpha virt. eigenvalues --    2.89326   2.90515   2.94458   2.95035   2.96163
 Alpha virt. eigenvalues --    2.99822   3.01373   3.02237   3.02866   3.03813
 Alpha virt. eigenvalues --    3.06619   3.07939   3.08826   3.11556   3.11837
 Alpha virt. eigenvalues --    3.16423   3.18339   3.20639   3.25999   3.28154
 Alpha virt. eigenvalues --    3.29931   3.32475   3.37442   3.42390   3.49541
 Alpha virt. eigenvalues --    3.50261   3.68350   3.70858   3.73930   3.80829
 Alpha virt. eigenvalues --    3.82941   3.96106   4.47860   4.48621   4.55516
 Alpha virt. eigenvalues --    4.58103   4.60822   4.69620   4.74942   4.82519
 Alpha virt. eigenvalues --    4.94602   4.99505   5.02112   5.10490   5.17037
 Alpha virt. eigenvalues --    5.29806   5.55953   5.95854   6.82213   6.83761
 Alpha virt. eigenvalues --    6.92264   7.01821   7.12724   9.66999   9.77451
 Alpha virt. eigenvalues --    9.78467   9.78910   9.80595   9.85366   9.93772
 Alpha virt. eigenvalues --    9.96673   9.98133  10.19984  10.22217  10.22851
 Alpha virt. eigenvalues --   10.24204  10.26532  10.28486  10.29763  10.32556
 Alpha virt. eigenvalues --   10.34431  10.36646  10.37498  10.38348  10.40605
 Alpha virt. eigenvalues --   10.41638  10.46677  10.48916  10.52875  10.58971
 Alpha virt. eigenvalues --   10.59539  10.62776  10.73219  10.80046  10.82528
 Alpha virt. eigenvalues --   10.88788  12.83638  12.89281  12.99021  13.18851
 Alpha virt. eigenvalues --   13.20186  13.37889  13.42055  13.44094  13.46683
 Alpha virt. eigenvalues --   13.54222  13.54880  13.64484  13.65636  13.82156
 Alpha virt. eigenvalues --   13.88615  13.94309  13.97605  14.25196  14.29318
 Alpha virt. eigenvalues --   17.67599  17.77785  18.41040  18.48269  18.50727
 Alpha virt. eigenvalues --   18.54215  50.01655  53.02215  53.06113  53.15526
 Alpha virt. eigenvalues --   70.83851 135.12050 135.82849 139.60682 139.64277
 Alpha virt. eigenvalues --  139.65626 139.77083 484.02461
          Condensed to atoms (all electrons):
               1          2          3          4          5          6
     1  P    0.024790  -0.011742  -0.009452   0.001624  -0.003332  -0.000146
     2  O   -0.011742   0.015204   0.005401  -0.000743  -0.003093   0.000462
     3  O   -0.009452   0.005401   0.012105  -0.002402  -0.004970   0.000210
     4  H    0.001624  -0.000743  -0.002402   0.000793   0.000631  -0.000015
     5  O   -0.003332  -0.003093  -0.004970   0.000631   0.009339  -0.000748
     6  H   -0.000146   0.000462   0.000210  -0.000015  -0.000748   0.000324
     7  O   -0.002982  -0.000997  -0.001539   0.000230   0.002777  -0.000072
     8  H    0.001865   0.000586   0.000970  -0.000133  -0.001663   0.000026
     9  O   -0.003247   0.027024   0.000529   0.000010  -0.002796   0.000501
    10  H    0.004071   0.001258  -0.000314  -0.000008   0.000762  -0.000183
    11  H   -0.001215   0.003199  -0.000074   0.000001   0.000642  -0.000061
    12  O   -0.000848   0.001277   0.000062  -0.000001  -0.000495   0.000036
    13  H    0.002306  -0.002910  -0.000081   0.000001   0.000568  -0.000063
    14  H    0.000255  -0.000104   0.000001  -0.000000  -0.000020  -0.000000
    15  O   -0.004086  -0.000004  -0.000431   0.000051   0.002316  -0.000031
    16  H    0.001397  -0.000018   0.000093  -0.000013  -0.000812   0.000011
    17  H    0.000606   0.000027   0.000039  -0.000003  -0.000308   0.000008
               7          8          9         10         11         12
     1  P   -0.002982   0.001865  -0.003247   0.004071  -0.001215  -0.000848
     2  O   -0.000997   0.000586   0.027024   0.001258   0.003199   0.001277
     3  O   -0.001539   0.000970   0.000529  -0.000314  -0.000074   0.000062
     4  H    0.000230  -0.000133   0.000010  -0.000008   0.000001  -0.000001
     5  O    0.002777  -0.001663  -0.002796   0.000762   0.000642  -0.000495
     6  H   -0.000072   0.000026   0.000501  -0.000183  -0.000061   0.000036
     7  O    0.004081  -0.002669  -0.000940   0.000823   0.000046  -0.000377
     8  H   -0.002669   0.002016   0.000843  -0.000274  -0.000041   0.000440
     9  O   -0.000940   0.000843   8.044584   0.300458   0.320102   0.060741
    10  H    0.000823  -0.000274   0.300458   0.365429  -0.028001  -0.008144
    11  H    0.000046  -0.000041   0.320102  -0.028001   0.432629  -0.003023
    12  O   -0.000377   0.000440   0.060741  -0.008144  -0.003023   0.033109
    13  H    0.000356  -0.000427  -0.131085   0.018775   0.007798  -0.047239
    14  H   -0.000069   0.000045   0.001423   0.000264  -0.000053  -0.002048
    15  O    0.002629  -0.002256  -0.003506   0.000302   0.000257  -0.002308
    16  H   -0.000716   0.000641   0.000250   0.000010  -0.000027   0.000387
    17  H   -0.000473   0.000460   0.002147  -0.000210  -0.000116   0.001459
              13         14         15         16         17
     1  P    0.002306   0.000255  -0.004086   0.001397   0.000606
     2  O   -0.002910  -0.000104  -0.000004  -0.000018   0.000027
     3  O   -0.000081   0.000001  -0.000431   0.000093   0.000039
     4  H    0.000001  -0.000000   0.000051  -0.000013  -0.000003
     5  O    0.000568  -0.000020   0.002316  -0.000812  -0.000308
     6  H   -0.000063  -0.000000  -0.000031   0.000011   0.000008
     7  O    0.000356  -0.000069   0.002629  -0.000716  -0.000473
     8  H   -0.000427   0.000045  -0.002256   0.000641   0.000460
     9  O   -0.131085   0.001423  -0.003506   0.000250   0.002147
    10  H    0.018775   0.000264   0.000302   0.000010  -0.000210
    11  H    0.007798  -0.000053   0.000257  -0.000027  -0.000116
    12  O   -0.047239  -0.002048  -0.002308   0.000387   0.001459
    13  H    0.076699   0.002001   0.002236  -0.000216  -0.001698
    14  H    0.002001   0.000723  -0.000324   0.000061   0.000132
    15  O    0.002236  -0.000324   0.007288  -0.002799  -0.001938
    16  H   -0.000216   0.000061  -0.002799   0.001391   0.000595
    17  H   -0.001698   0.000132  -0.001938   0.000595   0.000733
 Mulliken charges:
               1
     1  P    0.000134
     2  O   -0.034826
     3  O   -0.000147
     4  H   -0.000022
     5  O    0.001202
     6  H   -0.000258
     7  O   -0.000110
     8  H   -0.000430
     9  O   -0.617036
    10  H    0.344982
    11  H    0.267938
    12  O   -0.033028
    13  H    0.072979
    14  H   -0.002288
    15  O    0.002604
    16  H   -0.000235
    17  H   -0.001460
 Sum of Mulliken charges =  -0.00000
 Mulliken charges with hydrogens summed into heavy atoms:
               1
     1  P    0.000134
     2  O   -0.034826
[...]
 Alpha virt. eigenvalues --    0.06283   0.13333   0.17390   0.17948   0.18944
 Alpha virt. eigenvalues --    0.23254   0.51029   0.53635   0.97847   1.00241
 Alpha virt. eigenvalues --    1.06039   1.18727   1.19872   1.32517   1.33840
 Alpha virt. eigenvalues --    1.69536   1.74071   1.75851   2.07484   2.09605
 Alpha virt. eigenvalues --    2.35301   2.42231   2.54369   2.88459   3.01361
 Alpha virt. eigenvalues --    5.05692   5.47735   5.93042   6.78243   6.80284
 Alpha virt. eigenvalues --    6.87058   6.91475   7.09532  49.95944
          Condensed to atoms (all electrons):
              12         13         14
    12  O    7.915205   0.319076   0.323233
    13  H    0.319076   0.424814  -0.024516
    14  H    0.323233  -0.024516   0.424396
 Mulliken charges:
               1
     1  P    0.000000
     2  O    0.000000
     3  O    0.000000
     4  H    0.000000
     5  O    0.000000
     6  H    0.000000
     7  O    0.000000
     8  H    0.000000
     9  O    0.000000
    10  H    0.000000
    11  H    0.000000
    12  O   -0.557514
    13  H    0.280626
    14  H    0.276887
    15  O    0.000000
    16  H    0.000000
    17  H    0.000000
 Sum of Mulliken charges =  -0.00000
 Mulliken charges with hydrogens summed into heavy atoms:
               1
     1  P    0.000000
     2  O    0.000000
     3  O    0.000000
     5  O    0.000000
     7  O    0.000000
     9  O    0.000000
    12  O   -0.000000
    15  O    0.000000
         Mulliken charges condensed to fragments:
      1      0.000000
      2      0.000000
      3     -0.000000
      4      0.000000
 Electronic spatial extent (au):  <R**2>=           4852.8644
 Charge=              0.0000 electrons
 Dipole moment (field-independent basis, Debye):
    X=              1.2268    Y=             -0.0509    Z=             -1.7168  Tot=              2.1107
 Quadrupole moment (field-independent basis, Debye-Ang):
   XX=             16.1453   YY=             -7.2930   ZZ=            -18.9362
   XY=              8.8305   XZ=            -10.3231   YZ=            -10.4598
 Traceless Quadrupole moment (field-independent basis, Debye-Ang):
   XX=             19.5066   YY=             -3.9317   ZZ=            -15.5749
   XY=              8.8305   XZ=            -10.3231   YZ=            -10.4598
 Octapole moment (field-independent basis, Debye-Ang**2):
  XXX=            141.0272  YYY=           -135.9590  ZZZ=           -141.7320  XYY=              4.3293
  XXY=            124.6460  XXZ=            -69.3728  XZZ=           -148.7353  YZZ=           -117.6610
  YYZ=            -88.7306  XYZ=            -56.1690
 Hexadecapole moment (field-independent basis, Debye-Ang**3):
 XXXX=            799.8728 YYYY=          -1749.4193 ZZZZ=           -897.3081 XXXY=           1203.7375
 XXXZ=           -603.9793 YYYX=           -699.6634 YYYZ=           -876.6289 ZZZX=          -1182.8062
 ZZZY=           -892.0268 XXYY=            417.5702 XXZZ=          -1232.0976 YYZZ=           -828.1965
 XXYZ=           -310.1732 YYXZ=           -517.5850 ZZXY=           -901.5074
 N-N= 9.109667024597D+00 E-N=-1.990721267161D+02  KE= 7.619793202953D+01
 No NMR shielding tensors so no spin-rotation constants.
 Leave Link  601 at Sun Feb 19 12:06:23 2023, MaxMem=  6710886400 cpu:               1.8 elap:               0.1
 (Enter /data0/home/software/g16/l122.exe)
 CPIOFr:  IOpCl= 0 IRwI=-1 IRwCP=  731 ICalc=  7 LCPTot=      120517 Len1MO=      315166 IndFrg=     2641845
 Counterpoise: doing calculation for fragment   4 using the basis set of the fragment.
 Leave Link  122 at Sun Feb 19 12:06:23 2023, MaxMem=  6710886400 cpu:               0.1 elap:               0.0
 (Enter /data0/home/software/g16/l301.exe)
 Basis read from rwf:  (5D, 7F)
 No pseudopotential information found on rwf file.
    39 basis functions,    58 primitive gaussians,    41 cartesian basis functions
     5 alpha electrons        5 beta electrons
       nuclear repulsion energy         9.0884278623 Hartrees.
 IExCor= 4336 DFT=T Ex+Corr=M062X ExCW=0 ScaHFX=  0.540000
 ScaDFX=  1.000000  1.000000  1.000000  1.000000 ScalE2=  1.000000  1.000000
 IRadAn=      5 IRanWt=     -1 IRanGd=            0 ICorTp=0 IEmpDi=131
 NAtoms=   17 NActive=    3 NUniq=    3 SFac= 1.00D+00 NAtFMM=   60 NAOKFM=F Big=F
 Integral buffers will be    131072 words long.
 Raffenetti 2 integral format.
 Two-electron integral symmetry is turned off.
 R6Disp:  Grimme-D3 Dispersion energy=       -0.0000000079 Hartrees.
 Nuclear repulsion after empirical dispersion term =        9.0884278544 Hartrees.
 No density basis found on file   718.
 Leave Link  301 at Sun Feb 19 12:06:23 2023, MaxMem=  6710886400 cpu:               1.3 elap:               0.1
 (Enter /data0/home/software/g16/l302.exe)
 NPDir=0 NMtPBC=     1 NCelOv=     1 NCel=       1 NClECP=     1 NCelD=      1
         NCelK=      1 NCelE2=     1 NClLst=     1 CellRange=     0.0.
 One-electron integrals computed using PRISM.
 NBasis=    39 RedAO= T EigKep=  3.07D-03  NBF=    39
 NBsUse=    39 1.00D-06 EigRej= -1.00D+00 NBFU=    39
 Precomputing XC quadrature grid using
 IXCGrd= 4 IRadAn=           5 IRanWt=          -1 IRanGd=           0 AccXCQ= 0.00D+00.
 Generated NRdTot=       0 NPtTot=           0 NUsed=           0 NTot=          32
 NSgBfM=    41    41    41    41    41 MxSgAt=     3 MxSgA2=     3.
 Leave Link  302 at Sun Feb 19 12:06:23 2023, MaxMem=  6710886400 cpu:               2.3 elap:               0.1
 (Enter /data0/home/software/g16/l303.exe)
 DipDrv:  MaxL=1.
 Leave Link  303 at Sun Feb 19 12:06:23 2023, MaxMem=  6710886400 cpu:               0.4 elap:               0.0
 (Enter /data0/home/software/g16/l401.exe)
 ExpMin= 8.45D-02 ExpMax= 8.59D+03 ExpMxC= 1.30D+03 IAcc=3 IRadAn=         5 AccDes= 0.00D+00
 Harris functional with IExCor= 1009 and IRadAn=       5 diagonalized for initial guess.
 HarFok:  IExCor= 1009 AccDes= 0.00D+00 IRadAn=         5 IDoV= 1 UseB2=F ITyADJ=14
 ICtDFT=  3500011 ScaDFX=  1.000000  1.000000  1.000000  1.000000
 FoFCou: FMM=F IPFlag=           0 FMFlag=      100000 FMFlg1=           0
         NFxFlg=           0 DoJE=T BraDBF=F KetDBF=T FulRan=T
         wScrn=  0.000000 ICntrl=       500 IOpCl=  0 I1Cent=   200000004 NGrid=           0
         NMat0=    1 NMatS0=      1 NMatT0=    0 NMatD0=    1 NMtDS0=    0 NMtDT0=    0
 Symmetry not used in FoFCou.
 Harris En= -76.4164245850557    
 JPrj=0 DoOrth=F DoCkMO=F.
 Leave Link  401 at Sun Feb 19 12:06:23 2023, MaxMem=  6710886400 cpu:               2.9 elap:               0.1
 (Enter /data0/home/software/g16/l502.exe)
 Keep R1 ints in memory in canonical form, NReq=21038482.
 FoFCou: FMM=F IPFlag=           0 FMFlag=           0 FMFlg1=           0
         NFxFlg=           0 DoJE=F BraDBF=F KetDBF=F FulRan=T
         wScrn=  0.000000 ICntrl=       600 IOpCl=  0 I1Cent=           0 NGrid=           0
         NMat0=    1 NMatS0=    780 NMatT0=    0 NMatD0=    1 NMtDS0=    0 NMtDT0=    0
 Symmetry not used in FoFCou.
 Two-electron integral symmetry not used.
 Closed shell SCF:
 Using DIIS extrapolation, IDIIS=  1040.
 NGot=  6710886400 LenX=  6710576560 LenY=  6710574438
 Requested convergence on RMS density matrix=1.00D-08 within 128 cycles.
 Requested convergence on MAX density matrix=1.00D-06.
 Requested convergence on             energy=1.00D-06.
 No special actions if energy rises.
 Integral accuracy reduced to 1.0D-05 until final iterations.

 Cycle   1  Pass 0  IDiag  1:
 E= -76.3464619163072    
 DIIS: error= 7.00D-02 at cycle   1 NSaved=   1.
 NSaved= 1 IEnMin= 1 EnMin= -76.3464619163072     IErMin= 1 ErrMin= 7.00D-02
 ErrMax= 7.00D-02  0.00D+00 EMaxC= 1.00D-01 BMatC= 1.20D-01 BMatP= 1.20D-01
 IDIUse=3 WtCom= 3.00D-01 WtEn= 7.00D-01
 Coeff-Com:  0.100D+01
 Coeff-En:   0.100D+01
 Coeff:      0.100D+01
 Gap=     0.325 Goal=   None    Shift=    0.000
 GapD=    0.325 DampG=1.000 DampE=0.500 DampFc=0.5000 IDamp=-1.
 Damping current iteration by 5.00D-01
 RMSDP=7.90D-03 MaxDP=1.01D-01              OVMax= 1.68D-01

 Cycle   2  Pass 0  IDiag  1:
 E= -76.3777916393246     Delta-E=       -0.031329723017 Rises=F Damp=T
 DIIS: error= 1.14D-02 at cycle   2 NSaved=   2.
 NSaved= 2 IEnMin= 2 EnMin= -76.3777916393246     IErMin= 2 ErrMin= 1.14D-02
 ErrMax= 1.14D-02  0.00D+00 EMaxC= 1.00D-01 BMatC= 4.85D-03 BMatP= 1.20D-01
 IDIUse=3 WtCom= 8.86D-01 WtEn= 1.14D-01
 Coeff-Com:  0.829D-01 0.917D+00
 Coeff-En:   0.188D+00 0.812D+00
 Coeff:      0.949D-01 0.905D+00
 Gap=     0.457 Goal=   None    Shift=    0.000
 RMSDP=9.43D-04 MaxDP=1.40D-02 DE=-3.13D-02 OVMax= 1.00D-01

 Cycle   3  Pass 0  IDiag  1:
 E= -76.4216718896393     Delta-E=       -0.043880250315 Rises=F Damp=F
 DIIS: error= 2.18D-03 at cycle   3 NSaved=   3.
 NSaved= 3 IEnMin= 3 EnMin= -76.4216718896393     IErMin= 3 ErrMin= 2.18D-03
 ErrMax= 2.18D-03  0.00D+00 EMaxC= 1.00D-01 BMatC= 9.18D-05 BMatP= 4.85D-03
 IDIUse=3 WtCom= 9.78D-01 WtEn= 2.18D-02
 Coeff-Com: -0.200D-01 0.401D-01 0.980D+00
 Coeff-En:   0.000D+00 0.000D+00 0.100D+01
 Coeff:     -0.195D-01 0.392D-01 0.980D+00
 Gap=     0.461 Goal=   None    Shift=    0.000
 RMSDP=1.15D-04 MaxDP=1.06D-03 DE=-4.39D-02 OVMax= 3.32D-03

 Cycle   4  Pass 0  IDiag  1:
 E= -76.4217501360770     Delta-E=       -0.000078246438 Rises=F Damp=F
 DIIS: error= 4.15D-04 at cycle   4 NSaved=   4.
 NSaved= 4 IEnMin= 4 EnMin= -76.4217501360770     IErMin= 4 ErrMin= 4.15D-04
 ErrMax= 4.15D-04  0.00D+00 EMaxC= 1.00D-01 BMatC= 3.34D-06 BMatP= 9.18D-05
 IDIUse=3 WtCom= 9.96D-01 WtEn= 4.15D-03
 Coeff-Com: -0.195D-02-0.217D-02 0.164D+00 0.840D+00
 Coeff-En:   0.000D+00 0.000D+00 0.000D+00 0.100D+01
 Coeff:     -0.194D-02-0.216D-02 0.163D+00 0.841D+00
 Gap=     0.462 Goal=   None    Shift=    0.000
 RMSDP=2.22D-05 MaxDP=3.54D-04 DE=-7.82D-05 OVMax= 5.37D-04

 Cycle   5  Pass 0  IDiag  1:
 E= -76.4217521929043     Delta-E=       -0.000002056827 Rises=F Damp=F
 DIIS: error= 8.99D-05 at cycle   5 NSaved=   5.
 NSaved= 5 IEnMin= 5 EnMin= -76.4217521929043     IErMin= 5 ErrMin= 8.99D-05
 ErrMax= 8.99D-05  0.00D+00 EMaxC= 1.00D-01 BMatC= 8.38D-08 BMatP= 3.34D-06
 IDIUse=1 WtCom= 1.00D+00 WtEn= 0.00D+00
 Coeff-Com:  0.118D-02-0.180D-02-0.367D-01-0.682D-01 0.111D+01
 Coeff:      0.118D-02-0.180D-02-0.367D-01-0.682D-01 0.111D+01
 Gap=     0.462 Goal=   None    Shift=    0.000
 RMSDP=9.04D-06 MaxDP=1.03D-04 DE=-2.06D-06 OVMax= 2.04D-04

 Initial convergence to 1.0D-05 achieved.  Increase integral accuracy.
 Cycle   6  Pass 1  IDiag  1:
 E= -76.4217496991703     Delta-E=        0.000002493734 Rises=F Damp=F
 DIIS: error= 2.19D-05 at cycle   1 NSaved=   1.
 NSaved= 1 IEnMin= 1 EnMin= -76.4217496991703     IErMin= 1 ErrMin= 2.19D-05
 ErrMax= 2.19D-05  0.00D+00 EMaxC= 1.00D-01 BMatC= 1.72D-08 BMatP= 1.72D-08
 IDIUse=1 WtCom= 1.00D+00 WtEn= 0.00D+00
 Coeff-Com:  0.100D+01
 Coeff:      0.100D+01
 Gap=     0.462 Goal=   None    Shift=    0.000
 RMSDP=9.04D-06 MaxDP=1.03D-04 DE= 2.49D-06 OVMax= 3.99D-05

 Cycle   7  Pass 1  IDiag  1:
 E= -76.4217497115594     Delta-E=       -0.000000012389 Rises=F Damp=F
 DIIS: error= 5.24D-06 at cycle   2 NSaved=   2.
 NSaved= 2 IEnMin= 2 EnMin= -76.4217497115594     IErMin= 2 ErrMin= 5.24D-06
 ErrMax= 5.24D-06  0.00D+00 EMaxC= 1.00D-01 BMatC= 5.05D-10 BMatP= 1.72D-08
 IDIUse=1 WtCom= 1.00D+00 WtEn= 0.00D+00
 Coeff-Com: -0.203D-01 0.102D+01
 Coeff:     -0.203D-01 0.102D+01
 Gap=     0.462 Goal=   None    Shift=    0.000
 RMSDP=5.39D-07 MaxDP=8.39D-06 DE=-1.24D-08 OVMax= 1.29D-05

 Cycle   8  Pass 1  IDiag  1:
 E= -76.4217497116344     Delta-E=       -0.000000000075 Rises=F Damp=F
 DIIS: error= 4.88D-06 at cycle   3 NSaved=   3.
 NSaved= 3 IEnMin= 3 EnMin= -76.4217497116344     IErMin= 3 ErrMin= 4.88D-06
 ErrMax= 4.88D-06  0.00D+00 EMaxC= 1.00D-01 BMatC= 5.41D-10 BMatP= 5.05D-10
 IDIUse=1 WtCom= 1.00D+00 WtEn= 0.00D+00
 Coeff-Com: -0.376D-01 0.536D+00 0.502D+00
 Coeff:     -0.376D-01 0.536D+00 0.502D+00
 Gap=     0.462 Goal=   None    Shift=    0.000
 RMSDP=2.62D-07 MaxDP=3.67D-06 DE=-7.50D-11 OVMax= 6.05D-06

 Cycle   9  Pass 1  IDiag  1:
 E= -76.4217497119861     Delta-E=       -0.000000000352 Rises=F Damp=F
 DIIS: error= 4.29D-07 at cycle   4 NSaved=   4.
 NSaved= 4 IEnMin= 4 EnMin= -76.4217497119861     IErMin= 4 ErrMin= 4.29D-07
 ErrMax= 4.29D-07  0.00D+00 EMaxC= 1.00D-01 BMatC= 2.89D-12 BMatP= 5.05D-10
 IDIUse=1 WtCom= 1.00D+00 WtEn= 0.00D+00
 Coeff-Com:  0.170D-02-0.554D-01 0.650D-02 0.105D+01
 Coeff:      0.170D-02-0.554D-01 0.650D-02 0.105D+01
 Gap=     0.462 Goal=   None    Shift=    0.000
 RMSDP=5.76D-08 MaxDP=4.43D-07 DE=-3.52D-10 OVMax= 1.10D-06

 Cycle  10  Pass 1  IDiag  1:
 E= -76.4217497119906     Delta-E=       -0.000000000004 Rises=F Damp=F
 DIIS: error= 5.19D-08 at cycle   5 NSaved=   5.
 NSaved= 5 IEnMin= 5 EnMin= -76.4217497119906     IErMin= 5 ErrMin= 5.19D-08
 ErrMax= 5.19D-08  0.00D+00 EMaxC= 1.00D-01 BMatC= 1.16D-13 BMatP= 2.89D-12
 IDIUse=1 WtCom= 1.00D+00 WtEn= 0.00D+00
 Coeff-Com:  0.145D-02-0.241D-01-0.188D-01 0.761D-01 0.965D+00
 Coeff:      0.145D-02-0.241D-01-0.188D-01 0.761D-01 0.965D+00
 Gap=     0.462 Goal=   None    Shift=    0.000
 RMSDP=1.64D-08 MaxDP=1.53D-07 DE=-4.49D-12 OVMax= 3.13D-07

 Cycle  11  Pass 1  IDiag  1:
 E= -76.4217497119909     Delta-E=       -0.000000000000 Rises=F Damp=F
 DIIS: error= 9.57D-09 at cycle   6 NSaved=   6.
 NSaved= 6 IEnMin= 6 EnMin= -76.4217497119909     IErMin= 6 ErrMin= 9.57D-09
 ErrMax= 9.57D-09  0.00D+00 EMaxC= 1.00D-01 BMatC= 5.32D-15 BMatP= 1.16D-13
 IDIUse=1 WtCom= 1.00D+00 WtEn= 0.00D+00
 Coeff-Com:  0.600D-04 0.715D-03-0.229D-02-0.579D-01 0.258D-01 0.103D+01
 Coeff:      0.600D-04 0.715D-03-0.229D-02-0.579D-01 0.258D-01 0.103D+01
 Gap=     0.462 Goal=   None    Shift=    0.000
 RMSDP=4.19D-09 MaxDP=4.54D-08 DE=-3.13D-13 OVMax= 7.88D-08

 SCF Done:  E(RM062X) =  -76.4217497120     A.U. after   11 cycles
            NFock= 11  Conv=0.42D-08     -V/T= 2.0030
 KE= 7.618986542496D+01 PE=-1.990260716404D+02 EE= 3.732602864908D+01
 Leave Link  502 at Sun Feb 19 12:06:23 2023, MaxMem=  6710886400 cpu:               8.8 elap:               0.4
 (Enter /data0/home/software/g16/l601.exe)
 Copying SCF densities to generalized density rwf, IOpCl= 0 IROHF=0.

 **********************************************************************

            Population analysis using the SCF density.

 **********************************************************************

 Alpha  occ. eigenvalues --  -19.62623  -1.13270  -0.60700  -0.47471  -0.39969
 Alpha virt. eigenvalues --    0.06239   0.13297   0.17402   0.17949   0.18930
 Alpha virt. eigenvalues --    0.23292   0.51020   0.53297   0.97956   1.00258
 Alpha virt. eigenvalues --    1.06033   1.18519   1.19865   1.32382   1.33968
 Alpha virt. eigenvalues --    1.69576   1.74058   1.75626   2.07581   2.09195
 Alpha virt. eigenvalues --    2.35453   2.41553   2.54365   2.88158   3.00883
 Alpha virt. eigenvalues --    5.05660   5.47690   5.91857   6.78297   6.80262
 Alpha virt. eigenvalues --    6.87153   6.91454   7.09691  49.95636
          Condensed to atoms (all electrons):
              15         16         17
    15  O    7.917405   0.321466   0.318440
    16  H    0.321466   0.425502  -0.024271
    17  H    0.318440  -0.024271   0.425824
 Mulliken charges:
               1
     1  P    0.000000
     2  O    0.000000
     3  O    0.000000
     4  H    0.000000
     5  O    0.000000
     6  H    0.000000
     7  O    0.000000
     8  H    0.000000
     9  O    0.000000
    10  H    0.000000
    11  H    0.000000
    12  O    0.000000
    13  H    0.000000
    14  H    0.000000
    15  O   -0.557310
    16  H    0.277303
    17  H    0.280007
 Sum of Mulliken charges =  -0.00000
 Mulliken charges with hydrogens summed into heavy atoms:
               1
     1  P    0.000000
     2  O    0.000000
     3  O    0.000000
     5  O    0.000000
     7  O    0.000000
     9  O    0.000000
    12  O    0.000000
    15  O   -0.000000
         Mulliken charges condensed to fragments:
      1      0.000000
      2      0.000000
      3      0.000000
      4     -0.000000
 Electronic spatial extent (au):  <R**2>=           5064.7882
 Charge=             -0.0000 electrons
 Dipole moment (field-independent basis, Debye):
    X=             -0.3867    Y=              2.0810    Z=             -0.0088  Tot=              2.1167
 Quadrupole moment (field-independent basis, Debye-Ang):
   XX=            -14.7141   YY=             13.8598   ZZ=             -4.4846
   XY=             16.7546   XZ=             -2.2709   YZ=             12.3355
 Traceless Quadrupole moment (field-independent basis, Debye-Ang):
   XX=            -12.9345   YY=             15.6394   ZZ=             -2.7050
   XY=             16.7546   XZ=             -2.2709   YZ=             12.3355
 Octapole moment (field-independent basis, Debye-Ang**2):
  XXX=           -305.2635  YYY=             55.7967  ZZZ=            -79.1673  XYY=            114.0775
  XXY=             95.6188  XXZ=            -86.3069  XZZ=            -53.3389  YZZ=             53.1787
  YYZ=             82.1943  XYZ=             99.8393
 Hexadecapole moment (field-independent basis, Debye-Ang**3):
 XXXX=          -4973.7131 YYYY=             68.4157 ZZZZ=           -945.3782 XXXY=             18.0048
 XXXZ=          -1796.5480 YYYX=            442.3487 YYYZ=            330.3437 ZZZX=           -792.8157
 ZZZY=             77.2312 XXYY=            747.7375 XXZZ=           -874.0983 YYZZ=            395.0933
 XXYZ=            575.3264 YYXZ=            679.2671 ZZXY=            412.5958
 N-N= 9.088427854409D+00 E-N=-1.990260716458D+02  KE= 7.618986542496D+01
 No NMR shielding tensors so no spin-rotation constants.
 Leave Link  601 at Sun Feb 19 12:06:24 2023, MaxMem=  6710886400 cpu:               1.7 elap:               0.1
 (Enter /data0/home/software/g16/l122.exe)
 CPIOFr:  IOpCl= 0 IRwI=-1 IRwCP=  731 ICalc=  8 LCPTot=      120517 Len1MO=      315166 IndFrg=     2957011
 Restoring MOs from calculation   1 to rwf.
 CPIOFr:  IOpCl= 0 IRwI=-2 IRwCP=  731 ICalc=  0 LCPTot=      120517 Len1MO=      315166 IndFrg=      435683
 Counterpoise corrected energy =    -873.473895809279
                   BSSE energy =       0.004598077765
              sum of fragments =    -873.414701247191
           complexation energy =     -40.03 kcal/mole (raw)
           complexation energy =     -37.15 kcal/mole (corrected)
 Leave Link  122 at Sun Feb 19 12:06:24 2023, MaxMem=  6710886400 cpu:               0.2 elap:               0.0
 (Enter /data0/home/software/g16/l9999.exe)
 1\1\GINC-LOCALHOST\SP\RM062X\6-311+G(2d,p)\H9O7P1\WUHANYU\19-Feb-2023\
 0\\#p M062X/6-311+G(2d,p) nosymm em=GD3 counterpoise=4\\Title Card Req
 uired\\0,1\P,0,12.638642,5.4428,6.381676\O,0,13.070413,6.401,5.362707\
 O,0,13.91517,4.816378,7.095938\H,0,13.600535,4.055842,7.712065\O,0,11.
 7049,6.020409,7.531657\H,0,12.060355,6.963626,7.837443\O,0,11.832608,4
 .167941,5.898838\H,0,10.800121,4.377383,5.933475\O,0,11.30381,7.657134
 ,3.378717\H,0,11.930852,7.133101,3.908484\H,0,11.331639,8.524474,3.781
 223\O,0,8.836836,6.5088,3.818537\H,0,9.707202,6.935049,3.682691\H,0,8.
 659386,6.058741,2.996304\O,0,9.096724,4.7561,5.954467\H,0,9.013434,5.3
 37554,6.713238\H,0,8.962606,5.343504,5.18467\\Version=ES64L-G16RevA.03
 \HF=-76.4217497\RMSD=4.193e-09\Dipole=-0.3784598,0.6490717,1.2799766\Q
 uadrupole=-32.4738224,8.2788467,24.1949757,8.0586556,27.9965451,22.562
 6153\PG=C01 [X(H9O7P1)]\\@


 GOD GAVE US TWO ENDS... ONE TO SIT ON...    
 AND THE OTHER TO THINK WITH...              
 YOUR SUCCESS DEPENDS UPON WHICH END YOU     
 USE THE MOST...                             
                                             
 IT'S A CASE OF HEADS YOU WIN TAILS YOU LOSE.
          SOURCE UNKNOWN(IT'S JUST AS WELL.) 
 Job cpu time:       0 days  0 hours 29 minutes 15.3 seconds.
 Elapsed time:       0 days  0 hours  1 minutes 16.5 seconds.
 File lengths (MBytes):  RWF=     75 Int=      0 D2E=      0 Chk=     28 Scr=      1
 Normal termination of Gaussian 16 at Sun Feb 19 12:06:24 2023.
