 Entering Gaussian System, Link 0=g16
 Initial command:
 /data0/home/software/g16/l1.exe "/data0/home/software/g16/scratch/Gau-364476.inp" -scrdir="/data0/home/software/g16/scratch/"
 Default is to use a total of  22 processors:
                               22 via shared-memory
                                1 via Linda
 Entering Link 1 = /data0/home/software/g16/l1.exe PID=    364477.
  
 Copyright (c) 1988,1990,1992,1993,1995,1998,2003,2009,2016,
            Gaussian, Inc.  All Rights Reserved.
  
 This is part of the Gaussian(R) 16 program.  It is based on
 the Gaussian(R) 09 system (copyright 2009, Gaussian, Inc.),
 the Gaussian(R) 03 system (copyright 2003, Gaussian, Inc.),
 the Gaussian(R) 98 system (copyright 1998, Gaussian, Inc.),
 the Gaussian(R) 94 system (copyright 1995, Gaussian, Inc.),
 the Gaussian 92(TM) system (copyright 1992, Gaussian, Inc.),
 the Gaussian 90(TM) system (copyright 1990, Gaussian, Inc.),
 the Gaussian 88(TM) system (copyright 1988, Gaussian, Inc.),
 the Gaussian 86(TM) system (copyright 1986, Carnegie Mellon
 University), and the Gaussian 82(TM) system (copyright 1983,
 Carnegie Mellon University). Gaussian is a federally registered
 trademark of Gaussian, Inc.
  
 This software contains proprietary and confidential information,
 including trade secrets, belonging to Gaussian, Inc.
  
 This software is provided under written license and may be
 used, copied, transmitted, or stored only in accord with that
 written license.
  
 The following legend is applicable only to US Government
 contracts under FAR:
  
                    RESTRICTED RIGHTS LEGEND
  
 Use, reproduction and disclosure by the US Government is
 subject to restrictions as set forth in subparagraphs (a)
 and (c) of the Commercial Computer Software - Restricted
 Rights clause in FAR 52.227-19.
  
 Gaussian, Inc.
 340 Quinnipiac St., Bldg. 40, Wallingford CT 06492
  
  
 ---------------------------------------------------------------
 Warning -- This program may not be used in any manner that
 competes with the business of Gaussian, Inc. or will provide
 assistance to any competitor of Gaussian, Inc.  The licensee
 of this program is prohibited from giving any competitor of
 Gaussian, Inc. access to this program.  By using this program,
 the user acknowledges that Gaussian, Inc. is engaged in the
 business of creating and licensing software in the field of
 computational chemistry and represents and warrants to the
 licensee that it is not a competitor of Gaussian, Inc. and that
 it will not use this program in any manner prohibited above.
 ---------------------------------------------------------------
  

 Cite this work as:
 Gaussian 16, Revision A.03,
 M. J. Frisch, G. W. Trucks, H. B. Schlegel, G. E. Scuseria, 
 M. A. Robb, J. R. Cheeseman, G. Scalmani, V. Barone, 
 G. A. Petersson, H. Nakatsuji, X. Li, M. Caricato, A. V. Marenich, 
 J. Bloino, B. G. Janesko, R. Gomperts, B. Mennucci, H. P. Hratchian, 
 J. V. Ortiz, A. F. Izmaylov, J. L. Sonnenberg, D. Williams-Young, 
 F. Ding, F. Lipparini, F. Egidi, J. Goings, B. Peng, A. Petrone, 
 T. Henderson, D. Ranasinghe, V. G. Zakrzewski, J. Gao, N. Rega, 
 G. Zheng, W. Liang, M. Hada, M. Ehara, K. Toyota, R. Fukuda, 
 J. Hasegawa, M. Ishida, T. Nakajima, Y. Honda, O. Kitao, H. Nakai, 
 T. Vreven, K. Throssell, J. A. Montgomery, Jr., J. E. Peralta, 
 F. Ogliaro, M. J. Bearpark, J. J. Heyd, E. N. Brothers, K. N. Kudin, 
 V. N. Staroverov, T. A. Keith, R. Kobayashi, J. Normand, 
 K. Raghavachari, A. P. Rendell, J. C. Burant, S. S. Iyengar, 
 J. Tomasi, M. Cossi, J. M. Millam, M. Klene, C. Adamo, R. Cammi, 
 J. W. Ochterski, R. L. Martin, K. Morokuma, O. Farkas, 
 J. B. Foresman, and D. J. Fox, Gaussian, Inc., Wallingford CT, 2016.
 
 ******************************************
 Gaussian 16:  ES64L-G16RevA.03 25-Dec-2016
                20-Feb-2023 
 ******************************************
 %nproc=24
 Will use up to   24 processors via shared memory.
 %mem=50GB
 ---------------------------------------------------
 #p M062X/6-311+G(2d,p) nosymm em=GD3 counterpoise=2
 ---------------------------------------------------
 1/38=1,62=2,172=1/1;
 2/12=2,15=1,17=6,18=5,40=1/2;
 1/38=1,53=2,62=2,63=1/22;
 3/5=4,6=6,7=112,11=2,25=1,30=1,74=-55,124=31/1,2,3;
 4//1;
 5/5=2,38=5/2;
 6/7=2,8=2,9=2,10=2,28=1/1;
 1/53=2,62=2,63=1/22;
 3/5=7,6=11,7=112,11=2,25=1,30=1,74=-55,82=7,124=31/1,2,3;
 4//1;
 5/5=2,38=5/2;
 6/7=2,8=2,9=2,10=2,28=1/1;
 1/53=2,62=2,63=1/22(-4);
 99/5=1,9=1/99;
 Leave Link    1 at Mon Feb 20 01:29:49 2023, MaxMem=  6710886400 cpu:               0.7 elap:               0.0
 (Enter /data0/home/software/g16/l101.exe)
 -------------------
 Title Card Required
 -------------------
 Symbolic Z-matrix:
 Charge =  0 Multiplicity = 1 in supermolecule
 Charge =  0 Multiplicity = 1 in fragment      1.
 Charge =  0 Multiplicity = 1 in fragment      2.
 C                     10.42001   7.42753   9.44901    
 C                     9.9989    8.13549   8.32773    
 C                     11.27753   9.50146   9.58143    
 N                     11.21487   8.28745   10.20434    
 H                     10.17252   6.43013   9.77018    
 H                     9.36791   7.82961   7.51612    
 H                     11.81505   10.39526   9.93726    
 C                     11.75075   7.99992   11.52338    
 H                     12.78061   8.40056   11.63662    
 H                     11.11779   8.49336   12.3044    
 H                     11.75106   6.91749   11.72718    
 N                     10.54525   9.4159    8.42339    
 C                     10.17259   10.57184   7.60999    
 H                     10.391    10.35236   6.54125    
 H                     10.81483   11.44433   7.91221    
 C                     8.68716   10.96105   7.78878    
 H                     8.5984    12.04551   7.54909    
 H                     8.06186   10.42235   7.05343    
 C                     8.13537   10.72778   9.19328    
 H                     7.92435   9.65583   9.37186    
 H                     7.16478   11.24548   9.32004    
 C                     9.07824   11.24872   10.28241    
 O                     9.83723   12.18661   10.00589    
 O                     9.044     10.63294   11.3756    
 O                     8.76976   7.95477   11.33144    
 H                     8.86016   8.94187   11.34831    
 H                     8.08452   7.77382   11.96432    
 
 ITRead=  0  0  0  0  0  0  0  0  0  0  0  0  0  0  0  0  0  0  0  0
 ITRead=  0  0  0  0  0  0  0
 MicOpt= -1 -1 -1 -1 -1 -1 -1 -1 -1 -1 -1 -1 -1 -1 -1 -1 -1 -1 -1 -1
 MicOpt= -1 -1 -1 -1 -1 -1 -1
 NAtoms=     27 NQM=       27 NQMF=       0 NMMI=      0 NMMIF=      0
                NMic=       0 NMicF=      0.
                    Isotopes and Nuclear Properties:
 (Nuclear quadrupole moments (NQMom) in fm**2, nuclear magnetic moments (NMagM)
  in nuclear magnetons)

  Atom         1           2           3           4           5           6           7           8           9          10
 IAtWgt=          12          12          12          14           1           1           1          12           1           1
 AtmWgt=  12.0000000  12.0000000  12.0000000  14.0030740   1.0078250   1.0078250   1.0078250  12.0000000   1.0078250   1.0078250
 NucSpn=           0           0           0           2           1           1           1           0           1           1
 AtZEff=  -0.0000000  -0.0000000  -0.0000000  -0.0000000  -0.0000000  -0.0000000  -0.0000000  -0.0000000  -0.0000000  -0.0000000
 NQMom=    0.0000000   0.0000000   0.0000000   2.0440000   0.0000000   0.0000000   0.0000000   0.0000000   0.0000000   0.0000000
 NMagM=    0.0000000   0.0000000   0.0000000   0.4037610   2.7928460   2.7928460   2.7928460   0.0000000   2.7928460   2.7928460
 AtZNuc=   6.0000000   6.0000000   6.0000000   7.0000000   1.0000000   1.0000000   1.0000000   6.0000000   1.0000000   1.0000000

  Atom        11          12          13          14          15          16          17          18          19          20
 IAtWgt=           1          14          12           1           1          12           1           1          12           1
 AtmWgt=   1.0078250  14.0030740  12.0000000   1.0078250   1.0078250  12.0000000   1.0078250   1.0078250  12.0000000   1.0078250
 NucSpn=           1           2           0           1           1           0           1           1           0           1
 AtZEff=  -0.0000000  -0.0000000  -0.0000000  -0.0000000  -0.0000000  -0.0000000  -0.0000000  -0.0000000  -0.0000000  -0.0000000
 NQMom=    0.0000000   2.0440000   0.0000000   0.0000000   0.0000000   0.0000000   0.0000000   0.0000000   0.0000000   0.0000000
 NMagM=    2.7928460   0.4037610   0.0000000   2.7928460   2.7928460   0.0000000   2.7928460   2.7928460   0.0000000   2.7928460
 AtZNuc=   1.0000000   7.0000000   6.0000000   1.0000000   1.0000000   6.0000000   1.0000000   1.0000000   6.0000000   1.0000000

  Atom        21          22          23          24          25          26          27
 IAtWgt=           1          12          16          16          16           1           1
 AtmWgt=   1.0078250  12.0000000  15.9949146  15.9949146  15.9949146   1.0078250   1.0078250
 NucSpn=           1           0           0           0           0           1           1
 AtZEff=  -0.0000000  -0.0000000  -0.0000000  -0.0000000  -0.0000000  -0.0000000  -0.0000000
 NQMom=    0.0000000   0.0000000   0.0000000   0.0000000   0.0000000   0.0000000   0.0000000
 NMagM=    2.7928460   0.0000000   0.0000000   0.0000000   0.0000000   2.7928460   2.7928460
 AtZNuc=   1.0000000   6.0000000   8.0000000   8.0000000   8.0000000   1.0000000   1.0000000
 Leave Link  101 at Mon Feb 20 01:29:49 2023, MaxMem=  6710886400 cpu:               2.1 elap:               0.1
 (Enter /data0/home/software/g16/l202.exe)
                          Input orientation:                          
 ---------------------------------------------------------------------
 Center     Atomic      Atomic             Coordinates (Angstroms)
 Number     Number       Type             X           Y           Z
 ---------------------------------------------------------------------
      1          6           0       10.420007    7.427526    9.449007
      2          6           0        9.998900    8.135490    8.327733
      3          6           0       11.277531    9.501461    9.581434
      4          7           0       11.214866    8.287449   10.204341
      5          1           0       10.172522    6.430129    9.770182
      6          1           0        9.367915    7.829614    7.516122
      7          1           0       11.815050   10.395258    9.937262
      8          6           0       11.750746    7.999922   11.523383
      9          1           0       12.780605    8.400561   11.636618
     10          1           0       11.117794    8.493362   12.304396
     11          1           0       11.751058    6.917488   11.727180
     12          7           0       10.545249    9.415895    8.423394
     13          6           0       10.172595   10.571844    7.609990
     14          1           0       10.391000   10.352363    6.541253
     15          1           0       10.814826   11.444333    7.912210
     16          6           0        8.687159   10.961048    7.788775
     17          1           0        8.598402   12.045515    7.549086
     18          1           0        8.061859   10.422347    7.053427
     19          6           0        8.135373   10.727780    9.193278
     20          1           0        7.924352    9.655826    9.371864
     21          1           0        7.164781   11.245484    9.320042
     22          6           0        9.078240   11.248717   10.282411
     23          8           0        9.837228   12.186608   10.005893
     24          8           0        9.044004   10.632938   11.375604
     25          8           0        8.769757    7.954771   11.331442
     26          1           0        8.860156    8.941866   11.348313
     27          1           0        8.084520    7.773823   11.964319
 ---------------------------------------------------------------------
                    Distance matrix (angstroms):
                    1          2          3          4          5
     1  C    0.000000
     2  C    1.391330   0.000000
     3  C    2.248130   2.252230   0.000000
     4  N    1.393484   2.241277   1.365930   0.000000
     5  H    1.076663   2.240326   3.269518   2.173617   0.000000
     6  H    2.237100   1.072574   3.272189   3.293533   2.772497
     7  H    3.315414   3.315952   1.102004   2.207807   4.295121
     8  C    2.530126   3.646851   2.499944   1.452484   2.833506
     9  H    3.362270   4.330920   2.773985   2.125029   3.764078
    10  H    3.126685   4.146546   2.907972   2.112357   3.401869
    11  H    2.687361   4.013705   3.391957   2.117388   2.561081
    12  N    2.240799   1.395380   1.372813   2.212137   3.296599
    13  C    3.651018   2.545809   2.500639   3.610463   4.671213
    14  H    4.124384   2.873983   3.279127   4.284955   5.085040
    15  H    4.318838   3.433196   2.602913   3.921710   5.385801
    16  C    4.271406   3.161474   3.471894   4.401408   5.163478
    17  H    5.315427   4.225634   4.216679   5.293328   6.240487
    18  H    4.502068   3.256639   4.192779   4.942419   5.270053
    19  C    4.022018   3.307850   3.395244   4.057184   4.790887
    20  H    3.346575   2.775857   3.363266   3.659639   3.951967
    21  H    5.018957   4.323074   4.474892   5.092656   5.695329
    22  C    4.134780   3.789533   2.895022   3.652448   4.967758
    23  O    4.826864   4.387928   3.076468   4.140134   5.771051
    24  O    3.984950   4.054453   3.080248   3.403795   4.638376
    25  O    2.558295   3.250495   3.426909   2.712856   2.594189
    26  H    2.886819   3.327294   3.046097   2.698443   3.243705
    27  H    3.449814   4.125580   4.342602   3.627727   3.313533
                    6          7          8          9         10
     6  H    0.000000
     7  H    4.293357   0.000000
     8  C    4.665301   2.873595   0.000000
     9  H    5.380606   2.792655   1.110830   0.000000
    10  H    5.141032   3.115557   1.119863   1.794291   0.000000
    11  H    4.923856   3.911878   1.101452   1.807671   1.793762
    12  N    2.173832   2.205299   3.614987   4.043826   4.030019
    13  C    2.859396   2.853951   4.941658   5.265921   5.220243
    14  H    2.891597   3.682748   5.674902   5.956718   6.099011
    15  H    3.913647   2.490350   5.077449   5.196157   5.300124
    16  C    3.216154   3.836641   5.665786   6.174001   5.691071
    17  H    4.285681   4.332846   6.488384   6.890895   6.448108
    18  H    2.939751   4.733253   6.281444   6.881847   6.374355
    19  C    3.568106   3.768833   5.093282   5.741432   4.854535
    20  H    2.977029   4.000496   4.691731   5.503453   4.488779
    21  H    4.447032   4.767478   6.034854   6.708024   5.666291
    22  C    4.407554   2.887499   4.385997   4.863474   3.979973
    23  O    5.040100   2.669349   4.846923   5.065262   4.534648
    24  O    4.781124   3.131136   3.779030   4.360484   3.121065
    25  O    3.863952   4.144095   2.987503   4.047068   2.598076
    26  H    4.022513   3.582571   3.045229   3.968129   2.492424
    27  H    4.629975   4.989763   3.699562   4.749042   3.135943
                   11         12         13         14         15
    11  H    0.000000
    12  N    4.314049   0.000000
    13  C    5.726877   1.461751   0.000000
    14  H    6.367257   2.107895   1.112687   0.000000
    15  H    5.993568   2.109157   1.124738   1.803205   0.000000
    16  C    6.422530   2.498547   1.545951   2.197699   2.185353
    17  H    7.327508   3.386669   2.157197   2.663813   2.325041
    18  H    6.909283   3.009482   2.187994   2.385816   3.059541
    19  C    5.831995   2.849783   2.584839   3.501718   3.055168
    20  H    5.262099   2.797546   2.999648   3.818622   3.699214
    21  H    6.749800   3.947016   3.524913   4.350612   3.917188
    22  C    5.290639   2.994544   2.966076   4.064856   2.944800
    23  O    5.864231   3.268401   2.908657   3.959147   2.426969
    24  O    4.610457   3.528523   3.931577   5.026338   3.973571
    25  O    3.181308   3.707290   4.760906   5.596676   5.296272
    26  H    3.549501   3.408723   4.284202   5.238398   4.678662
    27  H    3.772671   4.614080   5.581143   6.432602   6.111203
                   16         17         18         19         20
    16  C    0.000000
    17  H    1.114180   0.000000
    18  H    1.105412   1.779952   0.000000
    19  C    1.526928   2.157357   2.162789   0.000000
    20  H    2.188984   3.080175   2.445734   1.107027   0.000000
    21  H    2.177916   2.414871   2.572906   1.107310   1.762568
    22  C    2.540456   2.887247   3.484574   1.531856   2.167454
    23  O    2.782134   2.755086   3.870608   2.384289   3.235111
    24  O    3.619439   4.103191   4.437361   2.365830   2.494663
    25  O    4.647044   5.574026   4.989135   3.558619   2.729147
    26  H    4.096014   4.912767   4.612499   2.891189   2.300395
    27  H    5.287414   6.164877   5.579610   4.050570   3.207555
                   21         22         23         24         25
    21  H    0.000000
    22  C    2.141843   0.000000
    23  O    2.915146   1.237806   0.000000
    24  O    2.851671   1.255160   2.217928   0.000000
    25  O    4.177376   3.470693   4.561252   2.692534   0.000000
    26  H    3.506399   2.550543   3.644875   1.701255   0.991369
    27  H    4.459882   3.986375   5.136155   3.072740   0.950171
                   26         27
    26  H    0.000000
    27  H    1.531470   0.000000
 Symmetry turned off by external request.
 Stoichiometry    C8H14N2O3
 Framework group  C1[X(C8H14N2O3)]
 Deg. of freedom    75
 Full point group                 C1      NOp   1
 Rotational constants (GHZ):           1.0988796           0.7246609           0.6061744
 Leave Link  202 at Mon Feb 20 01:29:49 2023, MaxMem=  6710886400 cpu:               0.1 elap:               0.0
 (Enter /data0/home/software/g16/l122.exe)
 Counterpoise: doing full-system calculation.
 Leave Link  122 at Mon Feb 20 01:29:49 2023, MaxMem=  6710886400 cpu:               0.0 elap:               0.0
 (Enter /data0/home/software/g16/l301.exe)
 Standard basis: 6-311+G(2d,p) (5D, 7F)
 Ernie: Thresh=  0.10000D-02 Tol=  0.10000D-05 Strict=F.
   435 basis functions,   658 primitive gaussians,   461 cartesian basis functions
    50 alpha electrons       50 beta electrons
       nuclear repulsion energy       893.0447501360 Hartrees.
 IExCor= 4336 DFT=T Ex+Corr=M062X ExCW=0 ScaHFX=  0.540000
 ScaDFX=  1.000000  1.000000  1.000000  1.000000 ScalE2=  1.000000  1.000000
 IRadAn=      5 IRanWt=     -1 IRanGd=            0 ICorTp=0 IEmpDi=131
 NAtoms=   27 NActive=   27 NUniq=   27 SFac= 1.00D+00 NAtFMM=   60 NAOKFM=F Big=F
 Integral buffers will be    131072 words long.
 Raffenetti 2 integral format.
 Two-electron integral symmetry is turned off.
 R6Disp:  Grimme-D3 Dispersion energy=       -0.0013474917 Hartrees.
 Nuclear repulsion after empirical dispersion term =      893.0434026444 Hartrees.
 Leave Link  301 at Mon Feb 20 01:29:49 2023, MaxMem=  6710886400 cpu:               1.1 elap:               0.1
 (Enter /data0/home/software/g16/l302.exe)
 NPDir=0 NMtPBC=     1 NCelOv=     1 NCel=       1 NClECP=     1 NCelD=      1
         NCelK=      1 NCelE2=     1 NClLst=     1 CellRange=     0.0.
 One-electron integrals computed using PRISM.
 NBasis=   435 RedAO= T EigKep=  1.12D-05  NBF=   435
 NBsUse=   435 1.00D-06 EigRej= -1.00D+00 NBFU=   435
 Precomputing XC quadrature grid using
 IXCGrd= 4 IRadAn=           5 IRanWt=          -1 IRanGd=           0 AccXCQ= 0.00D+00.
 Generated NRdTot=       0 NPtTot=           0 NUsed=           0 NTot=          32
 NSgBfM=   461   461   461   461   461 MxSgAt=    27 MxSgA2=    27.
 Leave Link  302 at Mon Feb 20 01:29:49 2023, MaxMem=  6710886400 cpu:               9.3 elap:               0.4
 (Enter /data0/home/software/g16/l303.exe)
 DipDrv:  MaxL=1.
 Leave Link  303 at Mon Feb 20 01:29:50 2023, MaxMem=  6710886400 cpu:               1.0 elap:               0.1
 (Enter /data0/home/software/g16/l401.exe)
 ExpMin= 4.38D-02 ExpMax= 8.59D+03 ExpMxC= 1.30D+03 IAcc=3 IRadAn=         5 AccDes= 0.00D+00
 Harris functional with IExCor= 1009 and IRadAn=       5 diagonalized for initial guess.
 HarFok:  IExCor= 1009 AccDes= 0.00D+00 IRadAn=         5 IDoV= 1 UseB2=F ITyADJ=14
 ICtDFT=  3500011 ScaDFX=  1.000000  1.000000  1.000000  1.000000
 FoFCou: FMM=F IPFlag=           0 FMFlag=      100000 FMFlg1=           0
         NFxFlg=           0 DoJE=T BraDBF=F KetDBF=T FulRan=T
         wScrn=  0.000000 ICntrl=       500 IOpCl=  0 I1Cent=   200000004 NGrid=           0
         NMat0=    1 NMatS0=      1 NMatT0=    0 NMatD0=    1 NMtDS0=    0 NMtDT0=    0
 Symmetry not used in FoFCou.
 Harris En= -648.101772334492    
 JPrj=0 DoOrth=F DoCkMO=F.
 Leave Link  401 at Mon Feb 20 01:29:51 2023, MaxMem=  6710886400 cpu:              39.1 elap:               1.7
 (Enter /data0/home/software/g16/l502.exe)
 Two-electron integral symmetry not used.
 Closed shell SCF:
 Using DIIS extrapolation, IDIIS=  1040.
 NGot=  6710886400 LenX=  6710446980 LenY=  6710233998
 Requested convergence on RMS density matrix=1.00D-08 within 128 cycles.
 Requested convergence on MAX density matrix=1.00D-06.
 Requested convergence on             energy=1.00D-06.
 No special actions if energy rises.
 Fock matrices will be formed incrementally for  20 cycles.

 Cycle   1  Pass 1  IDiag  1:
 FoFJK:  IHMeth= 1 ICntrl=       0 DoSepK=F KAlg= 0 I1Cent=           0 FoldK=F
 IRaf= 930000000 NMat=       1 IRICut=       1 DoRegI=T DoRafI=F ISym2E= 0 IDoP0=0 IntGTp=1.
 FoFCou: FMM=F IPFlag=           0 FMFlag=      100000 FMFlg1=           0
         NFxFlg=           0 DoJE=F BraDBF=F KetDBF=F FulRan=T
         wScrn=  0.000000 ICntrl=         0 IOpCl=  0 I1Cent=           0 NGrid=           0
         NMat0=    1 NMatS0=      1 NMatT0=    0 NMatD0=    1 NMtDS0=    0 NMtDT0=    0
 Symmetry not used in FoFCou.
 E= -647.986816508940    
 DIIS: error= 1.98D-02 at cycle   1 NSaved=   1.
 NSaved= 1 IEnMin= 1 EnMin= -647.986816508940     IErMin= 1 ErrMin= 1.98D-02
 ErrMax= 1.98D-02  0.00D+00 EMaxC= 1.00D-01 BMatC= 5.69D-01 BMatP= 5.69D-01
 IDIUse=3 WtCom= 8.02D-01 WtEn= 1.98D-01
 Coeff-Com:  0.100D+01
 Coeff-En:   0.100D+01
 Coeff:      0.100D+01
 Gap=     0.288 Goal=   None    Shift=    0.000
 GapD=    0.288 DampG=1.000 DampE=0.500 DampFc=0.5000 IDamp=-1.
 Damping current iteration by 5.00D-01
 RMSDP=6.27D-03 MaxDP=4.93D-01              OVMax= 1.91D-01

 Cycle   2  Pass 1  IDiag  1:
 RMSU=  3.13D-03    CP:  9.94D-01
 E= -648.168811727098     Delta-E=       -0.181995218158 Rises=F Damp=T
 DIIS: error= 4.90D-03 at cycle   2 NSaved=   2.
 NSaved= 2 IEnMin= 2 EnMin= -648.168811727098     IErMin= 2 ErrMin= 4.90D-03
 ErrMax= 4.90D-03  0.00D+00 EMaxC= 1.00D-01 BMatC= 4.11D-02 BMatP= 5.69D-01
 IDIUse=3 WtCom= 9.51D-01 WtEn= 4.90D-02
 Coeff-Com: -0.803D-02 0.101D+01
 Coeff-En:   0.249D-01 0.975D+00
 Coeff:     -0.641D-02 0.101D+01
 Gap=     0.268 Goal=   None    Shift=    0.000
 RMSDP=2.79D-03 MaxDP=3.55D-01 DE=-1.82D-01 OVMax= 1.16D-01

 Cycle   3  Pass 1  IDiag  1:
 RMSU=  2.28D-03    CP:  8.79D-01  6.85D-01
 E= -648.371281894691     Delta-E=       -0.202470167593 Rises=F Damp=F
 DIIS: error= 2.80D-03 at cycle   3 NSaved=   3.
 NSaved= 3 IEnMin= 3 EnMin= -648.371281894691     IErMin= 3 ErrMin= 2.80D-03
 ErrMax= 2.80D-03  0.00D+00 EMaxC= 1.00D-01 BMatC= 1.21D-02 BMatP= 4.11D-02
 IDIUse=3 WtCom= 9.72D-01 WtEn= 2.80D-02
 Coeff-Com: -0.745D-01 0.325D+00 0.749D+00
 Coeff-En:   0.000D+00 0.000D+00 0.100D+01
 Coeff:     -0.725D-01 0.316D+00 0.756D+00
 Gap=     0.261 Goal=   None    Shift=    0.000
 RMSDP=5.16D-04 MaxDP=5.82D-02 DE=-2.02D-01 OVMax= 2.04D-02

 Cycle   4  Pass 1  IDiag  1:
 RMSU=  4.67D-04    CP:  8.80D-01  7.55D-01  1.00D+00
 E= -648.377965816728     Delta-E=       -0.006683922036 Rises=F Damp=F
 DIIS: error= 1.48D-03 at cycle   4 NSaved=   4.
 NSaved= 4 IEnMin= 4 EnMin= -648.377965816728     IErMin= 4 ErrMin= 1.48D-03
 ErrMax= 1.48D-03  0.00D+00 EMaxC= 1.00D-01 BMatC= 2.45D-03 BMatP= 1.21D-02
 IDIUse=3 WtCom= 9.85D-01 WtEn= 1.48D-02
 Coeff-Com: -0.350D-01 0.919D-01 0.381D+00 0.563D+00
 Coeff-En:   0.000D+00 0.000D+00 0.131D+00 0.869D+00
 Coeff:     -0.345D-01 0.905D-01 0.377D+00 0.567D+00
 Gap=     0.255 Goal=   None    Shift=    0.000
 RMSDP=1.81D-04 MaxDP=1.71D-02 DE=-6.68D-03 OVMax= 1.00D-02

 Cycle   5  Pass 1  IDiag  1:
 RMSU=  1.39D-04    CP:  8.75D-01  7.41D-01  1.01D+00  8.13D-01
 E= -648.379925981613     Delta-E=       -0.001960164886 Rises=F Damp=F
 DIIS: error= 4.74D-04 at cycle   5 NSaved=   5.
 NSaved= 5 IEnMin= 5 EnMin= -648.379925981613     IErMin= 5 ErrMin= 4.74D-04
 ErrMax= 4.74D-04  0.00D+00 EMaxC= 1.00D-01 BMatC= 1.53D-04 BMatP= 2.45D-03
 IDIUse=3 WtCom= 9.95D-01 WtEn= 4.74D-03
 Coeff-Com: -0.121D-01 0.238D-01 0.132D+00 0.273D+00 0.584D+00
 Coeff-En:   0.000D+00 0.000D+00 0.000D+00 0.000D+00 0.100D+01
 Coeff:     -0.120D-01 0.237D-01 0.131D+00 0.272D+00 0.586D+00
 Gap=     0.253 Goal=   None    Shift=    0.000
 RMSDP=6.20D-05 MaxDP=7.73D-03 DE=-1.96D-03 OVMax= 3.87D-03

 Cycle   6  Pass 1  IDiag  1:
 RMSU=  4.53D-05    CP:  8.77D-01  7.43D-01  1.01D+00  8.69D-01  8.25D-01
 E= -648.380034279882     Delta-E=       -0.000108298269 Rises=F Damp=F
 DIIS: error= 1.34D-04 at cycle   6 NSaved=   6.
 NSaved= 6 IEnMin= 6 EnMin= -648.380034279882     IErMin= 6 ErrMin= 1.34D-04
 ErrMax= 1.34D-04  0.00D+00 EMaxC= 1.00D-01 BMatC= 1.52D-05 BMatP= 1.53D-04
 IDIUse=3 WtCom= 9.99D-01 WtEn= 1.34D-03
 Coeff-Com: -0.245D-02 0.285D-02 0.261D-01 0.757D-01 0.285D+00 0.613D+00
 Coeff-En:   0.000D+00 0.000D+00 0.000D+00 0.000D+00 0.000D+00 0.100D+01
 Coeff:     -0.244D-02 0.285D-02 0.260D-01 0.756D-01 0.284D+00 0.614D+00
 Gap=     0.254 Goal=   None    Shift=    0.000
 RMSDP=2.00D-05 MaxDP=1.98D-03 DE=-1.08D-04 OVMax= 9.89D-04

 Cycle   7  Pass 1  IDiag  1:
 RMSU=  1.75D-05    CP:  8.77D-01  7.44D-01  1.01D+00  8.86D-01  8.28D-01
                    CP:  1.07D+00
 E= -648.380046364493     Delta-E=       -0.000012084611 Rises=F Damp=F
 DIIS: error= 2.93D-05 at cycle   7 NSaved=   7.
 NSaved= 7 IEnMin= 7 EnMin= -648.380046364493     IErMin= 7 ErrMin= 2.93D-05
 ErrMax= 2.93D-05  0.00D+00 EMaxC= 1.00D-01 BMatC= 1.32D-06 BMatP= 1.52D-05
 IDIUse=1 WtCom= 1.00D+00 WtEn= 0.00D+00
 Coeff-Com:  0.993D-03-0.265D-02-0.100D-01-0.120D-01 0.233D-01 0.236D+00
 Coeff-Com:  0.764D+00
 Coeff:      0.993D-03-0.265D-02-0.100D-01-0.120D-01 0.233D-01 0.236D+00
 Coeff:      0.764D+00
 Gap=     0.254 Goal=   None    Shift=    0.000
 RMSDP=7.21D-06 MaxDP=3.01D-04 DE=-1.21D-05 OVMax= 4.04D-04

 Cycle   8  Pass 1  IDiag  1:
 RMSU=  5.77D-06    CP:  8.77D-01  7.43D-01  1.01D+00  8.90D-01  8.47D-01
                    CP:  1.12D+00  9.68D-01
 E= -648.380047680231     Delta-E=       -0.000001315738 Rises=F Damp=F
 DIIS: error= 1.29D-05 at cycle   8 NSaved=   8.
 NSaved= 8 IEnMin= 8 EnMin= -648.380047680231     IErMin= 8 ErrMin= 1.29D-05
 ErrMax= 1.29D-05  0.00D+00 EMaxC= 1.00D-01 BMatC= 1.93D-07 BMatP= 1.32D-06
 IDIUse=1 WtCom= 1.00D+00 WtEn= 0.00D+00
 Coeff-Com:  0.690D-03-0.143D-02-0.699D-02-0.136D-01-0.223D-01 0.293D-01
 Coeff-Com:  0.332D+00 0.682D+00
 Coeff:      0.690D-03-0.143D-02-0.699D-02-0.136D-01-0.223D-01 0.293D-01
 Coeff:      0.332D+00 0.682D+00
 Gap=     0.254 Goal=   None    Shift=    0.000
 RMSDP=2.10D-06 MaxDP=1.77D-04 DE=-1.32D-06 OVMax= 1.17D-04

 Cycle   9  Pass 1  IDiag  1:
 RMSU=  1.80D-06    CP:  8.77D-01  7.43D-01  1.01D+00  8.91D-01  8.49D-01
                    CP:  1.12D+00  1.02D+00  1.01D+00
 E= -648.380047853258     Delta-E=       -0.000000173027 Rises=F Damp=F
 DIIS: error= 4.42D-06 at cycle   9 NSaved=   9.
 NSaved= 9 IEnMin= 9 EnMin= -648.380047853258     IErMin= 9 ErrMin= 4.42D-06
 ErrMax= 4.42D-06  0.00D+00 EMaxC= 1.00D-01 BMatC= 1.90D-08 BMatP= 1.93D-07
 IDIUse=1 WtCom= 1.00D+00 WtEn= 0.00D+00
 Coeff-Com:  0.170D-03-0.311D-03-0.173D-02-0.416D-02-0.103D-01-0.101D-01
 Coeff-Com:  0.661D-01 0.279D+00 0.682D+00
 Coeff:      0.170D-03-0.311D-03-0.173D-02-0.416D-02-0.103D-01-0.101D-01
 Coeff:      0.661D-01 0.279D+00 0.682D+00
 Gap=     0.254 Goal=   None    Shift=    0.000
 RMSDP=8.95D-07 MaxDP=1.01D-04 DE=-1.73D-07 OVMax= 4.65D-05

 Cycle  10  Pass 1  IDiag  1:
 RMSU=  6.19D-07    CP:  8.77D-01  7.43D-01  1.01D+00  8.90D-01  8.47D-01
                    CP:  1.12D+00  1.02D+00  1.06D+00  1.21D+00
 E= -648.380047871370     Delta-E=       -0.000000018111 Rises=F Damp=F
 DIIS: error= 1.42D-06 at cycle  10 NSaved=  10.
 NSaved=10 IEnMin=10 EnMin= -648.380047871370     IErMin=10 ErrMin= 1.42D-06
 ErrMax= 1.42D-06  0.00D+00 EMaxC= 1.00D-01 BMatC= 2.57D-09 BMatP= 1.90D-08
 IDIUse=1 WtCom= 1.00D+00 WtEn= 0.00D+00
 Coeff-Com: -0.303D-04 0.734D-04 0.267D-03 0.176D-03-0.874D-03-0.857D-02
 Coeff-Com: -0.210D-01 0.711D-02 0.263D+00 0.760D+00
 Coeff:     -0.303D-04 0.734D-04 0.267D-03 0.176D-03-0.874D-03-0.857D-02
 Coeff:     -0.210D-01 0.711D-02 0.263D+00 0.760D+00
 Gap=     0.254 Goal=   None    Shift=    0.000
 RMSDP=4.87D-07 MaxDP=5.89D-05 DE=-1.81D-08 OVMax= 2.64D-05

 Cycle  11  Pass 1  IDiag  1:
 RMSU=  1.93D-07    CP:  8.77D-01  7.43D-01  1.01D+00  8.89D-01  8.47D-01
                    CP:  1.12D+00  1.02D+00  1.09D+00  1.36D+00  1.10D+00
 E= -648.380047873967     Delta-E=       -0.000000002597 Rises=F Damp=F
 DIIS: error= 1.07D-06 at cycle  11 NSaved=  11.
 NSaved=11 IEnMin=11 EnMin= -648.380047873967     IErMin=11 ErrMin= 1.07D-06
 ErrMax= 1.07D-06  0.00D+00 EMaxC= 1.00D-01 BMatC= 6.75D-10 BMatP= 2.57D-09
 IDIUse=1 WtCom= 1.00D+00 WtEn= 0.00D+00
 Coeff-Com: -0.369D-04 0.771D-04 0.350D-03 0.589D-03 0.828D-03-0.338D-02
 Coeff-Com: -0.194D-01-0.318D-01 0.613D-01 0.414D+00 0.578D+00
 Coeff:     -0.369D-04 0.771D-04 0.350D-03 0.589D-03 0.828D-03-0.338D-02
 Coeff:     -0.194D-01-0.318D-01 0.613D-01 0.414D+00 0.578D+00
 Gap=     0.254 Goal=   None    Shift=    0.000
 RMSDP=1.32D-07 MaxDP=1.08D-05 DE=-2.60D-09 OVMax= 1.01D-05

 Cycle  12  Pass 1  IDiag  1:
 RMSU=  7.44D-08    CP:  8.77D-01  7.43D-01  1.01D+00  8.89D-01  8.47D-01
                    CP:  1.12D+00  1.02D+00  1.09D+00  1.39D+00  1.15D+00
                    CP:  9.39D-01
 E= -648.380047874567     Delta-E=       -0.000000000600 Rises=F Damp=F
 DIIS: error= 2.27D-07 at cycle  12 NSaved=  12.
 NSaved=12 IEnMin=12 EnMin= -648.380047874567     IErMin=12 ErrMin= 2.27D-07
 ErrMax= 2.27D-07  0.00D+00 EMaxC= 1.00D-01 BMatC= 5.08D-11 BMatP= 6.75D-10
 IDIUse=1 WtCom= 1.00D+00 WtEn= 0.00D+00
 Coeff-Com: -0.922D-05 0.186D-04 0.929D-04 0.190D-03 0.429D-03-0.827D-04
 Coeff-Com: -0.413D-02-0.128D-01-0.135D-01 0.328D-01 0.224D+00 0.773D+00
 Coeff:     -0.922D-05 0.186D-04 0.929D-04 0.190D-03 0.429D-03-0.827D-04
 Coeff:     -0.413D-02-0.128D-01-0.135D-01 0.328D-01 0.224D+00 0.773D+00
 Gap=     0.254 Goal=   None    Shift=    0.000
 RMSDP=4.28D-08 MaxDP=2.50D-06 DE=-6.00D-10 OVMax= 4.64D-06

 Cycle  13  Pass 1  IDiag  1:
 RMSU=  2.67D-08    CP:  8.77D-01  7.43D-01  1.01D+00  8.89D-01  8.47D-01
                    CP:  1.12D+00  1.02D+00  1.10D+00  1.40D+00  1.16D+00
                    CP:  1.01D+00  1.01D+00
 E= -648.380047874613     Delta-E=       -0.000000000045 Rises=F Damp=F
 DIIS: error= 6.42D-08 at cycle  13 NSaved=  13.
 NSaved=13 IEnMin=13 EnMin= -648.380047874613     IErMin=13 ErrMin= 6.42D-08
 ErrMax= 6.42D-08  0.00D+00 EMaxC= 1.00D-01 BMatC= 4.71D-12 BMatP= 5.08D-11
 IDIUse=1 WtCom= 1.00D+00 WtEn= 0.00D+00
 Coeff-Com:  0.110D-05-0.229D-05-0.494D-05 0.317D-06 0.539D-04 0.268D-03
 Coeff-Com:  0.638D-03-0.106D-02-0.982D-02-0.345D-01 0.948D-02 0.254D+00
 Coeff-Com:  0.781D+00
 Coeff:      0.110D-05-0.229D-05-0.494D-05 0.317D-06 0.539D-04 0.268D-03
 Coeff:      0.638D-03-0.106D-02-0.982D-02-0.345D-01 0.948D-02 0.254D+00
 Coeff:      0.781D+00
 Gap=     0.254 Goal=   None    Shift=    0.000
 RMSDP=1.46D-08 MaxDP=1.11D-06 DE=-4.55D-11 OVMax= 1.19D-06

 Cycle  14  Pass 1  IDiag  1:
 RMSU=  9.63D-09    CP:  8.77D-01  7.43D-01  1.01D+00  8.89D-01  8.47D-01
                    CP:  1.12D+00  1.02D+00  1.10D+00  1.40D+00  1.17D+00
                    CP:  1.01D+00  1.10D+00  1.24D+00
 E= -648.380047874643     Delta-E=       -0.000000000030 Rises=F Damp=F
 DIIS: error= 1.91D-08 at cycle  14 NSaved=  14.
 NSaved=14 IEnMin=14 EnMin= -648.380047874643     IErMin=14 ErrMin= 1.91D-08
 ErrMax= 1.91D-08  0.00D+00 EMaxC= 1.00D-01 BMatC= 5.45D-13 BMatP= 4.71D-12
 IDIUse=1 WtCom= 1.00D+00 WtEn= 0.00D+00
 Coeff-Com:  0.153D-05-0.308D-05-0.121D-04-0.210D-04-0.254D-04 0.105D-03
 Coeff-Com:  0.753D-03 0.979D-03-0.186D-02-0.168D-01-0.219D-01-0.670D-03
 Coeff-Com:  0.268D+00 0.771D+00
 Coeff:      0.153D-05-0.308D-05-0.121D-04-0.210D-04-0.254D-04 0.105D-03
 Coeff:      0.753D-03 0.979D-03-0.186D-02-0.168D-01-0.219D-01-0.670D-03
 Coeff:      0.268D+00 0.771D+00
 Gap=     0.254 Goal=   None    Shift=    0.000
 RMSDP=6.52D-09 MaxDP=8.17D-07 DE=-3.00D-11 OVMax= 4.10D-07

 SCF Done:  E(RM062X) =  -648.380047875     A.U. after   14 cycles
            NFock= 14  Conv=0.65D-08     -V/T= 2.0046
 KE= 6.454302091639D+02 PE=-3.301495011114D+03 EE= 1.114641351431D+03
 Leave Link  502 at Mon Feb 20 01:31:03 2023, MaxMem=  6710886400 cpu:            1719.9 elap:              71.9
 (Enter /data0/home/software/g16/l601.exe)
 Copying SCF densities to generalized density rwf, IOpCl= 0 IROHF=0.

 **********************************************************************

            Population analysis using the SCF density.

 **********************************************************************

 Alpha  occ. eigenvalues --  -19.58471 -19.52592 -19.52326 -14.86742 -14.86398
 Alpha  occ. eigenvalues --  -10.67279 -10.62390 -10.61920 -10.61235 -10.60469
 Alpha  occ. eigenvalues --  -10.58754 -10.54380 -10.51381  -1.19400  -1.12116
 Alpha  occ. eigenvalues --   -1.09849  -1.08009  -1.02131  -0.91939  -0.88981
 Alpha  occ. eigenvalues --   -0.85072  -0.80035  -0.74321  -0.71805  -0.69399
 Alpha  occ. eigenvalues --   -0.64073  -0.60670  -0.57885  -0.57690  -0.56299
 Alpha  occ. eigenvalues --   -0.55912  -0.54910  -0.54310  -0.52389  -0.52029
 Alpha  occ. eigenvalues --   -0.49370  -0.48813  -0.47641  -0.45999  -0.44878
 Alpha  occ. eigenvalues --   -0.44506  -0.41820  -0.40253  -0.39263  -0.37373
 Alpha  occ. eigenvalues --   -0.36642  -0.32721  -0.28504  -0.27690  -0.27328
 Alpha virt. eigenvalues --   -0.01930  -0.00020   0.00291   0.01476   0.02003
 Alpha virt. eigenvalues --    0.02786   0.03235   0.03655   0.04107   0.05040
 Alpha virt. eigenvalues --    0.05584   0.06567   0.06912   0.07451   0.07544
 Alpha virt. eigenvalues --    0.08842   0.09588   0.09955   0.10398   0.11080
 Alpha virt. eigenvalues --    0.11732   0.12098   0.12629   0.13051   0.13974
 Alpha virt. eigenvalues --    0.14158   0.14654   0.14992   0.15616   0.16323
 Alpha virt. eigenvalues --    0.16627   0.17139   0.17677   0.18311   0.18511
 Alpha virt. eigenvalues --    0.18822   0.19316   0.19605   0.20212   0.20633
 Alpha virt. eigenvalues --    0.20867   0.21588   0.21784   0.22729   0.23605
 Alpha virt. eigenvalues --    0.24535   0.24673   0.25207   0.25678   0.25948
 Alpha virt. eigenvalues --    0.26553   0.27458   0.28090   0.28349   0.29636
 Alpha virt. eigenvalues --    0.30172   0.31268   0.31530   0.31931   0.32235
 Alpha virt. eigenvalues --    0.33287   0.33694   0.34101   0.35426   0.36148
 Alpha virt. eigenvalues --    0.36626   0.37550   0.38241   0.38996   0.39359
 Alpha virt. eigenvalues --    0.39617   0.41137   0.41686   0.42213   0.42441
 Alpha virt. eigenvalues --    0.42976   0.44696   0.45073   0.46959   0.47133
 Alpha virt. eigenvalues --    0.48708   0.50639   0.51354   0.52245   0.53327
 Alpha virt. eigenvalues --    0.53594   0.53797   0.55089   0.56921   0.57482
 Alpha virt. eigenvalues --    0.58530   0.59886   0.60060   0.60716   0.61559
 Alpha virt. eigenvalues --    0.62151   0.63077   0.63989   0.64726   0.65306
 Alpha virt. eigenvalues --    0.65771   0.66453   0.67077   0.67590   0.68364
 Alpha virt. eigenvalues --    0.69256   0.69778   0.70699   0.71161   0.71628
 Alpha virt. eigenvalues --    0.73183   0.73834   0.74559   0.75310   0.76299
 Alpha virt. eigenvalues --    0.76652   0.78370   0.78567   0.80767   0.81009
 Alpha virt. eigenvalues --    0.81684   0.83252   0.83440   0.84973   0.86510
 Alpha virt. eigenvalues --    0.87697   0.88972   0.89844   0.92054   0.92618
 Alpha virt. eigenvalues --    0.93612   0.95089   0.96664   0.98484   0.99540
 Alpha virt. eigenvalues --    1.01054   1.02493   1.04024   1.05819   1.06571
 Alpha virt. eigenvalues --    1.09208   1.10316   1.11218   1.12261   1.15756
 Alpha virt. eigenvalues --    1.16020   1.17601   1.17753   1.18300   1.20482
 Alpha virt. eigenvalues --    1.21274   1.21905   1.22800   1.23709   1.23745
 Alpha virt. eigenvalues --    1.24738   1.25759   1.26651   1.27363   1.28129
 Alpha virt. eigenvalues --    1.29177   1.31013   1.31517   1.31961   1.32638
 Alpha virt. eigenvalues --    1.35101   1.35979   1.37059   1.38296   1.39251
 Alpha virt. eigenvalues --    1.39719   1.41714   1.43156   1.43278   1.43858
 Alpha virt. eigenvalues --    1.44469   1.46132   1.48003   1.48406   1.48583
 Alpha virt. eigenvalues --    1.49708   1.51805   1.52093   1.53193   1.54888
 Alpha virt. eigenvalues --    1.55615   1.56160   1.57956   1.63570   1.64497
 Alpha virt. eigenvalues --    1.64910   1.68016   1.70508   1.72182   1.75582
 Alpha virt. eigenvalues --    1.77108   1.78474   1.80207   1.80395   1.82370
 Alpha virt. eigenvalues --    1.83145   1.84037   1.85277   1.86570   1.87141
 Alpha virt. eigenvalues --    1.89513   1.90056   1.91448   1.92886   1.93322
 Alpha virt. eigenvalues --    1.94172   1.95195   1.98685   1.99920   2.02782
 Alpha virt. eigenvalues --    2.03099   2.05196   2.06648   2.09817   2.11005
 Alpha virt. eigenvalues --    2.14320   2.14746   2.16075   2.20234   2.20746
 Alpha virt. eigenvalues --    2.21983   2.23678   2.26461   2.27034   2.29671
 Alpha virt. eigenvalues --    2.31770   2.32772   2.33129   2.33901   2.35597
 Alpha virt. eigenvalues --    2.35970   2.37198   2.40067   2.41333   2.42801
 Alpha virt. eigenvalues --    2.44623   2.47976   2.49087   2.51941   2.53159
 Alpha virt. eigenvalues --    2.56469   2.60278   2.63169   2.65646   2.69012
 Alpha virt. eigenvalues --    2.69747   2.73095   2.74952   2.79994   2.81872
 Alpha virt. eigenvalues --    2.82492   2.83584   2.83978   2.86690   2.88124
 Alpha virt. eigenvalues --    2.90033   2.90962   2.93165   2.94888   2.96451
 Alpha virt. eigenvalues --    2.98494   3.01275   3.04805   3.05416   3.06599
 Alpha virt. eigenvalues --    3.10548   3.12200   3.13039   3.19237   3.19606
 Alpha virt. eigenvalues --    3.22834   3.24374   3.26858   3.27736   3.29019
 Alpha virt. eigenvalues --    3.31107   3.35908   3.36967   3.38092   3.38137
 Alpha virt. eigenvalues --    3.41186   3.42909   3.45633   3.46587   3.47674
 Alpha virt. eigenvalues --    3.48124   3.48626   3.50877   3.50968   3.53356
 Alpha virt. eigenvalues --    3.56132   3.56942   3.58998   3.60144   3.61595
 Alpha virt. eigenvalues --    3.63341   3.63892   3.64887   3.65925   3.66687
 Alpha virt. eigenvalues --    3.66989   3.69091   3.70455   3.72669   3.74796
 Alpha virt. eigenvalues --    3.77124   3.78428   3.80217   3.80908   3.86860
 Alpha virt. eigenvalues --    3.87902   3.89251   3.93227   3.96890   3.98323
 Alpha virt. eigenvalues --    4.02395   4.02813   4.04991   4.08008   4.13085
 Alpha virt. eigenvalues --    4.15987   4.19361   4.22547   4.27659   4.29734
 Alpha virt. eigenvalues --    4.38165   4.44040   4.53312   4.55779   4.97368
 Alpha virt. eigenvalues --    5.02808   5.03287   5.05349   5.07808   5.14062
 Alpha virt. eigenvalues --    5.16062   5.20981   5.22645   5.31859   5.36350
 Alpha virt. eigenvalues --    5.38653   5.43722   5.45487   5.46257   5.52639
 Alpha virt. eigenvalues --    5.56917   5.61740   5.70942   5.82590   6.02704
 Alpha virt. eigenvalues --    6.03914   6.28192   6.83871   6.90341   6.91824
 Alpha virt. eigenvalues --    6.94971   6.97369   6.98559   7.03648   7.05077
 Alpha virt. eigenvalues --    7.15328   7.19044   7.21352   7.27002   7.32928
 Alpha virt. eigenvalues --    7.37949   7.43949  23.92158  23.97948  24.02567
 Alpha virt. eigenvalues --   24.04049  24.09832  24.12831  24.17406  24.29739
 Alpha virt. eigenvalues --   35.61302  35.70082  50.10557  50.23299  50.25402
          Condensed to atoms (all electrons):
               1          2          3          4          5          6
     1  C    6.069393  -0.212824  -0.203672   0.332097   0.379211  -0.033693
     2  C   -0.212824   6.173221  -0.375840  -0.058602   0.010236   0.409840
     3  C   -0.203672  -0.375840   6.161816   0.357796   0.010193   0.013063
     4  N    0.332097  -0.058602   0.357796   6.219425  -0.038556   0.011028
     5  H    0.379211   0.010236   0.010193  -0.038556   0.475154  -0.001390
     6  H   -0.033693   0.409840   0.013063   0.011028  -0.001390   0.475772
     7  H    0.012636   0.011805   0.371571  -0.047414   0.000017  -0.000024
     8  C   -0.097543   0.023433  -0.095489   0.166011  -0.004555  -0.000121
     9  H    0.011457   0.001180  -0.016560  -0.059865   0.000232   0.000006
    10  H   -0.025688   0.006845  -0.023983  -0.000070   0.000154   0.000008
    11  H   -0.006439   0.012655   0.029324  -0.066348   0.002122  -0.000041
    12  N   -0.022713   0.206753   0.281168  -0.101322   0.008139  -0.039706
    13  C   -0.060179  -0.134904  -0.038380  -0.012665   0.000713   0.000033
    14  H    0.006102  -0.011805  -0.004998  -0.002894  -0.000006   0.000025
    15  H   -0.005646   0.004875   0.008927   0.001770   0.000011   0.000013
    16  C   -0.006307   0.185357  -0.181710   0.001210   0.001279   0.010677
    17  H    0.000031  -0.001659   0.001547  -0.000843  -0.000000  -0.000135
    18  H   -0.002330  -0.001733   0.009917   0.001914  -0.000005  -0.000816
    19  C    0.137917  -0.329860   0.226840  -0.028043  -0.003687  -0.007789
    20  H   -0.000238  -0.004164  -0.009677  -0.007397  -0.000030  -0.000877
    21  H   -0.001105   0.004059   0.009177   0.001016   0.000004   0.000033
    22  C   -0.097344   0.184042  -0.201858   0.042898   0.001938  -0.000572
    23  O   -0.010224   0.022797  -0.030191  -0.000483   0.000046  -0.000188
    24  O    0.020970  -0.019001  -0.001675   0.017369  -0.000167   0.000139
    25  O   -0.012750  -0.005512  -0.060546  -0.002027  -0.012108  -0.000551
    26  H    0.015105  -0.027351   0.013033   0.001633  -0.000448   0.000130
    27  H    0.027363  -0.013618   0.003374  -0.008993  -0.000443   0.000022
               7          8          9         10         11         12
     1  C    0.012636  -0.097543   0.011457  -0.025688  -0.006439  -0.022713
     2  C    0.011805   0.023433   0.001180   0.006845   0.012655   0.206753
     3  C    0.371571  -0.095489  -0.016560  -0.023983   0.029324   0.281168
     4  N   -0.047414   0.166011  -0.059865  -0.000070  -0.066348  -0.101322
     5  H    0.000017  -0.004555   0.000232   0.000154   0.002122   0.008139
     6  H   -0.000024  -0.000121   0.000006   0.000008  -0.000041  -0.039706
     7  H    0.416485   0.003143   0.002481   0.000561  -0.000187  -0.012251
     8  C    0.003143   5.222929   0.412261   0.428541   0.405806  -0.011955
     9  H    0.002481   0.412261   0.503546  -0.028855  -0.012835   0.003030
    10  H    0.000561   0.428541  -0.028855   0.428333  -0.022404   0.002584
    11  H   -0.000187   0.405806  -0.012835  -0.022404   0.492801  -0.004945
    12  N   -0.012251  -0.011955   0.003030   0.002584  -0.004945   6.423465
    13  C   -0.011344  -0.002579   0.001979  -0.001828   0.000073   0.105371
    14  H    0.000565  -0.000395  -0.000007   0.000003  -0.000001  -0.040788
    15  H    0.002140   0.000756  -0.000013   0.000009  -0.000000  -0.074467
    16  C    0.015615   0.004915  -0.000195   0.001076   0.000110   0.041480
    17  H   -0.000109  -0.000074  -0.000000   0.000000  -0.000000   0.007296
    18  H   -0.000128   0.000115  -0.000001   0.000000  -0.000000  -0.006004
    19  C   -0.007115  -0.001088   0.000265  -0.003376  -0.000443  -0.011968
    20  H   -0.000202  -0.001867  -0.000002   0.000001  -0.000004   0.025193
    21  H   -0.000012   0.000408  -0.000000   0.000003   0.000000  -0.004310
    22  C   -0.003848  -0.013731   0.001304   0.003800  -0.000749  -0.037521
    23  O    0.002661   0.001782   0.000067   0.000197   0.000006  -0.009647
    24  O   -0.003784   0.005091  -0.000043   0.002061  -0.000315   0.012112
    25  O    0.001085  -0.005028   0.002462  -0.004737  -0.003103   0.009511
    26  H    0.000236   0.001751  -0.000440   0.001469  -0.000152   0.005651
    27  H   -0.000004  -0.000732   0.000006   0.000116  -0.000171   0.000074
              13         14         15         16         17         18
     1  C   -0.060179   0.006102  -0.005646  -0.006307   0.000031  -0.002330
     2  C   -0.134904  -0.011805   0.004875   0.185357  -0.001659  -0.001733
     3  C   -0.038380  -0.004998   0.008927  -0.181710   0.001547   0.009917
     4  N   -0.012665  -0.002894   0.001770   0.001210  -0.000843   0.001914
     5  H    0.000713  -0.000006   0.000011   0.001279  -0.000000  -0.000005
     6  H    0.000033   0.000025   0.000013   0.010677  -0.000135  -0.000816
     7  H   -0.011344   0.000565   0.002140   0.015615  -0.000109  -0.000128
     8  C   -0.002579  -0.000395   0.000756   0.004915  -0.000074   0.000115
     9  H    0.001979  -0.000007  -0.000013  -0.000195  -0.000000  -0.000001
    10  H   -0.001828   0.000003   0.000009   0.001076   0.000000   0.000000
    11  H    0.000073  -0.000001  -0.000000   0.000110  -0.000000  -0.000000
    12  N    0.105371  -0.040788  -0.074467   0.041480   0.007296  -0.006004
    13  C    6.039968   0.419866   0.481603  -0.378378  -0.055412  -0.030066
    14  H    0.419866   0.517867  -0.021899  -0.035781   0.001035  -0.010927
    15  H    0.481603  -0.021899   0.443007  -0.049079  -0.008805   0.004366
    16  C   -0.378378  -0.035781  -0.049079   6.168702   0.434858   0.446642
    17  H   -0.055412   0.001035  -0.008805   0.434858   0.496424  -0.031106
    18  H   -0.030066  -0.010927   0.004366   0.446642  -0.031106   0.534902
    19  C    0.283306  -0.005812   0.007381  -0.483520  -0.045739  -0.064547
    20  H    0.009905  -0.000162  -0.000621  -0.111310   0.005850  -0.007203
    21  H    0.001595   0.000005  -0.000095   0.021329  -0.007816  -0.002871
    22  C   -0.113074   0.006553  -0.010318   0.152086   0.025370   0.000810
    23  O   -0.053422   0.003503  -0.002006   0.052550  -0.010596   0.000708
    24  O   -0.001541   0.000007  -0.000444   0.029266  -0.000565  -0.002130
    25  O    0.000170   0.000150   0.000002   0.001154  -0.000038  -0.000032
    26  H    0.000152  -0.000048  -0.000001  -0.006939  -0.000026  -0.000006
    27  H   -0.000571  -0.000001  -0.000002   0.001495  -0.000001  -0.000016
              19         20         21         22         23         24
     1  C    0.137917  -0.000238  -0.001105  -0.097344  -0.010224   0.020970
     2  C   -0.329860  -0.004164   0.004059   0.184042   0.022797  -0.019001
     3  C    0.226840  -0.009677   0.009177  -0.201858  -0.030191  -0.001675
     4  N   -0.028043  -0.007397   0.001016   0.042898  -0.000483   0.017369
     5  H   -0.003687  -0.000030   0.000004   0.001938   0.000046  -0.000167
     6  H   -0.007789  -0.000877   0.000033  -0.000572  -0.000188   0.000139
     7  H   -0.007115  -0.000202  -0.000012  -0.003848   0.002661  -0.003784
     8  C   -0.001088  -0.001867   0.000408  -0.013731   0.001782   0.005091
     9  H    0.000265  -0.000002  -0.000000   0.001304   0.000067  -0.000043
    10  H   -0.003376   0.000001   0.000003   0.003800   0.000197   0.002061
    11  H   -0.000443  -0.000004   0.000000  -0.000749   0.000006  -0.000315
    12  N   -0.011968   0.025193  -0.004310  -0.037521  -0.009647   0.012112
    13  C    0.283306   0.009905   0.001595  -0.113074  -0.053422  -0.001541
    14  H   -0.005812  -0.000162   0.000005   0.006553   0.003503   0.000007
    15  H    0.007381  -0.000621  -0.000095  -0.010318  -0.002006  -0.000444
    16  C   -0.483520  -0.111310   0.021329   0.152086   0.052550   0.029266
    17  H   -0.045739   0.005850  -0.007816   0.025370  -0.010596  -0.000565
    18  H   -0.064547  -0.007203  -0.002871   0.000810   0.000708  -0.002130
    19  C    6.296915   0.483235   0.401011  -0.394591  -0.153247  -0.096877
    20  H    0.483235   0.499558  -0.028679  -0.009750   0.003291  -0.019788
    21  H    0.401011  -0.028679   0.515955  -0.085678   0.000281   0.004582
    22  C   -0.394591  -0.009750  -0.085678   5.448505   0.450446   0.378951
    23  O   -0.153247   0.003291   0.000281   0.450446   8.382701  -0.090171
    24  O   -0.096877  -0.019788   0.004582   0.378951  -0.090171   8.307707
    25  O   -0.046929  -0.000378   0.000355   0.055269   0.002999  -0.088480
    26  H    0.044589  -0.003571   0.000051  -0.044138  -0.004098   0.108279
    27  H    0.009187   0.000123  -0.000064  -0.012497  -0.000082   0.006333
              25         26         27
     1  C   -0.012750   0.015105   0.027363
     2  C   -0.005512  -0.027351  -0.013618
     3  C   -0.060546   0.013033   0.003374
     4  N   -0.002027   0.001633  -0.008993
     5  H   -0.012108  -0.000448  -0.000443
     6  H   -0.000551   0.000130   0.000022
     7  H    0.001085   0.000236  -0.000004
     8  C   -0.005028   0.001751  -0.000732
     9  H    0.002462  -0.000440   0.000006
    10  H   -0.004737   0.001469   0.000116
    11  H   -0.003103  -0.000152  -0.000171
    12  N    0.009511   0.005651   0.000074
    13  C    0.000170   0.000152  -0.000571
    14  H    0.000150  -0.000048  -0.000001
    15  H    0.000002  -0.000001  -0.000002
    16  C    0.001154  -0.006939   0.001495
    17  H   -0.000038  -0.000026  -0.000001
    18  H   -0.000032  -0.000006  -0.000016
    19  C   -0.046929   0.044589   0.009187
    20  H   -0.000378  -0.003571   0.000123
    21  H    0.000355   0.000051  -0.000064
    22  C    0.055269  -0.044138  -0.012497
    23  O    0.002999  -0.004098  -0.000082
    24  O   -0.088480   0.108279   0.006333
    25  O    8.347392   0.230794   0.254060
    26  H    0.230794   0.317917  -0.011676
    27  H    0.254060  -0.011676   0.443567
 Mulliken charges:
               1
     1  C   -0.213587
     2  C   -0.060225
     3  C   -0.253164
     4  N    0.281355
     5  H    0.171944
     6  H    0.165114
     7  H    0.245422
     8  C   -0.441783
     9  H    0.178542
    10  H    0.235180
    11  H    0.175241
    12  N    0.245772
    13  C   -0.450392
    14  H    0.179845
    15  H    0.218537
    16  C   -0.316581
    17  H    0.190513
    18  H    0.160545
    19  C   -0.206014
    20  H    0.178762
    21  H    0.170767
    22  C    0.273698
    23  O   -0.559681
    24  O   -0.567884
    25  O   -0.663183
    26  H    0.358106
    27  H    0.303151
 Sum of Mulliken charges =  -0.00000
 Mulliken charges with hydrogens summed into heavy atoms:
               1
     1  C   -0.041643
     2  C    0.104889
     3  C   -0.007742
     4  N    0.281355
     8  C    0.147180
    12  N    0.245772
    13  C   -0.052010
    16  C    0.034477
    19  C    0.143515
    22  C    0.273698
    23  O   -0.559681
    24  O   -0.567884
    25  O   -0.001925
         Mulliken charges condensed to fragments:
      1      0.001925
      2     -0.001925
 Electronic spatial extent (au):  <R**2>=         103527.7306
 Charge=              0.0000 electrons
 Dipole moment (field-independent basis, Debye):
    X=              3.1817    Y=             -7.0673    Z=             -3.9030  Tot=              8.6778
 Quadrupole moment (field-independent basis, Debye-Ang):
   XX=             -7.3612   YY=           -221.6824   ZZ=           -149.3742
   XY=            -40.5253   XZ=             -1.7683   YZ=           -116.0671
 Traceless Quadrupole moment (field-independent basis, Debye-Ang):
   XX=            118.7781   YY=            -95.5431   ZZ=            -23.2350
   XY=            -40.5253   XZ=             -1.7683   YZ=           -116.0671
 Octapole moment (field-independent basis, Debye-Ang**2):
  XXX=          -1145.2695  YYY=          -4494.3553  ZZZ=          -3240.5013  XYY=          -1921.1744
  XXY=           -785.1242  XXZ=           -314.2239  XZZ=          -1058.9498  YZZ=          -2312.4169
  YYZ=          -2705.8248  XYZ=           -809.8950
 Hexadecapole moment (field-independent basis, Debye-Ang**3):
 XXXX=         -29352.9194 YYYY=         -76224.0231 ZZZZ=         -56579.9888 XXXY=         -17989.6314
 XXXZ=         -12555.7407 YYYX=         -41776.5565 YYYZ=         -49823.5697 ZZZX=         -27412.2019
 ZZZY=         -40849.8859 XXYY=         -23088.3972 XXZZ=         -12798.1071 YYZZ=         -39121.0975
 XXYZ=         -10999.7093 YYXZ=         -23663.7121 ZZXY=         -18967.0275
 N-N= 8.930434026444D+02 E-N=-3.301495014895D+03  KE= 6.454302091639D+02
 No NMR shielding tensors so no spin-rotation constants.
 Leave Link  601 at Mon Feb 20 01:31:03 2023, MaxMem=  6710886400 cpu:               3.1 elap:               0.2
 (Enter /data0/home/software/g16/l122.exe)
 CPIOFr:  IOpCl= 0 IRwI=-1 IRwCP=  731 ICalc= -1 LCPTot=      292274 Len1MO=      765957 IndFrg=      292274
 CPIOFr:  IOpCl= 0 IRwI=-1 IRwCP=  731 ICalc=  0 LCPTot=      292274 Len1MO=      765957 IndFrg=     1058231
 Counterpoise: doing calculation for fragment   1 using the basis set of the full-system, NewBq=T
 Leave Link  122 at Mon Feb 20 01:31:03 2023, MaxMem=  6710886400 cpu:               0.3 elap:               0.0
 (Enter /data0/home/software/g16/l301.exe)
 Basis read from rwf:  (5D, 7F)
 No pseudopotential information found on rwf file.
   435 basis functions,   658 primitive gaussians,   461 cartesian basis functions
    45 alpha electrons       45 beta electrons
       nuclear repulsion energy       745.3039137808 Hartrees.
 IExCor= 4336 DFT=T Ex+Corr=M062X ExCW=0 ScaHFX=  0.540000
 ScaDFX=  1.000000  1.000000  1.000000  1.000000 ScalE2=  1.000000  1.000000
 IRadAn=      5 IRanWt=     -1 IRanGd=            0 ICorTp=0 IEmpDi=131
 NAtoms=   27 NActive=   27 NUniq=   27 SFac= 1.00D+00 NAtFMM=   60 NAOKFM=F Big=F
 Integral buffers will be    131072 words long.
 Raffenetti 2 integral format.
 Two-electron integral symmetry is turned off.
 R6Disp:  Grimme-D3 Dispersion energy=       -0.0009937145 Hartrees.
 Nuclear repulsion after empirical dispersion term =      745.3029200663 Hartrees.
 No density basis found on file   718.
 Leave Link  301 at Mon Feb 20 01:31:03 2023, MaxMem=  6710886400 cpu:               1.3 elap:               0.1
 (Enter /data0/home/software/g16/l302.exe)
 NPDir=0 NMtPBC=     1 NCelOv=     1 NCel=       1 NClECP=     1 NCelD=      1
         NCelK=      1 NCelE2=     1 NClLst=     1 CellRange=     0.0.
 One-electron integrals computed using PRISM.
 NBasis=   435 RedAO= T EigKep=  1.12D-05  NBF=   435
 NBsUse=   435 1.00D-06 EigRej= -1.00D+00 NBFU=   435
 Precomputing XC quadrature grid using
 IXCGrd= 4 IRadAn=           5 IRanWt=          -1 IRanGd=           0 AccXCQ= 0.00D+00.
 Generated NRdTot=       0 NPtTot=           0 NUsed=           0 NTot=          32
 NSgBfM=   461   461   461   461   461 MxSgAt=    27 MxSgA2=    27.
 Leave Link  302 at Mon Feb 20 01:31:04 2023, MaxMem=  6710886400 cpu:               9.2 elap:               0.4
 (Enter /data0/home/software/g16/l303.exe)
 DipDrv:  MaxL=1.
 Leave Link  303 at Mon Feb 20 01:31:04 2023, MaxMem=  6710886400 cpu:               1.0 elap:               0.1
 (Enter /data0/home/software/g16/l401.exe)
 ExpMin= 4.38D-02 ExpMax= 8.59D+03 ExpMxC= 1.30D+03 IAcc=3 IRadAn=         5 AccDes= 0.00D+00
 Harris functional with IExCor= 1009 and IRadAn=       5 diagonalized for initial guess.
 HarFok:  IExCor= 1009 AccDes= 0.00D+00 IRadAn=         5 IDoV= 1 UseB2=F ITyADJ=14
 ICtDFT=  3500011 ScaDFX=  1.000000  1.000000  1.000000  1.000000
 FoFCou: FMM=F IPFlag=           0 FMFlag=      100000 FMFlg1=           0
         NFxFlg=           0 DoJE=T BraDBF=F KetDBF=T FulRan=T
         wScrn=  0.000000 ICntrl=       500 IOpCl=  0 I1Cent=   200000004 NGrid=           0
         NMat0=    1 NMatS0=      1 NMatT0=    0 NMatD0=    1 NMtDS0=    0 NMtDT0=    0
 Symmetry not used in FoFCou.
 Harris En= -571.690683804358    
 JPrj=0 DoOrth=F DoCkMO=F.
 Leave Link  401 at Mon Feb 20 01:31:06 2023, MaxMem=  6710886400 cpu:              39.4 elap:               1.7
 (Enter /data0/home/software/g16/l502.exe)
 Two-electron integral symmetry not used.
 Closed shell SCF:
 Using DIIS extrapolation, IDIIS=  1040.
 NGot=  6710886400 LenX=  6710446980 LenY=  6710233998
 Requested convergence on RMS density matrix=1.00D-08 within 128 cycles.
 Requested convergence on MAX density matrix=1.00D-06.
 Requested convergence on             energy=1.00D-06.
 No special actions if energy rises.
 Fock matrices will be formed incrementally for  20 cycles.

 Cycle   1  Pass 1  IDiag  1:
 FoFJK:  IHMeth= 1 ICntrl=       0 DoSepK=F KAlg= 0 I1Cent=           0 FoldK=F
 IRaf= 930000000 NMat=       1 IRICut=       1 DoRegI=T DoRafI=F ISym2E= 0 IDoP0=0 IntGTp=1.
 FoFCou: FMM=F IPFlag=           0 FMFlag=      100000 FMFlg1=           0
         NFxFlg=           0 DoJE=F BraDBF=F KetDBF=F FulRan=T
         wScrn=  0.000000 ICntrl=         0 IOpCl=  0 I1Cent=           0 NGrid=           0
         NMat0=    1 NMatS0=      1 NMatT0=    0 NMatD0=    1 NMtDS0=    0 NMtDT0=    0
 Symmetry not used in FoFCou.
 E= -571.590052677815    
 DIIS: error= 1.77D-02 at cycle   1 NSaved=   1.
 NSaved= 1 IEnMin= 1 EnMin= -571.590052677815     IErMin= 1 ErrMin= 1.77D-02
 ErrMax= 1.77D-02  0.00D+00 EMaxC= 1.00D-01 BMatC= 4.66D-01 BMatP= 4.66D-01
 IDIUse=3 WtCom= 8.23D-01 WtEn= 1.77D-01
 Coeff-Com:  0.100D+01
 Coeff-En:   0.100D+01
 Coeff:      0.100D+01
 Gap=     0.306 Goal=   None    Shift=    0.000
 GapD=    0.306 DampG=1.000 DampE=0.500 DampFc=0.5000 IDamp=-1.
 Damping current iteration by 5.00D-01
 RMSDP=6.62D-03 MaxDP=3.61D-01              OVMax= 2.40D-01

 Cycle   2  Pass 1  IDiag  1:
 RMSU=  3.30D-03    CP:  9.77D-01
 E= -571.739877708182     Delta-E=       -0.149825030368 Rises=F Damp=T
 DIIS: error= 4.65D-03 at cycle   2 NSaved=   2.
 NSaved= 2 IEnMin= 2 EnMin= -571.739877708182     IErMin= 2 ErrMin= 4.65D-03
 ErrMax= 4.65D-03  0.00D+00 EMaxC= 1.00D-01 BMatC= 3.90D-02 BMatP= 4.66D-01
 IDIUse=3 WtCom= 9.53D-01 WtEn= 4.65D-02
 Coeff-Com: -0.340D-02 0.100D+01
 Coeff-En:   0.487D-01 0.951D+00
 Coeff:     -0.974D-03 0.100D+01
 Gap=     0.243 Goal=   None    Shift=    0.000
 RMSDP=3.25D-03 MaxDP=3.51D-01 DE=-1.50D-01 OVMax= 1.72D-01

 Cycle   3  Pass 1  IDiag  1:
 RMSU=  2.51D-03    CP:  8.65D-01  4.80D-01
 E= -571.916521333351     Delta-E=       -0.176643625169 Rises=F Damp=F
 DIIS: error= 3.51D-03 at cycle   3 NSaved=   3.
 NSaved= 3 IEnMin= 3 EnMin= -571.916521333351     IErMin= 3 ErrMin= 3.51D-03
 ErrMax= 3.51D-03  0.00D+00 EMaxC= 1.00D-01 BMatC= 1.57D-02 BMatP= 3.90D-02
 IDIUse=3 WtCom= 9.65D-01 WtEn= 3.51D-02
 Coeff-Com: -0.873D-01 0.380D+00 0.707D+00
 Coeff-En:   0.000D+00 0.000D+00 0.100D+01
 Coeff:     -0.842D-01 0.367D+00 0.718D+00
 Gap=     0.228 Goal=   None    Shift=    0.000
 RMSDP=5.52D-04 MaxDP=4.54D-02 DE=-1.77D-01 OVMax= 2.68D-02

 Cycle   4  Pass 1  IDiag  1:
 RMSU=  5.27D-04    CP:  8.66D-01  5.15D-01  1.05D+00
 E= -571.925828982665     Delta-E=       -0.009307649314 Rises=F Damp=F
 DIIS: error= 1.58D-03 at cycle   4 NSaved=   4.
 NSaved= 4 IEnMin= 4 EnMin= -571.925828982665     IErMin= 4 ErrMin= 1.58D-03
 ErrMax= 1.58D-03  0.00D+00 EMaxC= 1.00D-01 BMatC= 2.33D-03 BMatP= 1.57D-02
 IDIUse=3 WtCom= 9.84D-01 WtEn= 1.58D-02
 Coeff-Com: -0.421D-01 0.106D+00 0.346D+00 0.591D+00
 Coeff-En:   0.000D+00 0.000D+00 0.527D-01 0.947D+00
 Coeff:     -0.414D-01 0.104D+00 0.341D+00 0.596D+00
 Gap=     0.221 Goal=   None    Shift=    0.000
 RMSDP=1.82D-04 MaxDP=1.06D-02 DE=-9.31D-03 OVMax= 9.00D-03

 Cycle   5  Pass 1  IDiag  1:
 RMSU=  1.62D-04    CP:  8.63D-01  5.07D-01  1.05D+00  8.70D-01
 E= -571.927764585427     Delta-E=       -0.001935602762 Rises=F Damp=F
 DIIS: error= 3.62D-04 at cycle   5 NSaved=   5.
 NSaved= 5 IEnMin= 5 EnMin= -571.927764585427     IErMin= 5 ErrMin= 3.62D-04
 ErrMax= 3.62D-04  0.00D+00 EMaxC= 1.00D-01 BMatC= 1.46D-04 BMatP= 2.33D-03
 IDIUse=3 WtCom= 9.96D-01 WtEn= 3.62D-03
 Coeff-Com: -0.143D-01 0.266D-01 0.104D+00 0.267D+00 0.616D+00
 Coeff-En:   0.000D+00 0.000D+00 0.000D+00 0.000D+00 0.100D+01
 Coeff:     -0.143D-01 0.265D-01 0.104D+00 0.266D+00 0.618D+00
 Gap=     0.221 Goal=   None    Shift=    0.000
 RMSDP=5.98D-05 MaxDP=4.79D-03 DE=-1.94D-03 OVMax= 4.45D-03

 Cycle   6  Pass 1  IDiag  1:
 RMSU=  4.80D-05    CP:  8.64D-01  5.03D-01  1.05D+00  9.26D-01  9.66D-01
 E= -571.927873812375     Delta-E=       -0.000109226947 Rises=F Damp=F
 DIIS: error= 1.81D-04 at cycle   6 NSaved=   6.
 NSaved= 6 IEnMin= 6 EnMin= -571.927873812375     IErMin= 6 ErrMin= 1.81D-04
 ErrMax= 1.81D-04  0.00D+00 EMaxC= 1.00D-01 BMatC= 2.36D-05 BMatP= 1.46D-04
 IDIUse=3 WtCom= 9.98D-01 WtEn= 1.81D-03
 Coeff-Com: -0.295D-02 0.292D-02 0.154D-01 0.726D-01 0.325D+00 0.587D+00
 Coeff-En:   0.000D+00 0.000D+00 0.000D+00 0.000D+00 0.000D+00 0.100D+01
 Coeff:     -0.295D-02 0.292D-02 0.154D-01 0.725D-01 0.324D+00 0.588D+00
 Gap=     0.222 Goal=   None    Shift=    0.000
 RMSDP=2.85D-05 MaxDP=3.44D-03 DE=-1.09D-04 OVMax= 1.83D-03

 Cycle   7  Pass 1  IDiag  1:
 RMSU=  2.13D-05    CP:  8.65D-01  5.02D-01  1.05D+00  9.51D-01  1.02D+00
                    CP:  1.11D+00
 E= -571.927893465931     Delta-E=       -0.000019653557 Rises=F Damp=F
 DIIS: error= 5.69D-05 at cycle   7 NSaved=   7.
 NSaved= 7 IEnMin= 7 EnMin= -571.927893465931     IErMin= 7 ErrMin= 5.69D-05
 ErrMax= 5.69D-05  0.00D+00 EMaxC= 1.00D-01 BMatC= 2.60D-06 BMatP= 2.36D-05
 IDIUse=1 WtCom= 1.00D+00 WtEn= 0.00D+00
 Coeff-Com:  0.197D-02-0.474D-02-0.164D-01-0.266D-01 0.108D-01 0.256D+00
 Coeff-Com:  0.779D+00
 Coeff:      0.197D-02-0.474D-02-0.164D-01-0.266D-01 0.108D-01 0.256D+00
 Coeff:      0.779D+00
 Gap=     0.222 Goal=   None    Shift=    0.000
 RMSDP=1.25D-05 MaxDP=7.15D-04 DE=-1.97D-05 OVMax= 1.04D-03

 Cycle   8  Pass 1  IDiag  1:
 RMSU=  8.51D-06    CP:  8.65D-01  5.01D-01  1.05D+00  9.55D-01  1.06D+00
                    CP:  1.22D+00  1.03D+00
 E= -571.927896624612     Delta-E=       -0.000003158681 Rises=F Damp=F
 DIIS: error= 1.01D-05 at cycle   8 NSaved=   8.
 NSaved= 8 IEnMin= 8 EnMin= -571.927896624612     IErMin= 8 ErrMin= 1.01D-05
 ErrMax= 1.01D-05  0.00D+00 EMaxC= 1.00D-01 BMatC= 1.47D-07 BMatP= 2.60D-06
 IDIUse=1 WtCom= 1.00D+00 WtEn= 0.00D+00
 Coeff-Com:  0.775D-03-0.151D-02-0.546D-02-0.135D-01-0.247D-01 0.256D-01
 Coeff-Com:  0.242D+00 0.777D+00
 Coeff:      0.775D-03-0.151D-02-0.546D-02-0.135D-01-0.247D-01 0.256D-01
 Coeff:      0.242D+00 0.777D+00
 Gap=     0.222 Goal=   None    Shift=    0.000
 RMSDP=4.00D-06 MaxDP=4.04D-04 DE=-3.16D-06 OVMax= 3.86D-04

 Cycle   9  Pass 1  IDiag  1:
 RMSU=  2.70D-06    CP:  8.65D-01  5.01D-01  1.05D+00  9.54D-01  1.06D+00
                    CP:  1.23D+00  1.08D+00  1.27D+00
 E= -571.927896878575     Delta-E=       -0.000000253963 Rises=F Damp=F
 DIIS: error= 4.19D-06 at cycle   9 NSaved=   9.
 NSaved= 9 IEnMin= 9 EnMin= -571.927896878575     IErMin= 9 ErrMin= 4.19D-06
 ErrMax= 4.19D-06  0.00D+00 EMaxC= 1.00D-01 BMatC= 1.34D-08 BMatP= 1.47D-07
 IDIUse=1 WtCom= 1.00D+00 WtEn= 0.00D+00
 Coeff-Com:  0.635D-04-0.664D-04-0.303D-03-0.186D-02-0.700D-02-0.111D-01
 Coeff-Com:  0.654D-02 0.211D+00 0.803D+00
 Coeff:      0.635D-04-0.664D-04-0.303D-03-0.186D-02-0.700D-02-0.111D-01
 Coeff:      0.654D-02 0.211D+00 0.803D+00
 Gap=     0.222 Goal=   None    Shift=    0.000
 RMSDP=1.67D-06 MaxDP=2.16D-04 DE=-2.54D-07 OVMax= 1.31D-04

 Cycle  10  Pass 1  IDiag  1:
 RMSU=  7.01D-07    CP:  8.64D-01  5.01D-01  1.05D+00  9.53D-01  1.06D+00
                    CP:  1.23D+00  1.10D+00  1.40D+00  1.28D+00
 E= -571.927896902607     Delta-E=       -0.000000024032 Rises=F Damp=F
 DIIS: error= 1.89D-06 at cycle  10 NSaved=  10.
 NSaved=10 IEnMin=10 EnMin= -571.927896902607     IErMin=10 ErrMin= 1.89D-06
 ErrMax= 1.89D-06  0.00D+00 EMaxC= 1.00D-01 BMatC= 3.76D-09 BMatP= 1.34D-08
 IDIUse=1 WtCom= 1.00D+00 WtEn= 0.00D+00
 Coeff-Com: -0.834D-04 0.173D-03 0.613D-03 0.105D-02 0.470D-03-0.917D-02
 Coeff-Com: -0.337D-01-0.136D-01 0.367D+00 0.687D+00
 Coeff:     -0.834D-04 0.173D-03 0.613D-03 0.105D-02 0.470D-03-0.917D-02
 Coeff:     -0.337D-01-0.136D-01 0.367D+00 0.687D+00
 Gap=     0.222 Goal=   None    Shift=    0.000
 RMSDP=7.47D-07 MaxDP=8.22D-05 DE=-2.40D-08 OVMax= 5.44D-05

 Cycle  11  Pass 1  IDiag  1:
 RMSU=  2.45D-07    CP:  8.64D-01  5.01D-01  1.05D+00  9.53D-01  1.06D+00
                    CP:  1.23D+00  1.10D+00  1.46D+00  1.41D+00  1.13D+00
 E= -571.927896907995     Delta-E=       -0.000000005388 Rises=F Damp=F
 DIIS: error= 5.20D-07 at cycle  11 NSaved=  11.
 NSaved=11 IEnMin=11 EnMin= -571.927896907995     IErMin=11 ErrMin= 5.20D-07
 ErrMax= 5.20D-07  0.00D+00 EMaxC= 1.00D-01 BMatC= 2.83D-10 BMatP= 3.76D-09
 IDIUse=1 WtCom= 1.00D+00 WtEn= 0.00D+00
 Coeff-Com: -0.376D-04 0.759D-04 0.243D-03 0.534D-03 0.881D-03-0.230D-02
 Coeff-Com: -0.125D-01-0.249D-01 0.403D-01 0.237D+00 0.761D+00
 Coeff:     -0.376D-04 0.759D-04 0.243D-03 0.534D-03 0.881D-03-0.230D-02
 Coeff:     -0.125D-01-0.249D-01 0.403D-01 0.237D+00 0.761D+00
 Gap=     0.222 Goal=   None    Shift=    0.000
 RMSDP=1.99D-07 MaxDP=2.21D-05 DE=-5.39D-09 OVMax= 1.88D-05

 Cycle  12  Pass 1  IDiag  1:
 RMSU=  7.44D-08    CP:  8.64D-01  5.01D-01  1.05D+00  9.53D-01  1.06D+00
                    CP:  1.23D+00  1.10D+00  1.48D+00  1.44D+00  1.21D+00
                    CP:  1.12D+00
 E= -571.927896908528     Delta-E=       -0.000000000533 Rises=F Damp=F
 DIIS: error= 1.25D-07 at cycle  12 NSaved=  12.
 NSaved=12 IEnMin=12 EnMin= -571.927896908528     IErMin=12 ErrMin= 1.25D-07
 ErrMax= 1.25D-07  0.00D+00 EMaxC= 1.00D-01 BMatC= 2.54D-11 BMatP= 2.83D-10
 IDIUse=1 WtCom= 1.00D+00 WtEn= 0.00D+00
 Coeff-Com:  0.135D-06-0.248D-06-0.471D-05 0.106D-04 0.179D-03 0.210D-03
 Coeff-Com:  0.404D-03-0.439D-02-0.279D-01-0.136D-01 0.196D+00 0.849D+00
 Coeff:      0.135D-06-0.248D-06-0.471D-05 0.106D-04 0.179D-03 0.210D-03
 Coeff:      0.404D-03-0.439D-02-0.279D-01-0.136D-01 0.196D+00 0.849D+00
 Gap=     0.222 Goal=   None    Shift=    0.000
 RMSDP=5.46D-08 MaxDP=3.29D-06 DE=-5.33D-10 OVMax= 6.83D-06

 Cycle  13  Pass 1  IDiag  1:
 RMSU=  2.58D-08    CP:  8.64D-01  5.01D-01  1.05D+00  9.53D-01  1.06D+00
                    CP:  1.23D+00  1.10D+00  1.48D+00  1.45D+00  1.24D+00
                    CP:  1.20D+00  1.17D+00
 E= -571.927896908556     Delta-E=       -0.000000000027 Rises=F Damp=F
 DIIS: error= 7.17D-08 at cycle  13 NSaved=  13.
 NSaved=13 IEnMin=13 EnMin= -571.927896908556     IErMin=13 ErrMin= 7.17D-08
 ErrMax= 7.17D-08  0.00D+00 EMaxC= 1.00D-01 BMatC= 4.91D-12 BMatP= 2.54D-11
 IDIUse=1 WtCom= 1.00D+00 WtEn= 0.00D+00
 Coeff-Com:  0.387D-05-0.785D-05-0.226D-04-0.463D-04-0.203D-04 0.258D-03
 Coeff-Com:  0.139D-02 0.652D-03-0.146D-01-0.302D-01-0.170D-01 0.320D+00
 Coeff-Com:  0.740D+00
 Coeff:      0.387D-05-0.785D-05-0.226D-04-0.463D-04-0.203D-04 0.258D-03
 Coeff:      0.139D-02 0.652D-03-0.146D-01-0.302D-01-0.170D-01 0.320D+00
 Coeff:      0.740D+00
 Gap=     0.222 Goal=   None    Shift=    0.000
 RMSDP=1.75D-08 MaxDP=1.01D-06 DE=-2.73D-11 OVMax= 2.07D-06

 Cycle  14  Pass 1  IDiag  1:
 RMSU=  9.02D-09    CP:  8.64D-01  5.01D-01  1.05D+00  9.53D-01  1.06D+00
                    CP:  1.23D+00  1.10D+00  1.48D+00  1.45D+00  1.24D+00
                    CP:  1.22D+00  1.29D+00  1.11D+00
 E= -571.927896908558     Delta-E=       -0.000000000002 Rises=F Damp=F
 DIIS: error= 3.44D-08 at cycle  14 NSaved=  14.
 NSaved=14 IEnMin=14 EnMin= -571.927896908558     IErMin=14 ErrMin= 3.44D-08
 ErrMax= 3.44D-08  0.00D+00 EMaxC= 1.00D-01 BMatC= 9.29D-13 BMatP= 4.91D-12
 IDIUse=1 WtCom= 1.00D+00 WtEn= 0.00D+00
 Coeff-Com:  0.172D-05-0.342D-05-0.887D-05-0.207D-04-0.215D-04 0.992D-04
 Coeff-Com:  0.638D-03 0.750D-03-0.267D-02-0.111D-01-0.325D-01 0.394D-01
 Coeff-Com:  0.338D+00 0.667D+00
 Coeff:      0.172D-05-0.342D-05-0.887D-05-0.207D-04-0.215D-04 0.992D-04
 Coeff:      0.638D-03 0.750D-03-0.267D-02-0.111D-01-0.325D-01 0.394D-01
 Coeff:      0.338D+00 0.667D+00
 Gap=     0.222 Goal=   None    Shift=    0.000
 RMSDP=5.68D-09 MaxDP=3.32D-07 DE=-2.05D-12 OVMax= 4.32D-07

 SCF Done:  E(RM062X) =  -571.927896909     A.U. after   14 cycles
            NFock= 14  Conv=0.57D-08     -V/T= 2.0049
 KE= 5.691385543606D+02 PE=-2.824793900172D+03 EE= 9.384245288362D+02
 Leave Link  502 at Mon Feb 20 01:32:19 2023, MaxMem=  6710886400 cpu:            1747.2 elap:              73.0
 (Enter /data0/home/software/g16/l601.exe)
 Copying SCF densities to generalized density rwf, IOpCl= 0 IROHF=0.

 **********************************************************************

            Population analysis using the SCF density.

 **********************************************************************

 Alpha  occ. eigenvalues --  -19.50603 -19.49814 -14.88037 -14.87305 -10.68305
 Alpha  occ. eigenvalues --  -10.63732 -10.63502 -10.62528 -10.60590 -10.56681
 Alpha  occ. eigenvalues --  -10.54093 -10.50559  -1.20463  -1.09918  -1.09042
 Alpha  occ. eigenvalues --   -0.99626  -0.92876  -0.89683  -0.85624  -0.80242
 Alpha  occ. eigenvalues --   -0.75172  -0.72742  -0.69592  -0.64658  -0.60677
 Alpha  occ. eigenvalues --   -0.58734  -0.57392  -0.56490  -0.55594  -0.54749
 Alpha  occ. eigenvalues --   -0.52468  -0.51633  -0.50612  -0.48608  -0.45743
 Alpha  occ. eigenvalues --   -0.44339  -0.43998  -0.41081  -0.39798  -0.38743
 Alpha  occ. eigenvalues --   -0.37615  -0.34134  -0.26005  -0.25756  -0.24797
 Alpha virt. eigenvalues --   -0.02631  -0.00922  -0.00532   0.00449   0.00979
 Alpha virt. eigenvalues --    0.02291   0.02800   0.03233   0.03803   0.04813
 Alpha virt. eigenvalues --    0.05011   0.06159   0.06597   0.07052   0.07560
 Alpha virt. eigenvalues --    0.08545   0.09140   0.09972   0.10104   0.11153
 Alpha virt. eigenvalues --    0.11668   0.11981   0.12433   0.13234   0.13877
 Alpha virt. eigenvalues --    0.14169   0.14754   0.14970   0.15359   0.16039
 Alpha virt. eigenvalues --    0.16319   0.16975   0.17324   0.17827   0.18118
 Alpha virt. eigenvalues --    0.18555   0.18920   0.19354   0.19753   0.20425
 Alpha virt. eigenvalues --    0.20723   0.21298   0.21482   0.22692   0.23396
 Alpha virt. eigenvalues --    0.23571   0.24431   0.25277   0.25515   0.25977
 Alpha virt. eigenvalues --    0.26504   0.26932   0.27640   0.28279   0.29148
 Alpha virt. eigenvalues --    0.29953   0.30899   0.31155   0.31790   0.32384
 Alpha virt. eigenvalues --    0.33202   0.34240   0.34342   0.35365   0.36287
 Alpha virt. eigenvalues --    0.37194   0.37756   0.38600   0.38855   0.39687
 Alpha virt. eigenvalues --    0.40725   0.41361   0.41763   0.42479   0.42887
 Alpha virt. eigenvalues --    0.43488   0.44308   0.45316   0.46238   0.48210
 Alpha virt. eigenvalues --    0.48586   0.50634   0.51305   0.51746   0.52975
 Alpha virt. eigenvalues --    0.53204   0.54361   0.55281   0.57278   0.57794
 Alpha virt. eigenvalues --    0.59524   0.60214   0.60270   0.60802   0.61410
 Alpha virt. eigenvalues --    0.62476   0.63576   0.64276   0.65083   0.66052
 Alpha virt. eigenvalues --    0.66275   0.66573   0.67036   0.67876   0.68824
 Alpha virt. eigenvalues --    0.69517   0.69763   0.70816   0.72183   0.72793
 Alpha virt. eigenvalues --    0.73333   0.74422   0.75509   0.76333   0.77045
 Alpha virt. eigenvalues --    0.77993   0.78742   0.79017   0.79885   0.81093
 Alpha virt. eigenvalues --    0.81826   0.83701   0.85289   0.85596   0.86422
 Alpha virt. eigenvalues --    0.87200   0.87787   0.89548   0.90047   0.91844
 Alpha virt. eigenvalues --    0.93059   0.93818   0.95281   0.96707   0.98292
 Alpha virt. eigenvalues --    0.98471   1.00932   1.01806   1.03666   1.04902
 Alpha virt. eigenvalues --    1.05872   1.07525   1.10564   1.11567   1.12355
 Alpha virt. eigenvalues --    1.13039   1.14177   1.15561   1.17271   1.18944
 Alpha virt. eigenvalues --    1.19518   1.19884   1.21659   1.22728   1.23502
 Alpha virt. eigenvalues --    1.23909   1.24502   1.24917   1.25225   1.27206
 Alpha virt. eigenvalues --    1.29010   1.29346   1.31518   1.32075   1.33546
 Alpha virt. eigenvalues --    1.35927   1.36995   1.37469   1.38810   1.40638
 Alpha virt. eigenvalues --    1.41809   1.42330   1.42840   1.44053   1.45122
 Alpha virt. eigenvalues --    1.46880   1.47385   1.48239   1.48479   1.49617
 Alpha virt. eigenvalues --    1.51487   1.51810   1.53696   1.55261   1.56124
 Alpha virt. eigenvalues --    1.57464   1.64150   1.64896   1.68863   1.72140
 Alpha virt. eigenvalues --    1.74313   1.76364   1.77148   1.77851   1.79662
 Alpha virt. eigenvalues --    1.81580   1.82229   1.83322   1.85689   1.86480
 Alpha virt. eigenvalues --    1.87986   1.88747   1.89890   1.90160   1.91575
 Alpha virt. eigenvalues --    1.93269   1.94403   1.94751   1.95893   1.97992
 Alpha virt. eigenvalues --    1.99838   2.00863   2.02206   2.04307   2.05489
 Alpha virt. eigenvalues --    2.05860   2.09329   2.11891   2.15679   2.18517
 Alpha virt. eigenvalues --    2.18983   2.20945   2.23404   2.24373   2.26597
 Alpha virt. eigenvalues --    2.26776   2.30210   2.31256   2.32329   2.33336
 Alpha virt. eigenvalues --    2.34564   2.35627   2.36364   2.37204   2.39889
 Alpha virt. eigenvalues --    2.40708   2.42002   2.44432   2.48712   2.49637
 Alpha virt. eigenvalues --    2.51955   2.56357   2.57576   2.57800   2.58654
 Alpha virt. eigenvalues --    2.60896   2.64470   2.69387   2.70504   2.71818
 Alpha virt. eigenvalues --    2.72671   2.74197   2.77713   2.80092   2.82696
 Alpha virt. eigenvalues --    2.84415   2.84594   2.86456   2.87318   2.87346
 Alpha virt. eigenvalues --    2.89728   2.89899   2.91553   2.93741   2.95724
 Alpha virt. eigenvalues --    2.97282   2.98758   2.99675   3.02127   3.04126
 Alpha virt. eigenvalues --    3.06365   3.10458   3.12255   3.14420   3.19146
 Alpha virt. eigenvalues --    3.22547   3.24088   3.26098   3.27389   3.28712
 Alpha virt. eigenvalues --    3.30643   3.34919   3.36181   3.37318   3.37850
 Alpha virt. eigenvalues --    3.40949   3.41846   3.43430   3.45113   3.45736
 Alpha virt. eigenvalues --    3.47174   3.48049   3.48882   3.49976   3.50503
 Alpha virt. eigenvalues --    3.53495   3.55256   3.56568   3.59027   3.60030
 Alpha virt. eigenvalues --    3.61171   3.62903   3.64458   3.64585   3.65254
 Alpha virt. eigenvalues --    3.66301   3.66734   3.68804   3.69658   3.72689
 Alpha virt. eigenvalues --    3.75281   3.76938   3.78550   3.79501   3.81317
 Alpha virt. eigenvalues --    3.84108   3.86586   3.87704   3.89836   3.94687
 Alpha virt. eigenvalues --    3.96637   3.98240   4.02378   4.03744   4.04660
 Alpha virt. eigenvalues --    4.07432   4.12921   4.15059   4.18080   4.22211
 Alpha virt. eigenvalues --    4.28095   4.30248   4.38756   4.44639   4.51907
 Alpha virt. eigenvalues --    4.56236   4.70969   4.96516   5.01905   5.02522
 Alpha virt. eigenvalues --    5.04473   5.07221   5.12270   5.15293   5.19651
 Alpha virt. eigenvalues --    5.22460   5.31079   5.37828   5.41218   5.44273
 Alpha virt. eigenvalues --    5.44846   5.47616   5.55770   5.56850   5.60943
 Alpha virt. eigenvalues --    5.81364   6.05333   6.30619   6.94819   6.99100
 Alpha virt. eigenvalues --    7.01337   7.02815   7.18532   7.21585   7.26394
 Alpha virt. eigenvalues --    7.34025   7.38756   7.45999   9.56273   9.61136
 Alpha virt. eigenvalues --    9.70804   9.75701   9.97518  12.53251  13.03299
 Alpha virt. eigenvalues --   13.36545  17.23168  23.90922  23.98056  24.01557
 Alpha virt. eigenvalues --   24.03646  24.09087  24.13354  24.16146  24.31658
 Alpha virt. eigenvalues --   35.60151  35.69053  50.25363  50.27478 129.82384
          Condensed to atoms (all electrons):
               1          2          3          4          5          6
     1  C    5.921933  -0.055793  -0.220399   0.375152   0.386828  -0.034476
     2  C   -0.055793   5.961818  -0.340182  -0.072948  -0.002625   0.409798
     3  C   -0.220399  -0.340182   6.180867   0.301056   0.012096   0.010438
     4  N    0.375152  -0.072948   0.301056   6.067883  -0.039189   0.011082
     5  H    0.386828  -0.002625   0.012096  -0.039189   0.473872  -0.001307
     6  H   -0.034476   0.409798   0.010438   0.011082  -0.001307   0.469700
     7  H    0.013695   0.011538   0.367474  -0.037284  -0.000031  -0.000002
     8  C   -0.107055   0.023142  -0.105958   0.164236  -0.002313   0.000033
     9  H    0.011405   0.000768  -0.015329  -0.054545   0.000165   0.000010
    10  H   -0.029908   0.007600  -0.021861  -0.006460   0.000356   0.000002
    11  H    0.000774   0.010860   0.031685  -0.070346   0.001626  -0.000036
    12  N   -0.040160   0.234417   0.305881  -0.043153   0.006994  -0.037853
    13  C   -0.077359  -0.088841  -0.047035  -0.010911   0.001118   0.000732
    14  H    0.006312  -0.010165  -0.003852  -0.001706  -0.000001  -0.000061
    15  H   -0.005339   0.005157   0.007425   0.002821   0.000009   0.000036
    16  C    0.025591   0.121942  -0.164923   0.025697   0.000635   0.009462
    17  H   -0.000229   0.000075   0.001091  -0.000850  -0.000000  -0.000156
    18  H   -0.003104  -0.001695   0.009839   0.001209   0.000004  -0.000711
    19  C    0.091925  -0.235671   0.192904  -0.034797  -0.002659  -0.008395
    20  H   -0.005949   0.011457  -0.009234  -0.005149  -0.000016  -0.001337
    21  H   -0.000444   0.001565   0.010453   0.000596   0.000005   0.000049
    22  C   -0.070164   0.127192  -0.174303   0.032766   0.001040   0.000643
    23  O   -0.008775   0.025769  -0.038073   0.001796   0.000049  -0.000253
    24  O    0.010708  -0.016564   0.001809   0.025824  -0.000242   0.000264
    25  O   -0.018500   0.020244  -0.014660  -0.003958  -0.001796  -0.000233
    26  H    0.011315  -0.012475   0.005928  -0.000662  -0.000313   0.000052
    27  H    0.004906  -0.006893   0.000099  -0.001507  -0.000520   0.000004
               7          8          9         10         11         12
     1  C    0.013695  -0.107055   0.011405  -0.029908   0.000774  -0.040160
     2  C    0.011538   0.023142   0.000768   0.007600   0.010860   0.234417
     3  C    0.367474  -0.105958  -0.015329  -0.021861   0.031685   0.305881
     4  N   -0.037284   0.164236  -0.054545  -0.006460  -0.070346  -0.043153
     5  H   -0.000031  -0.002313   0.000165   0.000356   0.001626   0.006994
     6  H   -0.000002   0.000033   0.000010   0.000002  -0.000036  -0.037853
     7  H    0.410791   0.003644   0.002189   0.000659  -0.000270  -0.017497
     8  C    0.003644   5.262476   0.406446   0.431967   0.399514  -0.006413
     9  H    0.002189   0.406446   0.493337  -0.024600  -0.010830   0.002254
    10  H    0.000659   0.431967  -0.024600   0.411182  -0.023203   0.004650
    11  H   -0.000270   0.399514  -0.010830  -0.023203   0.496117  -0.005454
    12  N   -0.017497  -0.006413   0.002254   0.004650  -0.005454   6.353437
    13  C   -0.010110  -0.001081   0.001915  -0.001453   0.000282   0.092112
    14  H    0.000598  -0.000203  -0.000007   0.000002  -0.000002  -0.035805
    15  H    0.002022   0.001049  -0.000012   0.000005  -0.000001  -0.076510
    16  C    0.012301   0.007089  -0.000122   0.000812   0.000024   0.029213
    17  H   -0.000081  -0.000131  -0.000000   0.000000  -0.000000   0.008685
    18  H   -0.000119   0.000191  -0.000000   0.000000  -0.000000  -0.006753
    19  C   -0.005603  -0.013123   0.000255  -0.003685  -0.000183  -0.018932
    20  H   -0.000252  -0.003091  -0.000005   0.000007  -0.000001   0.025570
    21  H   -0.000017   0.000517  -0.000000   0.000002   0.000000  -0.004415
    22  C   -0.005669   0.000122   0.001128   0.005043  -0.001263  -0.023775
    23  O    0.005341   0.003528   0.000080   0.000136   0.000007  -0.011791
[...]
    24  O   -0.119788  -0.023106   0.004842   0.486984  -0.102335   8.306539
 Mulliken charges:
               1
     1  C   -0.116479
     2  C   -0.140805
     3  C   -0.260851
     4  N    0.332593
     5  H    0.160526
     6  H    0.170437
     7  H    0.249133
     8  C   -0.455664
     9  H    0.182867
    10  H    0.245696
    11  H    0.165616
    12  N    0.244168
    13  C   -0.412502
    14  H    0.179101
    15  H    0.220389
    16  C   -0.344726
    17  H    0.191647
    18  H    0.158258
    19  C   -0.206922
    20  H    0.168695
    21  H    0.167053
    22  C    0.240399
    23  O   -0.578558
    24  O   -0.560070
    25  O    0.000000
    26  H    0.000000
    27  H    0.000000
 Sum of Mulliken charges =  -0.00000
 Mulliken charges with hydrogens summed into heavy atoms:
               1
     1  C    0.044047
     2  C    0.029632
     3  C   -0.011718
     4  N    0.332593
     8  C    0.138514
    12  N    0.244168
    13  C   -0.013012
    16  C    0.005180
    19  C    0.128826
    22  C    0.240399
    23  O   -0.578558
    24  O   -0.560070
    25  O    0.000000
         Mulliken charges condensed to fragments:
      1     -0.000000
      2      0.000000
 Electronic spatial extent (au):  <R**2>=          93877.9048
 Charge=             -0.0000 electrons
 Dipole moment (field-independent basis, Debye):
    X=              4.4567    Y=             -8.9693    Z=             -4.8823  Tot=             11.1421
 Quadrupole moment (field-independent basis, Debye-Ang):
   XX=             22.6191   YY=           -249.1687   ZZ=           -164.6572
   XY=            -47.3122   XZ=              4.7492   YZ=           -144.8017
 Traceless Quadrupole moment (field-independent basis, Debye-Ang):
   XX=            153.0214   YY=           -118.7664   ZZ=            -34.2550
   XY=            -47.3122   XZ=              4.7492   YZ=           -144.8017
 Octapole moment (field-independent basis, Debye-Ang**2):
  XXX=           -645.0361  YYY=          -4801.7837  ZZZ=          -3383.4412  XYY=          -2087.4857
  XXY=           -695.7967  XXZ=            -39.5549  XZZ=          -1011.3948  YZZ=          -2665.2421
  YYZ=          -3066.9174  XYZ=           -945.3308
 Hexadecapole moment (field-independent basis, Debye-Ang**3):
 XXXX=         -22169.2924 YYYY=         -79452.3052 ZZZZ=         -56972.8277 XXXY=         -15305.9458
 XXXZ=          -7433.4881 YYYX=         -43935.7278 YYYZ=         -53609.3482 ZZZX=         -26465.1461
 ZZZY=         -44542.4248 XXYY=         -23384.7164 XXZZ=          -9832.7955 YYZZ=         -43353.1568
 XXYZ=         -10472.1936 YYXZ=         -25953.6987 ZZXY=         -20664.4597
 N-N= 7.453029200663D+02 E-N=-2.824796580329D+03  KE= 5.691431916715D+02
 No NMR shielding tensors so no spin-rotation constants.
 Leave Link  601 at Mon Feb 20 01:34:05 2023, MaxMem=  6710886400 cpu:               2.9 elap:               0.2
 (Enter /data0/home/software/g16/l122.exe)
 CPIOFr:  IOpCl= 0 IRwI=-1 IRwCP=  731 ICalc=  3 LCPTot=      292274 Len1MO=      765957 IndFrg=     3356102
 Counterpoise: doing calculation for fragment   2 using the basis set of the fragment.
 Leave Link  122 at Mon Feb 20 01:34:05 2023, MaxMem=  6710886400 cpu:               0.2 elap:               0.0
 (Enter /data0/home/software/g16/l301.exe)
 Basis read from rwf:  (5D, 7F)
 No pseudopotential information found on rwf file.
    39 basis functions,    58 primitive gaussians,    41 cartesian basis functions
     5 alpha electrons        5 beta electrons
       nuclear repulsion energy         9.0712350188 Hartrees.
 IExCor= 4336 DFT=T Ex+Corr=M062X ExCW=0 ScaHFX=  0.540000
 ScaDFX=  1.000000  1.000000  1.000000  1.000000 ScalE2=  1.000000  1.000000
 IRadAn=      5 IRanWt=     -1 IRanGd=            0 ICorTp=0 IEmpDi=131
 NAtoms=   27 NActive=    3 NUniq=    3 SFac= 1.00D+00 NAtFMM=   60 NAOKFM=F Big=F
 Integral buffers will be    131072 words long.
 Raffenetti 2 integral format.
 Two-electron integral symmetry is turned off.
 R6Disp:  Grimme-D3 Dispersion energy=       -0.0000000080 Hartrees.
 Nuclear repulsion after empirical dispersion term =        9.0712350108 Hartrees.
 No density basis found on file   718.
 Leave Link  301 at Mon Feb 20 01:34:05 2023, MaxMem=  6710886400 cpu:               1.2 elap:               0.1
 (Enter /data0/home/software/g16/l302.exe)
 NPDir=0 NMtPBC=     1 NCelOv=     1 NCel=       1 NClECP=     1 NCelD=      1
         NCelK=      1 NCelE2=     1 NClLst=     1 CellRange=     0.0.
 One-electron integrals computed using PRISM.
 NBasis=    39 RedAO= T EigKep=  3.08D-03  NBF=    39
 NBsUse=    39 1.00D-06 EigRej= -1.00D+00 NBFU=    39
 Precomputing XC quadrature grid using
 IXCGrd= 4 IRadAn=           5 IRanWt=          -1 IRanGd=           0 AccXCQ= 0.00D+00.
 Generated NRdTot=       0 NPtTot=           0 NUsed=           0 NTot=          32
 NSgBfM=    41    41    41    41    41 MxSgAt=     3 MxSgA2=     3.
 Leave Link  302 at Mon Feb 20 01:34:05 2023, MaxMem=  6710886400 cpu:               2.3 elap:               0.1
 (Enter /data0/home/software/g16/l303.exe)
 DipDrv:  MaxL=1.
 Leave Link  303 at Mon Feb 20 01:34:05 2023, MaxMem=  6710886400 cpu:               0.4 elap:               0.0
 (Enter /data0/home/software/g16/l401.exe)
 ExpMin= 8.45D-02 ExpMax= 8.59D+03 ExpMxC= 1.30D+03 IAcc=3 IRadAn=         5 AccDes= 0.00D+00
 Harris functional with IExCor= 1009 and IRadAn=       5 diagonalized for initial guess.
 HarFok:  IExCor= 1009 AccDes= 0.00D+00 IRadAn=         5 IDoV= 1 UseB2=F ITyADJ=14
 ICtDFT=  3500011 ScaDFX=  1.000000  1.000000  1.000000  1.000000
 FoFCou: FMM=F IPFlag=           0 FMFlag=      100000 FMFlg1=           0
         NFxFlg=           0 DoJE=T BraDBF=F KetDBF=T FulRan=T
         wScrn=  0.000000 ICntrl=       500 IOpCl=  0 I1Cent=   200000004 NGrid=           0
         NMat0=    1 NMatS0=      1 NMatT0=    0 NMatD0=    1 NMtDS0=    0 NMtDT0=    0
 Symmetry not used in FoFCou.
 Harris En= -76.4157154859146    
 JPrj=0 DoOrth=F DoCkMO=F.
 Leave Link  401 at Mon Feb 20 01:34:05 2023, MaxMem=  6710886400 cpu:               2.9 elap:               0.1
 (Enter /data0/home/software/g16/l502.exe)
 Keep R1 ints in memory in canonical form, NReq=21041112.
 FoFCou: FMM=F IPFlag=           0 FMFlag=           0 FMFlg1=           0
         NFxFlg=           0 DoJE=F BraDBF=F KetDBF=F FulRan=T
         wScrn=  0.000000 ICntrl=       600 IOpCl=  0 I1Cent=           0 NGrid=           0
         NMat0=    1 NMatS0=    780 NMatT0=    0 NMatD0=    1 NMtDS0=    0 NMtDT0=    0
 Symmetry not used in FoFCou.
 Two-electron integral symmetry not used.
 Closed shell SCF:
 Using DIIS extrapolation, IDIIS=  1040.
 NGot=  6710886400 LenX=  6710576250 LenY=  6710574128
 Requested convergence on RMS density matrix=1.00D-08 within 128 cycles.
 Requested convergence on MAX density matrix=1.00D-06.
 Requested convergence on             energy=1.00D-06.
 No special actions if energy rises.
 Integral accuracy reduced to 1.0D-05 until final iterations.

 Cycle   1  Pass 0  IDiag  1:
 E= -76.3456949273181    
 DIIS: error= 6.99D-02 at cycle   1 NSaved=   1.
 NSaved= 1 IEnMin= 1 EnMin= -76.3456949273181     IErMin= 1 ErrMin= 6.99D-02
 ErrMax= 6.99D-02  0.00D+00 EMaxC= 1.00D-01 BMatC= 1.20D-01 BMatP= 1.20D-01
 IDIUse=3 WtCom= 3.01D-01 WtEn= 6.99D-01
 Coeff-Com:  0.100D+01
 Coeff-En:   0.100D+01
 Coeff:      0.100D+01
 Gap=     0.324 Goal=   None    Shift=    0.000
 GapD=    0.324 DampG=1.000 DampE=0.500 DampFc=0.5000 IDamp=-1.
 Damping current iteration by 5.00D-01
 RMSDP=7.92D-03 MaxDP=1.01D-01              OVMax= 1.68D-01

 Cycle   2  Pass 0  IDiag  1:
 E= -76.3769486111147     Delta-E=       -0.031253683797 Rises=F Damp=T
 DIIS: error= 1.10D-02 at cycle   2 NSaved=   2.
 NSaved= 2 IEnMin= 2 EnMin= -76.3769486111147     IErMin= 2 ErrMin= 1.10D-02
 ErrMax= 1.10D-02  0.00D+00 EMaxC= 1.00D-01 BMatC= 4.89D-03 BMatP= 1.20D-01
 IDIUse=3 WtCom= 8.90D-01 WtEn= 1.10D-01
 Coeff-Com:  0.842D-01 0.916D+00
 Coeff-En:   0.190D+00 0.810D+00
 Coeff:      0.959D-01 0.904D+00
 Gap=     0.456 Goal=   None    Shift=    0.000
 RMSDP=9.52D-04 MaxDP=1.42D-02 DE=-3.13D-02 OVMax= 1.01D-01

 Cycle   3  Pass 0  IDiag  1:
 E= -76.4209298152001     Delta-E=       -0.043981204085 Rises=F Damp=F
 DIIS: error= 2.20D-03 at cycle   3 NSaved=   3.
 NSaved= 3 IEnMin= 3 EnMin= -76.4209298152001     IErMin= 3 ErrMin= 2.20D-03
 ErrMax= 2.20D-03  0.00D+00 EMaxC= 1.00D-01 BMatC= 9.43D-05 BMatP= 4.89D-03
 IDIUse=3 WtCom= 9.78D-01 WtEn= 2.20D-02
 Coeff-Com: -0.202D-01 0.407D-01 0.979D+00
 Coeff-En:   0.000D+00 0.000D+00 0.100D+01
 Coeff:     -0.197D-01 0.398D-01 0.980D+00
 Gap=     0.460 Goal=   None    Shift=    0.000
 RMSDP=1.17D-04 MaxDP=1.10D-03 DE=-4.40D-02 OVMax= 3.37D-03

 Cycle   4  Pass 0  IDiag  1:
 E= -76.4210101207694     Delta-E=       -0.000080305569 Rises=F Damp=F
 DIIS: error= 4.21D-04 at cycle   4 NSaved=   4.
 NSaved= 4 IEnMin= 4 EnMin= -76.4210101207694     IErMin= 4 ErrMin= 4.21D-04
 ErrMax= 4.21D-04  0.00D+00 EMaxC= 1.00D-01 BMatC= 3.41D-06 BMatP= 9.43D-05
 IDIUse=3 WtCom= 9.96D-01 WtEn= 4.21D-03
 Coeff-Com: -0.201D-02-0.214D-02 0.165D+00 0.840D+00
 Coeff-En:   0.000D+00 0.000D+00 0.000D+00 0.100D+01
 Coeff:     -0.200D-02-0.213D-02 0.164D+00 0.840D+00
 Gap=     0.461 Goal=   None    Shift=    0.000
 RMSDP=2.24D-05 MaxDP=3.57D-04 DE=-8.03D-05 OVMax= 5.44D-04

 Cycle   5  Pass 0  IDiag  1:
 E= -76.4210122313042     Delta-E=       -0.000002110535 Rises=F Damp=F
 DIIS: error= 9.13D-05 at cycle   5 NSaved=   5.
 NSaved= 5 IEnMin= 5 EnMin= -76.4210122313042     IErMin= 5 ErrMin= 9.13D-05
 ErrMax= 9.13D-05  0.00D+00 EMaxC= 1.00D-01 BMatC= 8.68D-08 BMatP= 3.41D-06
 IDIUse=1 WtCom= 1.00D+00 WtEn= 0.00D+00
 Coeff-Com:  0.120D-02-0.184D-02-0.371D-01-0.687D-01 0.111D+01
 Coeff:      0.120D-02-0.184D-02-0.371D-01-0.687D-01 0.111D+01
 Gap=     0.461 Goal=   None    Shift=    0.000
 RMSDP=9.17D-06 MaxDP=1.04D-04 DE=-2.11D-06 OVMax= 2.08D-04

 Initial convergence to 1.0D-05 achieved.  Increase integral accuracy.
 Cycle   6  Pass 1  IDiag  1:
 E= -76.4210301805765     Delta-E=       -0.000017949272 Rises=F Damp=F
 DIIS: error= 1.87D-05 at cycle   1 NSaved=   1.
 NSaved= 1 IEnMin= 1 EnMin= -76.4210301805765     IErMin= 1 ErrMin= 1.87D-05
 ErrMax= 1.87D-05  0.00D+00 EMaxC= 1.00D-01 BMatC= 1.67D-08 BMatP= 1.67D-08
 IDIUse=1 WtCom= 1.00D+00 WtEn= 0.00D+00
 Coeff-Com:  0.100D+01
 Coeff:      0.100D+01
 Gap=     0.461 Goal=   None    Shift=    0.000
 RMSDP=9.17D-06 MaxDP=1.04D-04 DE=-1.79D-05 OVMax= 3.28D-05

 Cycle   7  Pass 1  IDiag  1:
 E= -76.4210301934163     Delta-E=       -0.000000012840 Rises=F Damp=F
 DIIS: error= 4.71D-06 at cycle   2 NSaved=   2.
 NSaved= 2 IEnMin= 2 EnMin= -76.4210301934163     IErMin= 2 ErrMin= 4.71D-06
 ErrMax= 4.71D-06  0.00D+00 EMaxC= 1.00D-01 BMatC= 3.73D-10 BMatP= 1.67D-08
 IDIUse=1 WtCom= 1.00D+00 WtEn= 0.00D+00
 Coeff-Com: -0.369D-01 0.104D+01
 Coeff:     -0.369D-01 0.104D+01
 Gap=     0.461 Goal=   None    Shift=    0.000
 RMSDP=4.25D-07 MaxDP=4.25D-06 DE=-1.28D-08 OVMax= 1.12D-05

 Cycle   8  Pass 1  IDiag  1:
 E= -76.4210301935556     Delta-E=       -0.000000000139 Rises=F Damp=F
 DIIS: error= 3.22D-06 at cycle   3 NSaved=   3.
 NSaved= 3 IEnMin= 3 EnMin= -76.4210301935556     IErMin= 3 ErrMin= 3.22D-06
 ErrMax= 3.22D-06  0.00D+00 EMaxC= 1.00D-01 BMatC= 2.77D-10 BMatP= 3.73D-10
 IDIUse=1 WtCom= 1.00D+00 WtEn= 0.00D+00
 Coeff-Com: -0.428D-01 0.492D+00 0.551D+00
 Coeff:     -0.428D-01 0.492D+00 0.551D+00
 Gap=     0.461 Goal=   None    Shift=    0.000
 RMSDP=2.10D-07 MaxDP=3.10D-06 DE=-1.39D-10 OVMax= 4.49D-06

 Cycle   9  Pass 1  IDiag  1:
 E= -76.4210301937309     Delta-E=       -0.000000000175 Rises=F Damp=F
 DIIS: error= 8.28D-07 at cycle   4 NSaved=   4.
 NSaved= 4 IEnMin= 4 EnMin= -76.4210301937309     IErMin= 4 ErrMin= 8.28D-07
 ErrMax= 8.28D-07  0.00D+00 EMaxC= 1.00D-01 BMatC= 8.19D-12 BMatP= 2.77D-10
 IDIUse=1 WtCom= 1.00D+00 WtEn= 0.00D+00
 Coeff-Com: -0.286D-02 0.272D-03 0.140D+00 0.863D+00
 Coeff:     -0.286D-02 0.272D-03 0.140D+00 0.863D+00
 Gap=     0.461 Goal=   None    Shift=    0.000
 RMSDP=4.40D-08 MaxDP=4.33D-07 DE=-1.75D-10 OVMax= 1.34D-06

 Cycle  10  Pass 1  IDiag  1:
 E= -76.4210301937380     Delta-E=       -0.000000000007 Rises=F Damp=F
 DIIS: error= 5.92D-08 at cycle   5 NSaved=   5.
 NSaved= 5 IEnMin= 5 EnMin= -76.4210301937380     IErMin= 5 ErrMin= 5.92D-08
 ErrMax= 5.92D-08  0.00D+00 EMaxC= 1.00D-01 BMatC= 1.21D-13 BMatP= 8.19D-12
 IDIUse=1 WtCom= 1.00D+00 WtEn= 0.00D+00
 Coeff-Com:  0.160D-02-0.224D-01-0.236D-01 0.170D-01 0.103D+01
 Coeff:      0.160D-02-0.224D-01-0.236D-01 0.170D-01 0.103D+01
 Gap=     0.461 Goal=   None    Shift=    0.000
 RMSDP=1.48D-08 MaxDP=9.79D-08 DE=-7.08D-12 OVMax= 3.45D-07

 Cycle  11  Pass 1  IDiag  1:
 E= -76.4210301937382     Delta-E=       -0.000000000000 Rises=F Damp=F
 DIIS: error= 1.43D-08 at cycle   6 NSaved=   6.
 NSaved= 6 IEnMin= 6 EnMin= -76.4210301937382     IErMin= 6 ErrMin= 1.43D-08
 ErrMax= 1.43D-08  0.00D+00 EMaxC= 1.00D-01 BMatC= 6.66D-15 BMatP= 1.21D-13
 IDIUse=1 WtCom= 1.00D+00 WtEn= 0.00D+00
 Coeff-Com:  0.145D-03-0.562D-04-0.995D-02-0.441D-01 0.415D-01 0.101D+01
 Coeff:      0.145D-03-0.562D-04-0.995D-02-0.441D-01 0.415D-01 0.101D+01
 Gap=     0.461 Goal=   None    Shift=    0.000
 RMSDP=3.48D-09 MaxDP=2.63D-08 DE=-1.99D-13 OVMax= 8.05D-08

 SCF Done:  E(RM062X) =  -76.4210301937     A.U. after   11 cycles
            NFock= 11  Conv=0.35D-08     -V/T= 2.0031
 KE= 7.618441593600D+01 PE=-1.989886693662D+02 EE= 3.731198822560D+01
 Leave Link  502 at Mon Feb 20 01:34:05 2023, MaxMem=  6710886400 cpu:               8.8 elap:               0.4
 (Enter /data0/home/software/g16/l601.exe)
 Copying SCF densities to generalized density rwf, IOpCl= 0 IROHF=0.

 **********************************************************************

            Population analysis using the SCF density.

 **********************************************************************

 Alpha  occ. eigenvalues --  -19.62657  -1.13211  -0.60579  -0.47469  -0.39956
 Alpha virt. eigenvalues --    0.06161   0.13266   0.17411   0.17951   0.18939
 Alpha virt. eigenvalues --    0.23322   0.50187   0.53857   0.97898   1.00432
 Alpha virt. eigenvalues --    1.06014   1.18418   1.19845   1.32325   1.34065
 Alpha virt. eigenvalues --    1.69457   1.73763   1.75665   2.06439   2.10021
 Alpha virt. eigenvalues --    2.35453   2.41084   2.54365   2.87343   3.01332
 Alpha virt. eigenvalues --    5.05654   5.47171   5.91273   6.78306   6.80235
 Alpha virt. eigenvalues --    6.87204   6.91369   7.09806  49.95564
          Condensed to atoms (all electrons):
              25         26         27
    25  O    7.919550   0.315509   0.322416
    26  H    0.315509   0.426736  -0.024067
    27  H    0.322416  -0.024067   0.425998
 Mulliken charges:
               1
     1  C    0.000000
     2  C    0.000000
     3  C    0.000000
     4  N    0.000000
     5  H    0.000000
     6  H    0.000000
     7  H    0.000000
     8  C    0.000000
     9  H    0.000000
    10  H    0.000000
    11  H    0.000000
    12  N    0.000000
    13  C    0.000000
    14  H    0.000000
    15  H    0.000000
    16  C    0.000000
    17  H    0.000000
    18  H    0.000000
    19  C    0.000000
    20  H    0.000000
    21  H    0.000000
    22  C    0.000000
    23  O    0.000000
    24  O    0.000000
    25  O   -0.557475
    26  H    0.281822
    27  H    0.275653
 Sum of Mulliken charges =  -0.00000
 Mulliken charges with hydrogens summed into heavy atoms:
               1
     1  C    0.000000
     2  C    0.000000
     3  C    0.000000
     4  N    0.000000
     8  C    0.000000
    12  N    0.000000
    13  C    0.000000
    16  C    0.000000
    19  C    0.000000
    22  C    0.000000
    23  O    0.000000
    24  O    0.000000
    25  O   -0.000000
         Mulliken charges condensed to fragments:
      1      0.000000
      2     -0.000000
 Electronic spatial extent (au):  <R**2>=           9650.3128
 Charge=             -0.0000 electrons
 Dipole moment (field-independent basis, Debye):
    X=             -1.0697    Y=              1.4137    Z=              1.1647  Tot=              2.1212
 Quadrupole moment (field-independent basis, Debye-Ang):
   XX=            -25.1582   YY=             17.5255   ZZ=             19.7666
   XY=              4.5595   XZ=             -3.1235   YZ=             24.9367
 Traceless Quadrupole moment (field-independent basis, Debye-Ang):
   XX=            -29.2028   YY=             13.4809   ZZ=             15.7220
   XY=              4.5595   XZ=             -3.1235   YZ=             24.9367
 Octapole moment (field-independent basis, Debye-Ang**2):
  XXX=           -414.9995  YYY=            150.6886  ZZZ=            223.0046  XYY=             97.0644
  XXY=            -80.1753  XXZ=           -216.5098  XZZ=              8.1233  YZZ=            330.3579
  YYZ=            266.5487  XYZ=            120.3560
 Hexadecapole moment (field-independent basis, Debye-Ang**3):
 XXXX=          -5841.4502 YYYY=            981.3674 ZZZZ=           1650.5448 XXXY=          -2206.9790
 XXXZ=          -4189.2950 YYYX=            919.9028 YYYZ=           2222.7935 ZZZX=            -79.9947
 ZZZY=           3678.8901 XXYY=            -61.2724 XXZZ=          -2193.6662 YYZZ=           3360.0289
 XXYZ=           -387.0374 YYXZ=           1621.5549 ZZXY=           1672.7980
 N-N= 9.071235010846D+00 E-N=-1.989886691161D+02  KE= 7.618441593600D+01
 No NMR shielding tensors so no spin-rotation constants.
 Leave Link  601 at Mon Feb 20 01:34:06 2023, MaxMem=  6710886400 cpu:               1.7 elap:               0.1
 (Enter /data0/home/software/g16/l122.exe)
 CPIOFr:  IOpCl= 0 IRwI=-1 IRwCP=  731 ICalc=  4 LCPTot=      292274 Len1MO=      765957 IndFrg=     4122059
 Restoring MOs from calculation   1 to rwf.
 CPIOFr:  IOpCl= 0 IRwI=-2 IRwCP=  731 ICalc=  0 LCPTot=      292274 Len1MO=      765957 IndFrg=     1058231
 Counterpoise corrected energy =    -648.378359638326
                   BSSE energy =       0.001688236317
              sum of fragments =    -648.348527351057
           complexation energy =     -19.78 kcal/mole (raw)
           complexation energy =     -18.72 kcal/mole (corrected)
 Leave Link  122 at Mon Feb 20 01:34:06 2023, MaxMem=  6710886400 cpu:               0.3 elap:               0.0
 (Enter /data0/home/software/g16/l9999.exe)
 1\1\GINC-LOCALHOST\SP\RM062X\6-311+G(2d,p)\C8H14N2O3\WUHANYU\20-Feb-20
 23\0\\#p M062X/6-311+G(2d,p) nosymm em=GD3 counterpoise=2\\Title Card 
 Required\\0,1\C,0,10.420007,7.427526,9.449007\C,0,9.9989,8.13549,8.327
 733\C,0,11.277531,9.501461,9.581434\N,0,11.214866,8.287449,10.204341\H
 ,0,10.172522,6.430129,9.770182\H,0,9.367915,7.829614,7.516122\H,0,11.8
 1505,10.395258,9.937262\C,0,11.750746,7.999922,11.523383\H,0,12.780605
 ,8.400561,11.636618\H,0,11.117794,8.493362,12.304396\H,0,11.751058,6.9
 17488,11.72718\N,0,10.545249,9.415895,8.423394\C,0,10.172595,10.571844
 ,7.60999\H,0,10.391,10.352363,6.541253\H,0,10.814826,11.444333,7.91221
 \C,0,8.687159,10.961048,7.788775\H,0,8.598402,12.045515,7.549086\H,0,8
 .061859,10.422347,7.053427\C,0,8.135373,10.72778,9.193278\H,0,7.924352
 ,9.655826,9.371864\H,0,7.164781,11.245484,9.320042\C,0,9.07824,11.2487
 17,10.282411\O,0,9.837228,12.186608,10.005893\O,0,9.044004,10.632938,1
 1.375604\O,0,8.769757,7.954771,11.331442\H,0,8.860156,8.941866,11.3483
 13\H,0,8.08452,7.773823,11.964319\\Version=ES64L-G16RevA.03\HF=-76.421
 0302\RMSD=3.480e-09\Dipole=1.2305948,-2.7559044,-1.5122363\Quadrupole=
 87.258096,-70.6409503,-16.6171457,-30.0465,-1.3603993,-85.4214791\PG=C
 01 [X(C8H14N2O3)]\\@


 Everything starts as somebody's daydream.
                           -- Larry Niven
 Job cpu time:       0 days  1 hours 42 minutes  0.1 seconds.
 Elapsed time:       0 days  0 hours  4 minutes 16.7 seconds.
 File lengths (MBytes):  RWF=    150 Int=      0 D2E=      0 Chk=     43 Scr=      1
 Normal termination of Gaussian 16 at Mon Feb 20 01:34:06 2023.
