 Entering Gaussian System, Link 0=g16
 Initial command:
 /data0/home/software/g16/l1.exe "/data0/home/software/g16/scratch/Gau-231108.inp" -scrdir="/data0/home/software/g16/scratch/"
 Default is to use a total of  22 processors:
                               22 via shared-memory
                                1 via Linda
 Entering Link 1 = /data0/home/software/g16/l1.exe PID=    231109.
  
 Copyright (c) 1988,1990,1992,1993,1995,1998,2003,2009,2016,
            Gaussian, Inc.  All Rights Reserved.
  
 This is part of the Gaussian(R) 16 program.  It is based on
 the Gaussian(R) 09 system (copyright 2009, Gaussian, Inc.),
 the Gaussian(R) 03 system (copyright 2003, Gaussian, Inc.),
 the Gaussian(R) 98 system (copyright 1998, Gaussian, Inc.),
 the Gaussian(R) 94 system (copyright 1995, Gaussian, Inc.),
 the Gaussian 92(TM) system (copyright 1992, Gaussian, Inc.),
 the Gaussian 90(TM) system (copyright 1990, Gaussian, Inc.),
 the Gaussian 88(TM) system (copyright 1988, Gaussian, Inc.),
 the Gaussian 86(TM) system (copyright 1986, Carnegie Mellon
 University), and the Gaussian 82(TM) system (copyright 1983,
 Carnegie Mellon University). Gaussian is a federally registered
 trademark of Gaussian, Inc.
  
 This software contains proprietary and confidential information,
 including trade secrets, belonging to Gaussian, Inc.
  
 This software is provided under written license and may be
 used, copied, transmitted, or stored only in accord with that
 written license.
  
 The following legend is applicable only to US Government
 contracts under FAR:
  
                    RESTRICTED RIGHTS LEGEND
  
 Use, reproduction and disclosure by the US Government is
 subject to restrictions as set forth in subparagraphs (a)
 and (c) of the Commercial Computer Software - Restricted
 Rights clause in FAR 52.227-19.
  
 Gaussian, Inc.
 340 Quinnipiac St., Bldg. 40, Wallingford CT 06492
  
  
 ---------------------------------------------------------------
 Warning -- This program may not be used in any manner that
 competes with the business of Gaussian, Inc. or will provide
 assistance to any competitor of Gaussian, Inc.  The licensee
 of this program is prohibited from giving any competitor of
 Gaussian, Inc. access to this program.  By using this program,
 the user acknowledges that Gaussian, Inc. is engaged in the
 business of creating and licensing software in the field of
 computational chemistry and represents and warrants to the
 licensee that it is not a competitor of Gaussian, Inc. and that
 it will not use this program in any manner prohibited above.
 ---------------------------------------------------------------
  

 Cite this work as:
 Gaussian 16, Revision A.03,
 M. J. Frisch, G. W. Trucks, H. B. Schlegel, G. E. Scuseria, 
 M. A. Robb, J. R. Cheeseman, G. Scalmani, V. Barone, 
 G. A. Petersson, H. Nakatsuji, X. Li, M. Caricato, A. V. Marenich, 
 J. Bloino, B. G. Janesko, R. Gomperts, B. Mennucci, H. P. Hratchian, 
 J. V. Ortiz, A. F. Izmaylov, J. L. Sonnenberg, D. Williams-Young, 
 F. Ding, F. Lipparini, F. Egidi, J. Goings, B. Peng, A. Petrone, 
 T. Henderson, D. Ranasinghe, V. G. Zakrzewski, J. Gao, N. Rega, 
 G. Zheng, W. Liang, M. Hada, M. Ehara, K. Toyota, R. Fukuda, 
 J. Hasegawa, M. Ishida, T. Nakajima, Y. Honda, O. Kitao, H. Nakai, 
 T. Vreven, K. Throssell, J. A. Montgomery, Jr., J. E. Peralta, 
 F. Ogliaro, M. J. Bearpark, J. J. Heyd, E. N. Brothers, K. N. Kudin, 
 V. N. Staroverov, T. A. Keith, R. Kobayashi, J. Normand, 
 K. Raghavachari, A. P. Rendell, J. C. Burant, S. S. Iyengar, 
 J. Tomasi, M. Cossi, J. M. Millam, M. Klene, C. Adamo, R. Cammi, 
 J. W. Ochterski, R. L. Martin, K. Morokuma, O. Farkas, 
 J. B. Foresman, and D. J. Fox, Gaussian, Inc., Wallingford CT, 2016.
 
 ******************************************
 Gaussian 16:  ES64L-G16RevA.03 25-Dec-2016
                17-Feb-2023 
 ******************************************
 %nproc=24
 Will use up to   24 processors via shared memory.
 %mem=50GB
 ---------------------------------------------------
 #p M062X/6-311+G(2d,p) nosymm em=GD3 counterpoise=4
 ---------------------------------------------------
 1/38=1,62=4,172=1/1;
 2/12=2,15=1,17=6,18=5,40=1/2;
 1/38=1,53=2,62=4,63=1/22;
 3/5=4,6=6,7=112,11=2,25=1,30=1,74=-55,124=31/1,2,3;
 4//1;
 5/5=2,38=5/2;
 6/7=2,8=2,9=2,10=2,28=1/1;
 1/53=2,62=4,63=1/22;
 3/5=7,6=11,7=112,11=2,25=1,30=1,74=-55,82=7,124=31/1,2,3;
 4//1;
 5/5=2,38=5/2;
 6/7=2,8=2,9=2,10=2,28=1/1;
 1/53=2,62=4,63=1/22(-4);
 99/5=1,9=1/99;
 Leave Link    1 at Fri Feb 17 21:29:27 2023, MaxMem=  6710886400 cpu:               0.7 elap:               0.0
 (Enter /data0/home/software/g16/l101.exe)
 -------------------
 Title Card Required
 -------------------
 Symbolic Z-matrix:
 Charge =  0 Multiplicity = 1 in supermolecule
 Charge =  0 Multiplicity = 1 in fragment      1.
 Charge =  0 Multiplicity = 1 in fragment      2.
 Charge =  0 Multiplicity = 1 in fragment      3.
 Charge =  0 Multiplicity = 1 in fragment      4.
 P                     13.59503   14.48538   7.2534     
 O                     13.46903   13.16635   7.88923    
 O                     12.2716   15.0568   6.57698    
 H                     11.51802   15.1101   7.28953    
 O                     14.14604   15.66733   8.14965    
 H                     13.76975   15.56685   9.13668    
 O                     14.60563   14.44388   6.02875    
 H                     14.67149   15.41087   5.6597     
 O                     11.01568   12.231    8.97854    
 H                     10.61861   11.76011   8.2456     
 H                     11.89643   12.50789   8.63745    
 O                     10.29907   15.00738   8.69814    
 H                     10.41002   14.06726   8.89644    
 H                     10.75685   15.46393   9.4126     
 O                     11.07684   11.42189   11.67341    
 H                     10.47508   10.69801   11.81134    
 H                     11.03304   11.63739   10.72682    
 
 ITRead=  0  0  0  0  0  0  0  0  0  0  0  0  0  0  0  0  0
 MicOpt= -1 -1 -1 -1 -1 -1 -1 -1 -1 -1 -1 -1 -1 -1 -1 -1 -1
 NAtoms=     17 NQM=       17 NQMF=       0 NMMI=      0 NMMIF=      0
                NMic=       0 NMicF=      0.
                    Isotopes and Nuclear Properties:
 (Nuclear quadrupole moments (NQMom) in fm**2, nuclear magnetic moments (NMagM)
  in nuclear magnetons)

  Atom         1           2           3           4           5           6           7           8           9          10
 IAtWgt=          31          16          16           1          16           1          16           1          16           1
 AtmWgt=  30.9737634  15.9949146  15.9949146   1.0078250  15.9949146   1.0078250  15.9949146   1.0078250  15.9949146   1.0078250
 NucSpn=           1           0           0           1           0           1           0           1           0           1
 AtZEff=  -0.0000000  -0.0000000  -0.0000000  -0.0000000  -0.0000000  -0.0000000  -0.0000000  -0.0000000  -0.0000000  -0.0000000
 NQMom=    0.0000000   0.0000000   0.0000000   0.0000000   0.0000000   0.0000000   0.0000000   0.0000000   0.0000000   0.0000000
 NMagM=    1.1316000   0.0000000   0.0000000   2.7928460   0.0000000   2.7928460   0.0000000   2.7928460   0.0000000   2.7928460
 AtZNuc=  15.0000000   8.0000000   8.0000000   1.0000000   8.0000000   1.0000000   8.0000000   1.0000000   8.0000000   1.0000000

  Atom        11          12          13          14          15          16          17
 IAtWgt=           1          16           1           1          16           1           1
 AtmWgt=   1.0078250  15.9949146   1.0078250   1.0078250  15.9949146   1.0078250   1.0078250
 NucSpn=           1           0           1           1           0           1           1
 AtZEff=  -0.0000000  -0.0000000  -0.0000000  -0.0000000  -0.0000000  -0.0000000  -0.0000000
 NQMom=    0.0000000   0.0000000   0.0000000   0.0000000   0.0000000   0.0000000   0.0000000
 NMagM=    2.7928460   0.0000000   2.7928460   2.7928460   0.0000000   2.7928460   2.7928460
 AtZNuc=   1.0000000   8.0000000   1.0000000   1.0000000   8.0000000   1.0000000   1.0000000
 Leave Link  101 at Fri Feb 17 21:29:28 2023, MaxMem=  6710886400 cpu:               2.0 elap:               0.1
 (Enter /data0/home/software/g16/l202.exe)
                          Input orientation:                          
 ---------------------------------------------------------------------
 Center     Atomic      Atomic             Coordinates (Angstroms)
 Number     Number       Type             X           Y           Z
 ---------------------------------------------------------------------
      1         15           0       13.595033   14.485382    7.253403
      2          8           0       13.469032   13.166350    7.889227
      3          8           0       12.271600   15.056797    6.576981
      4          1           0       11.518019   15.110099    7.289528
      5          8           0       14.146044   15.667329    8.149646
      6          1           0       13.769752   15.566849    9.136675
      7          8           0       14.605633   14.443881    6.028753
      8          1           0       14.671492   15.410873    5.659704
      9          8           0       11.015679   12.231005    8.978544
     10          1           0       10.618605   11.760113    8.245603
     11          1           0       11.896434   12.507888    8.637446
     12          8           0       10.299073   15.007382    8.698143
     13          1           0       10.410017   14.067264    8.896445
     14          1           0       10.756852   15.463931    9.412599
     15          8           0       11.076842   11.421891   11.673408
     16          1           0       10.475078   10.698013   11.811341
     17          1           0       11.033036   11.637388   10.726820
 ---------------------------------------------------------------------
                    Distance matrix (angstroms):
                    1          2          3          4          5
     1  P    0.000000
     2  O    1.469692   0.000000
     3  O    1.592337   2.594152   0.000000
     4  H    2.169231   2.818555   1.038484   0.000000
     5  O    1.582360   2.604047   2.521818   2.820784   0.000000
     6  H    2.178718   2.721939   3.009426   2.948029   1.061093
     7  O    1.588333   2.526917   2.474658   3.400994   2.491231
     8  H    2.134285   3.384460   2.593501   3.562469   2.557670
     9  O    3.835544   2.842608   3.915347   3.375545   4.721714
    10  H    4.155800   3.198350   4.047816   3.597976   5.264824
    11  H    2.951490   1.861845   3.298970   2.954925   3.909061
    12  O    3.636359   3.753982   2.897004   1.865630   3.941518
    13  H    3.608149   3.344205   3.134419   2.212997   4.132289
    14  H    3.697967   3.867229   3.240517   2.282981   3.622574
    15  O    5.938241   4.804762   6.372877   5.745948   6.313529
    16  H    6.697244   5.517194   7.044502   6.403204   7.181790
    17  H    5.171027   4.040264   5.517931   4.910184   5.707282
                    6          7          8          9         10
     6  H    0.000000
     7  O    3.408656   0.000000
     8  H    3.595385   1.037115   0.000000
     9  O    4.328716   5.146441   5.872923   0.000000
    10  H    5.021452   5.292771   6.036623   0.957397   0.000000
    11  H    3.621573   4.230025   4.999522   0.984247   1.531521
    12  O    3.542729   5.098003   5.339753   2.881045   3.294184
    13  H    3.687043   5.095949   5.517422   1.935307   2.406252
    14  H    3.027258   5.225326   5.423232   3.272187   3.885777
    15  O    5.555849   7.310740   8.062141   2.814374   3.474798
    16  H    6.458659   8.033140   8.812694   3.266045   3.723324
    17  H    5.045675   6.535418   7.290625   1.846389   2.518581
                   11         12         13         14         15
    11  H    0.000000
    12  O    2.966937   0.000000
    13  H    2.169832   0.967189   0.000000
    14  H    3.261549   0.963559   1.528852   0.000000
    15  O    3.326888   4.723650   3.892837   4.642385   0.000000
    16  H    3.920397   5.319177   4.455637   5.342971   0.951391
    17  H    2.422542   4.001386   3.105273   4.055353   0.971796
                   16         17
    16  H    0.000000
    17  H    1.539457   0.000000
 Symmetry turned off by external request.
 Stoichiometry    H9O7P
 Framework group  C1[X(H9O7P)]
 Deg. of freedom    45
 Full point group                 C1      NOp   1
 Rotational constants (GHZ):           1.9912056           0.6060772           0.5467847
 Leave Link  202 at Fri Feb 17 21:29:28 2023, MaxMem=  6710886400 cpu:               0.1 elap:               0.0
 (Enter /data0/home/software/g16/l122.exe)
 Counterpoise: doing full-system calculation.
 Leave Link  122 at Fri Feb 17 21:29:28 2023, MaxMem=  6710886400 cpu:               0.0 elap:               0.0
 (Enter /data0/home/software/g16/l301.exe)
 Standard basis: 6-311+G(2d,p) (5D, 7F)
 Ernie: Thresh=  0.10000D-02 Tol=  0.10000D-05 Strict=F.
   278 basis functions,   422 primitive gaussians,   294 cartesian basis functions
    40 alpha electrons       40 beta electrons
       nuclear repulsion energy       541.0681860606 Hartrees.
 IExCor= 4336 DFT=T Ex+Corr=M062X ExCW=0 ScaHFX=  0.540000
 ScaDFX=  1.000000  1.000000  1.000000  1.000000 ScalE2=  1.000000  1.000000
 IRadAn=      5 IRanWt=     -1 IRanGd=            0 ICorTp=0 IEmpDi=131
 NAtoms=   17 NActive=   17 NUniq=   17 SFac= 1.00D+00 NAtFMM=   60 NAOKFM=F Big=F
 Integral buffers will be    131072 words long.
 Raffenetti 2 integral format.
 Two-electron integral symmetry is turned off.
 R6Disp:  Grimme-D3 Dispersion energy=       -0.0005591158 Hartrees.
 Nuclear repulsion after empirical dispersion term =      541.0676269447 Hartrees.
 Leave Link  301 at Fri Feb 17 21:29:28 2023, MaxMem=  6710886400 cpu:               1.1 elap:               0.1
 (Enter /data0/home/software/g16/l302.exe)
 NPDir=0 NMtPBC=     1 NCelOv=     1 NCel=       1 NClECP=     1 NCelD=      1
         NCelK=      1 NCelE2=     1 NClLst=     1 CellRange=     0.0.
 One-electron integrals computed using PRISM.
 NBasis=   278 RedAO= T EigKep=  2.94D-04  NBF=   278
 NBsUse=   278 1.00D-06 EigRej= -1.00D+00 NBFU=   278
 Precomputing XC quadrature grid using
 IXCGrd= 4 IRadAn=           5 IRanWt=          -1 IRanGd=           0 AccXCQ= 0.00D+00.
 Generated NRdTot=       0 NPtTot=           0 NUsed=           0 NTot=          32
 NSgBfM=   294   294   294   294   294 MxSgAt=    17 MxSgA2=    17.
 Leave Link  302 at Fri Feb 17 21:29:28 2023, MaxMem=  6710886400 cpu:               4.4 elap:               0.2
 (Enter /data0/home/software/g16/l303.exe)
 DipDrv:  MaxL=1.
 Leave Link  303 at Fri Feb 17 21:29:28 2023, MaxMem=  6710886400 cpu:               0.7 elap:               0.0
 (Enter /data0/home/software/g16/l401.exe)
 ExpMin= 3.48D-02 ExpMax= 7.75D+04 ExpMxC= 2.65D+03 IAcc=3 IRadAn=         5 AccDes= 0.00D+00
 Harris functional with IExCor= 1009 and IRadAn=       5 diagonalized for initial guess.
 HarFok:  IExCor= 1009 AccDes= 0.00D+00 IRadAn=         5 IDoV= 1 UseB2=F ITyADJ=14
 ICtDFT=  3500011 ScaDFX=  1.000000  1.000000  1.000000  1.000000
 FoFCou: FMM=F IPFlag=           0 FMFlag=      100000 FMFlg1=           0
         NFxFlg=           0 DoJE=T BraDBF=F KetDBF=T FulRan=T
         wScrn=  0.000000 ICntrl=       500 IOpCl=  0 I1Cent=   200000004 NGrid=           0
         NMat0=    1 NMatS0=      1 NMatT0=    0 NMatD0=    1 NMtDS0=    0 NMtDT0=    0
 Symmetry not used in FoFCou.
 Harris En= -873.201602043972    
 JPrj=0 DoOrth=F DoCkMO=F.
 Leave Link  401 at Fri Feb 17 21:29:28 2023, MaxMem=  6710886400 cpu:              13.5 elap:               0.6
 (Enter /data0/home/software/g16/l502.exe)
 Two-electron integral symmetry not used.
 Closed shell SCF:
 Using DIIS extrapolation, IDIIS=  1040.
 NGot=  6710886400 LenX=  6710704303 LenY=  6710617426
 Requested convergence on RMS density matrix=1.00D-08 within 128 cycles.
 Requested convergence on MAX density matrix=1.00D-06.
 Requested convergence on             energy=1.00D-06.
 No special actions if energy rises.
 Fock matrices will be formed incrementally for  20 cycles.

 Cycle   1  Pass 1  IDiag  1:
 FoFJK:  IHMeth= 1 ICntrl=       0 DoSepK=F KAlg= 0 I1Cent=           0 FoldK=F
 IRaf= 880000000 NMat=       1 IRICut=       1 DoRegI=T DoRafI=F ISym2E= 0 IDoP0=0 IntGTp=1.
 FoFCou: FMM=F IPFlag=           0 FMFlag=      100000 FMFlg1=           0
         NFxFlg=           0 DoJE=F BraDBF=F KetDBF=F FulRan=T
         wScrn=  0.000000 ICntrl=         0 IOpCl=  0 I1Cent=           0 NGrid=           0
         NMat0=    1 NMatS0=      1 NMatT0=    0 NMatD0=    1 NMtDS0=    0 NMtDT0=    0
 Symmetry not used in FoFCou.
 E= -873.001743113424    
 DIIS: error= 3.95D-02 at cycle   1 NSaved=   1.
 NSaved= 1 IEnMin= 1 EnMin= -873.001743113424     IErMin= 1 ErrMin= 3.95D-02
 ErrMax= 3.95D-02  0.00D+00 EMaxC= 1.00D-01 BMatC= 8.11D-01 BMatP= 8.11D-01
 IDIUse=3 WtCom= 6.05D-01 WtEn= 3.95D-01
 Coeff-Com:  0.100D+01
 Coeff-En:   0.100D+01
 Coeff:      0.100D+01
 Gap=     0.292 Goal=   None    Shift=    0.000
 GapD=    0.292 DampG=1.000 DampE=0.500 DampFc=0.5000 IDamp=-1.
 Damping current iteration by 5.00D-01
 RMSDP=5.14D-03 MaxDP=1.97D-01              OVMax= 2.12D-01

 Cycle   2  Pass 1  IDiag  1:
 RMSU=  2.57D-03    CP:  9.98D-01
 E= -873.202947542220     Delta-E=       -0.201204428796 Rises=F Damp=T
 DIIS: error= 8.70D-03 at cycle   2 NSaved=   2.
 NSaved= 2 IEnMin= 2 EnMin= -873.202947542220     IErMin= 2 ErrMin= 8.70D-03
 ErrMax= 8.70D-03  0.00D+00 EMaxC= 1.00D-01 BMatC= 3.46D-02 BMatP= 8.11D-01
 IDIUse=3 WtCom= 9.13D-01 WtEn= 8.70D-02
 Coeff-Com:  0.467D-01 0.953D+00
 Coeff-En:   0.150D+00 0.850D+00
 Coeff:      0.557D-01 0.944D+00
 Gap=     0.340 Goal=   None    Shift=    0.000
 RMSDP=1.02D-03 MaxDP=5.46D-02 DE=-2.01D-01 OVMax= 1.18D-01

 Cycle   3  Pass 1  IDiag  1:
 RMSU=  8.32D-04    CP:  9.91D-01  7.72D-01
 E= -873.458909925535     Delta-E=       -0.255962383315 Rises=F Damp=F
 DIIS: error= 3.96D-03 at cycle   3 NSaved=   3.
 NSaved= 3 IEnMin= 3 EnMin= -873.458909925535     IErMin= 3 ErrMin= 3.96D-03
 ErrMax= 3.96D-03  0.00D+00 EMaxC= 1.00D-01 BMatC= 6.96D-03 BMatP= 3.46D-02
 IDIUse=3 WtCom= 9.60D-01 WtEn= 3.96D-02
 Coeff-Com: -0.257D-01 0.232D+00 0.793D+00
 Coeff-En:   0.000D+00 0.000D+00 0.100D+01
 Coeff:     -0.247D-01 0.223D+00 0.802D+00
 Gap=     0.336 Goal=   None    Shift=    0.000
 RMSDP=3.75D-04 MaxDP=1.44D-02 DE=-2.56D-01 OVMax= 3.19D-02

 Cycle   4  Pass 1  IDiag  1:
 RMSU=  3.26D-04    CP:  9.91D-01  8.33D-01  8.85D-01
 E= -873.460748049332     Delta-E=       -0.001838123797 Rises=F Damp=F
 DIIS: error= 3.31D-03 at cycle   4 NSaved=   4.
 NSaved= 4 IEnMin= 4 EnMin= -873.460748049332     IErMin= 4 ErrMin= 3.31D-03
 ErrMax= 3.31D-03  0.00D+00 EMaxC= 1.00D-01 BMatC= 4.53D-03 BMatP= 6.96D-03
 IDIUse=3 WtCom= 9.67D-01 WtEn= 3.31D-02
 Coeff-Com: -0.198D-01 0.422D-01 0.479D+00 0.499D+00
 Coeff-En:   0.000D+00 0.000D+00 0.391D+00 0.609D+00
 Coeff:     -0.192D-01 0.408D-01 0.476D+00 0.503D+00
 Gap=     0.338 Goal=   None    Shift=    0.000
 RMSDP=1.81D-04 MaxDP=7.37D-03 DE=-1.84D-03 OVMax= 1.33D-02

 Cycle   5  Pass 1  IDiag  1:
 RMSU=  4.66D-05    CP:  9.91D-01  8.16D-01  9.71D-01  5.31D-01
 E= -873.463775519938     Delta-E=       -0.003027470607 Rises=F Damp=F
 DIIS: error= 2.82D-04 at cycle   5 NSaved=   5.
 NSaved= 5 IEnMin= 5 EnMin= -873.463775519938     IErMin= 5 ErrMin= 2.82D-04
 ErrMax= 2.82D-04  0.00D+00 EMaxC= 1.00D-01 BMatC= 2.37D-05 BMatP= 4.53D-03
 IDIUse=3 WtCom= 9.97D-01 WtEn= 2.82D-03
 Coeff-Com: -0.327D-02 0.308D-02 0.985D-01 0.132D+00 0.769D+00
 Coeff-En:   0.000D+00 0.000D+00 0.000D+00 0.000D+00 0.100D+01
 Coeff:     -0.326D-02 0.307D-02 0.982D-01 0.132D+00 0.770D+00
 Gap=     0.339 Goal=   None    Shift=    0.000
 RMSDP=1.91D-05 MaxDP=8.28D-04 DE=-3.03D-03 OVMax= 9.46D-04

 Cycle   6  Pass 1  IDiag  1:
 RMSU=  1.55D-05    CP:  9.91D-01  8.14D-01  9.73D-01  5.60D-01  9.59D-01
 E= -873.463790623777     Delta-E=       -0.000015103839 Rises=F Damp=F
 DIIS: error= 9.47D-05 at cycle   6 NSaved=   6.
 NSaved= 6 IEnMin= 6 EnMin= -873.463790623777     IErMin= 6 ErrMin= 9.47D-05
 ErrMax= 9.47D-05  0.00D+00 EMaxC= 1.00D-01 BMatC= 3.18D-06 BMatP= 2.37D-05
 IDIUse=1 WtCom= 1.00D+00 WtEn= 0.00D+00
 Coeff-Com: -0.167D-03-0.108D-02 0.122D-01 0.237D-01 0.301D+00 0.664D+00
 Coeff:     -0.167D-03-0.108D-02 0.122D-01 0.237D-01 0.301D+00 0.664D+00
 Gap=     0.339 Goal=   None    Shift=    0.000
 RMSDP=6.73D-06 MaxDP=2.19D-04 DE=-1.51D-05 OVMax= 3.05D-04

 Cycle   7  Pass 1  IDiag  1:
 RMSU=  3.92D-06    CP:  9.91D-01  8.13D-01  9.74D-01  5.61D-01  1.04D+00
                    CP:  8.90D-01
 E= -873.463792758012     Delta-E=       -0.000002134235 Rises=F Damp=F
 DIIS: error= 4.20D-05 at cycle   7 NSaved=   7.
 NSaved= 7 IEnMin= 7 EnMin= -873.463792758012     IErMin= 7 ErrMin= 4.20D-05
 ErrMax= 4.20D-05  0.00D+00 EMaxC= 1.00D-01 BMatC= 3.12D-07 BMatP= 3.18D-06
 IDIUse=1 WtCom= 1.00D+00 WtEn= 0.00D+00
 Coeff-Com:  0.388D-03-0.757D-03-0.103D-01-0.114D-01-0.818D-02 0.218D+00
 Coeff-Com:  0.812D+00
 Coeff:      0.388D-03-0.757D-03-0.103D-01-0.114D-01-0.818D-02 0.218D+00
 Coeff:      0.812D+00
 Gap=     0.339 Goal=   None    Shift=    0.000
 RMSDP=2.79D-06 MaxDP=8.89D-05 DE=-2.13D-06 OVMax= 1.48D-04

 Cycle   8  Pass 1  IDiag  1:
 RMSU=  1.75D-06    CP:  9.91D-01  8.12D-01  9.75D-01  5.62D-01  1.07D+00
                    CP:  9.42D-01  9.06D-01
 E= -873.463792983261     Delta-E=       -0.000000225249 Rises=F Damp=F
 DIIS: error= 9.40D-06 at cycle   8 NSaved=   8.
 NSaved= 8 IEnMin= 8 EnMin= -873.463792983261     IErMin= 8 ErrMin= 9.40D-06
 ErrMax= 9.40D-06  0.00D+00 EMaxC= 1.00D-01 BMatC= 4.20D-08 BMatP= 3.12D-07
 IDIUse=1 WtCom= 1.00D+00 WtEn= 0.00D+00
 Coeff-Com:  0.161D-03-0.226D-03-0.499D-02-0.592D-02-0.186D-01 0.449D-01
 Coeff-Com:  0.343D+00 0.641D+00
 Coeff:      0.161D-03-0.226D-03-0.499D-02-0.592D-02-0.186D-01 0.449D-01
 Coeff:      0.343D+00 0.641D+00
 Gap=     0.339 Goal=   None    Shift=    0.000
 RMSDP=6.28D-07 MaxDP=3.77D-05 DE=-2.25D-07 OVMax= 2.75D-05

 Cycle   9  Pass 1  IDiag  1:
 RMSU=  3.65D-07    CP:  9.91D-01  8.12D-01  9.75D-01  5.62D-01  1.07D+00
                    CP:  9.62D-01  9.99D-01  9.10D-01
 E= -873.463793015591     Delta-E=       -0.000000032329 Rises=F Damp=F
 DIIS: error= 1.31D-06 at cycle   9 NSaved=   9.
 NSaved= 9 IEnMin= 9 EnMin= -873.463793015591     IErMin= 9 ErrMin= 1.31D-06
 ErrMax= 1.31D-06  0.00D+00 EMaxC= 1.00D-01 BMatC= 9.84D-10 BMatP= 4.20D-08
 IDIUse=1 WtCom= 1.00D+00 WtEn= 0.00D+00
 Coeff-Com: -0.129D-04 0.283D-04 0.445D-04 0.364D-04-0.188D-02-0.103D-01
 Coeff-Com: -0.107D-01 0.753D-01 0.947D+00
 Coeff:     -0.129D-04 0.283D-04 0.445D-04 0.364D-04-0.188D-02-0.103D-01
 Coeff:     -0.107D-01 0.753D-01 0.947D+00
 Gap=     0.339 Goal=   None    Shift=    0.000
 RMSDP=2.33D-07 MaxDP=7.90D-06 DE=-3.23D-08 OVMax= 1.04D-05

 Cycle  10  Pass 1  IDiag  1:
 RMSU=  1.15D-07    CP:  9.91D-01  8.12D-01  9.75D-01  5.62D-01  1.07D+00
                    CP:  9.62D-01  1.02D+00  9.93D-01  1.12D+00
 E= -873.463793016583     Delta-E=       -0.000000000992 Rises=F Damp=F
 DIIS: error= 1.17D-06 at cycle  10 NSaved=  10.
 NSaved=10 IEnMin=10 EnMin= -873.463793016583     IErMin=10 ErrMin= 1.17D-06
 ErrMax= 1.17D-06  0.00D+00 EMaxC= 1.00D-01 BMatC= 4.38D-10 BMatP= 9.84D-10
 IDIUse=1 WtCom= 1.00D+00 WtEn= 0.00D+00
 Coeff-Com: -0.194D-04 0.325D-04 0.418D-03 0.477D-03 0.323D-03-0.940D-02
 Coeff-Com: -0.340D-01-0.143D-01 0.489D+00 0.567D+00
 Coeff:     -0.194D-04 0.325D-04 0.418D-03 0.477D-03 0.323D-03-0.940D-02
 Coeff:     -0.340D-01-0.143D-01 0.489D+00 0.567D+00
 Gap=     0.339 Goal=   None    Shift=    0.000
 RMSDP=6.56D-08 MaxDP=2.42D-06 DE=-9.92D-10 OVMax= 3.37D-06

 Cycle  11  Pass 1  IDiag  1:
 RMSU=  4.33D-08    CP:  9.91D-01  8.12D-01  9.75D-01  5.62D-01  1.07D+00
                    CP:  9.62D-01  1.02D+00  1.00D+00  1.21D+00  7.79D-01
 E= -873.463793016880     Delta-E=       -0.000000000297 Rises=F Damp=F
 DIIS: error= 1.41D-07 at cycle  11 NSaved=  11.
 NSaved=11 IEnMin=11 EnMin= -873.463793016880     IErMin=11 ErrMin= 1.41D-07
 ErrMax= 1.41D-07  0.00D+00 EMaxC= 1.00D-01 BMatC= 1.12D-11 BMatP= 4.38D-10
 IDIUse=1 WtCom= 1.00D+00 WtEn= 0.00D+00
 Coeff-Com: -0.487D-06 0.809D-06 0.546D-04 0.565D-04 0.216D-03-0.446D-03
 Coeff-Com: -0.483D-02-0.112D-01-0.190D-01 0.105D+00 0.930D+00
 Coeff:     -0.487D-06 0.809D-06 0.546D-04 0.565D-04 0.216D-03-0.446D-03
 Coeff:     -0.483D-02-0.112D-01-0.190D-01 0.105D+00 0.930D+00
 Gap=     0.339 Goal=   None    Shift=    0.000
 RMSDP=1.93D-08 MaxDP=5.96D-07 DE=-2.97D-10 OVMax= 1.15D-06

 Cycle  12  Pass 1  IDiag  1:
 RMSU=  1.06D-08    CP:  9.91D-01  8.12D-01  9.75D-01  5.62D-01  1.07D+00
                    CP:  9.62D-01  1.02D+00  1.01D+00  1.24D+00  8.59D-01
                    CP:  1.03D+00
 E= -873.463793016878     Delta-E=        0.000000000002 Rises=F Damp=F
 DIIS: error= 3.43D-08 at cycle  12 NSaved=  12.
 NSaved=12 IEnMin=11 EnMin= -873.463793016880     IErMin=12 ErrMin= 3.43D-08
 ErrMax= 3.43D-08  0.00D+00 EMaxC= 1.00D-01 BMatC= 8.22D-13 BMatP= 1.12D-11
 IDIUse=1 WtCom= 1.00D+00 WtEn= 0.00D+00
 Coeff-Com:  0.891D-06-0.151D-05-0.222D-05-0.435D-05 0.593D-04 0.358D-03
 Coeff-Com:  0.333D-03-0.237D-02-0.305D-01 0.878D-03 0.276D+00 0.755D+00
 Coeff:      0.891D-06-0.151D-05-0.222D-05-0.435D-05 0.593D-04 0.358D-03
 Coeff:      0.333D-03-0.237D-02-0.305D-01 0.878D-03 0.276D+00 0.755D+00
 Gap=     0.339 Goal=   None    Shift=    0.000
 RMSDP=4.36D-09 MaxDP=1.21D-07 DE= 2.27D-12 OVMax= 1.79D-07

 SCF Done:  E(RM062X) =  -873.463793017     A.U. after   12 cycles
            NFock= 12  Conv=0.44D-08     -V/T= 2.0026
 KE= 8.711798412344D+02 PE=-3.151644016082D+03 EE= 8.659327548859D+02
 Leave Link  502 at Fri Feb 17 21:29:45 2023, MaxMem=  6710886400 cpu:             382.5 elap:              16.0
 (Enter /data0/home/software/g16/l601.exe)
 Copying SCF densities to generalized density rwf, IOpCl= 0 IROHF=0.

 **********************************************************************

            Population analysis using the SCF density.

 **********************************************************************

 Alpha  occ. eigenvalues --  -78.18179 -19.69877 -19.68659 -19.66790 -19.65898
 Alpha  occ. eigenvalues --  -19.65297 -19.61268 -19.59043  -6.98916  -5.10832
 Alpha  occ. eigenvalues --   -5.10775  -5.10654  -1.24932  -1.17675  -1.17381
 Alpha  occ. eigenvalues --   -1.16224  -1.15889  -1.11455  -1.10287  -0.73426
 Alpha  occ. eigenvalues --   -0.65765  -0.64579  -0.64524  -0.63320  -0.59302
 Alpha  occ. eigenvalues --   -0.58990  -0.53800  -0.52403  -0.52088  -0.51077
 Alpha  occ. eigenvalues --   -0.50627  -0.47453  -0.47032  -0.44826  -0.44077
 Alpha  occ. eigenvalues --   -0.43307  -0.42466  -0.41242  -0.39661  -0.37018
 Alpha virt. eigenvalues --   -0.03099   0.00368   0.02161   0.03571   0.06984
 Alpha virt. eigenvalues --    0.08304   0.08343   0.10406   0.10724   0.11158
 Alpha virt. eigenvalues --    0.12677   0.13663   0.14918   0.15217   0.16068
 Alpha virt. eigenvalues --    0.16678   0.17604   0.18151   0.18653   0.19218
 Alpha virt. eigenvalues --    0.19780   0.20680   0.20933   0.21999   0.22291
 Alpha virt. eigenvalues --    0.22715   0.24369   0.24722   0.25289   0.26571
 Alpha virt. eigenvalues --    0.26958   0.27191   0.27957   0.28609   0.28960
 Alpha virt. eigenvalues --    0.30188   0.30349   0.31381   0.32382   0.34394
 Alpha virt. eigenvalues --    0.35546   0.36141   0.37917   0.39277   0.42308
 Alpha virt. eigenvalues --    0.44962   0.46195   0.46985   0.49182   0.50212
 Alpha virt. eigenvalues --    0.52867   0.53843   0.55356   0.56473   0.59168
 Alpha virt. eigenvalues --    0.60728   0.63245   0.65495   0.66443   0.74570
 Alpha virt. eigenvalues --    0.77604   0.77633   0.84813   0.96414   0.97783
 Alpha virt. eigenvalues --    0.98643   1.00589   1.01447   1.03182   1.04262
 Alpha virt. eigenvalues --    1.05206   1.07769   1.08414   1.08942   1.10498
 Alpha virt. eigenvalues --    1.11045   1.12145   1.12424   1.14058   1.14674
 Alpha virt. eigenvalues --    1.16524   1.17492   1.18681   1.19611   1.20922
 Alpha virt. eigenvalues --    1.22517   1.24536   1.25187   1.25835   1.26406
 Alpha virt. eigenvalues --    1.27151   1.28000   1.29335   1.33152   1.34594
 Alpha virt. eigenvalues --    1.34858   1.35915   1.38095   1.39163   1.42938
 Alpha virt. eigenvalues --    1.44000   1.46286   1.48034   1.48708   1.53395
 Alpha virt. eigenvalues --    1.56293   1.57910   1.59302   1.61224   1.62440
 Alpha virt. eigenvalues --    1.65166   1.67462   1.68877   1.70449   1.71931
 Alpha virt. eigenvalues --    1.74176   1.75574   1.76473   1.78207   1.79202
 Alpha virt. eigenvalues --    1.82658   1.85379   1.87269   1.90487   1.92594
 Alpha virt. eigenvalues --    1.95970   1.96404   2.00422   2.03584   2.04057
 Alpha virt. eigenvalues --    2.05149   2.08489   2.10353   2.11400   2.12474
 Alpha virt. eigenvalues --    2.14470   2.15929   2.18411   2.20536   2.21686
 Alpha virt. eigenvalues --    2.23067   2.28441   2.32967   2.36368   2.38964
 Alpha virt. eigenvalues --    2.42883   2.43718   2.47529   2.49898   2.54263
 Alpha virt. eigenvalues --    2.55552   2.57669   2.59370   2.60640   2.62413
 Alpha virt. eigenvalues --    2.63278   2.64740   2.67194   2.74214   2.77259
 Alpha virt. eigenvalues --    2.80249   2.84414   2.90624   2.94128   2.94835
 Alpha virt. eigenvalues --    2.97305   3.00933   3.09484   3.12860   3.14037
 Alpha virt. eigenvalues --    5.02321   5.05970   5.06069   5.07285   5.09580
 Alpha virt. eigenvalues --    5.11597   5.12938   5.14155   5.17874   5.21271
 Alpha virt. eigenvalues --    5.26900   5.35231   5.45149   5.50242   5.51097
 Alpha virt. eigenvalues --    5.51320   5.57158   5.59628   5.92273   5.92872
 Alpha virt. eigenvalues --    6.01183   6.72292   6.72940   6.74780   6.76268
 Alpha virt. eigenvalues --    6.77298   6.77721   6.78634   6.78938   6.80634
 Alpha virt. eigenvalues --    6.81097   6.82105   6.82203   6.83906   6.85412
 Alpha virt. eigenvalues --    6.88377   6.89385   6.90460   6.91223   6.93553
 Alpha virt. eigenvalues --    6.94347   6.94690   6.97053   6.98523   7.00165
 Alpha virt. eigenvalues --    7.00740   7.04803   7.11314   7.12077   7.13257
 Alpha virt. eigenvalues --    7.18759   7.24936   7.25793   7.27871   7.32376
 Alpha virt. eigenvalues --    7.39938   7.64621  14.23022  14.23933  14.34056
 Alpha virt. eigenvalues --   49.97766  49.99030  49.99510  50.00883  50.03468
 Alpha virt. eigenvalues --   50.04057  50.08393 163.86897
          Condensed to atoms (all electrons):
               1          2          3          4          5          6
     1  P   12.542789   0.490033   0.288215  -0.008649   0.263301   0.007359
     2  O    0.490033   8.235812  -0.037778  -0.001376  -0.022845  -0.011584
     3  O    0.288215  -0.037778   8.099409   0.233570   0.030009  -0.006333
     4  H   -0.008649  -0.001376   0.233570   0.371440   0.001292  -0.001867
     5  O    0.263301  -0.022845   0.030009   0.001292   8.031959   0.266084
     6  H    0.007359  -0.011584  -0.006333  -0.001867   0.266084   0.403760
     7  O    0.158117  -0.033313  -0.009125  -0.005199  -0.021363   0.005562
     8  H    0.034031  -0.006272  -0.006393   0.001705  -0.006546   0.000867
     9  O   -0.012193  -0.010674   0.004892   0.001232  -0.000693  -0.000258
    10  H   -0.000093   0.001143  -0.000970  -0.000128   0.000010  -0.000034
    11  H    0.016212   0.050619  -0.001647  -0.002292  -0.001902   0.000226
    12  O    0.073605  -0.025965   0.013390  -0.025575  -0.014277   0.000504
    13  H   -0.010561   0.006701  -0.007217   0.010859   0.000835  -0.000229
    14  H   -0.002490  -0.000990  -0.004875   0.004087   0.002783  -0.000093
    15  O    0.000085   0.000412   0.000008  -0.000015   0.000000  -0.000021
    16  H    0.000002  -0.000037   0.000000  -0.000002  -0.000000  -0.000000
    17  H    0.000435  -0.001796   0.000005   0.000034   0.000011   0.000026
               7          8          9         10         11         12
     1  P    0.158117   0.034031  -0.012193  -0.000093   0.016212   0.073605
     2  O   -0.033313  -0.006272  -0.010674   0.001143   0.050619  -0.025965
     3  O   -0.009125  -0.006393   0.004892  -0.000970  -0.001647   0.013390
     4  H   -0.005199   0.001705   0.001232  -0.000128  -0.002292  -0.025575
     5  O   -0.021363  -0.006546  -0.000693   0.000010  -0.001902  -0.014277
     6  H    0.005562   0.000867  -0.000258  -0.000034   0.000226   0.000504
     7  O    8.147018   0.223415  -0.002324   0.000035   0.004026   0.006913
     8  H    0.223415   0.442975   0.000061  -0.000005  -0.000114  -0.000037
     9  O   -0.002324   0.000061   8.165694   0.312133   0.273349  -0.004600
    10  H    0.000035  -0.000005   0.312133   0.405379  -0.020443  -0.001390
    11  H    0.004026  -0.000114   0.273349  -0.020443   0.314799   0.007795
    12  O    0.006913  -0.000037  -0.004600  -0.001390   0.007795   7.957366
    13  H   -0.000604  -0.000002   0.022138  -0.000203  -0.008005   0.323456
    14  H   -0.000324   0.000005   0.000228   0.000523  -0.001176   0.323886
    15  O   -0.000003  -0.000000   0.015335  -0.000488  -0.004241   0.002089
    16  H    0.000000   0.000000  -0.001294  -0.000731   0.001301  -0.000103
    17  H    0.000014   0.000000  -0.050462  -0.002378   0.010900  -0.002582
              13         14         15         16         17
     1  P   -0.010561  -0.002490   0.000085   0.000002   0.000435
     2  O    0.006701  -0.000990   0.000412  -0.000037  -0.001796
     3  O   -0.007217  -0.004875   0.000008   0.000000   0.000005
     4  H    0.010859   0.004087  -0.000015  -0.000002   0.000034
     5  O    0.000835   0.002783   0.000000  -0.000000   0.000011
     6  H   -0.000229  -0.000093  -0.000021  -0.000000   0.000026
     7  O   -0.000604  -0.000324  -0.000003   0.000000   0.000014
     8  H   -0.000002   0.000005  -0.000000   0.000000   0.000000
     9  O    0.022138   0.000228   0.015335  -0.001294  -0.050462
    10  H   -0.000203   0.000523  -0.000488  -0.000731  -0.002378
    11  H   -0.008005  -0.001176  -0.004241   0.001301   0.010900
    12  O    0.323456   0.323886   0.002089  -0.000103  -0.002582
    13  H    0.295002  -0.020217  -0.002413   0.000263   0.001370
    14  H   -0.020217   0.423026  -0.000161  -0.000005  -0.000120
    15  O   -0.002413  -0.000161   8.113627   0.279436   0.253678
    16  H    0.000263  -0.000005   0.279436   0.460208  -0.005080
    17  H    0.001370  -0.000120   0.253678  -0.005080   0.394854
 Mulliken charges:
               1
     1  P    1.159802
     2  O   -0.632089
     3  O   -0.595162
     4  H    0.420887
     5  O   -0.528659
     6  H    0.336030
     7  O   -0.472846
     8  H    0.316308
     9  O   -0.712565
    10  H    0.307638
    11  H    0.360593
    12  O   -0.634476
    13  H    0.388827
    14  H    0.275911
    15  O   -0.657328
    16  H    0.266041
    17  H    0.401090
 Sum of Mulliken charges =  -0.00000
 Mulliken charges with hydrogens summed into heavy atoms:
               1
     1  P    1.159802
     2  O   -0.632089
     3  O   -0.174276
     5  O   -0.192629
     7  O   -0.156538
     9  O   -0.044334
    12  O    0.030262
    15  O    0.009802
         Mulliken charges condensed to fragments:
      1      0.004270
      2     -0.044334
      3      0.030262
      4      0.009802
 Electronic spatial extent (au):  <R**2>=         121613.3874
 Charge=             -0.0000 electrons
 Dipole moment (field-independent basis, Debye):
    X=             -0.7810    Y=              2.4695    Z=             -1.2258  Tot=              2.8655
 Quadrupole moment (field-independent basis, Debye-Ang):
   XX=            -76.5941   YY=             19.7320   ZZ=            -83.9866
   XY=             32.0514   XZ=            -22.9572   YZ=              8.1122
 Traceless Quadrupole moment (field-independent basis, Debye-Ang):
   XX=            -29.6445   YY=             66.6816   ZZ=            -37.0370
   XY=             32.0514   XZ=            -22.9572   YZ=              8.1122
 Octapole moment (field-independent basis, Debye-Ang**2):
  XXX=          -2520.4523  YYY=           -635.8386  ZZZ=          -1857.8428  XYY=            406.1802
  XXY=           -396.8139  XXZ=           -847.3560  XZZ=          -1114.0861  YZZ=           -891.4608
  YYZ=             67.3668  XYZ=             88.9960
 Hexadecapole moment (field-independent basis, Debye-Ang**3):
 XXXX=         -61149.9450 YYYY=         -32306.9075 ZZZZ=         -30836.4062 XXXY=         -25362.1096
 XXXZ=         -23276.4588 YYYX=          -4149.2094 YYYZ=          -5193.7007 ZZZX=         -23442.6228
 ZZZY=         -22450.4285 XXYY=          -4668.7763 XXZZ=         -18758.9566 YYZZ=         -11961.6743
 XXYZ=          -5629.4266 YYXZ=           1787.9309 ZZXY=         -11296.3619
 N-N= 5.410676269447D+02 E-N=-3.151644016088D+03  KE= 8.711798412344D+02
 No NMR shielding tensors so no spin-rotation constants.
 Leave Link  601 at Fri Feb 17 21:29:45 2023, MaxMem=  6710886400 cpu:               2.2 elap:               0.1
 (Enter /data0/home/software/g16/l122.exe)
 CPIOFr:  IOpCl= 0 IRwI=-1 IRwCP=  731 ICalc= -1 LCPTot=      120517 Len1MO=      315166 IndFrg=      120517
 CPIOFr:  IOpCl= 0 IRwI=-1 IRwCP=  731 ICalc=  0 LCPTot=      120517 Len1MO=      315166 IndFrg=      435683
 Counterpoise: doing calculation for fragment   1 using the basis set of the full-system, NewBq=T
 Leave Link  122 at Fri Feb 17 21:29:45 2023, MaxMem=  6710886400 cpu:               0.2 elap:               0.0
 (Enter /data0/home/software/g16/l301.exe)
 Basis read from rwf:  (5D, 7F)
 No pseudopotential information found on rwf file.
   278 basis functions,   422 primitive gaussians,   294 cartesian basis functions
    25 alpha electrons       25 beta electrons
       nuclear repulsion energy       280.0054138230 Hartrees.
 IExCor= 4336 DFT=T Ex+Corr=M062X ExCW=0 ScaHFX=  0.540000
 ScaDFX=  1.000000  1.000000  1.000000  1.000000 ScalE2=  1.000000  1.000000
 IRadAn=      5 IRanWt=     -1 IRanGd=            0 ICorTp=0 IEmpDi=131
 NAtoms=   17 NActive=   17 NUniq=   17 SFac= 1.00D+00 NAtFMM=   60 NAOKFM=F Big=F
 Integral buffers will be    131072 words long.
 Raffenetti 2 integral format.
 Two-electron integral symmetry is turned off.
 R6Disp:  Grimme-D3 Dispersion energy=       -0.0000450957 Hartrees.
 Nuclear repulsion after empirical dispersion term =      280.0053687272 Hartrees.
 No density basis found on file   718.
 Leave Link  301 at Fri Feb 17 21:29:45 2023, MaxMem=  6710886400 cpu:               1.3 elap:               0.1
 (Enter /data0/home/software/g16/l302.exe)
 NPDir=0 NMtPBC=     1 NCelOv=     1 NCel=       1 NClECP=     1 NCelD=      1
         NCelK=      1 NCelE2=     1 NClLst=     1 CellRange=     0.0.
 One-electron integrals computed using PRISM.
 NBasis=   278 RedAO= T EigKep=  2.94D-04  NBF=   278
 NBsUse=   278 1.00D-06 EigRej= -1.00D+00 NBFU=   278
 Precomputing XC quadrature grid using
 IXCGrd= 4 IRadAn=           5 IRanWt=          -1 IRanGd=           0 AccXCQ= 0.00D+00.
 Generated NRdTot=       0 NPtTot=           0 NUsed=           0 NTot=          32
 NSgBfM=   294   294   294   294   294 MxSgAt=    17 MxSgA2=    17.
 Leave Link  302 at Fri Feb 17 21:29:45 2023, MaxMem=  6710886400 cpu:               4.4 elap:               0.2
 (Enter /data0/home/software/g16/l303.exe)
 DipDrv:  MaxL=1.
 Leave Link  303 at Fri Feb 17 21:29:45 2023, MaxMem=  6710886400 cpu:               0.7 elap:               0.0
 (Enter /data0/home/software/g16/l401.exe)
 ExpMin= 3.48D-02 ExpMax= 7.75D+04 ExpMxC= 2.65D+03 IAcc=3 IRadAn=         5 AccDes= 0.00D+00
 Harris functional with IExCor= 1009 and IRadAn=       5 diagonalized for initial guess.
 HarFok:  IExCor= 1009 AccDes= 0.00D+00 IRadAn=         5 IDoV= 1 UseB2=F ITyADJ=14
 ICtDFT=  3500011 ScaDFX=  1.000000  1.000000  1.000000  1.000000
 FoFCou: FMM=F IPFlag=           0 FMFlag=      100000 FMFlg1=           0
         NFxFlg=           0 DoJE=T BraDBF=F KetDBF=T FulRan=T
         wScrn=  0.000000 ICntrl=       500 IOpCl=  0 I1Cent=   200000004 NGrid=           0
         NMat0=    1 NMatS0=      1 NMatT0=    0 NMatD0=    1 NMtDS0=    0 NMtDT0=    0
 Symmetry not used in FoFCou.
 Harris En= -643.942386928187    
 JPrj=0 DoOrth=F DoCkMO=F.
 Leave Link  401 at Fri Feb 17 21:29:46 2023, MaxMem=  6710886400 cpu:              12.9 elap:               0.6
 (Enter /data0/home/software/g16/l502.exe)
 Two-electron integral symmetry not used.
 Closed shell SCF:
 Using DIIS extrapolation, IDIIS=  1040.
 NGot=  6710886400 LenX=  6710704303 LenY=  6710617426
 Requested convergence on RMS density matrix=1.00D-08 within 128 cycles.
 Requested convergence on MAX density matrix=1.00D-06.
 Requested convergence on             energy=1.00D-06.
 No special actions if energy rises.
 Fock matrices will be formed incrementally for  20 cycles.

 Cycle   1  Pass 1  IDiag  1:
 FoFJK:  IHMeth= 1 ICntrl=       0 DoSepK=F KAlg= 0 I1Cent=           0 FoldK=F
 IRaf= 880000000 NMat=       1 IRICut=       1 DoRegI=T DoRafI=F ISym2E= 0 IDoP0=0 IntGTp=1.
 FoFCou: FMM=F IPFlag=           0 FMFlag=      100000 FMFlg1=           0
         NFxFlg=           0 DoJE=F BraDBF=F KetDBF=F FulRan=T
         wScrn=  0.000000 ICntrl=         0 IOpCl=  0 I1Cent=           0 NGrid=           0
         NMat0=    1 NMatS0=      1 NMatT0=    0 NMatD0=    1 NMtDS0=    0 NMtDT0=    0
 Symmetry not used in FoFCou.
 E= -643.859072215673    
 DIIS: error= 3.40D-02 at cycle   1 NSaved=   1.
 NSaved= 1 IEnMin= 1 EnMin= -643.859072215673     IErMin= 1 ErrMin= 3.40D-02
 ErrMax= 3.40D-02  0.00D+00 EMaxC= 1.00D-01 BMatC= 5.07D-01 BMatP= 5.07D-01
 IDIUse=3 WtCom= 6.60D-01 WtEn= 3.40D-01
 Coeff-Com:  0.100D+01
 Coeff-En:   0.100D+01
 Coeff:      0.100D+01
 Gap=     0.275 Goal=   None    Shift=    0.000
 GapD=    0.275 DampG=1.000 DampE=0.500 DampFc=0.5000 IDamp=-1.
 Damping current iteration by 5.00D-01
 RMSDP=4.35D-03 MaxDP=1.64D-01              OVMax= 2.65D-01

 Cycle   2  Pass 1  IDiag  1:
 RMSU=  2.18D-03    CP:  1.00D+00
 E= -643.975387640026     Delta-E=       -0.116315424354 Rises=F Damp=T
 DIIS: error= 8.78D-03 at cycle   2 NSaved=   2.
 NSaved= 2 IEnMin= 2 EnMin= -643.975387640026     IErMin= 2 ErrMin= 8.78D-03
 ErrMax= 8.78D-03  0.00D+00 EMaxC= 1.00D-01 BMatC= 2.71D-02 BMatP= 5.07D-01
 IDIUse=3 WtCom= 9.12D-01 WtEn= 8.78D-02
 Coeff-Com:  0.715D-01 0.928D+00
 Coeff-En:   0.203D+00 0.797D+00
 Coeff:      0.831D-01 0.917D+00
 Gap=     0.352 Goal=   None    Shift=    0.000
 RMSDP=1.04D-03 MaxDP=5.57D-02 DE=-1.16D-01 OVMax= 1.75D-01

 Cycle   3  Pass 1  IDiag  1:
 RMSU=  7.50D-04    CP:  9.92D-01  6.74D-01
 E= -644.140293345488     Delta-E=       -0.164905705462 Rises=F Damp=F
 DIIS: error= 4.78D-03 at cycle   3 NSaved=   3.
 NSaved= 3 IEnMin= 3 EnMin= -644.140293345488     IErMin= 3 ErrMin= 4.78D-03
 ErrMax= 4.78D-03  0.00D+00 EMaxC= 1.00D-01 BMatC= 1.02D-02 BMatP= 2.71D-02
 IDIUse=3 WtCom= 9.52D-01 WtEn= 4.78D-02
 Coeff-Com: -0.156D-01 0.340D+00 0.675D+00
 Coeff-En:   0.000D+00 0.000D+00 0.100D+01
 Coeff:     -0.148D-01 0.324D+00 0.691D+00
 Gap=     0.343 Goal=   None    Shift=    0.000
 RMSDP=3.99D-04 MaxDP=1.50D-02 DE=-1.65D-01 OVMax= 3.49D-02

 Cycle   4  Pass 1  IDiag  1:
 RMSU=  3.33D-04    CP:  9.93D-01  7.62D-01  8.56D-01
 E= -644.144989605451     Delta-E=       -0.004696259963 Rises=F Damp=F
 DIIS: error= 3.35D-03 at cycle   4 NSaved=   4.
 NSaved= 4 IEnMin= 4 EnMin= -644.144989605451     IErMin= 4 ErrMin= 3.35D-03
 ErrMax= 3.35D-03  0.00D+00 EMaxC= 1.00D-01 BMatC= 3.78D-03 BMatP= 1.02D-02
 IDIUse=3 WtCom= 9.67D-01 WtEn= 3.35D-02
 Coeff-Com: -0.219D-01 0.500D-01 0.400D+00 0.572D+00
 Coeff-En:   0.000D+00 0.000D+00 0.269D+00 0.731D+00
 Coeff:     -0.212D-01 0.483D-01 0.395D+00 0.577D+00
 Gap=     0.347 Goal=   None    Shift=    0.000
 RMSDP=1.56D-04 MaxDP=6.03D-03 DE=-4.70D-03 OVMax= 1.11D-02

 Cycle   5  Pass 1  IDiag  1:
 RMSU=  4.56D-05    CP:  9.92D-01  7.39D-01  9.47D-01  6.33D-01
 E= -644.147492551954     Delta-E=       -0.002502946503 Rises=F Damp=F
 DIIS: error= 2.00D-04 at cycle   5 NSaved=   5.
 NSaved= 5 IEnMin= 5 EnMin= -644.147492551954     IErMin= 5 ErrMin= 2.00D-04
 ErrMax= 2.00D-04  0.00D+00 EMaxC= 1.00D-01 BMatC= 1.53D-05 BMatP= 3.78D-03
 IDIUse=3 WtCom= 9.98D-01 WtEn= 2.00D-03
 Coeff-Com: -0.258D-02 0.713D-03 0.582D-01 0.119D+00 0.825D+00
 Coeff-En:   0.000D+00 0.000D+00 0.000D+00 0.000D+00 0.100D+01
 Coeff:     -0.257D-02 0.712D-03 0.581D-01 0.119D+00 0.825D+00
 Gap=     0.346 Goal=   None    Shift=    0.000
 RMSDP=1.63D-05 MaxDP=7.97D-04 DE=-2.50D-03 OVMax= 7.56D-04

 Cycle   6  Pass 1  IDiag  1:
 RMSU=  1.16D-05    CP:  9.92D-01  7.35D-01  9.50D-01  6.57D-01  1.06D+00
 E= -644.147502896055     Delta-E=       -0.000010344101 Rises=F Damp=F
 DIIS: error= 4.22D-05 at cycle   6 NSaved=   6.
 NSaved= 6 IEnMin= 6 EnMin= -644.147502896055     IErMin= 6 ErrMin= 4.22D-05
 ErrMax= 4.22D-05  0.00D+00 EMaxC= 1.00D-01 BMatC= 1.24D-06 BMatP= 1.53D-05
 IDIUse=1 WtCom= 1.00D+00 WtEn= 0.00D+00
 Coeff-Com: -0.145D-04-0.146D-02 0.245D-02 0.123D-01 0.230D+00 0.757D+00
 Coeff:     -0.145D-04-0.146D-02 0.245D-02 0.123D-01 0.230D+00 0.757D+00
 Gap=     0.346 Goal=   None    Shift=    0.000
 RMSDP=6.22D-06 MaxDP=2.12D-04 DE=-1.03D-05 OVMax= 2.72D-04

 Cycle   7  Pass 1  IDiag  1:
 RMSU=  3.38D-06    CP:  9.92D-01  7.34D-01  9.51D-01  6.58D-01  1.15D+00
                    CP:  9.20D-01
 E= -644.147503756912     Delta-E=       -0.000000860858 Rises=F Damp=F
 DIIS: error= 2.52D-05 at cycle   7 NSaved=   7.
 NSaved= 7 IEnMin= 7 EnMin= -644.147503756912     IErMin= 7 ErrMin= 2.52D-05
 ErrMax= 2.52D-05  0.00D+00 EMaxC= 1.00D-01 BMatC= 2.71D-07 BMatP= 1.24D-06
 IDIUse=1 WtCom= 1.00D+00 WtEn= 0.00D+00
 Coeff-Com:  0.390D-03-0.688D-03-0.845D-02-0.136D-01-0.230D-01 0.312D+00
 Coeff-Com:  0.733D+00
 Coeff:      0.390D-03-0.688D-03-0.845D-02-0.136D-01-0.230D-01 0.312D+00
 Coeff:      0.733D+00
 Gap=     0.346 Goal=   None    Shift=    0.000
 RMSDP=2.39D-06 MaxDP=8.77D-05 DE=-8.61D-07 OVMax= 1.14D-04

 Cycle   8  Pass 1  IDiag  1:
 RMSU=  1.59D-06    CP:  9.92D-01  7.34D-01  9.52D-01  6.59D-01  1.17D+00
                    CP:  9.87D-01  8.37D-01
 E= -644.147503938823     Delta-E=       -0.000000181910 Rises=F Damp=F
 DIIS: error= 1.03D-05 at cycle   8 NSaved=   8.
 NSaved= 8 IEnMin= 8 EnMin= -644.147503938823     IErMin= 8 ErrMin= 1.03D-05
 ErrMax= 1.03D-05  0.00D+00 EMaxC= 1.00D-01 BMatC= 3.42D-08 BMatP= 2.71D-07
 IDIUse=1 WtCom= 1.00D+00 WtEn= 0.00D+00
 Coeff-Com:  0.161D-03-0.215D-03-0.385D-02-0.629D-02-0.186D-01 0.936D-01
 Coeff-Com:  0.342D+00 0.593D+00
 Coeff:      0.161D-03-0.215D-03-0.385D-02-0.629D-02-0.186D-01 0.936D-01
 Coeff:      0.342D+00 0.593D+00
 Gap=     0.346 Goal=   None    Shift=    0.000
 RMSDP=5.45D-07 MaxDP=2.38D-05 DE=-1.82D-07 OVMax= 3.95D-05

 Cycle   9  Pass 1  IDiag  1:
 RMSU=  3.20D-07    CP:  9.92D-01  7.34D-01  9.52D-01  6.59D-01  1.17D+00
                    CP:  1.00D+00  9.29D-01  8.35D-01
 E= -644.147503963714     Delta-E=       -0.000000024891 Rises=F Damp=F
 DIIS: error= 9.68D-07 at cycle   9 NSaved=   9.
 NSaved= 9 IEnMin= 9 EnMin= -644.147503963714     IErMin= 9 ErrMin= 9.68D-07
 ErrMax= 9.68D-07  0.00D+00 EMaxC= 1.00D-01 BMatC= 7.35D-10 BMatP= 3.42D-08
 IDIUse=1 WtCom= 1.00D+00 WtEn= 0.00D+00
 Coeff-Com: -0.249D-04 0.480D-04 0.252D-03 0.546D-03-0.577D-03-0.185D-01
 Coeff-Com: -0.272D-01 0.657D-01 0.980D+00
 Coeff:     -0.249D-04 0.480D-04 0.252D-03 0.546D-03-0.577D-03-0.185D-01
 Coeff:     -0.272D-01 0.657D-01 0.980D+00
 Gap=     0.346 Goal=   None    Shift=    0.000
 RMSDP=2.00D-07 MaxDP=7.97D-06 DE=-2.49D-08 OVMax= 1.04D-05

 Cycle  10  Pass 1  IDiag  1:
 RMSU=  7.92D-08    CP:  9.92D-01  7.34D-01  9.52D-01  6.59D-01  1.17D+00
                    CP:  9.99D-01  9.50D-01  9.08D-01  1.14D+00
 E= -644.147503964657     Delta-E=       -0.000000000943 Rises=F Damp=F
 DIIS: error= 1.74D-07 at cycle  10 NSaved=  10.
 NSaved=10 IEnMin=10 EnMin= -644.147503964657     IErMin=10 ErrMin= 1.74D-07
 ErrMax= 1.74D-07  0.00D+00 EMaxC= 1.00D-01 BMatC= 1.51D-11 BMatP= 7.35D-10
 IDIUse=1 WtCom= 1.00D+00 WtEn= 0.00D+00
 Coeff-Com: -0.407D-05 0.664D-05 0.109D-03 0.180D-03 0.463D-03-0.392D-02
 Coeff-Com: -0.133D-01-0.150D-01 0.408D-01 0.991D+00
 Coeff:     -0.407D-05 0.664D-05 0.109D-03 0.180D-03 0.463D-03-0.392D-02
 Coeff:     -0.133D-01-0.150D-01 0.408D-01 0.991D+00
 Gap=     0.346 Goal=   None    Shift=    0.000
 RMSDP=3.94D-08 MaxDP=8.54D-07 DE=-9.43D-10 OVMax= 2.50D-06

 Cycle  11  Pass 1  IDiag  1:
 RMSU=  1.97D-08    CP:  9.92D-01  7.34D-01  9.52D-01  6.59D-01  1.17D+00
                    CP:  9.99D-01  9.52D-01  9.21D-01  1.20D+00  1.16D+00
 E= -644.147503964680     Delta-E=       -0.000000000024 Rises=F Damp=F
 DIIS: error= 1.10D-07 at cycle  11 NSaved=  11.
 NSaved=11 IEnMin=11 EnMin= -644.147503964680     IErMin=11 ErrMin= 1.10D-07
 ErrMax= 1.10D-07  0.00D+00 EMaxC= 1.00D-01 BMatC= 5.18D-12 BMatP= 1.51D-11
 IDIUse=1 WtCom= 1.00D+00 WtEn= 0.00D+00
 Coeff-Com:  0.431D-07-0.384D-06 0.292D-04 0.402D-04 0.213D-03-0.543D-03
 Coeff-Com: -0.363D-02-0.921D-02-0.407D-01 0.411D+00 0.643D+00
 Coeff:      0.431D-07-0.384D-06 0.292D-04 0.402D-04 0.213D-03-0.543D-03
 Coeff:     -0.363D-02-0.921D-02-0.407D-01 0.411D+00 0.643D+00
 Gap=     0.346 Goal=   None    Shift=    0.000
 RMSDP=8.84D-09 MaxDP=3.70D-07 DE=-2.36D-11 OVMax= 5.15D-07

 SCF Done:  E(RM062X) =  -644.147503965     A.U. after   11 cycles
            NFock= 11  Conv=0.88D-08     -V/T= 2.0025
 KE= 6.425185741403D+02 PE=-2.087693894315D+03 EE= 5.210224474829D+02
 Leave Link  502 at Fri Feb 17 21:30:00 2023, MaxMem=  6710886400 cpu:             339.0 elap:              14.2
 (Enter /data0/home/software/g16/l601.exe)
 Copying SCF densities to generalized density rwf, IOpCl= 0 IROHF=0.

 **********************************************************************

            Population analysis using the SCF density.

 **********************************************************************

 Alpha  occ. eigenvalues --  -78.16859 -19.68972 -19.68249 -19.68008 -19.58682
 Alpha  occ. eigenvalues --   -6.97634  -5.09543  -5.09511  -5.09334  -1.24380
 Alpha  occ. eigenvalues --   -1.17050  -1.16563  -1.08840  -0.72928  -0.65160
 Alpha  occ. eigenvalues --   -0.64149  -0.58189  -0.53000  -0.51249  -0.50585
 Alpha  occ. eigenvalues --   -0.46786  -0.45703  -0.43588  -0.38562  -0.37511
 Alpha virt. eigenvalues --   -0.02909   0.00917   0.01942   0.04352   0.06854
 Alpha virt. eigenvalues --    0.07053   0.08841   0.10712   0.11587   0.11737
 Alpha virt. eigenvalues --    0.12397   0.14133   0.15674   0.16630   0.17460
 Alpha virt. eigenvalues --    0.17951   0.18530   0.19695   0.19947   0.20746
 Alpha virt. eigenvalues --    0.21175   0.21654   0.22310   0.23495   0.24262
 Alpha virt. eigenvalues --    0.24958   0.26339   0.26719   0.27444   0.28240
 Alpha virt. eigenvalues --    0.28835   0.29887   0.30259   0.30871   0.32123
 Alpha virt. eigenvalues --    0.33459   0.34357   0.34796   0.35494   0.37197
 Alpha virt. eigenvalues --    0.37941   0.38415   0.39794   0.40983   0.44443
 Alpha virt. eigenvalues --    0.45990   0.47193   0.48239   0.49099   0.50811
 Alpha virt. eigenvalues --    0.54706   0.58203   0.63895   0.65144   0.66085
 Alpha virt. eigenvalues --    0.70970   0.74563   0.74865   0.76466   0.77545
 Alpha virt. eigenvalues --    0.78595   0.80171   0.81259   0.81741   0.82282
 Alpha virt. eigenvalues --    0.86979   0.88264   0.93305   0.94659   0.96159
 Alpha virt. eigenvalues --    0.99513   1.00955   1.01535   1.04551   1.06466
 Alpha virt. eigenvalues --    1.07338   1.07999   1.10701   1.12226   1.14889
 Alpha virt. eigenvalues --    1.14968   1.15759   1.19861   1.20160   1.22038
 Alpha virt. eigenvalues --    1.23535   1.25801   1.26733   1.27874   1.34161
 Alpha virt. eigenvalues --    1.36199   1.40202   1.44326   1.45920   1.51727
 Alpha virt. eigenvalues --    1.53250   1.55020   1.57958   1.59123   1.63507
 Alpha virt. eigenvalues --    1.64584   1.67014   1.68786   1.72370   1.74486
 Alpha virt. eigenvalues --    1.75968   1.77995   1.79757   1.81582   1.84588
 Alpha virt. eigenvalues --    1.86721   1.87117   1.90756   1.91615   1.92858
 Alpha virt. eigenvalues --    1.93770   1.95619   1.97368   2.00038   2.00922
 Alpha virt. eigenvalues --    2.05982   2.07765   2.09020   2.12388   2.14379
 Alpha virt. eigenvalues --    2.16223   2.19071   2.20584   2.23244   2.25295
 Alpha virt. eigenvalues --    2.26361   2.27662   2.31099   2.36144   2.41751
 Alpha virt. eigenvalues --    2.42606   2.45665   2.48565   2.49678   2.52406
 Alpha virt. eigenvalues --    2.53983   2.55336   2.58538   2.59591   2.60722
 Alpha virt. eigenvalues --    2.62266   2.62899   2.63918   2.64920   2.67769
 Alpha virt. eigenvalues --    2.69640   2.70309   2.73498   2.74833   2.76420
 Alpha virt. eigenvalues --    2.77535   2.78539   2.81219   2.82162   2.86183
 Alpha virt. eigenvalues --    2.87534   2.93762   2.94108   2.96558   2.99764
 Alpha virt. eigenvalues --    3.03301   3.04510   3.09327   3.14935   3.17444
 Alpha virt. eigenvalues --    3.50977   3.56586   3.61339   3.64937   3.73875
 Alpha virt. eigenvalues --    3.79569   4.54976   4.59186   4.76426   5.02605
 Alpha virt. eigenvalues --    5.06453   5.06697   5.07769   5.11210   5.11794
 Alpha virt. eigenvalues --    5.13305   5.15244   5.23114   5.29419   5.36040
 Alpha virt. eigenvalues --    5.38727   5.46078   5.52346   5.59619   6.73026
 Alpha virt. eigenvalues --    6.73872   6.76418   6.78146   6.79608   6.81306
 Alpha virt. eigenvalues --    6.83984   6.87330   6.91962   6.93879   6.97022
 Alpha virt. eigenvalues --    6.99956   7.00037   7.04981   7.12267   7.25877
 Alpha virt. eigenvalues --    7.26916   7.27736   7.32770   7.41882   7.65597
 Alpha virt. eigenvalues --    9.79440   9.80754   9.86092   9.87565   9.91386
 Alpha virt. eigenvalues --    9.92805   9.98000  10.01747  10.14669  10.17810
 Alpha virt. eigenvalues --   10.24097  10.27913  10.34913  10.43431  10.62223
 Alpha virt. eigenvalues --   12.93452  13.00186  13.26423  13.37682  13.39303
 Alpha virt. eigenvalues --   13.74038  13.77524  13.78453  14.24301  14.25263
 Alpha virt. eigenvalues --   14.35353  14.36702  17.72378  17.76659  18.45546
 Alpha virt. eigenvalues --   49.99922  50.00719  50.02447  50.10560 136.37942
 Alpha virt. eigenvalues --  136.78413 139.74537 163.88213
          Condensed to atoms (all electrons):
               1          2          3          4          5          6
     1  P   12.509569   0.523309   0.263145  -0.004803   0.265683   0.004793
     2  O    0.523309   8.164551  -0.017633  -0.007358  -0.028429  -0.010289
     3  O    0.263145  -0.017633   8.019945   0.280121   0.027895  -0.006593
     4  H   -0.004803  -0.007358   0.280121   0.347144  -0.007542  -0.001161
     5  O    0.265683  -0.028429   0.027895  -0.007542   8.031222   0.269491
     6  H    0.004793  -0.010289  -0.006593  -0.001161   0.269491   0.398020
     7  O    0.181316  -0.026196   0.005551   0.001442   0.004767   0.005729
     8  H    0.038830  -0.002742  -0.009928   0.001641  -0.009467   0.000835
     9  O   -0.002043   0.020190  -0.000560  -0.000380  -0.000946  -0.000086
    10  H   -0.000157  -0.001148  -0.000660  -0.000030  -0.000003  -0.000020
    11  H    0.005428  -0.013560   0.002433  -0.000061   0.001452   0.000046
    12  O    0.010116  -0.000001   0.015953   0.012242   0.002744  -0.000405
    13  H   -0.004705  -0.000729  -0.002136  -0.001170  -0.000503  -0.000064
    14  H   -0.002380  -0.000802  -0.002071  -0.001507  -0.000010   0.000272
    15  O    0.000034   0.000218  -0.000003  -0.000006  -0.000010  -0.000015
    16  H   -0.000005  -0.000007   0.000000  -0.000000  -0.000000  -0.000000
    17  H   -0.000085  -0.000854   0.000026  -0.000005   0.000031   0.000013
               7          8          9         10         11         12
     1  P    0.181316   0.038830  -0.002043  -0.000157   0.005428   0.010116
     2  O   -0.026196  -0.002742   0.020190  -0.001148  -0.013560  -0.000001
     3  O    0.005551  -0.009928  -0.000560  -0.000660   0.002433   0.015953
     4  H    0.001442   0.001641  -0.000380  -0.000030  -0.000061   0.012242
     5  O    0.004767  -0.009467  -0.000946  -0.000003   0.001452   0.002744
     6  H    0.005729   0.000835  -0.000086  -0.000020   0.000046  -0.000405
     7  O    8.075848   0.221225   0.000121  -0.000029  -0.000068   0.000365
     8  H    0.221225   0.451012  -0.000026  -0.000002   0.000034  -0.000012
     9  O    0.000121  -0.000026   0.009293  -0.002679  -0.003909   0.000028
    10  H   -0.000029  -0.000002  -0.002679   0.002805  -0.000362  -0.000523
    11  H   -0.000068   0.000034  -0.003909  -0.000362   0.005166   0.001679
    12  O    0.000365  -0.000012   0.000028  -0.000523   0.001679   0.024753
    13  H   -0.000139   0.000005  -0.000695   0.000537  -0.000950  -0.008924
    14  H   -0.000043   0.000004  -0.000097  -0.000000  -0.000114  -0.008345
    15  O    0.000001  -0.000000   0.000720   0.000125  -0.000139  -0.000033
    16  H    0.000000  -0.000000  -0.000031  -0.000011   0.000013   0.000006
    17  H    0.000001   0.000000  -0.001609  -0.000436   0.000522   0.000152
              13         14         15         16         17
     1  P   -0.004705  -0.002380   0.000034  -0.000005  -0.000085
     2  O   -0.000729  -0.000802   0.000218  -0.000007  -0.000854
     3  O   -0.002136  -0.002071  -0.000003   0.000000   0.000026
     4  H   -0.001170  -0.001507  -0.000006  -0.000000  -0.000005
     5  O   -0.000503  -0.000010  -0.000010  -0.000000   0.000031
     6  H   -0.000064   0.000272  -0.000015  -0.000000   0.000013
     7  O   -0.000139  -0.000043   0.000001   0.000000   0.000001
     8  H    0.000005   0.000004  -0.000000  -0.000000   0.000000
     9  O   -0.000695  -0.000097   0.000720  -0.000031  -0.001609
    10  H    0.000537  -0.000000   0.000125  -0.000011  -0.000436
    11  H   -0.000950  -0.000114  -0.000139   0.000013   0.000522
    12  O   -0.008924  -0.008345  -0.000033   0.000006   0.000152
    13  H    0.005869   0.001947   0.000000  -0.000005  -0.000029
    14  H    0.001947   0.004600   0.000006  -0.000000  -0.000012
    15  O    0.000000   0.000006   0.001019  -0.000140  -0.001433
    16  H   -0.000005  -0.000000  -0.000140   0.000079   0.000098
    17  H   -0.000029  -0.000012  -0.001433   0.000098   0.002567
 Mulliken charges:
               1
     1  P    1.211957
     2  O   -0.598517
     3  O   -0.575485
     4  H    0.381434
     5  O   -0.556374
     6  H    0.339434
     7  O   -0.469891
     8  H    0.308591
     9  O   -0.017292
    10  H    0.002593
    11  H    0.002389
    12  O   -0.049796
    13  H    0.011693
    14  H    0.008553
    15  O   -0.000344
    16  H    0.000003
    17  H    0.001054
 Sum of Mulliken charges =  -0.00000
 Mulliken charges with hydrogens summed into heavy atoms:
               1
     1  P    1.211957
     2  O   -0.598517
     3  O   -0.194051
     5  O   -0.216940
     7  O   -0.161300
     9  O   -0.012310
    12  O   -0.029550
    15  O    0.000712
         Mulliken charges condensed to fragments:
      1      0.041148
      2     -0.012310
      3     -0.029550
      4      0.000712
 Electronic spatial extent (au):  <R**2>=          80659.3413
 Charge=             -0.0000 electrons
 Dipole moment (field-independent basis, Debye):
    X=             -1.4525    Y=              4.2756    Z=              0.9800  Tot=              4.6207
 Quadrupole moment (field-independent basis, Debye-Ang):
   XX=            -71.6349   YY=             84.1248   ZZ=            -16.5483
   XY=             36.7349   XZ=             -0.7546   YZ=             47.0257
 Traceless Quadrupole moment (field-independent basis, Debye-Ang):
   XX=            -70.2821   YY=             85.4776   ZZ=            -15.1955
   XY=             36.7349   XZ=             -0.7546   YZ=             47.0257
 Octapole moment (field-independent basis, Debye-Ang**2):
  XXX=          -2130.2784  YYY=            959.3712  ZZZ=           -500.4637  XYY=            829.8900
  XXY=           -255.8073  XXZ=           -430.5918  XZZ=           -349.2904  YZZ=             20.3506
  YYZ=            865.5743  XYZ=            426.5116
 Hexadecapole moment (field-independent basis, Debye-Ang**3):
 XXXX=         -51128.1421 YYYY=           1485.3964 ZZZZ=          -7927.2672 XXXY=         -20269.2357
 XXXZ=         -14789.0930 YYYX=           8456.8144 YYYZ=          10958.7018 ZZZX=          -7845.4146
 ZZZY=          -5131.1517 XXYY=            255.8212 XXZZ=          -8122.2354 YYZZ=           1883.6888
 XXYZ=           -404.0468 YYXZ=           8559.6761 ZZXY=          -1628.2766
 N-N= 2.800053687272D+02 E-N=-2.087693895730D+03  KE= 6.425185741403D+02
 No NMR shielding tensors so no spin-rotation constants.
 Leave Link  601 at Fri Feb 17 21:30:00 2023, MaxMem=  6710886400 cpu:               2.3 elap:               0.1
 (Enter /data0/home/software/g16/l122.exe)
 CPIOFr:  IOpCl= 0 IRwI=-1 IRwCP=  731 ICalc=  1 LCPTot=      120517 Len1MO=      315166 IndFrg=      750849
 Counterpoise: doing calculation for fragment   2 using the basis set of the full-system, NewBq=T
 Leave Link  122 at Fri Feb 17 21:30:00 2023, MaxMem=  6710886400 cpu:               0.1 elap:               0.0
 (Enter /data0/home/software/g16/l301.exe)
 Basis read from rwf:  (5D, 7F)
 No pseudopotential information found on rwf file.
   278 basis functions,   422 primitive gaussians,   294 cartesian basis functions
     5 alpha electrons        5 beta electrons
       nuclear repulsion energy         9.0684981312 Hartrees.
 IExCor= 4336 DFT=T Ex+Corr=M062X ExCW=0 ScaHFX=  0.540000
 ScaDFX=  1.000000  1.000000  1.000000  1.000000 ScalE2=  1.000000  1.000000
 IRadAn=      5 IRanWt=     -1 IRanGd=            0 ICorTp=0 IEmpDi=131
 NAtoms=   17 NActive=   17 NUniq=   17 SFac= 1.00D+00 NAtFMM=   60 NAOKFM=F Big=F
 Integral buffers will be    131072 words long.
 Raffenetti 2 integral format.
 Two-electron integral symmetry is turned off.
 R6Disp:  Grimme-D3 Dispersion energy=       -0.0000000079 Hartrees.
 Nuclear repulsion after empirical dispersion term =        9.0684981232 Hartrees.
 No density basis found on file   718.
 Leave Link  301 at Fri Feb 17 21:30:00 2023, MaxMem=  6710886400 cpu:               1.3 elap:               0.1
 (Enter /data0/home/software/g16/l302.exe)
 NPDir=0 NMtPBC=     1 NCelOv=     1 NCel=       1 NClECP=     1 NCelD=      1
         NCelK=      1 NCelE2=     1 NClLst=     1 CellRange=     0.0.
 One-electron integrals computed using PRISM.
 NBasis=   278 RedAO= T EigKep=  2.94D-04  NBF=   278
 NBsUse=   278 1.00D-06 EigRej= -1.00D+00 NBFU=   278
 Precomputing XC quadrature grid using
 IXCGrd= 4 IRadAn=           5 IRanWt=          -1 IRanGd=           0 AccXCQ= 0.00D+00.
 Generated NRdTot=       0 NPtTot=           0 NUsed=           0 NTot=          32
 NSgBfM=   294   294   294   294   294 MxSgAt=    17 MxSgA2=    17.
 Leave Link  302 at Fri Feb 17 21:30:00 2023, MaxMem=  6710886400 cpu:               4.4 elap:               0.2
 (Enter /data0/home/software/g16/l303.exe)
 DipDrv:  MaxL=1.
 Leave Link  303 at Fri Feb 17 21:30:00 2023, MaxMem=  6710886400 cpu:               0.7 elap:               0.0
 (Enter /data0/home/software/g16/l401.exe)
 ExpMin= 3.48D-02 ExpMax= 7.75D+04 ExpMxC= 2.65D+03 IAcc=3 IRadAn=         5 AccDes= 0.00D+00
 Harris functional with IExCor= 1009 and IRadAn=       5 diagonalized for initial guess.
 HarFok:  IExCor= 1009 AccDes= 0.00D+00 IRadAn=         5 IDoV= 1 UseB2=F ITyADJ=14
 ICtDFT=  3500011 ScaDFX=  1.000000  1.000000  1.000000  1.000000
 FoFCou: FMM=F IPFlag=           0 FMFlag=      100000 FMFlg1=           0
         NFxFlg=           0 DoJE=T BraDBF=F KetDBF=T FulRan=T
         wScrn=  0.000000 ICntrl=       500 IOpCl=  0 I1Cent=   200000004 NGrid=           0
         NMat0=    1 NMatS0=      1 NMatT0=    0 NMatD0=    1 NMtDS0=    0 NMtDT0=    0
 Symmetry not used in FoFCou.
 Harris En= -76.4171438062811    
 JPrj=0 DoOrth=F DoCkMO=F.
 Leave Link  401 at Fri Feb 17 21:30:01 2023, MaxMem=  6710886400 cpu:              12.7 elap:               0.6
 (Enter /data0/home/software/g16/l502.exe)
 Two-electron integral symmetry not used.
 Closed shell SCF:
 Using DIIS extrapolation, IDIIS=  1040.
 NGot=  6710886400 LenX=  6710704303 LenY=  6710617426
 Requested convergence on RMS density matrix=1.00D-08 within 128 cycles.
 Requested convergence on MAX density matrix=1.00D-06.
 Requested convergence on             energy=1.00D-06.
 No special actions if energy rises.
 Fock matrices will be formed incrementally for  20 cycles.

 Cycle   1  Pass 1  IDiag  1:
 FoFJK:  IHMeth= 1 ICntrl=       0 DoSepK=F KAlg= 0 I1Cent=           0 FoldK=F
 IRaf= 880000000 NMat=       1 IRICut=       1 DoRegI=T DoRafI=F ISym2E= 0 IDoP0=0 IntGTp=1.
 FoFCou: FMM=F IPFlag=           0 FMFlag=      100000 FMFlg1=           0
         NFxFlg=           0 DoJE=F BraDBF=F KetDBF=F FulRan=T
         wScrn=  0.000000 ICntrl=         0 IOpCl=  0 I1Cent=           0 NGrid=           0
         NMat0=    1 NMatS0=      1 NMatT0=    0 NMatD0=    1 NMtDS0=    0 NMtDT0=    0
 Symmetry not used in FoFCou.
 E= -76.3479084983410    
 DIIS: error= 1.55D-02 at cycle   1 NSaved=   1.
 NSaved= 1 IEnMin= 1 EnMin= -76.3479084983410     IErMin= 1 ErrMin= 1.55D-02
 ErrMax= 1.55D-02  0.00D+00 EMaxC= 1.00D-01 BMatC= 1.20D-01 BMatP= 1.20D-01
 IDIUse=3 WtCom= 8.45D-01 WtEn= 1.55D-01
 Coeff-Com:  0.100D+01
 Coeff-En:   0.100D+01
 Coeff:      0.100D+01
 Gap=     0.267 Goal=   None    Shift=    0.000
 GapD=    0.267 DampG=1.000 DampE=0.500 DampFc=0.5000 IDamp=-1.
 Damping current iteration by 5.00D-01
 RMSDP=1.67D-03 MaxDP=9.84D-02              OVMax= 1.73D-01

 Cycle   2  Pass 1  IDiag  1:
 RMSU=  8.19D-04    CP:  9.63D-01
 E= -76.3785741149701     Delta-E=       -0.030665616629 Rises=F Damp=T
 DIIS: error= 4.04D-03 at cycle   2 NSaved=   2.
 NSaved= 2 IEnMin= 2 EnMin= -76.3785741149701     IErMin= 2 ErrMin= 4.04D-03
 ErrMax= 4.04D-03  0.00D+00 EMaxC= 1.00D-01 BMatC= 5.08D-03 BMatP= 1.20D-01
 IDIUse=3 WtCom= 9.60D-01 WtEn= 4.04D-02
 Coeff-Com:  0.893D-01 0.911D+00
 Coeff-En:   0.200D+00 0.800D+00
 Coeff:      0.938D-01 0.906D+00
 Gap=     0.394 Goal=   None    Shift=    0.000
 RMSDP=2.53D-04 MaxDP=1.48D-02 DE=-3.07D-02 OVMax= 1.04D-01

 Cycle   3  Pass 1  IDiag  1:
 RMSU=  2.14D-04    CP:  9.69D-01  8.38D-01
 E= -76.4228247878439     Delta-E=       -0.044250672874 Rises=F Damp=F
 DIIS: error= 7.51D-04 at cycle   3 NSaved=   3.
 NSaved= 3 IEnMin= 3 EnMin= -76.4228247878439     IErMin= 3 ErrMin= 7.51D-04
 ErrMax= 7.51D-04  0.00D+00 EMaxC= 1.00D-01 BMatC= 1.70D-04 BMatP= 5.08D-03
 IDIUse=3 WtCom= 9.92D-01 WtEn= 7.51D-03
 Coeff-Com: -0.295D-01 0.540D-01 0.976D+00
 Coeff-En:   0.000D+00 0.000D+00 0.100D+01
 Coeff:     -0.293D-01 0.535D-01 0.976D+00
 Gap=     0.396 Goal=   None    Shift=    0.000
 RMSDP=2.91D-05 MaxDP=1.69D-03 DE=-4.43D-02 OVMax= 4.06D-03

 Cycle   4  Pass 1  IDiag  1:
 RMSU=  2.17D-05    CP:  9.67D-01  8.51D-01  1.07D+00
 E= -76.4229586637484     Delta-E=       -0.000133875905 Rises=F Damp=F
 DIIS: error= 7.89D-05 at cycle   4 NSaved=   4.
 NSaved= 4 IEnMin= 4 EnMin= -76.4229586637484     IErMin= 4 ErrMin= 7.89D-05
 ErrMax= 7.89D-05  0.00D+00 EMaxC= 1.00D-01 BMatC= 2.58D-06 BMatP= 1.70D-04
 IDIUse=1 WtCom= 1.00D+00 WtEn= 0.00D+00
 Coeff-Com: -0.323D-02 0.953D-03 0.141D+00 0.861D+00
 Coeff:     -0.323D-02 0.953D-03 0.141D+00 0.861D+00
 Gap=     0.396 Goal=   None    Shift=    0.000
 RMSDP=5.25D-06 MaxDP=3.08D-04 DE=-1.34D-04 OVMax= 5.18D-04

 Cycle   5  Pass 1  IDiag  1:
 RMSU=  3.18D-06    CP:  9.67D-01  8.48D-01  1.07D+00  1.11D+00
 E= -76.4229603494552     Delta-E=       -0.000001685707 Rises=F Damp=F
 DIIS: error= 1.77D-05 at cycle   5 NSaved=   5.
 NSaved= 5 IEnMin= 5 EnMin= -76.4229603494552     IErMin= 5 ErrMin= 1.77D-05
 ErrMax= 1.77D-05  0.00D+00 EMaxC= 1.00D-01 BMatC= 7.32D-08 BMatP= 2.58D-06
 IDIUse=1 WtCom= 1.00D+00 WtEn= 0.00D+00
 Coeff-Com:  0.152D-02-0.237D-02-0.368D-01-0.448D-01 0.108D+01
 Coeff:      0.152D-02-0.237D-02-0.368D-01-0.448D-01 0.108D+01
 Gap=     0.397 Goal=   None    Shift=    0.000
 RMSDP=3.20D-06 MaxDP=1.25D-04 DE=-1.69D-06 OVMax= 2.16D-04

 Cycle   6  Pass 1  IDiag  1:
 RMSU=  9.41D-07    CP:  9.67D-01  8.45D-01  1.08D+00  1.18D+00  1.28D+00
 E= -76.4229604845379     Delta-E=       -0.000000135083 Rises=F Damp=F
 DIIS: error= 2.00D-06 at cycle   6 NSaved=   6.
 NSaved= 6 IEnMin= 6 EnMin= -76.4229604845379     IErMin= 6 ErrMin= 2.00D-06
 ErrMax= 2.00D-06  0.00D+00 EMaxC= 1.00D-01 BMatC= 1.85D-09 BMatP= 7.32D-08
 IDIUse=1 WtCom= 1.00D+00 WtEn= 0.00D+00
 Coeff-Com: -0.278D-03 0.393D-03 0.371D-02-0.852D-02-0.154D+00 0.116D+01
 Coeff:     -0.278D-03 0.393D-03 0.371D-02-0.852D-02-0.154D+00 0.116D+01
 Gap=     0.397 Goal=   None    Shift=    0.000
 RMSDP=4.51D-07 MaxDP=2.07D-05 DE=-1.35D-07 OVMax= 3.99D-05

 Cycle   7  Pass 1  IDiag  1:
 RMSU=  1.40D-07    CP:  9.67D-01  8.45D-01  1.08D+00  1.19D+00  1.33D+00
                    CP:  1.25D+00
 E= -76.4229604883553     Delta-E=       -0.000000003817 Rises=F Damp=F
 DIIS: error= 2.89D-07 at cycle   7 NSaved=   7.
 NSaved= 7 IEnMin= 7 EnMin= -76.4229604883553     IErMin= 7 ErrMin= 2.89D-07
 ErrMax= 2.89D-07  0.00D+00 EMaxC= 1.00D-01 BMatC= 2.78D-11 BMatP= 1.85D-09
 IDIUse=1 WtCom= 1.00D+00 WtEn= 0.00D+00
 Coeff-Com:  0.469D-05 0.113D-04 0.394D-04 0.162D-02-0.110D-01-0.603D-01
 Coeff-Com:  0.107D+01
 Coeff:      0.469D-05 0.113D-04 0.394D-04 0.162D-02-0.110D-01-0.603D-01
 Coeff:      0.107D+01
 Gap=     0.397 Goal=   None    Shift=    0.000
 RMSDP=6.04D-08 MaxDP=2.50D-06 DE=-3.82D-09 OVMax= 5.21D-06

 Cycle   8  Pass 1  IDiag  1:
 RMSU=  1.80D-08    CP:  9.67D-01  8.45D-01  1.08D+00  1.19D+00  1.34D+00
                    CP:  1.28D+00  1.16D+00
 E= -76.4229604884137     Delta-E=       -0.000000000058 Rises=F Damp=F
 DIIS: error= 7.47D-08 at cycle   8 NSaved=   8.
 NSaved= 8 IEnMin= 8 EnMin= -76.4229604884137     IErMin= 8 ErrMin= 7.47D-08
 ErrMax= 7.47D-08  0.00D+00 EMaxC= 1.00D-01 BMatC= 1.74D-12 BMatP= 2.78D-11
 IDIUse=1 WtCom= 1.00D+00 WtEn= 0.00D+00
 Coeff-Com:  0.124D-04-0.148D-04-0.131D-03 0.671D-03 0.403D-02-0.520D-01
 Coeff-Com:  0.157D+00 0.890D+00
 Coeff:      0.124D-04-0.148D-04-0.131D-03 0.671D-03 0.403D-02-0.520D-01
 Coeff:      0.157D+00 0.890D+00
 Gap=     0.397 Goal=   None    Shift=    0.000
 RMSDP=7.27D-09 MaxDP=3.35D-07 DE=-5.83D-11 OVMax= 7.44D-07

 SCF Done:  E(RM062X) =  -76.4229604884     A.U. after    8 cycles
            NFock=  8  Conv=0.73D-08     -V/T= 2.0033
 KE= 7.617211737403D+01 PE=-1.989718545238D+02 EE= 3.730827853815D+01
 Leave Link  502 at Fri Feb 17 21:30:11 2023, MaxMem=  6710886400 cpu:             240.9 elap:              10.1
 (Enter /data0/home/software/g16/l601.exe)
 Copying SCF densities to generalized density rwf, IOpCl= 0 IROHF=0.

 **********************************************************************

            Population analysis using the SCF density.

 **********************************************************************

 Alpha  occ. eigenvalues --  -19.62752  -1.13173  -0.60561  -0.47545  -0.40000
 Alpha virt. eigenvalues --   -0.00338   0.04059   0.04408   0.04627   0.08764
 Alpha virt. eigenvalues --    0.10438   0.10962   0.11569   0.13517   0.13725
 Alpha virt. eigenvalues --    0.15250   0.16053   0.17037   0.17668   0.18468
 Alpha virt. eigenvalues --    0.18899   0.19885   0.21672   0.22169   0.22671
 Alpha virt. eigenvalues --    0.23416   0.25237   0.25863   0.26954   0.27126
 Alpha virt. eigenvalues --    0.27885   0.28985   0.29648   0.31508   0.31548
 Alpha virt. eigenvalues --    0.33836   0.34054   0.34891   0.36216   0.37117
 Alpha virt. eigenvalues --    0.37849   0.38321   0.39717   0.41104   0.41312
 Alpha virt. eigenvalues --    0.41875   0.44940   0.47215   0.48113   0.50532
 Alpha virt. eigenvalues --    0.56133   0.62992   0.63811   0.68024   0.69731
 Alpha virt. eigenvalues --    0.71545   0.71798   0.72497   0.74460   0.74727
 Alpha virt. eigenvalues --    0.75696   0.76211   0.77797   0.78946   0.79204
 Alpha virt. eigenvalues --    0.81152   0.84229   0.86470   0.88459   0.89244
 Alpha virt. eigenvalues --    0.90281   0.92155   0.94140   0.96161   0.97823
 Alpha virt. eigenvalues --    0.98774   1.01434   1.02964   1.03501   1.06895
 Alpha virt. eigenvalues --    1.08873   1.11212   1.12758   1.13050   1.15824
 Alpha virt. eigenvalues --    1.17839   1.19905   1.21285   1.25044   1.26847
 Alpha virt. eigenvalues --    1.27428   1.30204   1.31418   1.31832   1.46231
 Alpha virt. eigenvalues --    1.47640   1.53328   1.59213   1.62488   1.70534
 Alpha virt. eigenvalues --    1.76246   1.79982   1.81839   1.82239   1.85184
 Alpha virt. eigenvalues --    1.86845   1.89830   1.91568   1.93535   1.98403
 Alpha virt. eigenvalues --    2.00979   2.01391   2.05672   2.06943   2.11049
 Alpha virt. eigenvalues --    2.13141   2.15068   2.17085   2.21231   2.25732
 Alpha virt. eigenvalues --    2.26661   2.28208   2.30835   2.36416   2.37080
 Alpha virt. eigenvalues --    2.40002   2.40793   2.43707   2.44371   2.47974
 Alpha virt. eigenvalues --    2.48959   2.50018   2.51157   2.52849   2.53718
 Alpha virt. eigenvalues --    2.55022   2.57458   2.59017   2.59559   2.59992
 Alpha virt. eigenvalues --    2.63435   2.64182   2.66544   2.66703   2.67609
 Alpha virt. eigenvalues --    2.68327   2.70097   2.72027   2.73415   2.76597
 Alpha virt. eigenvalues --    2.77814   2.78895   2.78910   2.80645   2.84168
 Alpha virt. eigenvalues --    2.87195   2.88763   2.88901   2.90239   2.92023
 Alpha virt. eigenvalues --    2.95434   2.96922   2.97633   3.00263   3.02845
 Alpha virt. eigenvalues --    3.03549   3.03781   3.07640   3.08840   3.09437
 Alpha virt. eigenvalues --    3.13979   3.15138   3.20434   3.22216   3.25076
 Alpha virt. eigenvalues --    3.28674   3.32404   3.37583   3.45091   3.47549
 Alpha virt. eigenvalues --    3.47676   3.55848   3.64481   3.67549   3.76917
 Alpha virt. eigenvalues --    3.78701   3.84102   4.46594   4.49662   4.50520
 Alpha virt. eigenvalues --    4.55126   4.56295   4.59251   4.65926   4.76994
 Alpha virt. eigenvalues --    4.93143   4.94878   4.96940   5.10050   5.11526
 Alpha virt. eigenvalues --    5.23861   5.61363   5.96819   6.83098   6.86786
 Alpha virt. eigenvalues --    6.96228   6.99795   7.15070   9.73388   9.74492
 Alpha virt. eigenvalues --    9.74886   9.77347   9.79449   9.83267   9.84832
 Alpha virt. eigenvalues --    9.86018   9.87970   9.89704   9.91622   9.94889
 Alpha virt. eigenvalues --   10.03285  10.04524  10.11973  10.17224  10.21473
 Alpha virt. eigenvalues --   10.23674  10.27204  10.30237  10.32429  10.32845
 Alpha virt. eigenvalues --   10.34846  10.41147  10.43966  10.45332  10.48108
 Alpha virt. eigenvalues --   10.53962  10.66138  10.67460  10.71112  10.81990
 Alpha virt. eigenvalues --   10.88227  12.85543  12.86672  12.88561  12.96583
 Alpha virt. eigenvalues --   13.16502  13.21595  13.23123  13.24649  13.38159
 Alpha virt. eigenvalues --   13.44928  13.48110  13.56183  13.61895  13.67656
 Alpha virt. eigenvalues --   13.78520  13.80643  13.91488  13.94211  14.18542
 Alpha virt. eigenvalues --   17.66984  17.71638  17.78374  18.27459  18.53608
 Alpha virt. eigenvalues --   18.54042  50.02341  52.76104  52.77924  52.87105
 Alpha virt. eigenvalues --   70.47360 135.80467 136.62304 136.77327 138.64155
 Alpha virt. eigenvalues --  139.76429 139.77247 481.91228
          Condensed to atoms (all electrons):
               1          2          3          4          5          6
     1  P    0.009414  -0.005111  -0.000796  -0.000508  -0.002068   0.000002
     2  O   -0.005111   0.007265   0.000082  -0.001048   0.000541  -0.000008
     3  O   -0.000796   0.000082   0.002913  -0.001907  -0.000696   0.000022
     4  H   -0.000508  -0.001048  -0.001907   0.005835   0.000066  -0.000002
     5  O   -0.002068   0.000541  -0.000696   0.000066   0.001494  -0.000016
     6  H    0.000002  -0.000008   0.000022  -0.000002  -0.000016   0.000006
     7  O   -0.000705  -0.000133  -0.000229   0.000048   0.000503  -0.000000
     8  H   -0.000055  -0.000191   0.000181   0.000016  -0.000034   0.000003
     9  O   -0.003305   0.018957   0.003622  -0.005412  -0.000732   0.000018
    10  H    0.000468   0.000346  -0.000155   0.000588   0.000016  -0.000002
    11  H   -0.000970   0.010921   0.000523   0.000128  -0.000152   0.000013
    12  O   -0.001179   0.001917   0.002606  -0.007039  -0.000273  -0.000000
    13  H    0.001036  -0.001356  -0.001230   0.003466   0.000151   0.000005
    14  H    0.000316  -0.000355  -0.000446   0.001038   0.000088   0.000000
    15  O    0.000063  -0.000066  -0.000013   0.000027   0.000006   0.000001
    16  H   -0.000002  -0.000002   0.000000  -0.000000  -0.000000   0.000000
    17  H   -0.000170   0.000228   0.000041  -0.000075  -0.000016  -0.000001
               7          8          9         10         11         12
     1  P   -0.000705  -0.000055  -0.003305   0.000468  -0.000970  -0.001179
     2  O   -0.000133  -0.000191   0.018957   0.000346   0.010921   0.001917
     3  O   -0.000229   0.000181   0.003622  -0.000155   0.000523   0.002606
     4  H    0.000048   0.000016  -0.005412   0.000588   0.000128  -0.007039
     5  O    0.000503  -0.000034  -0.000732   0.000016  -0.000152  -0.000273
     6  H   -0.000000   0.000003   0.000018  -0.000002   0.000013  -0.000000
     7  O    0.000555  -0.000075  -0.000228  -0.000024   0.000056  -0.000054
     8  H   -0.000075   0.000161  -0.000010  -0.000001   0.000002  -0.000008
     9  O   -0.000228  -0.000010   8.003194   0.312273   0.342193   0.052272
    10  H   -0.000024  -0.000001   0.312273   0.439013  -0.023135  -0.004231
    11  H    0.000056   0.000002   0.342193  -0.023135   0.318558   0.000410
    12  O   -0.000054  -0.000008   0.052272  -0.004231   0.000410   0.035071
    13  H    0.000042   0.000004  -0.055834   0.005390  -0.001969  -0.027616
    14  H    0.000010   0.000001  -0.004803   0.000177  -0.000116  -0.007512
    15  O    0.000002   0.000000   0.027968   0.000173   0.000194  -0.001153
    16  H    0.000000   0.000000   0.000422  -0.000105   0.000010   0.000014
    17  H   -0.000005  -0.000000  -0.062045   0.001296   0.000013   0.002475
              13         14         15         16         17
     1  P    0.001036   0.000316   0.000063  -0.000002  -0.000170
     2  O   -0.001356  -0.000355  -0.000066  -0.000002   0.000228
     3  O   -0.001230  -0.000446  -0.000013   0.000000   0.000041
     4  H    0.003466   0.001038   0.000027  -0.000000  -0.000075
     5  O    0.000151   0.000088   0.000006  -0.000000  -0.000016
     6  H    0.000005   0.000000   0.000001   0.000000  -0.000001
     7  O    0.000042   0.000010   0.000002   0.000000  -0.000005
     8  H    0.000004   0.000001   0.000000   0.000000  -0.000000
     9  O   -0.055834  -0.004803   0.027968   0.000422  -0.062045
    10  H    0.005390   0.000177   0.000173  -0.000105   0.001296
    11  H   -0.001969  -0.000116   0.000194   0.000010   0.000013
    12  O   -0.027616  -0.007512  -0.001153   0.000014   0.002475
    13  H    0.027138   0.004897   0.001634  -0.000014  -0.003652
    14  H    0.004897   0.002462   0.000155  -0.000001  -0.000308
    15  O    0.001634   0.000155   0.013892  -0.000521  -0.019231
    16  H   -0.000014  -0.000001  -0.000521   0.000121   0.000470
    17  H   -0.003652  -0.000308  -0.019231   0.000470   0.029916
 Mulliken charges:
               1
     1  P    0.003569
     2  O   -0.031985
     3  O   -0.004519
     4  H    0.004780
     5  O    0.001123
     6  H   -0.000040
     7  O    0.000236
     8  H    0.000006
     9  O   -0.628549
    10  H    0.267912
    11  H    0.353320
    12  O   -0.045700
    13  H    0.047908
    14  H    0.004396
    15  O   -0.023132
    16  H   -0.000392
    17  H    0.051065
 Sum of Mulliken charges =  -0.00000
 Mulliken charges with hydrogens summed into heavy atoms:
               1
     1  P    0.003569
     2  O   -0.031985
     3  O    0.000261
     5  O    0.001083
[...]

            Population analysis using the SCF density.

 **********************************************************************

 Alpha  occ. eigenvalues --  -19.62557  -1.13376  -0.60917  -0.47430  -0.39984
 Alpha virt. eigenvalues --    0.06318   0.13345   0.17385   0.17948   0.18943
 Alpha virt. eigenvalues --    0.23233   0.51522   0.53257   0.97863   1.00164
 Alpha virt. eigenvalues --    1.06049   1.18843   1.19859   1.32574   1.33797
 Alpha virt. eigenvalues --    1.69518   1.74167   1.75870   2.08446   2.08762
 Alpha virt. eigenvalues --    2.35204   2.42606   2.54333   2.88872   3.01095
 Alpha virt. eigenvalues --    5.05697   5.47869   5.93369   6.78225   6.80312
 Alpha virt. eigenvalues --    6.87005   6.91518   7.09494  49.95981
          Condensed to atoms (all electrons):
              12         13         14
    12  O    7.914259   0.321437   0.322052
    13  H    0.321437   0.424040  -0.024629
    14  H    0.322052  -0.024629   0.423981
 Mulliken charges:
               1
     1  P    0.000000
     2  O    0.000000
     3  O    0.000000
     4  H    0.000000
     5  O    0.000000
     6  H    0.000000
     7  O    0.000000
     8  H    0.000000
     9  O    0.000000
    10  H    0.000000
    11  H    0.000000
    12  O   -0.557749
    13  H    0.279152
    14  H    0.278596
    15  O    0.000000
    16  H    0.000000
    17  H    0.000000
 Sum of Mulliken charges =  -0.00000
 Mulliken charges with hydrogens summed into heavy atoms:
               1
     1  P    0.000000
     2  O    0.000000
     3  O    0.000000
     5  O    0.000000
     7  O    0.000000
     9  O    0.000000
    12  O   -0.000000
    15  O    0.000000
         Mulliken charges condensed to fragments:
      1      0.000000
      2      0.000000
      3     -0.000000
      4      0.000000
 Electronic spatial extent (au):  <R**2>=          14581.7530
 Charge=              0.0000 electrons
 Dipole moment (field-independent basis, Debye):
    X=              1.0168    Y=             -0.8622    Z=              1.6319  Tot=              2.1072
 Quadrupole moment (field-independent basis, Debye-Ang):
   XX=             13.8112   YY=            -30.4923   ZZ=             22.1438
   XY=              6.7154   XZ=             26.6004   YZ=             17.4471
 Traceless Quadrupole moment (field-independent basis, Debye-Ang):
   XX=             11.9903   YY=            -32.3132   ZZ=             20.3229
   XY=              6.7154   XZ=             26.6004   YZ=             17.4471
 Octapole moment (field-independent basis, Debye-Ang**2):
  XXX=            102.6157  YYY=           -791.1462  ZZZ=            207.0056  XYY=            -74.8193
  XXY=            123.1078  XXZ=            312.6878  XZZ=            321.7383  YZZ=            275.6490
  YYZ=            116.2737  XYZ=            329.8482
 Hexadecapole moment (field-independent basis, Debye-Ang**3):
 XXXX=           -126.4881 YYYY=         -17949.9244 ZZZZ=           1438.5906 XXXY=            716.8336
 XXXZ=           2974.5557 YYYX=          -4478.0882 YYYZ=          -1045.5688 ZZZX=           3022.9174
 ZZZY=           2659.3954 XXYY=             95.7137 XXZZ=           3734.8762 YYZZ=           2939.5694
 XXYZ=           4014.6558 YYXZ=           3500.2410 ZZXY=           4275.0518
 N-N= 9.116682688083D+00 E-N=-1.990875246458D+02  KE= 7.620003883514D+01
 No NMR shielding tensors so no spin-rotation constants.
 Leave Link  601 at Fri Feb 17 21:30:42 2023, MaxMem=  6710886400 cpu:               1.8 elap:               0.1
 (Enter /data0/home/software/g16/l122.exe)
 CPIOFr:  IOpCl= 0 IRwI=-1 IRwCP=  731 ICalc=  7 LCPTot=      120517 Len1MO=      315166 IndFrg=     2641845
 Counterpoise: doing calculation for fragment   4 using the basis set of the fragment.
 Leave Link  122 at Fri Feb 17 21:30:42 2023, MaxMem=  6710886400 cpu:               0.1 elap:               0.0
 (Enter /data0/home/software/g16/l301.exe)
 Basis read from rwf:  (5D, 7F)
 No pseudopotential information found on rwf file.
    39 basis functions,    58 primitive gaussians,    41 cartesian basis functions
     5 alpha electrons        5 beta electrons
       nuclear repulsion energy         9.1497405786 Hartrees.
 IExCor= 4336 DFT=T Ex+Corr=M062X ExCW=0 ScaHFX=  0.540000
 ScaDFX=  1.000000  1.000000  1.000000  1.000000 ScalE2=  1.000000  1.000000
 IRadAn=      5 IRanWt=     -1 IRanGd=            0 ICorTp=0 IEmpDi=131
 NAtoms=   17 NActive=    3 NUniq=    3 SFac= 1.00D+00 NAtFMM=   60 NAOKFM=F Big=F
 Integral buffers will be    131072 words long.
 Raffenetti 2 integral format.
 Two-electron integral symmetry is turned off.
 R6Disp:  Grimme-D3 Dispersion energy=       -0.0000000082 Hartrees.
 Nuclear repulsion after empirical dispersion term =        9.1497405704 Hartrees.
 No density basis found on file   718.
 Leave Link  301 at Fri Feb 17 21:30:42 2023, MaxMem=  6710886400 cpu:               1.2 elap:               0.1
 (Enter /data0/home/software/g16/l302.exe)
 NPDir=0 NMtPBC=     1 NCelOv=     1 NCel=       1 NClECP=     1 NCelD=      1
         NCelK=      1 NCelE2=     1 NClLst=     1 CellRange=     0.0.
 One-electron integrals computed using PRISM.
 NBasis=    39 RedAO= T EigKep=  3.08D-03  NBF=    39
 NBsUse=    39 1.00D-06 EigRej= -1.00D+00 NBFU=    39
 Precomputing XC quadrature grid using
 IXCGrd= 4 IRadAn=           5 IRanWt=          -1 IRanGd=           0 AccXCQ= 0.00D+00.
 Generated NRdTot=       0 NPtTot=           0 NUsed=           0 NTot=          32
 NSgBfM=    41    41    41    41    41 MxSgAt=     3 MxSgA2=     3.
 Leave Link  302 at Fri Feb 17 21:30:42 2023, MaxMem=  6710886400 cpu:               2.2 elap:               0.1
 (Enter /data0/home/software/g16/l303.exe)
 DipDrv:  MaxL=1.
 Leave Link  303 at Fri Feb 17 21:30:42 2023, MaxMem=  6710886400 cpu:               0.4 elap:               0.0
 (Enter /data0/home/software/g16/l401.exe)
 ExpMin= 8.45D-02 ExpMax= 8.59D+03 ExpMxC= 1.30D+03 IAcc=3 IRadAn=         5 AccDes= 0.00D+00
 Harris functional with IExCor= 1009 and IRadAn=       5 diagonalized for initial guess.
 HarFok:  IExCor= 1009 AccDes= 0.00D+00 IRadAn=         5 IDoV= 1 UseB2=F ITyADJ=14
 ICtDFT=  3500011 ScaDFX=  1.000000  1.000000  1.000000  1.000000
 FoFCou: FMM=F IPFlag=           0 FMFlag=      100000 FMFlg1=           0
         NFxFlg=           0 DoJE=T BraDBF=F KetDBF=T FulRan=T
         wScrn=  0.000000 ICntrl=       500 IOpCl=  0 I1Cent=   200000004 NGrid=           0
         NMat0=    1 NMatS0=      1 NMatT0=    0 NMatD0=    1 NMtDS0=    0 NMtDT0=    0
 Symmetry not used in FoFCou.
 Harris En= -76.4171463897713    
 JPrj=0 DoOrth=F DoCkMO=F.
 Leave Link  401 at Fri Feb 17 21:30:42 2023, MaxMem=  6710886400 cpu:               2.9 elap:               0.1
 (Enter /data0/home/software/g16/l502.exe)
 Keep R1 ints in memory in canonical form, NReq=21038482.
 FoFCou: FMM=F IPFlag=           0 FMFlag=           0 FMFlg1=           0
         NFxFlg=           0 DoJE=F BraDBF=F KetDBF=F FulRan=T
         wScrn=  0.000000 ICntrl=       600 IOpCl=  0 I1Cent=           0 NGrid=           0
         NMat0=    1 NMatS0=    780 NMatT0=    0 NMatD0=    1 NMtDS0=    0 NMtDT0=    0
 Symmetry not used in FoFCou.
 Two-electron integral symmetry not used.
 Closed shell SCF:
 Using DIIS extrapolation, IDIIS=  1040.
 NGot=  6710886400 LenX=  6710576560 LenY=  6710574438
 Requested convergence on RMS density matrix=1.00D-08 within 128 cycles.
 Requested convergence on MAX density matrix=1.00D-06.
 Requested convergence on             energy=1.00D-06.
 No special actions if energy rises.
 Integral accuracy reduced to 1.0D-05 until final iterations.

 Cycle   1  Pass 0  IDiag  1:
 E= -76.3454960431736    
 DIIS: error= 7.11D-02 at cycle   1 NSaved=   1.
 NSaved= 1 IEnMin= 1 EnMin= -76.3454960431736     IErMin= 1 ErrMin= 7.11D-02
 ErrMax= 7.11D-02  0.00D+00 EMaxC= 1.00D-01 BMatC= 1.22D-01 BMatP= 1.22D-01
 IDIUse=3 WtCom= 2.89D-01 WtEn= 7.11D-01
 Coeff-Com:  0.100D+01
 Coeff-En:   0.100D+01
 Coeff:      0.100D+01
 Gap=     0.326 Goal=   None    Shift=    0.000
 GapD=    0.326 DampG=1.000 DampE=0.500 DampFc=0.5000 IDamp=-1.
 Damping current iteration by 5.00D-01
 RMSDP=7.83D-03 MaxDP=1.02D-01              OVMax= 1.69D-01

 Cycle   2  Pass 0  IDiag  1:
 E= -76.3774731179826     Delta-E=       -0.031977074809 Rises=F Damp=T
 DIIS: error= 1.17D-02 at cycle   2 NSaved=   2.
 NSaved= 2 IEnMin= 2 EnMin= -76.3774731179826     IErMin= 2 ErrMin= 1.17D-02
 ErrMax= 1.17D-02  0.00D+00 EMaxC= 1.00D-01 BMatC= 4.77D-03 BMatP= 1.22D-01
 IDIUse=3 WtCom= 8.83D-01 WtEn= 1.17D-01
 Coeff-Com:  0.793D-01 0.921D+00
 Coeff-En:   0.183D+00 0.817D+00
 Coeff:      0.914D-01 0.909D+00
 Gap=     0.459 Goal=   None    Shift=    0.000
 RMSDP=9.24D-04 MaxDP=1.37D-02 DE=-3.20D-02 OVMax= 1.01D-01

 Cycle   3  Pass 0  IDiag  1:
 E= -76.4217252120168     Delta-E=       -0.044252094034 Rises=F Damp=F
 DIIS: error= 2.19D-03 at cycle   3 NSaved=   3.
 NSaved= 3 IEnMin= 3 EnMin= -76.4217252120168     IErMin= 3 ErrMin= 2.19D-03
 ErrMax= 2.19D-03  0.00D+00 EMaxC= 1.00D-01 BMatC= 9.16D-05 BMatP= 4.77D-03
 IDIUse=3 WtCom= 9.78D-01 WtEn= 2.19D-02
 Coeff-Com: -0.200D-01 0.399D-01 0.980D+00
 Coeff-En:   0.000D+00 0.000D+00 0.100D+01
 Coeff:     -0.195D-01 0.390D-01 0.980D+00
 Gap=     0.463 Goal=   None    Shift=    0.000
 RMSDP=1.15D-04 MaxDP=1.03D-03 DE=-4.43D-02 OVMax= 3.28D-03

 Cycle   4  Pass 0  IDiag  1:
 E= -76.4218028486644     Delta-E=       -0.000077636648 Rises=F Damp=F
 DIIS: error= 4.07D-04 at cycle   4 NSaved=   4.
 NSaved= 4 IEnMin= 4 EnMin= -76.4218028486644     IErMin= 4 ErrMin= 4.07D-04
 ErrMax= 4.07D-04  0.00D+00 EMaxC= 1.00D-01 BMatC= 3.28D-06 BMatP= 9.16D-05
 IDIUse=3 WtCom= 9.96D-01 WtEn= 4.07D-03
 Coeff-Com: -0.191D-02-0.206D-02 0.164D+00 0.840D+00
 Coeff-En:   0.000D+00 0.000D+00 0.000D+00 0.100D+01
 Coeff:     -0.190D-02-0.205D-02 0.163D+00 0.841D+00
 Gap=     0.464 Goal=   None    Shift=    0.000
 RMSDP=2.19D-05 MaxDP=3.49D-04 DE=-7.76D-05 OVMax= 5.22D-04

 Cycle   5  Pass 0  IDiag  1:
 E= -76.4218048532227     Delta-E=       -0.000002004558 Rises=F Damp=F
 DIIS: error= 8.79D-05 at cycle   5 NSaved=   5.
 NSaved= 5 IEnMin= 5 EnMin= -76.4218048532227     IErMin= 5 ErrMin= 8.79D-05
 ErrMax= 8.79D-05  0.00D+00 EMaxC= 1.00D-01 BMatC= 8.17D-08 BMatP= 3.28D-06
 IDIUse=1 WtCom= 1.00D+00 WtEn= 0.00D+00
 Coeff-Com:  0.115D-02-0.176D-02-0.357D-01-0.682D-01 0.110D+01
 Coeff:      0.115D-02-0.176D-02-0.357D-01-0.682D-01 0.110D+01
 Gap=     0.464 Goal=   None    Shift=    0.000
 RMSDP=8.90D-06 MaxDP=1.03D-04 DE=-2.00D-06 OVMax= 1.96D-04

 Initial convergence to 1.0D-05 achieved.  Increase integral accuracy.
 Cycle   6  Pass 1  IDiag  1:
 E= -76.4218094724614     Delta-E=       -0.000004619239 Rises=F Damp=F
 DIIS: error= 3.55D-05 at cycle   1 NSaved=   1.
 NSaved= 1 IEnMin= 1 EnMin= -76.4218094724614     IErMin= 1 ErrMin= 3.55D-05
 ErrMax= 3.55D-05  0.00D+00 EMaxC= 1.00D-01 BMatC= 2.14D-08 BMatP= 2.14D-08
 IDIUse=1 WtCom= 1.00D+00 WtEn= 0.00D+00
 Coeff-Com:  0.100D+01
 Coeff:      0.100D+01
 Gap=     0.464 Goal=   None    Shift=    0.000
 RMSDP=8.90D-06 MaxDP=1.03D-04 DE=-4.62D-06 OVMax= 3.91D-05

 Cycle   7  Pass 1  IDiag  1:
 E= -76.4218094885954     Delta-E=       -0.000000016134 Rises=F Damp=F
 DIIS: error= 6.80D-06 at cycle   2 NSaved=   2.
 NSaved= 2 IEnMin= 2 EnMin= -76.4218094885954     IErMin= 2 ErrMin= 6.80D-06
 ErrMax= 6.80D-06  0.00D+00 EMaxC= 1.00D-01 BMatC= 6.82D-10 BMatP= 2.14D-08
 IDIUse=1 WtCom= 1.00D+00 WtEn= 0.00D+00
 Coeff-Com: -0.257D-01 0.103D+01
 Coeff:     -0.257D-01 0.103D+01
 Gap=     0.464 Goal=   None    Shift=    0.000
 RMSDP=6.03D-07 MaxDP=8.49D-06 DE=-1.61D-08 OVMax= 1.69D-05

 Cycle   8  Pass 1  IDiag  1:
 E= -76.4218094887668     Delta-E=       -0.000000000171 Rises=F Damp=F
 DIIS: error= 5.43D-06 at cycle   3 NSaved=   3.
 NSaved= 3 IEnMin= 3 EnMin= -76.4218094887668     IErMin= 3 ErrMin= 5.43D-06
 ErrMax= 5.43D-06  0.00D+00 EMaxC= 1.00D-01 BMatC= 7.16D-10 BMatP= 6.82D-10
 IDIUse=1 WtCom= 1.00D+00 WtEn= 0.00D+00
 Coeff-Com: -0.456D-01 0.538D+00 0.507D+00
 Coeff:     -0.456D-01 0.538D+00 0.507D+00
 Gap=     0.464 Goal=   None    Shift=    0.000
 RMSDP=2.99D-07 MaxDP=4.35D-06 DE=-1.71D-10 OVMax= 6.79D-06

 Cycle   9  Pass 1  IDiag  1:
 E= -76.4218094892322     Delta-E=       -0.000000000465 Rises=F Damp=F
 DIIS: error= 5.73D-07 at cycle   4 NSaved=   4.
 NSaved= 4 IEnMin= 4 EnMin= -76.4218094892322     IErMin= 4 ErrMin= 5.73D-07
 ErrMax= 5.73D-07  0.00D+00 EMaxC= 1.00D-01 BMatC= 4.30D-12 BMatP= 6.82D-10
 IDIUse=1 WtCom= 1.00D+00 WtEn= 0.00D+00
 Coeff-Com:  0.355D-02-0.738D-01-0.110D-01 0.108D+01
 Coeff:      0.355D-02-0.738D-01-0.110D-01 0.108D+01
 Gap=     0.464 Goal=   None    Shift=    0.000
 RMSDP=7.60D-08 MaxDP=5.44D-07 DE=-4.65D-10 OVMax= 1.88D-06

 Cycle  10  Pass 1  IDiag  1:
 E= -76.4218094892404     Delta-E=       -0.000000000008 Rises=F Damp=F
 DIIS: error= 8.50D-08 at cycle   5 NSaved=   5.
 NSaved= 5 IEnMin= 5 EnMin= -76.4218094892404     IErMin= 5 ErrMin= 8.50D-08
 ErrMax= 8.50D-08  0.00D+00 EMaxC= 1.00D-01 BMatC= 2.46D-13 BMatP= 4.30D-12
 IDIUse=1 WtCom= 1.00D+00 WtEn= 0.00D+00
 Coeff-Com:  0.335D-02-0.457D-01-0.370D-01 0.142D+00 0.938D+00
 Coeff:      0.335D-02-0.457D-01-0.370D-01 0.142D+00 0.938D+00
 Gap=     0.464 Goal=   None    Shift=    0.000
 RMSDP=2.17D-08 MaxDP=1.82D-07 DE=-8.23D-12 OVMax= 4.62D-07

 Cycle  11  Pass 1  IDiag  1:
 E= -76.4218094892407     Delta-E=       -0.000000000000 Rises=F Damp=F
 DIIS: error= 1.32D-08 at cycle   6 NSaved=   6.
 NSaved= 6 IEnMin= 6 EnMin= -76.4218094892407     IErMin= 6 ErrMin= 1.32D-08
 ErrMax= 1.32D-08  0.00D+00 EMaxC= 1.00D-01 BMatC= 4.04D-15 BMatP= 2.46D-13
 IDIUse=1 WtCom= 1.00D+00 WtEn= 0.00D+00
 Coeff-Com: -0.107D-03 0.260D-02-0.147D-03-0.357D-01-0.155D-01 0.105D+01
 Coeff:     -0.107D-03 0.260D-02-0.147D-03-0.357D-01-0.155D-01 0.105D+01
 Gap=     0.464 Goal=   None    Shift=    0.000
 RMSDP=4.22D-09 MaxDP=4.23D-08 DE=-2.98D-13 OVMax= 8.70D-08

 SCF Done:  E(RM062X) =  -76.4218094892     A.U. after   11 cycles
            NFock= 11  Conv=0.42D-08     -V/T= 2.0028
 KE= 7.621146441777D+01 PE=-1.991608088645D+02 EE= 3.737779438710D+01
 Leave Link  502 at Fri Feb 17 21:30:42 2023, MaxMem=  6710886400 cpu:               8.8 elap:               0.4
 (Enter /data0/home/software/g16/l601.exe)
 Copying SCF densities to generalized density rwf, IOpCl= 0 IROHF=0.

 **********************************************************************

            Population analysis using the SCF density.

 **********************************************************************

 Alpha  occ. eigenvalues --  -19.62429  -1.13442  -0.61373  -0.47174  -0.39978
 Alpha virt. eigenvalues --    0.06412   0.13391   0.17349   0.17952   0.18996
 Alpha virt. eigenvalues --    0.23067   0.51672   0.53678   0.97559   1.00138
 Alpha virt. eigenvalues --    1.06081   1.19625   1.20031   1.33192   1.33582
 Alpha virt. eigenvalues --    1.68655   1.73976   1.76561   2.07572   2.09979
 Alpha virt. eigenvalues --    2.33709   2.45906   2.53950   2.89724   3.01419
 Alpha virt. eigenvalues --    5.05780   5.46943   5.96193   6.77967   6.80557
 Alpha virt. eigenvalues --    6.86325   6.91803   7.09374  49.96590
          Condensed to atoms (all electrons):
              15         16         17
    15  O    7.910298   0.327437   0.323919
    16  H    0.327437   0.418664  -0.025314
    17  H    0.323919  -0.025314   0.418954
 Mulliken charges:
               1
     1  P    0.000000
     2  O    0.000000
     3  O    0.000000
     4  H    0.000000
     5  O    0.000000
     6  H    0.000000
     7  O    0.000000
     8  H    0.000000
     9  O    0.000000
    10  H    0.000000
    11  H    0.000000
    12  O    0.000000
    13  H    0.000000
    14  H    0.000000
    15  O   -0.561654
    16  H    0.279213
    17  H    0.282441
 Sum of Mulliken charges =   0.00000
 Mulliken charges with hydrogens summed into heavy atoms:
               1
     1  P    0.000000
     2  O    0.000000
     3  O    0.000000
     5  O    0.000000
     7  O    0.000000
     9  O    0.000000
    12  O    0.000000
    15  O    0.000000
         Mulliken charges condensed to fragments:
      1      0.000000
      2      0.000000
      3      0.000000
      4      0.000000
 Electronic spatial extent (au):  <R**2>=          13826.7078
 Charge=              0.0000 electrons
 Dipole moment (field-independent basis, Debye):
    X=             -1.1682    Y=             -0.9238    Z=             -1.4497  Tot=              2.0784
 Quadrupole moment (field-independent basis, Debye-Ang):
   XX=            -32.5967   YY=            -27.2006   ZZ=            -39.0182
   XY=            -22.3685   XZ=            -29.8770   YZ=            -28.2666
 Traceless Quadrupole moment (field-independent basis, Debye-Ang):
   XX=              0.3418   YY=              5.7379   ZZ=             -6.0797
   XY=            -22.3685   XZ=            -29.8770   YZ=            -28.2666
 Octapole moment (field-independent basis, Debye-Ang**2):
  XXX=           -652.8299  YYY=           -570.6322  ZZZ=           -774.4565  XYY=           -426.5062
  XXY=           -459.2450  XXZ=           -561.9558  XZZ=           -595.4599  YZZ=           -592.5421
  YYZ=           -527.3570  XYZ=           -456.7046
 Hexadecapole moment (field-independent basis, Debye-Ang**3):
 XXXX=         -11286.2057 YYYY=         -10292.3326 ZZZZ=         -13490.8483 XXXY=          -8278.3938
 XXXZ=          -9642.7643 YYYX=          -7601.7661 YYYZ=          -9169.1218 ZZZX=         -10505.0243
 ZZZY=         -10673.0186 XXYY=          -6997.0674 XXZZ=          -9311.3060 YYZZ=          -9269.3246
 XXYZ=          -7543.6519 YYXZ=          -7323.6025 ZZXY=          -8260.3904
 N-N= 9.149740570429D+00 E-N=-1.991608087364D+02  KE= 7.621146441777D+01
 No NMR shielding tensors so no spin-rotation constants.
 Leave Link  601 at Fri Feb 17 21:30:42 2023, MaxMem=  6710886400 cpu:               1.8 elap:               0.1
 (Enter /data0/home/software/g16/l122.exe)
 CPIOFr:  IOpCl= 0 IRwI=-1 IRwCP=  731 ICalc=  8 LCPTot=      120517 Len1MO=      315166 IndFrg=     2957011
 Restoring MOs from calculation   1 to rwf.
 CPIOFr:  IOpCl= 0 IRwI=-2 IRwCP=  731 ICalc=  0 LCPTot=      120517 Len1MO=      315166 IndFrg=      435683
 Counterpoise corrected energy =    -873.460050749017
                   BSSE energy =       0.003742267861
              sum of fragments =    -873.412121077168
           complexation energy =     -32.42 kcal/mole (raw)
           complexation energy =     -30.08 kcal/mole (corrected)
 Leave Link  122 at Fri Feb 17 21:30:42 2023, MaxMem=  6710886400 cpu:               0.2 elap:               0.0
 (Enter /data0/home/software/g16/l9999.exe)
 1\1\GINC-LOCALHOST\SP\RM062X\6-311+G(2d,p)\H9O7P1\WUHANYU\17-Feb-2023\
 0\\#p M062X/6-311+G(2d,p) nosymm em=GD3 counterpoise=4\\Title Card Req
 uired\\0,1\P,0,13.595033,14.485382,7.253403\O,0,13.469032,13.16635,7.8
 89227\O,0,12.2716,15.056797,6.576981\H,0,11.518019,15.110099,7.289528\
 O,0,14.146044,15.667329,8.149646\H,0,13.769752,15.566849,9.136675\O,0,
 14.605633,14.443881,6.028753\H,0,14.671492,15.410873,5.659704\O,0,11.0
 15679,12.231005,8.978544\H,0,10.618605,11.760113,8.245603\H,0,11.89643
 4,12.507888,8.637446\O,0,10.299073,15.007382,8.698143\H,0,10.410017,14
 .067264,8.896445\H,0,10.756852,15.463931,9.412599\O,0,11.076842,11.421
 891,11.673408\H,0,10.475078,10.698013,11.811341\H,0,11.033036,11.63738
 8,10.72682\\Version=ES64L-G16RevA.03\HF=-76.4218095\RMSD=4.219e-09\Dip
 ole=-0.2811785,0.9448899,-0.5046126\Quadrupole=-20.5309748,48.60437,-2
 8.0733952,23.9854083,-17.1560278,5.2648632\PG=C01 [X(H9O7P1)]\\@


 A true friend is someone who is there for
 you when he'd rather be anywhere else.
                               -- Len Wein
 Job cpu time:       0 days  0 hours 28 minutes 47.6 seconds.
 Elapsed time:       0 days  0 hours  1 minutes 14.9 seconds.
 File lengths (MBytes):  RWF=     75 Int=      0 D2E=      0 Chk=     28 Scr=      1
 Normal termination of Gaussian 16 at Fri Feb 17 21:30:43 2023.
