Title Card Required                                                     
SP        RM062X                                                      6-311+G(2d,p)       
Number of atoms                            I               11
Info1-9                                    I   N=           9
          20          20           0           0           0         110
           1          18        -502
Full Title                                 C   N=           2
Title Card Required     
Route                                      C   N=           3
#p 6-311+g(2d,p) nosymm em=gd3 m062x
Charge                                     I                0
Multiplicity                               I                1
Number of electrons                        I               42
Number of alpha electrons                  I               21
Number of beta electrons                   I               21
Number of basis functions                  I              192
Number of independent functions            I              192
Number of point charges in /Mol/           I                0
Number of translation vectors              I                0
Atomic numbers                             I   N=          11
           6           6           6           6           6           7
           1           1           1           1           1
Nuclear charges                            R   N=          11
  6.00000000E+00  6.00000000E+00  6.00000000E+00  6.00000000E+00  6.00000000E+00
  7.00000000E+00  1.00000000E+00  1.00000000E+00  1.00000000E+00  1.00000000E+00
  1.00000000E+00
Current cartesian coordinates              R   N=          33
  2.46312308E+01  2.04412223E+01  1.62365080E+01  2.42708184E+01  2.29959393E+01
  1.68148549E+01  2.29886392E+01  2.36157827E+01  1.90321934E+01  2.21106536E+01
  2.16893051E+01  2.05948230E+01  2.25480628E+01  1.91756141E+01  1.98832844E+01
  2.37854971E+01  1.85727764E+01  1.77442789E+01  2.26780458E+01  2.55885585E+01
  1.95342218E+01  2.56233275E+01  1.98374264E+01  1.45214889E+01  2.49759622E+01
  2.44584701E+01  1.55608874E+01  2.11048601E+01  2.21128079E+01  2.23333521E+01
  2.18950415E+01  1.75788655E+01  2.10486955E+01
Number of symbols in /Mol/                 I                0
Force Field                                I                0
Atom Types                                 C   N=          11
                                                            
                                                            
            
Int Atom Types                             I   N=          11
           0           0           0           0           0           0
           0           0           0           0           0
MM charges                                 R   N=          11
  0.00000000E+00  0.00000000E+00  0.00000000E+00  0.00000000E+00  0.00000000E+00
  0.00000000E+00  0.00000000E+00  0.00000000E+00  0.00000000E+00  0.00000000E+00
  0.00000000E+00
Integer atomic weights                     I   N=          11
          12          12          12          12          12          14
           1           1           1           1           1
Real atomic weights                        R   N=          11
  1.20000000E+01  1.20000000E+01  1.20000000E+01  1.20000000E+01  1.20000000E+01
  1.40030740E+01  1.00782504E+00  1.00782504E+00  1.00782504E+00  1.00782504E+00
  1.00782504E+00
Atom fragment info                         I   N=          11
           0           0           0           0           0           0
           0           0           0           0           0
Atom residue num                           I   N=          11
           0           0           0           0           0           0
           0           0           0           0           0
Nuclear spins                              I   N=          11
           0           0           0           0           0           2
           1           1           1           1           1
Nuclear ZEff                               R   N=          11
 -3.60000000E+00 -3.60000000E+00 -3.60000000E+00 -3.60000000E+00 -3.60000000E+00
 -4.55000000E+00 -1.00000000E+00 -1.00000000E+00 -1.00000000E+00 -1.00000000E+00
 -1.00000000E+00
Nuclear ZNuc                               R   N=          11
  6.00000000E+00  6.00000000E+00  6.00000000E+00  6.00000000E+00  6.00000000E+00
  7.00000000E+00  1.00000000E+00  1.00000000E+00  1.00000000E+00  1.00000000E+00
  1.00000000E+00
Nuclear QMom                               R   N=          11
  0.00000000E+00  0.00000000E+00  0.00000000E+00  0.00000000E+00  0.00000000E+00
  2.04400000E+00  0.00000000E+00  0.00000000E+00  0.00000000E+00  0.00000000E+00
  0.00000000E+00
Nuclear GFac                               R   N=          11
  0.00000000E+00  0.00000000E+00  0.00000000E+00  0.00000000E+00  0.00000000E+00
  4.03761000E-01  2.79284600E+00  2.79284600E+00  2.79284600E+00  2.79284600E+00
  2.79284600E+00
MicOpt                                     I   N=          11
          -1          -1          -1          -1          -1          -1
          -1          -1          -1          -1          -1
Number of residues                         I                0
Number of secondary structures             I                0
Number of contracted shells                I               62
Number of primitive shells                 I              114
Pure/Cartesian d shells                    I                0
Pure/Cartesian f shells                    I                0
Highest angular momentum                   I                2
Largest degree of contraction              I                6
Shell types                                I   N=          62
           0          -1          -1          -1          -1          -2
          -2           0          -1          -1          -1          -1
          -2          -2           0          -1          -1          -1
          -1          -2          -2           0          -1          -1
          -1          -1          -2          -2           0          -1
          -1          -1          -1          -2          -2           0
          -1          -1          -1          -1          -2          -2
           0           0           0           1           0           0
           0           1           0           0           0           1
           0           0           0           1           0           0
           0           1
Number of primitives per shell             I   N=          62
           6           3           1           1           1           1
           1           6           3           1           1           1
           1           1           6           3           1           1
           1           1           1           6           3           1
           1           1           1           1           6           3
           1           1           1           1           1           6
           3           1           1           1           1           1
           3           1           1           1           3           1
           1           1           3           1           1           1
           3           1           1           1           3           1
           1           1
Shell to atom map                          I   N=          62
           1           1           1           1           1           1
           1           2           2           2           2           2
           2           2           3           3           3           3
           3           3           3           4           4           4
           4           4           4           4           5           5
           5           5           5           5           5           6
           6           6           6           6           6           6
           7           7           7           7           8           8
           8           8           9           9           9           9
          10          10          10          10          11          11
          11          11
Primitive exponents                        R   N=         114
  4.56324000E+03  6.82024000E+02  1.54973000E+02  4.44553000E+01  1.30290000E+01
  1.82773000E+00  2.09642000E+01  4.80331000E+00  1.45933000E+00  4.83456000E-01
  1.45585000E-01  4.38000000E-02  1.25200000E+00  3.13000000E-01  4.56324000E+03
  6.82024000E+02  1.54973000E+02  4.44553000E+01  1.30290000E+01  1.82773000E+00
  2.09642000E+01  4.80331000E+00  1.45933000E+00  4.83456000E-01  1.45585000E-01
  4.38000000E-02  1.25200000E+00  3.13000000E-01  4.56324000E+03  6.82024000E+02
  1.54973000E+02  4.44553000E+01  1.30290000E+01  1.82773000E+00  2.09642000E+01
  4.80331000E+00  1.45933000E+00  4.83456000E-01  1.45585000E-01  4.38000000E-02
  1.25200000E+00  3.13000000E-01  4.56324000E+03  6.82024000E+02  1.54973000E+02
  4.44553000E+01  1.30290000E+01  1.82773000E+00  2.09642000E+01  4.80331000E+00
  1.45933000E+00  4.83456000E-01  1.45585000E-01  4.38000000E-02  1.25200000E+00
  3.13000000E-01  4.56324000E+03  6.82024000E+02  1.54973000E+02  4.44553000E+01
  1.30290000E+01  1.82773000E+00  2.09642000E+01  4.80331000E+00  1.45933000E+00
  4.83456000E-01  1.45585000E-01  4.38000000E-02  1.25200000E+00  3.13000000E-01
  6.29348000E+03  9.49044000E+02  2.18776000E+02  6.36916000E+01  1.88282000E+01
  2.72023000E+00  3.06331000E+01  7.02614000E+00  2.11205000E+00  6.84009000E-01
  2.00878000E-01  6.39000000E-02  1.82600000E+00  4.56500000E-01  3.38650000E+01
  5.09479000E+00  1.15879000E+00  3.25840000E-01  1.02741000E-01  7.50000000E-01
  3.38650000E+01  5.09479000E+00  1.15879000E+00  3.25840000E-01  1.02741000E-01
  7.50000000E-01  3.38650000E+01  5.09479000E+00  1.15879000E+00  3.25840000E-01
  1.02741000E-01  7.50000000E-01  3.38650000E+01  5.09479000E+00  1.15879000E+00
  3.25840000E-01  1.02741000E-01  7.50000000E-01  3.38650000E+01  5.09479000E+00
  1.15879000E+00  3.25840000E-01  1.02741000E-01  7.50000000E-01
Contraction coefficients                   R   N=         114
  1.96665025E-03  1.52306019E-02  7.61269097E-02  2.60801033E-01  6.16462078E-01
  2.21006028E-01  1.14660081E-01  9.19999648E-01 -3.03068213E-03  1.00000000E+00
  1.00000000E+00  1.00000000E+00  1.00000000E+00  1.00000000E+00  1.96665025E-03
  1.52306019E-02  7.61269097E-02  2.60801033E-01  6.16462078E-01  2.21006028E-01
  1.14660081E-01  9.19999648E-01 -3.03068213E-03  1.00000000E+00  1.00000000E+00
  1.00000000E+00  1.00000000E+00  1.00000000E+00  1.96665025E-03  1.52306019E-02
  7.61269097E-02  2.60801033E-01  6.16462078E-01  2.21006028E-01  1.14660081E-01
  9.19999648E-01 -3.03068213E-03  1.00000000E+00  1.00000000E+00  1.00000000E+00
  1.00000000E+00  1.00000000E+00  1.96665025E-03  1.52306019E-02  7.61269097E-02
  2.60801033E-01  6.16462078E-01  2.21006028E-01  1.14660081E-01  9.19999648E-01
 -3.03068213E-03  1.00000000E+00  1.00000000E+00  1.00000000E+00  1.00000000E+00
  1.00000000E+00  1.96665025E-03  1.52306019E-02  7.61269097E-02  2.60801033E-01
  6.16462078E-01  2.21006028E-01  1.14660081E-01  9.19999648E-01 -3.03068213E-03
  1.00000000E+00  1.00000000E+00  1.00000000E+00  1.00000000E+00  1.00000000E+00
  1.96978815E-03  1.49612859E-02  7.35005308E-02  2.48936766E-01  6.02459433E-01
  2.56201759E-01  1.11906080E-01  9.21666655E-01 -2.56919183E-03  1.00000000E+00
  1.00000000E+00  1.00000000E+00  1.00000000E+00  1.00000000E+00  2.54938145E-02
  1.90373109E-01  8.52161486E-01  1.00000000E+00  1.00000000E+00  1.00000000E+00
  2.54938145E-02  1.90373109E-01  8.52161486E-01  1.00000000E+00  1.00000000E+00
  1.00000000E+00  2.54938145E-02  1.90373109E-01  8.52161486E-01  1.00000000E+00
  1.00000000E+00  1.00000000E+00  2.54938145E-02  1.90373109E-01  8.52161486E-01
  1.00000000E+00  1.00000000E+00  1.00000000E+00  2.54938145E-02  1.90373109E-01
  8.52161486E-01  1.00000000E+00  1.00000000E+00  1.00000000E+00
P(S=P) Contraction coefficients            R   N=         114
  0.00000000E+00  0.00000000E+00  0.00000000E+00  0.00000000E+00  0.00000000E+00
  0.00000000E+00  4.02486927E-02  2.37593957E-01  8.15853851E-01  1.00000000E+00
  1.00000000E+00  1.00000000E+00  0.00000000E+00  0.00000000E+00  0.00000000E+00
  0.00000000E+00  0.00000000E+00  0.00000000E+00  0.00000000E+00  0.00000000E+00
  4.02486927E-02  2.37593957E-01  8.15853851E-01  1.00000000E+00  1.00000000E+00
  1.00000000E+00  0.00000000E+00  0.00000000E+00  0.00000000E+00  0.00000000E+00
  0.00000000E+00  0.00000000E+00  0.00000000E+00  0.00000000E+00  4.02486927E-02
  2.37593957E-01  8.15853851E-01  1.00000000E+00  1.00000000E+00  1.00000000E+00
  0.00000000E+00  0.00000000E+00  0.00000000E+00  0.00000000E+00  0.00000000E+00
  0.00000000E+00  0.00000000E+00  0.00000000E+00  4.02486927E-02  2.37593957E-01
  8.15853851E-01  1.00000000E+00  1.00000000E+00  1.00000000E+00  0.00000000E+00
  0.00000000E+00  0.00000000E+00  0.00000000E+00  0.00000000E+00  0.00000000E+00
  0.00000000E+00  0.00000000E+00  4.02486927E-02  2.37593957E-01  8.15853851E-01
  1.00000000E+00  1.00000000E+00  1.00000000E+00  0.00000000E+00  0.00000000E+00
  0.00000000E+00  0.00000000E+00  0.00000000E+00  0.00000000E+00  0.00000000E+00
  0.00000000E+00  3.83119186E-02  2.37403116E-01  8.17592398E-01  1.00000000E+00
  1.00000000E+00  1.00000000E+00  0.00000000E+00  0.00000000E+00  0.00000000E+00
  0.00000000E+00  0.00000000E+00  0.00000000E+00  0.00000000E+00  0.00000000E+00
  0.00000000E+00  0.00000000E+00  0.00000000E+00  0.00000000E+00  0.00000000E+00
  0.00000000E+00  0.00000000E+00  0.00000000E+00  0.00000000E+00  0.00000000E+00
  0.00000000E+00  0.00000000E+00  0.00000000E+00  0.00000000E+00  0.00000000E+00
  0.00000000E+00  0.00000000E+00  0.00000000E+00  0.00000000E+00  0.00000000E+00
  0.00000000E+00  0.00000000E+00  0.00000000E+00  0.00000000E+00
Coordinates of each shell                  R   N=         186
  2.46312308E+01  2.04412223E+01  1.62365080E+01  2.46312308E+01  2.04412223E+01
  1.62365080E+01  2.46312308E+01  2.04412223E+01  1.62365080E+01  2.46312308E+01
  2.04412223E+01  1.62365080E+01  2.46312308E+01  2.04412223E+01  1.62365080E+01
  2.46312308E+01  2.04412223E+01  1.62365080E+01  2.46312308E+01  2.04412223E+01
  1.62365080E+01  2.42708184E+01  2.29959393E+01  1.68148549E+01  2.42708184E+01
  2.29959393E+01  1.68148549E+01  2.42708184E+01  2.29959393E+01  1.68148549E+01
  2.42708184E+01  2.29959393E+01  1.68148549E+01  2.42708184E+01  2.29959393E+01
  1.68148549E+01  2.42708184E+01  2.29959393E+01  1.68148549E+01  2.42708184E+01
  2.29959393E+01  1.68148549E+01  2.29886392E+01  2.36157827E+01  1.90321934E+01
  2.29886392E+01  2.36157827E+01  1.90321934E+01  2.29886392E+01  2.36157827E+01
  1.90321934E+01  2.29886392E+01  2.36157827E+01  1.90321934E+01  2.29886392E+01
  2.36157827E+01  1.90321934E+01  2.29886392E+01  2.36157827E+01  1.90321934E+01
  2.29886392E+01  2.36157827E+01  1.90321934E+01  2.21106536E+01  2.16893051E+01
  2.05948230E+01  2.21106536E+01  2.16893051E+01  2.05948230E+01  2.21106536E+01
  2.16893051E+01  2.05948230E+01  2.21106536E+01  2.16893051E+01  2.05948230E+01
  2.21106536E+01  2.16893051E+01  2.05948230E+01  2.21106536E+01  2.16893051E+01
  2.05948230E+01  2.21106536E+01  2.16893051E+01  2.05948230E+01  2.25480628E+01
  1.91756141E+01  1.98832844E+01  2.25480628E+01  1.91756141E+01  1.98832844E+01
  2.25480628E+01  1.91756141E+01  1.98832844E+01  2.25480628E+01  1.91756141E+01
  1.98832844E+01  2.25480628E+01  1.91756141E+01  1.98832844E+01  2.25480628E+01
  1.91756141E+01  1.98832844E+01  2.25480628E+01  1.91756141E+01  1.98832844E+01
  2.37854971E+01  1.85727764E+01  1.77442789E+01  2.37854971E+01  1.85727764E+01
  1.77442789E+01  2.37854971E+01  1.85727764E+01  1.77442789E+01  2.37854971E+01
  1.85727764E+01  1.77442789E+01  2.37854971E+01  1.85727764E+01  1.77442789E+01
  2.37854971E+01  1.85727764E+01  1.77442789E+01  2.37854971E+01  1.85727764E+01
  1.77442789E+01  2.26780458E+01  2.55885585E+01  1.95342218E+01  2.26780458E+01
  2.55885585E+01  1.95342218E+01  2.26780458E+01  2.55885585E+01  1.95342218E+01
  2.26780458E+01  2.55885585E+01  1.95342218E+01  2.56233275E+01  1.98374264E+01
  1.45214889E+01  2.56233275E+01  1.98374264E+01  1.45214889E+01  2.56233275E+01
  1.98374264E+01  1.45214889E+01  2.56233275E+01  1.98374264E+01  1.45214889E+01
  2.49759622E+01  2.44584701E+01  1.55608874E+01  2.49759622E+01  2.44584701E+01
  1.55608874E+01  2.49759622E+01  2.44584701E+01  1.55608874E+01  2.49759622E+01
  2.44584701E+01  1.55608874E+01  2.11048601E+01  2.21128079E+01  2.23333521E+01
  2.11048601E+01  2.21128079E+01  2.23333521E+01  2.11048601E+01  2.21128079E+01
  2.23333521E+01  2.11048601E+01  2.21128079E+01  2.23333521E+01  2.18950415E+01
  1.75788655E+01  2.10486955E+01  2.18950415E+01  1.75788655E+01  2.10486955E+01
  2.18950415E+01  1.75788655E+01  2.10486955E+01  2.18950415E+01  1.75788655E+01
  2.10486955E+01
Num ILSW                                   I              100
ILSW                                       I   N=         100
           0           0           0           0           2           0
           0           0           0           0        4336          -1
           5           0           0           0           0           0
           0           0           0           0           0           0
           1           1           0           0           0           0
           0           0      100000           0          -1           0
           0           0           0           0           0           0
           0           0           0           1           0           0
           0 -2000000000           1           0           0           0
           0           0         131          52           0           0
           0           0          55           0           0           0
           0           0           0          11           0           1
           0           0           0           0           0           0
           0           0           0           0           0           0
           0           0           0           0           0           0
           0           0           0           0           0           0
           0           0           0           0
Num RLSW                                   I               52
RLSW                                       R   N=          52
  1.00000000E+00  1.00000000E+00  1.00000000E+00  1.00000000E+00  5.40000000E-01
  0.00000000E+00  0.00000000E+00  1.00000000E+00  0.00000000E+00  0.00000000E+00
  0.00000000E+00  0.00000000E+00  1.00000000E+00  0.00000000E+00  0.00000000E+00
  0.00000000E+00  0.00000000E+00  1.00000000E+00  0.00000000E+00  0.00000000E+00
  0.00000000E+00  0.00000000E+00  1.00000000E+00  0.00000000E+00  0.00000000E+00
  0.00000000E+00  0.00000000E+00  1.00000000E+00  0.00000000E+00  0.00000000E+00
  0.00000000E+00  0.00000000E+00  1.00000000E+00  0.00000000E+00  0.00000000E+00
  0.00000000E+00  0.00000000E+00  0.00000000E+00  1.00000000E+00  1.00000000E+00
  0.00000000E+00  1.00000000E+00  0.00000000E+00  0.00000000E+00  0.00000000E+00
  0.00000000E+00  0.00000000E+00  0.00000000E+00  0.00000000E+00  0.00000000E+00
  0.00000000E+00  0.00000000E+00
MxBond                                     I                3
NBond                                      I   N=          11
           3           3           3           3           3           2
           1           1           1           1           1
IBond                                      I   N=          33
           2           6           8           1           3           9
           2           4           7           3           5          10
           4           6          11           1           5           0
           3           0           0           1           0           0
           2           0           0           4           0           0
           5           0           0
RBond                                      R   N=          33
  1.50000000E+00  1.50000000E+00  1.00000000E+00  1.50000000E+00  1.50000000E+00
  1.00000000E+00  1.50000000E+00  1.50000000E+00  1.00000000E+00  1.50000000E+00
  1.50000000E+00  1.00000000E+00  1.50000000E+00  1.50000000E+00  1.00000000E+00
  1.50000000E+00  1.50000000E+00  0.00000000E+00  1.00000000E+00  0.00000000E+00
  0.00000000E+00  1.00000000E+00  0.00000000E+00  0.00000000E+00  1.00000000E+00
  0.00000000E+00  0.00000000E+00  1.00000000E+00  0.00000000E+00  0.00000000E+00
  1.00000000E+00  0.00000000E+00  0.00000000E+00
Virial Ratio                               R      2.004785162067880E+00
SCF Energy                                 R     -2.482447206015337E+02
Total Energy                               R     -2.482447206015337E+02
RMS Density                                R      6.865584750394931E-09
Job Status                                 I                1
Nuclear derivative order                   I                0
External E-field                           R   N=          35
  0.00000000E+00  0.00000000E+00  0.00000000E+00  0.00000000E+00  0.00000000E+00
  0.00000000E+00  0.00000000E+00  0.00000000E+00  0.00000000E+00  0.00000000E+00
  0.00000000E+00  0.00000000E+00  0.00000000E+00  0.00000000E+00  0.00000000E+00
  0.00000000E+00  0.00000000E+00  0.00000000E+00  0.00000000E+00  0.00000000E+00
  0.00000000E+00  0.00000000E+00  0.00000000E+00  0.00000000E+00  0.00000000E+00
  0.00000000E+00  0.00000000E+00  0.00000000E+00  0.00000000E+00  0.00000000E+00
  0.00000000E+00  0.00000000E+00  0.00000000E+00  0.00000000E+00  0.00000000E+00
IOpCl                                      I                0
IROHF                                      I                0
Alpha Orbital Energies                     R   N=         192
 -1.47505129E+01 -1.05841245E+01 -1.05832936E+01 -1.05665383E+01 -1.05570338E+01
 -1.05569813E+01 -1.04992021E+00 -9.06908852E-01 -8.62413957E-01 -7.18146642E-01
 -7.14469318E-01 -6.08544718E-01 -5.51942992E-01 -5.46886111E-01 -5.01236604E-01
 -4.73972413E-01 -4.72575807E-01 -4.30742910E-01 -3.47958309E-01 -3.25251831E-01
 -3.20934512E-01 -3.48053192E-03  6.82947349E-03  1.14667036E-02  2.54691675E-02
  3.17585521E-02  4.93372415E-02  5.38329359E-02  6.10213991E-02  7.24001217E-02
  9.05689688E-02  9.32609087E-02  9.67298569E-02  9.88609945E-02  1.34187603E-01
  1.38883524E-01  1.41079594E-01  1.46478616E-01  1.53167295E-01  1.54410211E-01
  1.86257101E-01  1.93903165E-01  1.98901613E-01  2.08581403E-01  2.13165748E-01
  2.24527497E-01  2.28353330E-01  2.47633172E-01  2.54320561E-01  2.60787498E-01
  2.69768592E-01  2.89416146E-01  3.20578356E-01  3.35190461E-01  3.44622072E-01
  3.51400953E-01  3.62756693E-01  4.63993665E-01  4.94175144E-01  5.06131716E-01
  5.14649797E-01  5.42984829E-01  5.44203882E-01  5.55856576E-01  5.59166562E-01
  5.88042681E-01  5.93789025E-01  6.05123838E-01  6.37041587E-01  6.47211695E-01
  6.48634193E-01  6.57720458E-01  6.60262967E-01  6.77404606E-01  6.92080172E-01
  7.30886469E-01  7.65647499E-01  7.71703569E-01  7.97577310E-01  8.07596574E-01
  8.27993560E-01  8.29512322E-01  8.41198722E-01  8.42240329E-01  8.45185602E-01
  8.62785915E-01  8.84373423E-01  9.01413708E-01  9.14053366E-01  9.50900563E-01
  9.63102359E-01  9.71038573E-01  1.03405985E+00  1.08426002E+00  1.16496783E+00
  1.17552157E+00  1.20165547E+00  1.21636533E+00  1.27996210E+00  1.31749400E+00
  1.35165067E+00  1.35385843E+00  1.35718805E+00  1.38511211E+00  1.38921932E+00
  1.44087396E+00  1.44434935E+00  1.49748166E+00  1.50511227E+00  1.52380460E+00
  1.53173664E+00  1.56294209E+00  1.61753945E+00  1.63814666E+00  1.68369819E+00
  1.73661794E+00  1.83842191E+00  1.86296525E+00  1.90427221E+00  1.93967535E+00
  1.99589273E+00  2.02083197E+00  2.17304987E+00  2.17431522E+00  2.25616076E+00
  2.39419498E+00  2.41095574E+00  2.47657848E+00  2.50784930E+00  2.64308311E+00
  2.67775715E+00  2.69816528E+00  2.75034074E+00  2.75697355E+00  2.76147431E+00
  2.81500392E+00  2.83796025E+00  2.87344928E+00  2.87717511E+00  2.89522119E+00
  3.01063503E+00  3.06534225E+00  3.08077903E+00  3.10695252E+00  3.11857443E+00
  3.13861270E+00  3.21085993E+00  3.22179707E+00  3.28230357E+00  3.28348031E+00
  3.28705747E+00  3.29140791E+00  3.35863612E+00  3.42434806E+00  3.42739795E+00
  3.46188903E+00  3.53798221E+00  3.55000494E+00  3.56771325E+00  3.57277488E+00
  3.57507066E+00  3.59280232E+00  3.60419084E+00  3.65444241E+00  3.71493309E+00
  3.71683304E+00  3.76379045E+00  3.79285433E+00  3.81301857E+00  3.85683826E+00
  3.89677309E+00  3.95787469E+00  3.96660834E+00  3.99032775E+00  4.03086227E+00
  4.45380498E+00  4.50670339E+00  4.54373306E+00  4.81380747E+00  4.95612330E+00
  4.99968249E+00  5.05261911E+00  5.12983052E+00  5.23103383E+00  5.56916444E+00
  5.61310350E+00  2.38114524E+01  2.40527320E+01  2.40649818E+01  2.40964705E+01
  2.41366924E+01  3.57373022E+01
Alpha MO coefficients                      R   N=       36864
  2.21497596E-05 -4.69227719E-05 -6.78196913E-05 -1.98202091E-04  1.21831751E-04
  2.92807103E-04 -6.96995746E-05  1.28417155E-05  1.20996623E-04  1.38811468E-02
 -3.48511832E-03  9.18559037E-04  6.04752335E-03  3.13020576E-03 -7.33066745E-04
  4.07818487E-04  1.26702824E-03 -2.27348945E-05  5.00474180E-05 -1.80191181E-05
  1.86239140E-05  1.10714099E-05  6.20921245E-04 -9.08527562E-04  1.18633904E-03
  4.60612637E-05 -6.86459311E-04  1.33551043E-06 -6.54603165E-07 -2.86210061E-05
 -9.16288830E-05  5.15441850E-05  4.09246816E-04  1.53089089E-04  5.97344847E-04
 -2.77715012E-04 -1.17417875E-02  2.86848460E-03  5.68590639E-03 -5.09676026E-03
 -9.20564071E-03  1.25082269E-03  1.24152504E-03 -2.19846076E-03  1.11681664E-05
 -6.89998346E-07 -4.84225301E-05  1.73982772E-05  2.82159214E-05  2.98301730E-04
  2.71591238E-05  6.28227583E-04  5.63256975E-04 -3.48437839E-04 -6.40012475E-06
  3.75549773E-05 -9.68160040E-06  6.25137056E-05  1.57077043E-05 -6.67914407E-04
  4.99033642E-05 -3.18581667E-04 -8.09672121E-05  1.20258793E-02  9.62872541E-04
 -6.13241443E-03 -1.55663180E-03  1.35476935E-02  4.29218089E-04 -2.82073534E-03
 -6.91868159E-04 -1.95692392E-05  7.78165760E-06  1.82025152E-05 -2.43418955E-05
 -1.09519965E-05 -7.01641943E-05 -4.44388731E-05  7.59507388E-05 -1.71830210E-04
 -4.77290056E-05  1.31146243E-06 -5.85970993E-07  4.99157121E-05 -4.54190204E-05
 -8.58589010E-05  4.06487870E-04 -2.98472206E-04  3.31395894E-04  5.12168020E-04
 -1.17426144E-02 -4.00904766E-03  1.50414112E-03  6.93638701E-03 -9.36980283E-03
 -1.40830365E-03 -4.00040429E-04  2.45400142E-03  3.67860672E-05 -1.77455892E-05
  4.89368312E-06  4.31515234E-05 -1.95928607E-06 -3.20366005E-04  4.48149145E-04
 -6.66532069E-04 -5.09725653E-05  3.85330086E-04  2.20289882E-05 -4.58645911E-05
  1.14212716E-04 -8.90958955E-05 -1.96751278E-04  2.86818483E-04  5.08953195E-05
  9.46501932E-05 -9.04606737E-05  1.38408712E-02  2.62516939E-03  4.61493847E-03
 -4.65071361E-03  3.16433995E-03  5.02451195E-04  1.15803339E-03 -8.95240665E-04
 -1.05169579E-06  3.59934009E-05  2.70951481E-05  4.07252041E-05 -1.45105358E-05
 -5.04047397E-04 -1.35295253E-04 -1.13068191E-03 -1.05890347E-03  6.26574997E-04
  5.58792563E-01  4.65864936E-01 -2.68050272E-04  1.68585718E-03  4.33195283E-04
  1.15337089E-02  7.22186137E-06 -5.15661147E-05 -1.19496188E-05 -1.69148544E-02
  8.81272786E-04 -5.55246007E-03 -1.42304504E-03 -4.54520392E-03  1.49317691E-04
 -9.67200460E-04 -2.40378250E-04  1.43336913E-04 -2.33569803E-04 -1.02947955E-04
 -2.60572947E-05  5.70901315E-05 -6.27267363E-07  5.72028652E-04 -8.62836523E-05
  6.61879526E-04  6.81824016E-05 -5.14730036E-05  5.06410370E-04  1.37060261E-03
  2.92075673E-06 -1.66430672E-05 -4.75925005E-06 -1.94097927E-04 -1.10058941E-03
  2.25923995E-03  2.12751544E-04  1.41524044E-04 -3.72853689E-04  1.65102107E-04
 -7.62175309E-04 -2.26559738E-03 -3.32451544E-05  1.42961319E-04  5.51683673E-05
  1.63522207E-04 -7.78124014E-04 -2.25296276E-03 -1.52333183E-05  1.55566247E-04
  2.34407574E-05 -1.90598340E-04 -1.07570514E-03  2.25102972E-03 -2.18902207E-04
 -1.16367110E-04  3.82651727E-04 -4.52397349E-03 -3.68954623E-03 -3.46232032E-05
 -9.78476599E-06  6.04167964E-05 -9.29388084E-04  3.73890196E-04  1.55505358E-04
 -6.53347734E-04  8.09952348E-03 -1.78196856E-03  3.52880588E-03  3.03141185E-03
 -1.55641871E-02 -3.54872433E-04 -7.17192582E-03  7.56392553E-04 -4.93630993E-05
  1.09365708E-04  4.71663033E-05  4.28617011E-05 -2.54549412E-05 -2.69305200E-05
 -7.52636591E-04  5.51482210E-04 -9.08194057E-04 -3.42648159E-04 -3.05155539E-04
 -1.65691049E-04 -4.74992666E-05 -4.21318571E-05  8.33490318E-05 -6.97374018E-04
  4.25058877E-04  4.16296307E-04 -7.46774335E-04 -1.06977442E-02  1.05342074E-03
  3.49524153E-03 -1.89702084E-03  2.28135285E-02  1.06232727E-03 -5.71664995E-03
 -1.74142656E-03 -7.42671086E-06  8.26273566E-06 -1.93682609E-05 -3.77405866E-06
  1.11586275E-05 -5.26907129E-05  3.42748297E-04 -4.04005756E-04  2.98043508E-04
  2.40301434E-04  4.18126235E-05  6.90679100E-05 -2.94460696E-05 -1.05723205E-04
  5.32761831E-05 -5.56618102E-04  1.84461383E-04  8.02563662E-04 -3.36343218E-04
  6.38351513E-03  6.70920886E-04 -1.11265572E-03 -1.14547204E-03 -1.22300637E-02
  1.06582834E-05  3.87510876E-03 -9.07341397E-05 -4.18021499E-05  9.17348313E-05
  5.83839533E-05  3.56429181E-05 -3.22257610E-05  1.16283010E-03 -1.28269233E-03
  5.15236762E-04  5.36632430E-04 -2.92645245E-04  7.87349600E-03  6.47568682E-03
  8.72932526E-05 -6.31121404E-04 -1.39427391E-04  1.05152167E-03 -2.47567997E-04
  1.88994772E-03  3.93308490E-04 -6.54995755E-03 -6.30638062E-04  2.31187136E-03
  1.05120395E-03  1.83160982E-02  1.73943099E-03 -1.66237722E-03 -2.99119981E-03
 -9.79345663E-06 -7.48772938E-06 -6.79881051E-05 -2.74378798E-05  3.84590551E-05
  1.98570968E-03 -6.45081087E-04 -9.37095669E-04  2.66589422E-03  5.94626259E-04
  5.64053793E-01  4.63626938E-01  7.69699311E-05 -1.93057591E-04 -1.29059320E-04
  1.45155281E-02  7.32665422E-04  7.40240144E-04 -1.28889915E-03  5.22057549E-03
  3.70830072E-04 -1.98817233E-05 -6.43323229E-04 -1.56672962E-02 -8.33460791E-04