 Entering Gaussian System, Link 0=g16
 Initial command:
 /data0/hywu0/study/g16/l1.exe "/data0/hywu0/study/g16/scratch/Gau-863497.inp" -scrdir="/data0/hywu0/study/g16/scratch/"
 Default is to use a total of   8 processors:
                                8 via shared-memory
                                1 via Linda
 Entering Link 1 = /data0/hywu0/study/g16/l1.exe PID=    863498.
  
 Copyright (c) 1988,1990,1992,1993,1995,1998,2003,2009,2016,
            Gaussian, Inc.  All Rights Reserved.
  
 This is part of the Gaussian(R) 16 program.  It is based on
 the Gaussian(R) 09 system (copyright 2009, Gaussian, Inc.),
 the Gaussian(R) 03 system (copyright 2003, Gaussian, Inc.),
 the Gaussian(R) 98 system (copyright 1998, Gaussian, Inc.),
 the Gaussian(R) 94 system (copyright 1995, Gaussian, Inc.),
 the Gaussian 92(TM) system (copyright 1992, Gaussian, Inc.),
 the Gaussian 90(TM) system (copyright 1990, Gaussian, Inc.),
 the Gaussian 88(TM) system (copyright 1988, Gaussian, Inc.),
 the Gaussian 86(TM) system (copyright 1986, Carnegie Mellon
 University), and the Gaussian 82(TM) system (copyright 1983,
 Carnegie Mellon University). Gaussian is a federally registered
 trademark of Gaussian, Inc.
  
 This software contains proprietary and confidential information,
 including trade secrets, belonging to Gaussian, Inc.
  
 This software is provided under written license and may be
 used, copied, transmitted, or stored only in accord with that
 written license.
  
 The following legend is applicable only to US Government
 contracts under FAR:
  
                    RESTRICTED RIGHTS LEGEND
  
 Use, reproduction and disclosure by the US Government is
 subject to restrictions as set forth in subparagraphs (a)
 and (c) of the Commercial Computer Software - Restricted
 Rights clause in FAR 52.227-19.
  
 Gaussian, Inc.
 340 Quinnipiac St., Bldg. 40, Wallingford CT 06492
  
  
 ---------------------------------------------------------------
 Warning -- This program may not be used in any manner that
 competes with the business of Gaussian, Inc. or will provide
 assistance to any competitor of Gaussian, Inc.  The licensee
 of this program is prohibited from giving any competitor of
 Gaussian, Inc. access to this program.  By using this program,
 the user acknowledges that Gaussian, Inc. is engaged in the
 business of creating and licensing software in the field of
 computational chemistry and represents and warrants to the
 licensee that it is not a competitor of Gaussian, Inc. and that
 it will not use this program in any manner prohibited above.
 ---------------------------------------------------------------
  

 Cite this work as:
 Gaussian 16, Revision A.03,
 M. J. Frisch, G. W. Trucks, H. B. Schlegel, G. E. Scuseria, 
 M. A. Robb, J. R. Cheeseman, G. Scalmani, V. Barone, 
 G. A. Petersson, H. Nakatsuji, X. Li, M. Caricato, A. V. Marenich, 
 J. Bloino, B. G. Janesko, R. Gomperts, B. Mennucci, H. P. Hratchian, 
 J. V. Ortiz, A. F. Izmaylov, J. L. Sonnenberg, D. Williams-Young, 
 F. Ding, F. Lipparini, F. Egidi, J. Goings, B. Peng, A. Petrone, 
 T. Henderson, D. Ranasinghe, V. G. Zakrzewski, J. Gao, N. Rega, 
 G. Zheng, W. Liang, M. Hada, M. Ehara, K. Toyota, R. Fukuda, 
 J. Hasegawa, M. Ishida, T. Nakajima, Y. Honda, O. Kitao, H. Nakai, 
 T. Vreven, K. Throssell, J. A. Montgomery, Jr., J. E. Peralta, 
 F. Ogliaro, M. J. Bearpark, J. J. Heyd, E. N. Brothers, K. N. Kudin, 
 V. N. Staroverov, T. A. Keith, R. Kobayashi, J. Normand, 
 K. Raghavachari, A. P. Rendell, J. C. Burant, S. S. Iyengar, 
 J. Tomasi, M. Cossi, J. M. Millam, M. Klene, C. Adamo, R. Cammi, 
 J. W. Ochterski, R. L. Martin, K. Morokuma, O. Farkas, 
 J. B. Foresman, and D. J. Fox, Gaussian, Inc., Wallingford CT, 2016.
 
 ******************************************
 Gaussian 16:  ES64L-G16RevA.03 25-Dec-2016
                10-Jul-2023 
 ******************************************
 %chk=PA.chk
 %nprocshared=16
 Will use up to   16 processors via shared memory.
 %mem=50GB
 ------------------------------------
 #p 6-311+g(2d,p) nosymm em=gd3 m062x
 ------------------------------------
 1/38=1,172=1/1;
 2/12=2,15=1,17=6,18=5,40=1/2;
 3/5=4,6=6,7=112,11=2,25=1,30=1,74=-55,124=31/1,2,3;
 4//1;
 5/5=2,38=5/2;
 6/7=2,8=2,9=2,10=2,28=1/1;
 99/5=1,9=1/99;
 Leave Link    1 at Mon Jul 10 16:07:24 2023, MaxMem=  6710886400 cpu:               0.5 elap:               0.0
 (Enter /data0/hywu0/study/g16/l101.exe)
 -------------------
 Title Card Required
 -------------------
 Symbolic Z-matrix:
 Charge =  0 Multiplicity = 1
 P                     12.1413   6.12561   9.78923 
 O                     11.72262   6.67406   11.06934 
 O                     10.89542   5.63968   8.92877 
 H                     11.24226   5.22091   8.05681 
 O                     13.00756   7.04352   8.82386 
 H                     12.8087   8.06036   9.01861 
 O                     13.03379   4.79541   9.81392 
 H                     14.01506   5.06931   9.91531 
 
 ITRead=  0  0  0  0  0  0  0  0
 MicOpt= -1 -1 -1 -1 -1 -1 -1 -1
 NAtoms=      8 NQM=        8 NQMF=       0 NMMI=      0 NMMIF=      0
                NMic=       0 NMicF=      0.
                    Isotopes and Nuclear Properties:
 (Nuclear quadrupole moments (NQMom) in fm**2, nuclear magnetic moments (NMagM)
  in nuclear magnetons)

  Atom         1           2           3           4           5           6           7           8
 IAtWgt=          31          16          16           1          16           1          16           1
 AtmWgt=  30.9737634  15.9949146  15.9949146   1.0078250  15.9949146   1.0078250  15.9949146   1.0078250
 NucSpn=           1           0           0           1           0           1           0           1
 AtZEff=  -0.0000000  -0.0000000  -0.0000000  -0.0000000  -0.0000000  -0.0000000  -0.0000000  -0.0000000
 NQMom=    0.0000000   0.0000000   0.0000000   0.0000000   0.0000000   0.0000000   0.0000000   0.0000000
 NMagM=    1.1316000   0.0000000   0.0000000   2.7928460   0.0000000   2.7928460   0.0000000   2.7928460
 AtZNuc=  15.0000000   8.0000000   8.0000000   1.0000000   8.0000000   1.0000000   8.0000000   1.0000000
 Leave Link  101 at Mon Jul 10 16:07:25 2023, MaxMem=  6710886400 cpu:               2.4 elap:               0.2
 (Enter /data0/hywu0/study/g16/l202.exe)
                          Input orientation:                          
 ---------------------------------------------------------------------
 Center     Atomic      Atomic             Coordinates (Angstroms)
 Number     Number       Type             X           Y           Z
 ---------------------------------------------------------------------
      1         15           0       12.141298    6.125611    9.789233
      2          8           0       11.722618    6.674057   11.069336
      3          8           0       10.895422    5.639675    8.928774
      4          1           0       11.242262    5.220915    8.056811
      5          8           0       13.007561    7.043521    8.823861
      6          1           0       12.808703    8.060357    9.018610
      7          8           0       13.033791    4.795409    9.813919
      8          1           0       14.015057    5.069309    9.915310
 ---------------------------------------------------------------------
                    Distance matrix (angstroms):
                    1          2          3          4          5
     1  P    0.000000
     2  O    1.454218   0.000000
     3  O    1.590198   2.517182   0.000000
     4  H    2.151285   3.379004   1.027608   0.000000
     5  O    1.588998   2.613377   2.538291   2.650762   0.000000
     6  H    2.186900   2.703125   3.086813   3.382488   1.054242
     7  O    1.602058   2.612387   2.463511   2.545203   2.456605
     8  H    2.154679   3.026924   3.321249   3.341466   2.470591
                    6          7          8
     6  H    0.000000
     7  O    3.367947   0.000000
     8  H    3.347496   1.023809   0.000000
 Symmetry turned off by external request.
 Stoichiometry    H3O4P
 Framework group  C1[X(H3O4P)]
 Deg. of freedom    18
 Full point group                 C1      NOp   1
 Rotational constants (GHZ):           4.6604719           4.5163801           4.3488746
 Leave Link  202 at Mon Jul 10 16:07:25 2023, MaxMem=  6710886400 cpu:               0.0 elap:               0.0
 (Enter /data0/hywu0/study/g16/l301.exe)
 Standard basis: 6-311+G(2d,p) (5D, 7F)
 Ernie: Thresh=  0.10000D-02 Tol=  0.10000D-05 Strict=F.
   161 basis functions,   248 primitive gaussians,   171 cartesian basis functions
    25 alpha electrons       25 beta electrons
       nuclear repulsion energy       280.2954501316 Hartrees.
 IExCor= 4336 DFT=T Ex+Corr=M062X ExCW=0 ScaHFX=  0.540000
 ScaDFX=  1.000000  1.000000  1.000000  1.000000 ScalE2=  1.000000  1.000000
 IRadAn=      5 IRanWt=     -1 IRanGd=            0 ICorTp=0 IEmpDi=131
 NAtoms=    8 NActive=    8 NUniq=    8 SFac= 1.00D+00 NAtFMM=   60 NAOKFM=F Big=F
 Integral buffers will be    131072 words long.
 Raffenetti 2 integral format.
 Two-electron integral symmetry is turned off.
 R6Disp:  Grimme-D3 Dispersion energy=       -0.0000430241 Hartrees.
 Nuclear repulsion after empirical dispersion term =      280.2954071075 Hartrees.
 Leave Link  301 at Mon Jul 10 16:07:25 2023, MaxMem=  6710886400 cpu:               0.7 elap:               0.0
 (Enter /data0/hywu0/study/g16/l302.exe)
 NPDir=0 NMtPBC=     1 NCelOv=     1 NCel=       1 NClECP=     1 NCelD=      1
         NCelK=      1 NCelE2=     1 NClLst=     1 CellRange=     0.0.
 One-electron integrals computed using PRISM.
 NBasis=   161 RedAO= T EigKep=  4.79D-04  NBF=   161
 NBsUse=   161 1.00D-06 EigRej= -1.00D+00 NBFU=   161
 Precomputing XC quadrature grid using
 IXCGrd= 4 IRadAn=           5 IRanWt=          -1 IRanGd=           0 AccXCQ= 0.00D+00.
 Generated NRdTot=       0 NPtTot=           0 NUsed=           0 NTot=          32
 NSgBfM=   171   171   171   171   171 MxSgAt=     8 MxSgA2=     8.
 Leave Link  302 at Mon Jul 10 16:07:25 2023, MaxMem=  6710886400 cpu:               2.0 elap:               0.1
 (Enter /data0/hywu0/study/g16/l303.exe)
 DipDrv:  MaxL=1.
 Leave Link  303 at Mon Jul 10 16:07:25 2023, MaxMem=  6710886400 cpu:               0.5 elap:               0.0
 (Enter /data0/hywu0/study/g16/l401.exe)
 ExpMin= 3.48D-02 ExpMax= 7.75D+04 ExpMxC= 2.65D+03 IAcc=3 IRadAn=         5 AccDes= 0.00D+00
 Harris functional with IExCor= 1009 and IRadAn=       5 diagonalized for initial guess.
 HarFok:  IExCor= 1009 AccDes= 0.00D+00 IRadAn=         5 IDoV= 1 UseB2=F ITyADJ=14
 ICtDFT=  3500011 ScaDFX=  1.000000  1.000000  1.000000  1.000000
 FoFCou: FMM=F IPFlag=           0 FMFlag=      100000 FMFlg1=           0
         NFxFlg=           0 DoJE=T BraDBF=F KetDBF=T FulRan=T
         wScrn=  0.000000 ICntrl=       500 IOpCl=  0 I1Cent=   200000004 NGrid=           0
         NMat0=    1 NMatS0=      1 NMatT0=    0 NMatD0=    1 NMtDS0=    0 NMtDT0=    0
 Symmetry not used in FoFCou.
 Harris En= -643.944460772413    
 JPrj=0 DoOrth=F DoCkMO=F.
 Leave Link  401 at Mon Jul 10 16:07:25 2023, MaxMem=  6710886400 cpu:               4.2 elap:               0.3
 (Enter /data0/hywu0/study/g16/l502.exe)
 Keep R1 ints in memory in canonical form, NReq=100986924.
 FoFCou: FMM=F IPFlag=           0 FMFlag=           0 FMFlg1=           0
         NFxFlg=           0 DoJE=F BraDBF=F KetDBF=F FulRan=T
         wScrn=  0.000000 ICntrl=       600 IOpCl=  0 I1Cent=           0 NGrid=           0
         NMat0=    1 NMatS0=  13041 NMatT0=    0 NMatD0=    1 NMtDS0=    0 NMtDT0=    0
 Symmetry not used in FoFCou.
 Two-electron integral symmetry not used.
 Closed shell SCF:
 Using DIIS extrapolation, IDIIS=  1040.
 NGot=  6710886400 LenX=  6625783546 LenY=  6625753864
 Requested convergence on RMS density matrix=1.00D-08 within 128 cycles.
 Requested convergence on MAX density matrix=1.00D-06.
 Requested convergence on             energy=1.00D-06.
 No special actions if energy rises.

 Cycle   1  Pass 1  IDiag  1:
 E= -643.869547901623    
 DIIS: error= 4.23D-02 at cycle   1 NSaved=   1.
 NSaved= 1 IEnMin= 1 EnMin= -643.869547901623     IErMin= 1 ErrMin= 4.23D-02
 ErrMax= 4.23D-02  0.00D+00 EMaxC= 1.00D-01 BMatC= 5.05D-01 BMatP= 5.05D-01
 IDIUse=3 WtCom= 5.77D-01 WtEn= 4.23D-01
 Coeff-Com:  0.100D+01
 Coeff-En:   0.100D+01
 Coeff:      0.100D+01
 Gap=     0.299 Goal=   None    Shift=    0.000
 GapD=    0.299 DampG=1.000 DampE=0.500 DampFc=0.5000 IDamp=-1.
 Damping current iteration by 5.00D-01
 RMSDP=6.66D-03 MaxDP=1.44D-01              OVMax= 2.45D-01

 Cycle   2  Pass 1  IDiag  1:
 E= -643.986316922522     Delta-E=       -0.116769020900 Rises=F Damp=T
 DIIS: error= 1.07D-02 at cycle   2 NSaved=   2.
 NSaved= 2 IEnMin= 2 EnMin= -643.986316922522     IErMin= 2 ErrMin= 1.07D-02
 ErrMax= 1.07D-02  0.00D+00 EMaxC= 1.00D-01 BMatC= 2.60D-02 BMatP= 5.05D-01
 IDIUse=3 WtCom= 8.93D-01 WtEn= 1.07D-01
 Coeff-Com:  0.653D-01 0.935D+00
 Coeff-En:   0.192D+00 0.808D+00
 Coeff:      0.789D-01 0.921D+00
 Gap=     0.367 Goal=   None    Shift=    0.000
 RMSDP=1.49D-03 MaxDP=4.60D-02 DE=-1.17D-01 OVMax= 1.51D-01

 Cycle   3  Pass 1  IDiag  1:
 E= -644.147575154539     Delta-E=       -0.161258232016 Rises=F Damp=F
 DIIS: error= 7.22D-03 at cycle   3 NSaved=   3.
 NSaved= 3 IEnMin= 3 EnMin= -644.147575154539     IErMin= 3 ErrMin= 7.22D-03
 ErrMax= 7.22D-03  0.00D+00 EMaxC= 1.00D-01 BMatC= 9.24D-03 BMatP= 2.60D-02
 IDIUse=3 WtCom= 9.28D-01 WtEn= 7.22D-02
 Coeff-Com: -0.160D-01 0.330D+00 0.686D+00
 Coeff-En:   0.000D+00 0.000D+00 0.100D+01
 Coeff:     -0.149D-01 0.306D+00 0.709D+00
 Gap=     0.357 Goal=   None    Shift=    0.000
 RMSDP=6.26D-04 MaxDP=1.47D-02 DE=-1.61D-01 OVMax= 3.34D-02

 Cycle   4  Pass 1  IDiag  1:
 E= -644.151509267381     Delta-E=       -0.003934112842 Rises=F Damp=F
 DIIS: error= 4.10D-03 at cycle   4 NSaved=   4.
 NSaved= 4 IEnMin= 4 EnMin= -644.151509267381     IErMin= 4 ErrMin= 4.10D-03
 ErrMax= 4.10D-03  0.00D+00 EMaxC= 1.00D-01 BMatC= 3.83D-03 BMatP= 9.24D-03
 IDIUse=3 WtCom= 9.59D-01 WtEn= 4.10D-02
 Coeff-Com: -0.196D-01 0.456D-01 0.412D+00 0.562D+00
 Coeff-En:   0.000D+00 0.000D+00 0.295D+00 0.705D+00
 Coeff:     -0.188D-01 0.437D-01 0.407D+00 0.568D+00
 Gap=     0.364 Goal=   None    Shift=    0.000
 RMSDP=2.51D-04 MaxDP=6.31D-03 DE=-3.93D-03 OVMax= 1.14D-02

 Cycle   5  Pass 1  IDiag  1:
 E= -644.154042976222     Delta-E=       -0.002533708841 Rises=F Damp=F
 DIIS: error= 2.70D-04 at cycle   5 NSaved=   5.
 NSaved= 5 IEnMin= 5 EnMin= -644.154042976222     IErMin= 5 ErrMin= 2.70D-04
 ErrMax= 2.70D-04  0.00D+00 EMaxC= 1.00D-01 BMatC= 1.50D-05 BMatP= 3.83D-03
 IDIUse=3 WtCom= 9.97D-01 WtEn= 2.70D-03
 Coeff-Com: -0.217D-02 0.180D-03 0.643D-01 0.122D+00 0.816D+00
 Coeff-En:   0.000D+00 0.000D+00 0.000D+00 0.000D+00 0.100D+01
 Coeff:     -0.217D-02 0.180D-03 0.641D-01 0.121D+00 0.817D+00
 Gap=     0.362 Goal=   None    Shift=    0.000
 RMSDP=2.34D-05 MaxDP=9.07D-04 DE=-2.53D-03 OVMax= 7.20D-04

 Cycle   6  Pass 1  IDiag  1:
 E= -644.154053212591     Delta-E=       -0.000010236369 Rises=F Damp=F
 DIIS: error= 6.36D-05 at cycle   6 NSaved=   6.
 NSaved= 6 IEnMin= 6 EnMin= -644.154053212591     IErMin= 6 ErrMin= 6.36D-05
 ErrMax= 6.36D-05  0.00D+00 EMaxC= 1.00D-01 BMatC= 9.98D-07 BMatP= 1.50D-05
 IDIUse=1 WtCom= 1.00D+00 WtEn= 0.00D+00
 Coeff-Com:  0.465D-04-0.145D-02 0.306D-02 0.119D-01 0.215D+00 0.772D+00
 Coeff:      0.465D-04-0.145D-02 0.306D-02 0.119D-01 0.215D+00 0.772D+00
 Gap=     0.363 Goal=   None    Shift=    0.000
 RMSDP=8.31D-06 MaxDP=2.24D-04 DE=-1.02D-05 OVMax= 2.03D-04

 Cycle   7  Pass 1  IDiag  1:
 E= -644.154053962072     Delta-E=       -0.000000749482 Rises=F Damp=F
 DIIS: error= 1.96D-05 at cycle   7 NSaved=   7.
 NSaved= 7 IEnMin= 7 EnMin= -644.154053962072     IErMin= 7 ErrMin= 1.96D-05
 ErrMax= 1.96D-05  0.00D+00 EMaxC= 1.00D-01 BMatC= 1.40D-07 BMatP= 9.98D-07
 IDIUse=1 WtCom= 1.00D+00 WtEn= 0.00D+00
 Coeff-Com:  0.296D-03-0.509D-03-0.765D-02-0.118D-01-0.207D-01 0.254D+00
 Coeff-Com:  0.787D+00
 Coeff:      0.296D-03-0.509D-03-0.765D-02-0.118D-01-0.207D-01 0.254D+00
 Coeff:      0.787D+00
 Gap=     0.363 Goal=   None    Shift=    0.000
 RMSDP=2.58D-06 MaxDP=5.65D-05 DE=-7.49D-07 OVMax= 8.57D-05

 Cycle   8  Pass 1  IDiag  1:
 E= -644.154054055127     Delta-E=       -0.000000093055 Rises=F Damp=F
 DIIS: error= 1.20D-05 at cycle   8 NSaved=   8.
 NSaved= 8 IEnMin= 8 EnMin= -644.154054055127     IErMin= 8 ErrMin= 1.20D-05
 ErrMax= 1.20D-05  0.00D+00 EMaxC= 1.00D-01 BMatC= 3.09D-08 BMatP= 1.40D-07
 IDIUse=1 WtCom= 1.00D+00 WtEn= 0.00D+00
 Coeff-Com:  0.131D-03-0.164D-03-0.386D-02-0.608D-02-0.182D-01 0.824D-01
 Coeff-Com:  0.399D+00 0.547D+00
 Coeff:      0.131D-03-0.164D-03-0.386D-02-0.608D-02-0.182D-01 0.824D-01
 Coeff:      0.399D+00 0.547D+00
 Gap=     0.363 Goal=   None    Shift=    0.000
 RMSDP=7.32D-07 MaxDP=2.33D-05 DE=-9.31D-08 OVMax= 3.03D-05

 Cycle   9  Pass 1  IDiag  1:
 E= -644.154054076275     Delta-E=       -0.000000021148 Rises=F Damp=F
 DIIS: error= 1.27D-06 at cycle   9 NSaved=   9.
 NSaved= 9 IEnMin= 9 EnMin= -644.154054076275     IErMin= 9 ErrMin= 1.27D-06
 ErrMax= 1.27D-06  0.00D+00 EMaxC= 1.00D-01 BMatC= 6.32D-10 BMatP= 3.09D-08
 IDIUse=1 WtCom= 1.00D+00 WtEn= 0.00D+00
 Coeff-Com: -0.223D-04 0.436D-04 0.245D-03 0.479D-03-0.513D-03-0.176D-01
 Coeff-Com: -0.293D-01 0.738D-01 0.973D+00
 Coeff:     -0.223D-04 0.436D-04 0.245D-03 0.479D-03-0.513D-03-0.176D-01
 Coeff:     -0.293D-01 0.738D-01 0.973D+00
 Gap=     0.363 Goal=   None    Shift=    0.000
 RMSDP=2.49D-07 MaxDP=6.48D-06 DE=-2.11D-08 OVMax= 8.33D-06

 Cycle  10  Pass 1  IDiag  1:
 E= -644.154054076992     Delta-E=       -0.000000000717 Rises=F Damp=F
 DIIS: error= 1.99D-07 at cycle  10 NSaved=  10.
 NSaved=10 IEnMin=10 EnMin= -644.154054076992     IErMin=10 ErrMin= 1.99D-07
 ErrMax= 1.99D-07  0.00D+00 EMaxC= 1.00D-01 BMatC= 1.32D-11 BMatP= 6.32D-10
 IDIUse=1 WtCom= 1.00D+00 WtEn= 0.00D+00
 Coeff-Com: -0.351D-05 0.577D-05 0.111D-03 0.171D-03 0.464D-03-0.380D-02
 Coeff-Com: -0.144D-01-0.118D-01 0.570D-01 0.972D+00
 Coeff:     -0.351D-05 0.577D-05 0.111D-03 0.171D-03 0.464D-03-0.380D-02
 Coeff:     -0.144D-01-0.118D-01 0.570D-01 0.972D+00
 Gap=     0.363 Goal=   None    Shift=    0.000
 RMSDP=4.75D-08 MaxDP=7.98D-07 DE=-7.17D-10 OVMax= 1.88D-06

 Cycle  11  Pass 1  IDiag  1:
 E= -644.154054077002     Delta-E=       -0.000000000010 Rises=F Damp=F
 DIIS: error= 1.58D-07 at cycle  11 NSaved=  11.
 NSaved=11 IEnMin=11 EnMin= -644.154054077002     IErMin=11 ErrMin= 1.58D-07
 ErrMax= 1.58D-07  0.00D+00 EMaxC= 1.00D-01 BMatC= 5.95D-12 BMatP= 1.32D-11
 IDIUse=1 WtCom= 1.00D+00 WtEn= 0.00D+00
 Coeff-Com:  0.203D-06-0.698D-06 0.328D-04 0.418D-04 0.242D-03-0.553D-03
 Coeff-Com: -0.439D-02-0.104D-01-0.440D-01 0.456D+00 0.603D+00
 Coeff:      0.203D-06-0.698D-06 0.328D-04 0.418D-04 0.242D-03-0.553D-03
 Coeff:     -0.439D-02-0.104D-01-0.440D-01 0.456D+00 0.603D+00
 Gap=     0.363 Goal=   None    Shift=    0.000
 RMSDP=1.37D-08 MaxDP=4.10D-07 DE=-1.00D-11 OVMax= 6.83D-07

 Cycle  12  Pass 1  IDiag  1:
 E= -644.154054077011     Delta-E=       -0.000000000009 Rises=F Damp=F
 DIIS: error= 4.15D-08 at cycle  12 NSaved=  12.
 NSaved=12 IEnMin=12 EnMin= -644.154054077011     IErMin=12 ErrMin= 4.15D-08
 ErrMax= 4.15D-08  0.00D+00 EMaxC= 1.00D-01 BMatC= 4.90D-13 BMatP= 5.95D-12
 IDIUse=1 WtCom= 1.00D+00 WtEn= 0.00D+00
 Coeff-Com:  0.612D-06-0.114D-05-0.407D-05-0.928D-05 0.159D-04 0.349D-03
 Coeff-Com:  0.822D-03-0.152D-02-0.238D-01 0.594D-02 0.226D+00 0.793D+00
 Coeff:      0.612D-06-0.114D-05-0.407D-05-0.928D-05 0.159D-04 0.349D-03
 Coeff:      0.822D-03-0.152D-02-0.238D-01 0.594D-02 0.226D+00 0.793D+00
 Gap=     0.363 Goal=   None    Shift=    0.000
 RMSDP=5.49D-09 MaxDP=7.30D-08 DE=-8.75D-12 OVMax= 1.68D-07

 SCF Done:  E(RM062X) =  -644.154054077     A.U. after   12 cycles
            NFock= 12  Conv=0.55D-08     -V/T= 2.0024
 KE= 6.425801995027D+02 PE=-2.088316740102D+03 EE= 5.212870794149D+02
 Leave Link  502 at Mon Jul 10 16:07:31 2023, MaxMem=  6710886400 cpu:              79.4 elap:               6.4
 (Enter /data0/hywu0/study/g16/l601.exe)
 Copying SCF densities to generalized density rwf, IOpCl= 0 IROHF=0.

 **********************************************************************

            Population analysis using the SCF density.

 **********************************************************************

 Alpha  occ. eigenvalues --  -78.16804 -19.69192 -19.67923 -19.67451 -19.59080
 Alpha  occ. eigenvalues --   -6.97602  -5.09514  -5.09489  -5.09290  -1.24378
 Alpha  occ. eigenvalues --   -1.16983  -1.16277  -1.09800  -0.72800  -0.65919
 Alpha  occ. eigenvalues --   -0.64003  -0.56460  -0.55382  -0.50800  -0.48926
 Alpha  occ. eigenvalues --   -0.47700  -0.45318  -0.43948  -0.38922  -0.38360
 Alpha virt. eigenvalues --   -0.02098   0.01582   0.01959   0.04713   0.09284
 Alpha virt. eigenvalues --    0.10163   0.12312   0.14624   0.15029   0.15978
 Alpha virt. eigenvalues --    0.17602   0.18057   0.18751   0.19939   0.21474
 Alpha virt. eigenvalues --    0.22393   0.24424   0.25348   0.25497   0.28180
 Alpha virt. eigenvalues --    0.28444   0.28973   0.30640   0.31122   0.31873
 Alpha virt. eigenvalues --    0.34266   0.35795   0.36534   0.40524   0.43188
 Alpha virt. eigenvalues --    0.46853   0.48928   0.51671   0.55932   0.56714
 Alpha virt. eigenvalues --    0.74253   0.75976   0.76604   0.86644   0.97068
 Alpha virt. eigenvalues --    0.97841   1.02066   1.05787   1.08472   1.11000
 Alpha virt. eigenvalues --    1.12709   1.15200   1.17149   1.19279   1.20821
 Alpha virt. eigenvalues --    1.22157   1.24681   1.26043   1.28408   1.32907
 Alpha virt. eigenvalues --    1.37120   1.39357   1.44588   1.46820   1.47923
 Alpha virt. eigenvalues --    1.54184   1.55799   1.59536   1.63710   1.65424
 Alpha virt. eigenvalues --    1.68371   1.69069   1.69600   1.74698   1.81246
 Alpha virt. eigenvalues --    1.82413   1.84252   1.86566   1.94425   1.96233
 Alpha virt. eigenvalues --    2.03018   2.03837   2.07701   2.11764   2.16327
 Alpha virt. eigenvalues --    2.21162   2.23812   2.27041   2.34305   2.42949
 Alpha virt. eigenvalues --    2.47851   2.57016   2.62072   2.63409   2.69710
 Alpha virt. eigenvalues --    2.73015   2.83786   2.85532   2.91054   2.94954
 Alpha virt. eigenvalues --    5.01438   5.04711   5.07340   5.08106   5.09570
 Alpha virt. eigenvalues --    5.12413   5.19393   5.21534   5.36275   5.46849
 Alpha virt. eigenvalues --    5.53457   5.53752   6.71351   6.73427   6.73936
 Alpha virt. eigenvalues --    6.76953   6.79361   6.80424   6.84272   6.86122
 Alpha virt. eigenvalues --    6.89247   6.92745   6.95737   6.96623   6.99623
 Alpha virt. eigenvalues --    7.06522   7.08118   7.20740   7.26172   7.27885
 Alpha virt. eigenvalues --    7.31598   7.39538   7.64620  14.20745  14.24614
 Alpha virt. eigenvalues --   14.37193  49.98160  50.00026  50.01426  50.09765
 Alpha virt. eigenvalues --  163.85636
          Condensed to atoms (all electrons):
               1          2          3          4          5          6
     1  P   12.429166   0.574968   0.179766   0.039067   0.268296   0.002575
     2  O    0.574968   8.085965  -0.013606   0.004388  -0.023018  -0.009803
     3  O    0.179766  -0.013606   8.087013   0.236381   0.018462  -0.005526
     4  H    0.039067   0.004388   0.236381   0.442325  -0.015298   0.000986
     5  O    0.268296  -0.023018   0.018462  -0.015298   8.088842   0.266652
     6  H    0.002575  -0.009803  -0.005526   0.000986   0.266652   0.395477
     7  O    0.245168  -0.018227  -0.005813  -0.017751  -0.003987   0.004601
     8  H    0.007654  -0.010132  -0.000687   0.001968  -0.011501   0.001107
               7          8
     1  P    0.245168   0.007654
     2  O   -0.018227  -0.010132
     3  O   -0.005813  -0.000687
     4  H   -0.017751   0.001968
     5  O   -0.003987  -0.011501
     6  H    0.004601   0.001107
     7  O    8.083854   0.263442
     8  H    0.263442   0.427097
 Mulliken charges:
               1
     1  P    1.253340
     2  O   -0.590533
     3  O   -0.495989
     4  H    0.307933
     5  O   -0.588449
     6  H    0.343933
     7  O   -0.551286
     8  H    0.321052
 Sum of Mulliken charges =  -0.00000
 Mulliken charges with hydrogens summed into heavy atoms:
               1
     1  P    1.253340
     2  O   -0.590533
     3  O   -0.188056
     5  O   -0.244517
     7  O   -0.230234
 Electronic spatial extent (au):  <R**2>=          50157.8047
 Charge=             -0.0000 electrons
 Dipole moment (field-independent basis, Debye):
    X=              2.7301    Y=              0.5730    Z=             -3.4375  Tot=              4.4270
 Quadrupole moment (field-independent basis, Debye-Ang):
   XX=             32.4189   YY=            -24.6096   ZZ=           -104.3222
   XY=             24.0832   XZ=            -11.7602   YZ=            -16.2125
 Traceless Quadrupole moment (field-independent basis, Debye-Ang):
   XX=             64.5899   YY=              7.5614   ZZ=            -72.1513
   XY=             24.0832   XZ=            -11.7602   YZ=            -16.2125
 Octapole moment (field-independent basis, Debye-Ang**2):
  XXX=            -15.5898  YYY=           -494.3846  ZZZ=          -2076.7613  XYY=           -190.0550
  XXY=            289.6758  XXZ=           -103.6737  XZZ=           -945.5763  YZZ=           -604.7737
  YYZ=           -382.7583  XYZ=            -10.5644
 Hexadecapole moment (field-independent basis, Debye-Ang**3):
 XXXX=         -10026.2262 YYYY=          -6178.9022 ZZZZ=         -34387.0934 XXXY=            978.3975
 XXXZ=          -4615.4622 YYYX=          -5292.6859 YYYZ=          -5793.5634 ZZZX=         -21828.5147
 ZZZY=         -12565.7019 XXYY=          -2344.0854 XXZZ=         -10750.2528 YYZZ=          -6641.5314
 XXYZ=            111.4561 YYXZ=          -3474.7316 ZZXY=          -5357.7206
 N-N= 2.802954071075D+02 E-N=-2.088316742675D+03  KE= 6.425801995027D+02
 No NMR shielding tensors so no spin-rotation constants.
 Leave Link  601 at Mon Jul 10 16:07:32 2023, MaxMem=  6710886400 cpu:               1.2 elap:               0.1
 (Enter /data0/hywu0/study/g16/l9999.exe)
 1\1\GINC-LOCALHOST\SP\RM062X\6-311+G(2d,p)\H3O4P1\HYWU0\10-Jul-2023\0\
 \#p 6-311+g(2d,p) nosymm em=gd3 m062x\\Title Card Required\\0,1\P,0,12
 .141298,6.125611,9.789233\O,0,11.722618,6.674057,11.069336\O,0,10.8954
 22,5.639675,8.928774\H,0,11.242262,5.220915,8.056811\O,0,13.007561,7.0
 43521,8.823861\H,0,12.808703,8.060357,9.01861\O,0,13.033791,4.795409,9
 .813919\H,0,14.015057,5.069309,9.91531\\Version=ES64L-G16RevA.03\HF=-6
 44.1540541\RMSD=5.493e-09\Dipole=1.0740984,0.22543,-1.3524214\Quadrupo
 le=48.0209768,5.6217107,-53.6426875,17.9052765,-8.7434453,-12.0535983\
 PG=C01 [X(H3O4P1)]\\@


 I WISH TO HAVE NO CONNECTION WITH ANY SHIP THAT DOES NOT SAIL FAST,
 FOR I INTEND TO GO IN HARM'S WAY.
     -- JOHN PAUL JONES, USN 1747-1792
 Job cpu time:       0 days  0 hours  1 minutes 31.4 seconds.
 Elapsed time:       0 days  0 hours  0 minutes  7.2 seconds.
 File lengths (MBytes):  RWF=     15 Int=      0 D2E=      0 Chk=      3 Scr=      1
 Normal termination of Gaussian 16 at Mon Jul 10 16:07:32 2023.
