 Entering Gaussian System, Link 0=g16
 Initial command:
 /data0/hywu0/study/g16/l1.exe "/data0/hywu0/study/g16/scratch/Gau-863300.inp" -scrdir="/data0/hywu0/study/g16/scratch/"
 Default is to use a total of   8 processors:
                                8 via shared-memory
                                1 via Linda
 Entering Link 1 = /data0/hywu0/study/g16/l1.exe PID=    863301.
  
 Copyright (c) 1988,1990,1992,1993,1995,1998,2003,2009,2016,
            Gaussian, Inc.  All Rights Reserved.
  
 This is part of the Gaussian(R) 16 program.  It is based on
 the Gaussian(R) 09 system (copyright 2009, Gaussian, Inc.),
 the Gaussian(R) 03 system (copyright 2003, Gaussian, Inc.),
 the Gaussian(R) 98 system (copyright 1998, Gaussian, Inc.),
 the Gaussian(R) 94 system (copyright 1995, Gaussian, Inc.),
 the Gaussian 92(TM) system (copyright 1992, Gaussian, Inc.),
 the Gaussian 90(TM) system (copyright 1990, Gaussian, Inc.),
 the Gaussian 88(TM) system (copyright 1988, Gaussian, Inc.),
 the Gaussian 86(TM) system (copyright 1986, Carnegie Mellon
 University), and the Gaussian 82(TM) system (copyright 1983,
 Carnegie Mellon University). Gaussian is a federally registered
 trademark of Gaussian, Inc.
  
 This software contains proprietary and confidential information,
 including trade secrets, belonging to Gaussian, Inc.
  
 This software is provided under written license and may be
 used, copied, transmitted, or stored only in accord with that
 written license.
  
 The following legend is applicable only to US Government
 contracts under FAR:
  
                    RESTRICTED RIGHTS LEGEND
  
 Use, reproduction and disclosure by the US Government is
 subject to restrictions as set forth in subparagraphs (a)
 and (c) of the Commercial Computer Software - Restricted
 Rights clause in FAR 52.227-19.
  
 Gaussian, Inc.
 340 Quinnipiac St., Bldg. 40, Wallingford CT 06492
  
  
 ---------------------------------------------------------------
 Warning -- This program may not be used in any manner that
 competes with the business of Gaussian, Inc. or will provide
 assistance to any competitor of Gaussian, Inc.  The licensee
 of this program is prohibited from giving any competitor of
 Gaussian, Inc. access to this program.  By using this program,
 the user acknowledges that Gaussian, Inc. is engaged in the
 business of creating and licensing software in the field of
 computational chemistry and represents and warrants to the
 licensee that it is not a competitor of Gaussian, Inc. and that
 it will not use this program in any manner prohibited above.
 ---------------------------------------------------------------
  

 Cite this work as:
 Gaussian 16, Revision A.03,
 M. J. Frisch, G. W. Trucks, H. B. Schlegel, G. E. Scuseria, 
 M. A. Robb, J. R. Cheeseman, G. Scalmani, V. Barone, 
 G. A. Petersson, H. Nakatsuji, X. Li, M. Caricato, A. V. Marenich, 
 J. Bloino, B. G. Janesko, R. Gomperts, B. Mennucci, H. P. Hratchian, 
 J. V. Ortiz, A. F. Izmaylov, J. L. Sonnenberg, D. Williams-Young, 
 F. Ding, F. Lipparini, F. Egidi, J. Goings, B. Peng, A. Petrone, 
 T. Henderson, D. Ranasinghe, V. G. Zakrzewski, J. Gao, N. Rega, 
 G. Zheng, W. Liang, M. Hada, M. Ehara, K. Toyota, R. Fukuda, 
 J. Hasegawa, M. Ishida, T. Nakajima, Y. Honda, O. Kitao, H. Nakai, 
 T. Vreven, K. Throssell, J. A. Montgomery, Jr., J. E. Peralta, 
 F. Ogliaro, M. J. Bearpark, J. J. Heyd, E. N. Brothers, K. N. Kudin, 
 V. N. Staroverov, T. A. Keith, R. Kobayashi, J. Normand, 
 K. Raghavachari, A. P. Rendell, J. C. Burant, S. S. Iyengar, 
 J. Tomasi, M. Cossi, J. M. Millam, M. Klene, C. Adamo, R. Cammi, 
 J. W. Ochterski, R. L. Martin, K. Morokuma, O. Farkas, 
 J. B. Foresman, and D. J. Fox, Gaussian, Inc., Wallingford CT, 2016.
 
 ******************************************
 Gaussian 16:  ES64L-G16RevA.03 25-Dec-2016
                10-Jul-2023 
 ******************************************
 %chk=Py.chk
 %nprocshared=16
 Will use up to   16 processors via shared memory.
 %mem=50GB
 ------------------------------------
 #p 6-311+g(2d,p) nosymm em=gd3 m062x
 ------------------------------------
 1/38=1,172=1/1;
 2/12=2,15=1,17=6,18=5,40=1/2;
 3/5=4,6=6,7=112,11=2,25=1,30=1,74=-55,124=31/1,2,3;
 4//1;
 5/5=2,38=5/2;
 6/7=2,8=2,9=2,10=2,28=1/1;
 99/5=1,9=1/99;
 Leave Link    1 at Mon Jul 10 16:06:56 2023, MaxMem=  6710886400 cpu:               0.5 elap:               0.0
 (Enter /data0/hywu0/study/g16/l101.exe)
 -------------------
 Title Card Required
 -------------------
 Symbolic Z-matrix:
 Charge =  0 Multiplicity = 1
 C                     13.03429   10.81703   8.59199 
 C                     12.84356   12.16893   8.89804 
 C                     12.16506   12.49693   10.0714 
 C                     11.70045   11.47749   10.89831 
 C                     11.93192   10.1473   10.52178 
 N                     12.58674   9.82829   9.38987 
 H                     12.0007   13.54088   10.33707 
 H                     13.55928   10.49751   7.68444 
 H                     13.21671   12.94287   8.23447 
 H                     11.16821   11.70159   11.8183 
 H                     11.58636   9.30233   11.13849 
 
 ITRead=  0  0  0  0  0  0  0  0  0  0  0
 MicOpt= -1 -1 -1 -1 -1 -1 -1 -1 -1 -1 -1
 NAtoms=     11 NQM=       11 NQMF=       0 NMMI=      0 NMMIF=      0
                NMic=       0 NMicF=      0.
                    Isotopes and Nuclear Properties:
 (Nuclear quadrupole moments (NQMom) in fm**2, nuclear magnetic moments (NMagM)
  in nuclear magnetons)

  Atom         1           2           3           4           5           6           7           8           9          10
 IAtWgt=          12          12          12          12          12          14           1           1           1           1
 AtmWgt=  12.0000000  12.0000000  12.0000000  12.0000000  12.0000000  14.0030740   1.0078250   1.0078250   1.0078250   1.0078250
 NucSpn=           0           0           0           0           0           2           1           1           1           1
 AtZEff=  -0.0000000  -0.0000000  -0.0000000  -0.0000000  -0.0000000  -0.0000000  -0.0000000  -0.0000000  -0.0000000  -0.0000000
 NQMom=    0.0000000   0.0000000   0.0000000   0.0000000   0.0000000   2.0440000   0.0000000   0.0000000   0.0000000   0.0000000
 NMagM=    0.0000000   0.0000000   0.0000000   0.0000000   0.0000000   0.4037610   2.7928460   2.7928460   2.7928460   2.7928460
 AtZNuc=   6.0000000   6.0000000   6.0000000   6.0000000   6.0000000   7.0000000   1.0000000   1.0000000   1.0000000   1.0000000

  Atom        11
 IAtWgt=           1
 AtmWgt=   1.0078250
 NucSpn=           1
 AtZEff=  -0.0000000
 NQMom=    0.0000000
 NMagM=    2.7928460
 AtZNuc=   1.0000000
 Leave Link  101 at Mon Jul 10 16:06:57 2023, MaxMem=  6710886400 cpu:               2.4 elap:               0.2
 (Enter /data0/hywu0/study/g16/l202.exe)
                          Input orientation:                          
 ---------------------------------------------------------------------
 Center     Atomic      Atomic             Coordinates (Angstroms)
 Number     Number       Type             X           Y           Z
 ---------------------------------------------------------------------
      1          6           0       13.034286   10.817029    8.591990
      2          6           0       12.843564   12.168927    8.898038
      3          6           0       12.165064   12.496934   10.071403
      4          6           0       11.700454   11.477486   10.898311
      5          6           0       11.931921   10.147298   10.521781
      6          7           0       12.586743    9.828290    9.389868
      7          1           0       12.000705   13.540882   10.337065
      8          1           0       13.559281   10.497514    7.684441
      9          1           0       13.216710   12.942865    8.234467
     10          1           0       11.168211   11.701594   11.818301
     11          1           0       11.586357    9.302335   11.138490
 ---------------------------------------------------------------------
                    Distance matrix (angstroms):
                    1          2          3          4          5
     1  C    0.000000
     2  C    1.399167   0.000000
     3  C    2.401310   1.394538   0.000000
     4  C    2.744891   2.405386   1.392449   0.000000
     5  C    2.321172   2.748567   2.403744   1.401696   0.000000
     6  N    1.347037   2.405501   2.786389   2.404320   1.346026
     7  H    3.396020   2.159507   1.089687   2.159340   3.399303
     8  H    1.096063   2.186021   3.411614   3.839862   3.289597
     9  H    2.163395   1.085608   2.163134   3.397416   3.833756
    10  H    3.830636   3.398992   2.162853   1.086227   2.163343
    11  H    3.297796   3.849356   3.417461   2.191343   1.101684
                    6          7          8          9         10
     6  N    0.000000
     7  H    3.876076   0.000000
     8  H    2.074168   4.327547   0.000000
     9  H    3.381181   2.501442   2.529748   0.000000
    10  H    3.379170   2.504014   4.925020   4.310565   0.000000
    11  H    2.082085   4.333503   4.153473   4.934051   2.528524
                   11
    11  H    0.000000
 Symmetry turned off by external request.
 Stoichiometry    C5H5N
 Framework group  C1[X(C5H5N)]
 Deg. of freedom    27
 Full point group                 C1      NOp   1
 Rotational constants (GHZ):           5.9390274           5.8326675           2.9426836
 Leave Link  202 at Mon Jul 10 16:06:57 2023, MaxMem=  6710886400 cpu:               0.0 elap:               0.0
 (Enter /data0/hywu0/study/g16/l301.exe)
 Standard basis: 6-311+G(2d,p) (5D, 7F)
 Ernie: Thresh=  0.10000D-02 Tol=  0.10000D-05 Strict=F.
   192 basis functions,   292 primitive gaussians,   204 cartesian basis functions
    21 alpha electrons       21 beta electrons
       nuclear repulsion energy       205.2271099897 Hartrees.
 IExCor= 4336 DFT=T Ex+Corr=M062X ExCW=0 ScaHFX=  0.540000
 ScaDFX=  1.000000  1.000000  1.000000  1.000000 ScalE2=  1.000000  1.000000
 IRadAn=      5 IRanWt=     -1 IRanGd=            0 ICorTp=0 IEmpDi=131
 NAtoms=   11 NActive=   11 NUniq=   11 SFac= 1.00D+00 NAtFMM=   60 NAOKFM=F Big=F
 Integral buffers will be    131072 words long.
 Raffenetti 2 integral format.
 Two-electron integral symmetry is turned off.
 R6Disp:  Grimme-D3 Dispersion energy=       -0.0000989670 Hartrees.
 Nuclear repulsion after empirical dispersion term =      205.2270110227 Hartrees.
 Leave Link  301 at Mon Jul 10 16:06:57 2023, MaxMem=  6710886400 cpu:               0.7 elap:               0.0
 (Enter /data0/hywu0/study/g16/l302.exe)
 NPDir=0 NMtPBC=     1 NCelOv=     1 NCel=       1 NClECP=     1 NCelD=      1
         NCelK=      1 NCelE2=     1 NClLst=     1 CellRange=     0.0.
 One-electron integrals computed using PRISM.
 NBasis=   192 RedAO= T EigKep=  1.98D-05  NBF=   192
 NBsUse=   192 1.00D-06 EigRej= -1.00D+00 NBFU=   192
 Precomputing XC quadrature grid using
 IXCGrd= 4 IRadAn=           5 IRanWt=          -1 IRanGd=           0 AccXCQ= 0.00D+00.
 Generated NRdTot=       0 NPtTot=           0 NUsed=           0 NTot=          32
 NSgBfM=   204   204   204   204   204 MxSgAt=    11 MxSgA2=    11.
 Leave Link  302 at Mon Jul 10 16:06:57 2023, MaxMem=  6710886400 cpu:               2.2 elap:               0.1
 (Enter /data0/hywu0/study/g16/l303.exe)
 DipDrv:  MaxL=1.
 Leave Link  303 at Mon Jul 10 16:06:57 2023, MaxMem=  6710886400 cpu:               0.5 elap:               0.0
 (Enter /data0/hywu0/study/g16/l401.exe)
 ExpMin= 4.38D-02 ExpMax= 6.29D+03 ExpMxC= 9.49D+02 IAcc=3 IRadAn=         5 AccDes= 0.00D+00
 Harris functional with IExCor= 1009 and IRadAn=       5 diagonalized for initial guess.
 HarFok:  IExCor= 1009 AccDes= 0.00D+00 IRadAn=         5 IDoV= 1 UseB2=F ITyADJ=14
 ICtDFT=  3500011 ScaDFX=  1.000000  1.000000  1.000000  1.000000
 FoFCou: FMM=F IPFlag=           0 FMFlag=      100000 FMFlg1=           0
         NFxFlg=           0 DoJE=T BraDBF=F KetDBF=T FulRan=T
         wScrn=  0.000000 ICntrl=       500 IOpCl=  0 I1Cent=   200000004 NGrid=           0
         NMat0=    1 NMatS0=      1 NMatT0=    0 NMatD0=    1 NMtDS0=    0 NMtDT0=    0
 Symmetry not used in FoFCou.
 Harris En= -248.118868164924    
 JPrj=0 DoOrth=F DoCkMO=F.
 Leave Link  401 at Mon Jul 10 16:06:57 2023, MaxMem=  6710886400 cpu:               6.6 elap:               0.4
 (Enter /data0/hywu0/study/g16/l502.exe)
 Keep R1 ints in memory in canonical form, NReq=188193501.
 FoFCou: FMM=F IPFlag=           0 FMFlag=           0 FMFlg1=           0
         NFxFlg=           0 DoJE=F BraDBF=F KetDBF=F FulRan=T
         wScrn=  0.000000 ICntrl=       600 IOpCl=  0 I1Cent=           0 NGrid=           0
         NMat0=    1 NMatS0=  18528 NMatT0=    0 NMatD0=    1 NMtDS0=    0 NMtDT0=    0
 Symmetry not used in FoFCou.
 Two-electron integral symmetry not used.
 Closed shell SCF:
 Using DIIS extrapolation, IDIIS=  1040.
 NGot=  6710886400 LenX=  6539145737 LenY=  6539103680
 Requested convergence on RMS density matrix=1.00D-08 within 128 cycles.
 Requested convergence on MAX density matrix=1.00D-06.
 Requested convergence on             energy=1.00D-06.
 No special actions if energy rises.

 Cycle   1  Pass 1  IDiag  1:
 E= -248.121852798599    
 DIIS: error= 3.97D-02 at cycle   1 NSaved=   1.
 NSaved= 1 IEnMin= 1 EnMin= -248.121852798599     IErMin= 1 ErrMin= 3.97D-02
 ErrMax= 3.97D-02  0.00D+00 EMaxC= 1.00D-01 BMatC= 1.51D-01 BMatP= 1.51D-01
 IDIUse=3 WtCom= 6.03D-01 WtEn= 3.97D-01
 Coeff-Com:  0.100D+01
 Coeff-En:   0.100D+01
 Coeff:      0.100D+01
 Gap=     0.339 Goal=   None    Shift=    0.000
 GapD=    0.339 DampG=1.000 DampE=0.500 DampFc=0.5000 IDamp=-1.
 Damping current iteration by 5.00D-01
 RMSDP=4.44D-03 MaxDP=8.72D-02              OVMax= 1.39D-01

 Cycle   2  Pass 1  IDiag  1:
 E= -248.185749995160     Delta-E=       -0.063897196561 Rises=F Damp=T
 DIIS: error= 1.03D-02 at cycle   2 NSaved=   2.
 NSaved= 2 IEnMin= 2 EnMin= -248.185749995160     IErMin= 2 ErrMin= 1.03D-02
 ErrMax= 1.03D-02  0.00D+00 EMaxC= 1.00D-01 BMatC= 1.47D-02 BMatP= 1.51D-01
 IDIUse=3 WtCom= 8.97D-01 WtEn= 1.03D-01
 Coeff-Com: -0.223D+00 0.122D+01
 Coeff-En:   0.000D+00 0.100D+01
 Coeff:     -0.200D+00 0.120D+01
 Gap=     0.338 Goal=   None    Shift=    0.000
 RMSDP=1.21D-03 MaxDP=2.43D-02 DE=-6.39D-02 OVMax= 7.63D-02

 Cycle   3  Pass 1  IDiag  1:
 E= -248.242250667386     Delta-E=       -0.056500672226 Rises=F Damp=F
 DIIS: error= 4.98D-03 at cycle   3 NSaved=   3.
 NSaved= 3 IEnMin= 3 EnMin= -248.242250667386     IErMin= 3 ErrMin= 4.98D-03
 ErrMax= 4.98D-03  0.00D+00 EMaxC= 1.00D-01 BMatC= 2.55D-03 BMatP= 1.47D-02
 IDIUse=3 WtCom= 9.50D-01 WtEn= 4.98D-02
 Coeff-Com: -0.131D+00 0.390D+00 0.741D+00
 Coeff-En:   0.000D+00 0.000D+00 0.100D+01
 Coeff:     -0.124D+00 0.370D+00 0.754D+00
 Gap=     0.324 Goal=   None    Shift=    0.000
 RMSDP=3.65D-04 MaxDP=1.20D-02 DE=-5.65D-02 OVMax= 2.28D-02

 Cycle   4  Pass 1  IDiag  1:
 E= -248.244436109030     Delta-E=       -0.002185441644 Rises=F Damp=F
 DIIS: error= 2.38D-03 at cycle   4 NSaved=   4.
 NSaved= 4 IEnMin= 4 EnMin= -248.244436109030     IErMin= 4 ErrMin= 2.38D-03
 ErrMax= 2.38D-03  0.00D+00 EMaxC= 1.00D-01 BMatC= 2.72D-04 BMatP= 2.55D-03
 IDIUse=3 WtCom= 9.76D-01 WtEn= 2.38D-02
 Coeff-Com: -0.444D-01 0.111D+00 0.322D+00 0.612D+00
 Coeff-En:   0.000D+00 0.000D+00 0.000D+00 0.100D+01
 Coeff:     -0.433D-01 0.108D+00 0.314D+00 0.621D+00
 Gap=     0.317 Goal=   None    Shift=    0.000
 RMSDP=9.94D-05 MaxDP=2.74D-03 DE=-2.19D-03 OVMax= 9.05D-03

 Cycle   5  Pass 1  IDiag  1:
 E= -248.244680280074     Delta-E=       -0.000244171044 Rises=F Damp=F
 DIIS: error= 8.86D-04 at cycle   5 NSaved=   5.
 NSaved= 5 IEnMin= 5 EnMin= -248.244680280074     IErMin= 5 ErrMin= 8.86D-04
 ErrMax= 8.86D-04  0.00D+00 EMaxC= 1.00D-01 BMatC= 3.82D-05 BMatP= 2.72D-04
 IDIUse=3 WtCom= 9.91D-01 WtEn= 8.86D-03
 Coeff-Com: -0.113D-01 0.228D-01 0.957D-01 0.319D+00 0.573D+00
 Coeff-En:   0.000D+00 0.000D+00 0.000D+00 0.686D-01 0.931D+00
 Coeff:     -0.112D-01 0.226D-01 0.949D-01 0.317D+00 0.576D+00
 Gap=     0.317 Goal=   None    Shift=    0.000
 RMSDP=5.05D-05 MaxDP=1.10D-03 DE=-2.44D-04 OVMax= 2.52D-03

 Cycle   6  Pass 1  IDiag  1:
 E= -248.244718975312     Delta-E=       -0.000038695238 Rises=F Damp=F
 DIIS: error= 1.69D-04 at cycle   6 NSaved=   6.
 NSaved= 6 IEnMin= 6 EnMin= -248.244718975312     IErMin= 6 ErrMin= 1.69D-04
 ErrMax= 1.69D-04  0.00D+00 EMaxC= 1.00D-01 BMatC= 1.72D-06 BMatP= 3.82D-05
 IDIUse=3 WtCom= 9.98D-01 WtEn= 1.69D-03
 Coeff-Com: -0.353D-02 0.646D-02 0.323D-01 0.122D+00 0.271D+00 0.572D+00
 Coeff-En:   0.000D+00 0.000D+00 0.000D+00 0.000D+00 0.000D+00 0.100D+01
 Coeff:     -0.353D-02 0.645D-02 0.323D-01 0.122D+00 0.270D+00 0.573D+00
 Gap=     0.317 Goal=   None    Shift=    0.000
 RMSDP=7.22D-06 MaxDP=2.42D-04 DE=-3.87D-05 OVMax= 6.12D-04

 Cycle   7  Pass 1  IDiag  1:
 E= -248.244720429120     Delta-E=       -0.000001453809 Rises=F Damp=F
 DIIS: error= 3.90D-05 at cycle   7 NSaved=   7.
 NSaved= 7 IEnMin= 7 EnMin= -248.244720429120     IErMin= 7 ErrMin= 3.90D-05
 ErrMax= 3.90D-05  0.00D+00 EMaxC= 1.00D-01 BMatC= 1.84D-07 BMatP= 1.72D-06
 IDIUse=1 WtCom= 1.00D+00 WtEn= 0.00D+00
 Coeff-Com:  0.145D-02-0.319D-02-0.104D-01-0.314D-01-0.319D-01 0.225D+00
 Coeff-Com:  0.850D+00
 Coeff:      0.145D-02-0.319D-02-0.104D-01-0.314D-01-0.319D-01 0.225D+00
 Coeff:      0.850D+00
 Gap=     0.317 Goal=   None    Shift=    0.000
 RMSDP=7.48D-06 MaxDP=1.79D-04 DE=-1.45D-06 OVMax= 1.27D-04

 Cycle   8  Pass 1  IDiag  1:
 E= -248.244720596728     Delta-E=       -0.000000167607 Rises=F Damp=F
 DIIS: error= 5.60D-06 at cycle   8 NSaved=   8.
 NSaved= 8 IEnMin= 8 EnMin= -248.244720596728     IErMin= 8 ErrMin= 5.60D-06
 ErrMax= 5.60D-06  0.00D+00 EMaxC= 1.00D-01 BMatC= 3.45D-09 BMatP= 1.84D-07
 IDIUse=1 WtCom= 1.00D+00 WtEn= 0.00D+00
 Coeff-Com:  0.373D-03-0.803D-03-0.283D-02-0.958D-02-0.141D-01 0.384D-01
 Coeff-Com:  0.136D+00 0.853D+00
 Coeff:      0.373D-03-0.803D-03-0.283D-02-0.958D-02-0.141D-01 0.384D-01
 Coeff:      0.136D+00 0.853D+00
 Gap=     0.317 Goal=   None    Shift=    0.000
 RMSDP=6.25D-07 MaxDP=1.63D-05 DE=-1.68D-07 OVMax= 2.35D-05

 Cycle   9  Pass 1  IDiag  1:
 E= -248.244720600150     Delta-E=       -0.000000003422 Rises=F Damp=F
 DIIS: error= 3.05D-06 at cycle   9 NSaved=   9.
 NSaved= 9 IEnMin= 9 EnMin= -248.244720600150     IErMin= 9 ErrMin= 3.05D-06
 ErrMax= 3.05D-06  0.00D+00 EMaxC= 1.00D-01 BMatC= 1.05D-09 BMatP= 3.45D-09
 IDIUse=1 WtCom= 1.00D+00 WtEn= 0.00D+00
 Coeff-Com: -0.705D-04 0.157D-03 0.485D-03 0.766D-03-0.718D-03-0.104D-01
 Coeff-Com: -0.717D-01 0.362D+00 0.719D+00
 Coeff:     -0.705D-04 0.157D-03 0.485D-03 0.766D-03-0.718D-03-0.104D-01
 Coeff:     -0.717D-01 0.362D+00 0.719D+00
 Gap=     0.317 Goal=   None    Shift=    0.000
 RMSDP=2.30D-07 MaxDP=4.19D-06 DE=-3.42D-09 OVMax= 1.87D-05

 Cycle  10  Pass 1  IDiag  1:
 E= -248.244720601445     Delta-E=       -0.000000001295 Rises=F Damp=F
 DIIS: error= 7.00D-07 at cycle  10 NSaved=  10.
 NSaved=10 IEnMin=10 EnMin= -248.244720601445     IErMin=10 ErrMin= 7.00D-07
 ErrMax= 7.00D-07  0.00D+00 EMaxC= 1.00D-01 BMatC= 7.01D-11 BMatP= 1.05D-09
 IDIUse=1 WtCom= 1.00D+00 WtEn= 0.00D+00
 Coeff-Com: -0.148D-04 0.342D-04 0.158D-03 0.349D-03 0.642D-03-0.898D-04
 Coeff-Com: -0.992D-02-0.945D-01 0.618D-01 0.104D+01
 Coeff:     -0.148D-04 0.342D-04 0.158D-03 0.349D-03 0.642D-03-0.898D-04
 Coeff:     -0.992D-02-0.945D-01 0.618D-01 0.104D+01
 Gap=     0.317 Goal=   None    Shift=    0.000
 RMSDP=7.29D-08 MaxDP=2.03D-06 DE=-1.30D-09 OVMax= 5.59D-06

 Cycle  11  Pass 1  IDiag  1:
 E= -248.244720601522     Delta-E=       -0.000000000077 Rises=F Damp=F
 DIIS: error= 4.38D-07 at cycle  11 NSaved=  11.
 NSaved=11 IEnMin=11 EnMin= -248.244720601522     IErMin=11 ErrMin= 4.38D-07
 ErrMax= 4.38D-07  0.00D+00 EMaxC= 1.00D-01 BMatC= 1.25D-11 BMatP= 7.01D-11
 IDIUse=1 WtCom= 1.00D+00 WtEn= 0.00D+00
 Coeff-Com: -0.229D-05 0.597D-05 0.509D-04 0.130D-03 0.407D-03 0.951D-03
 Coeff-Com: -0.203D-03-0.847D-01-0.154D-01 0.571D+00 0.527D+00
 Coeff:     -0.229D-05 0.597D-05 0.509D-04 0.130D-03 0.407D-03 0.951D-03
 Coeff:     -0.203D-03-0.847D-01-0.154D-01 0.571D+00 0.527D+00
 Gap=     0.317 Goal=   None    Shift=    0.000
 RMSDP=1.76D-08 MaxDP=5.77D-07 DE=-7.69D-11 OVMax= 1.73D-06

 Cycle  12  Pass 1  IDiag  1:
 E= -248.244720601534     Delta-E=       -0.000000000012 Rises=F Damp=F
 DIIS: error= 7.96D-08 at cycle  12 NSaved=  12.
 NSaved=12 IEnMin=12 EnMin= -248.244720601534     IErMin=12 ErrMin= 7.96D-08
 ErrMax= 7.96D-08  0.00D+00 EMaxC= 1.00D-01 BMatC= 4.17D-13 BMatP= 1.25D-11
 IDIUse=1 WtCom= 1.00D+00 WtEn= 0.00D+00
 Coeff-Com:  0.151D-05-0.323D-05-0.643D-05-0.801D-05 0.260D-04 0.388D-03
 Coeff-Com:  0.119D-02-0.990D-02-0.698D-02-0.297D-03 0.135D+00 0.881D+00
 Coeff:      0.151D-05-0.323D-05-0.643D-05-0.801D-05 0.260D-04 0.388D-03
 Coeff:      0.119D-02-0.990D-02-0.698D-02-0.297D-03 0.135D+00 0.881D+00
 Gap=     0.317 Goal=   None    Shift=    0.000
 RMSDP=6.87D-09 MaxDP=1.23D-07 DE=-1.21D-11 OVMax= 3.93D-07

 SCF Done:  E(RM062X) =  -248.244720602     A.U. after   12 cycles
            NFock= 12  Conv=0.69D-08     -V/T= 2.0048
 KE= 2.470624865624D+02 PE=-9.869269411983D+02 EE= 2.863927230117D+02
 Leave Link  502 at Mon Jul 10 16:07:08 2023, MaxMem=  6710886400 cpu:             136.7 elap:              11.2
 (Enter /data0/hywu0/study/g16/l601.exe)
 Copying SCF densities to generalized density rwf, IOpCl= 0 IROHF=0.

 **********************************************************************

            Population analysis using the SCF density.

 **********************************************************************

 Alpha  occ. eigenvalues --  -14.75051 -10.58412 -10.58329 -10.56654 -10.55703
 Alpha  occ. eigenvalues --  -10.55698  -1.04992  -0.90691  -0.86241  -0.71815
 Alpha  occ. eigenvalues --   -0.71447  -0.60854  -0.55194  -0.54689  -0.50124
 Alpha  occ. eigenvalues --   -0.47397  -0.47258  -0.43074  -0.34796  -0.32525
 Alpha  occ. eigenvalues --   -0.32093
 Alpha virt. eigenvalues --   -0.00348   0.00683   0.01147   0.02547   0.03176
 Alpha virt. eigenvalues --    0.04934   0.05383   0.06102   0.07240   0.09057
 Alpha virt. eigenvalues --    0.09326   0.09673   0.09886   0.13419   0.13888
 Alpha virt. eigenvalues --    0.14108   0.14648   0.15317   0.15441   0.18626
 Alpha virt. eigenvalues --    0.19390   0.19890   0.20858   0.21317   0.22453
 Alpha virt. eigenvalues --    0.22835   0.24763   0.25432   0.26079   0.26977
 Alpha virt. eigenvalues --    0.28942   0.32058   0.33519   0.34462   0.35140
 Alpha virt. eigenvalues --    0.36276   0.46399   0.49418   0.50613   0.51465
 Alpha virt. eigenvalues --    0.54298   0.54420   0.55586   0.55917   0.58804
 Alpha virt. eigenvalues --    0.59379   0.60512   0.63704   0.64721   0.64863
 Alpha virt. eigenvalues --    0.65772   0.66026   0.67740   0.69208   0.73089
 Alpha virt. eigenvalues --    0.76565   0.77170   0.79758   0.80760   0.82799
 Alpha virt. eigenvalues --    0.82951   0.84120   0.84224   0.84519   0.86279
 Alpha virt. eigenvalues --    0.88437   0.90141   0.91405   0.95090   0.96310
 Alpha virt. eigenvalues --    0.97104   1.03406   1.08426   1.16497   1.17552
 Alpha virt. eigenvalues --    1.20166   1.21637   1.27996   1.31749   1.35165
 Alpha virt. eigenvalues --    1.35386   1.35719   1.38511   1.38922   1.44087
 Alpha virt. eigenvalues --    1.44435   1.49748   1.50511   1.52380   1.53174
 Alpha virt. eigenvalues --    1.56294   1.61754   1.63815   1.68370   1.73662
 Alpha virt. eigenvalues --    1.83842   1.86297   1.90427   1.93968   1.99589
 Alpha virt. eigenvalues --    2.02083   2.17305   2.17432   2.25616   2.39419
 Alpha virt. eigenvalues --    2.41096   2.47658   2.50785   2.64308   2.67776
 Alpha virt. eigenvalues --    2.69817   2.75034   2.75697   2.76147   2.81500
 Alpha virt. eigenvalues --    2.83796   2.87345   2.87718   2.89522   3.01064
 Alpha virt. eigenvalues --    3.06534   3.08078   3.10695   3.11857   3.13861
 Alpha virt. eigenvalues --    3.21086   3.22180   3.28230   3.28348   3.28706
 Alpha virt. eigenvalues --    3.29141   3.35864   3.42435   3.42740   3.46189
 Alpha virt. eigenvalues --    3.53798   3.55000   3.56771   3.57277   3.57507
 Alpha virt. eigenvalues --    3.59280   3.60419   3.65444   3.71493   3.71683
 Alpha virt. eigenvalues --    3.76379   3.79285   3.81302   3.85684   3.89677
 Alpha virt. eigenvalues --    3.95787   3.96661   3.99033   4.03086   4.45380
 Alpha virt. eigenvalues --    4.50670   4.54373   4.81381   4.95612   4.99968
 Alpha virt. eigenvalues --    5.05262   5.12983   5.23103   5.56916   5.61310
 Alpha virt. eigenvalues --   23.81145  24.05273  24.06498  24.09647  24.13669
 Alpha virt. eigenvalues --   35.73730
          Condensed to atoms (all electrons):
               1          2          3          4          5          6
     1  C    5.177737   0.303414   0.079120  -0.215029   0.123022   0.239661
     2  C    0.303414   4.935321   0.458655   0.083264  -0.214964   0.117564
     3  C    0.079120   0.458655   4.879956   0.461537   0.079659  -0.098212
     4  C   -0.215029   0.083264   0.461537   4.931715   0.305169   0.116236
     5  C    0.123022  -0.214964   0.079659   0.305169   5.176153   0.241679
     6  N    0.239661   0.117564  -0.098212   0.116236   0.241679   6.717044
     7  H   -0.001124  -0.009739   0.365449  -0.009340  -0.001125   0.000289
     8  H    0.444698  -0.070034   0.017911  -0.010599   0.018590  -0.073542
     9  H   -0.018871   0.376287  -0.027317   0.011754  -0.001269   0.002938
    10  H   -0.001259   0.011878  -0.026870   0.376083  -0.019581   0.002977
    11  H    0.018744  -0.010824   0.018247  -0.069998   0.443617  -0.073098
               7          8          9         10         11
     1  C   -0.001124   0.444698  -0.018871  -0.001259   0.018744
     2  C   -0.009739  -0.070034   0.376287   0.011878  -0.010824
     3  C    0.365449   0.017911  -0.027317  -0.026870   0.018247
     4  C   -0.009340  -0.010599   0.011754   0.376083  -0.069998
     5  C   -0.001125   0.018590  -0.001269  -0.019581   0.443617
     6  N    0.000289  -0.073542   0.002938   0.002977  -0.073098
     7  H    0.532591  -0.000263  -0.004392  -0.004444  -0.000259
     8  H   -0.000263   0.542776  -0.002125   0.000097   0.000040
     9  H   -0.004392  -0.002125   0.530062  -0.000234   0.000095
    10  H   -0.004444   0.000097  -0.000234   0.530413  -0.002125
    11  H   -0.000259   0.000040   0.000095  -0.002125   0.542154
 Mulliken charges:
               1
     1  C   -0.150113
     2  C    0.019179
     3  C   -0.208135
     4  C    0.019208
     5  C   -0.150949
     6  N   -0.193537
     7  H    0.132356
     8  H    0.132450
     9  H    0.133071
    10  H    0.133065
    11  H    0.133406
 Sum of Mulliken charges =  -0.00000
 Mulliken charges with hydrogens summed into heavy atoms:
               1
     1  C   -0.017663
     2  C    0.152250
     3  C   -0.075779
     4  C    0.152273
     5  C   -0.017543
     6  N   -0.193537
 Electronic spatial extent (au):  <R**2>=          56311.6452
 Charge=             -0.0000 electrons
 Dipole moment (field-independent basis, Debye):
    X=             -0.3432    Y=              2.1592    Z=              0.5530  Tot=              2.2551
 Quadrupole moment (field-independent basis, Debye-Ang):
   XX=            -44.8437   YY=             12.5644   ZZ=            -21.0658
   XY=             23.8706   XZ=             -0.3445   YZ=             25.4250
 Traceless Quadrupole moment (field-independent basis, Debye-Ang):
   XX=            -27.0620   YY=             30.3461   ZZ=             -3.2841
   XY=             23.8706   XZ=             -0.3445   YZ=             25.4250
 Octapole moment (field-independent basis, Debye-Ang**2):
  XXX=          -1506.3710  YYY=           -374.4513  ZZZ=           -773.5997  XYY=            131.8879
  XXY=           -147.1379  XXZ=           -447.4360  XZZ=           -367.7181  YZZ=            -66.1281
  YYZ=            156.3630  XYZ=            243.5726
 Hexadecapole moment (field-independent basis, Debye-Ang**3):
 XXXX=         -36071.0213 YYYY=         -14379.5387 ZZZZ=         -16318.1514 XXXY=         -12328.5493
 XXXZ=         -15344.9542 YYYX=          -4829.8757 YYYZ=          -3392.1051 ZZZX=         -10934.3051
 ZZZY=          -7178.1780 XXYY=          -3288.4623 XXZZ=          -9375.0464 YYZZ=          -2217.6467
 XXYZ=          -1832.9765 YYXZ=           1228.6334 ZZXY=          -1927.7259
 N-N= 2.052270110227D+02 E-N=-9.869269426072D+02  KE= 2.470624865624D+02
 No NMR shielding tensors so no spin-rotation constants.
 Leave Link  601 at Mon Jul 10 16:07:09 2023, MaxMem=  6710886400 cpu:               1.2 elap:               0.1
 (Enter /data0/hywu0/study/g16/l9999.exe)
 1\1\GINC-LOCALHOST\SP\RM062X\6-311+G(2d,p)\C5H5N1\HYWU0\10-Jul-2023\0\
 \#p 6-311+g(2d,p) nosymm em=gd3 m062x\\Title Card Required\\0,1\C,0,13
 .034286,10.817029,8.59199\C,0,12.843564,12.168927,8.898038\C,0,12.1650
 64,12.496934,10.071403\C,0,11.700454,11.477486,10.898311\C,0,11.931921
 ,10.147298,10.521781\N,0,12.586743,9.82829,9.389868\H,0,12.000705,13.5
 40882,10.337065\H,0,13.559281,10.497514,7.684441\H,0,13.21671,12.94286
 5,8.234467\H,0,11.168211,11.701594,11.818301\H,0,11.586357,9.302335,11
 .13849\\Version=ES64L-G16RevA.03\HF=-248.2447206\RMSD=6.866e-09\Dipole
 =-0.1350118,0.8494771,0.2175647\Quadrupole=-20.1199222,22.5615688,-2.4
 416467,17.7472064,-0.2561038,18.9028455\PG=C01 [X(C5H5N1)]\\@


 ABALONE: AN EXPRESSION OF DISBELIEF.
 Job cpu time:       0 days  0 hours  2 minutes 31.5 seconds.
 Elapsed time:       0 days  0 hours  0 minutes 12.2 seconds.
 File lengths (MBytes):  RWF=     16 Int=      0 D2E=      0 Chk=      3 Scr=      1
 Normal termination of Gaussian 16 at Mon Jul 10 16:07:09 2023.
