Title Card Required                                                     
SP        RM062X                                                      6-311+G(2d,p)       
Number of atoms                            I               19
Info1-9                                    I   N=           9
          46          28           0           0           0         110
           1          18        -502
Full Title                                 C   N=           2
Title Card Required     
Route                                      C   N=           5
#p M062X/6-311+G(2d,p) nosymm em=GD3 counterpoise=2         
Charge                                     I                0
Multiplicity                               I                1
Number of electrons                        I               92
Number of alpha electrons                  I               46
Number of beta electrons                   I               46
Number of basis functions                  I              353
Number of independent functions            I              353
Number of point charges in /Mol/           I                0
Number of translation vectors              I                0
Atomic numbers                             I   N=          19
           6           6           6           6           6           7
           1           1           1           1           1          15
           8           8           1           8           1           8
           1
Nuclear charges                            R   N=          19
  6.00000000E+00  6.00000000E+00  6.00000000E+00  6.00000000E+00  6.00000000E+00
  7.00000000E+00  1.00000000E+00  1.00000000E+00  1.00000000E+00  1.00000000E+00
  1.00000000E+00  1.50000000E+01  8.00000000E+00  8.00000000E+00  1.00000000E+00
  8.00000000E+00  1.00000000E+00  8.00000000E+00  1.00000000E+00
Current cartesian coordinates              R   N=          57
  2.46312308E+01  2.04412223E+01  1.62365080E+01  2.42708184E+01  2.29959393E+01
  1.68148549E+01  2.29886392E+01  2.36157827E+01  1.90321934E+01  2.21106536E+01
  2.16893051E+01  2.05948230E+01  2.25480628E+01  1.91756141E+01  1.98832844E+01
  2.37854971E+01  1.85727764E+01  1.77442789E+01  2.26780458E+01  2.55885585E+01
  1.95342218E+01  2.56233275E+01  1.98374264E+01  1.45214889E+01  2.49759622E+01
  2.44584701E+01  1.55608874E+01  2.11048601E+01  2.21128079E+01  2.23333521E+01
  2.18950415E+01  1.75788655E+01  2.10486955E+01  2.29437280E+01  1.15757271E+01
  1.84989693E+01  2.21525375E+01  1.26121399E+01  2.09180134E+01  2.05893636E+01
  1.06574412E+01  1.68729375E+01  2.12447962E+01  9.86609947E+00  1.52251662E+01
  2.45807278E+01  1.33103256E+01  1.66746807E+01  2.42049407E+01  1.52318672E+01
  1.70427029E+01  2.46302954E+01  9.06200967E+00  1.85456191E+01  2.64846194E+01
  9.57960565E+00  1.87372203E+01
Number of symbols in /Mol/                 I                0
Force Field                                I                0
Atom Types                                 C   N=          19
                                                            
                                                            
                                                            
                                                
Int Atom Types                             I   N=          19
           0           0           0           0           0           0
           0           0           0           0           0           0
           0           0           0           0           0           0
           0
MM charges                                 R   N=          19
  0.00000000E+00  0.00000000E+00  0.00000000E+00  0.00000000E+00  0.00000000E+00
  0.00000000E+00  0.00000000E+00  0.00000000E+00  0.00000000E+00  0.00000000E+00
  0.00000000E+00  0.00000000E+00  0.00000000E+00  0.00000000E+00  0.00000000E+00
  0.00000000E+00  0.00000000E+00  0.00000000E+00  0.00000000E+00
Integer atomic weights                     I   N=          19
          12          12          12          12          12          14
           1           1           1           1           1          31
          16          16           1          16           1          16
           1
Real atomic weights                        R   N=          19
  1.20000000E+01  1.20000000E+01  1.20000000E+01  1.20000000E+01  1.20000000E+01
  1.40030740E+01  1.00782504E+00  1.00782504E+00  1.00782504E+00  1.00782504E+00
  1.00782504E+00  3.09737634E+01  1.59949146E+01  1.59949146E+01  1.00782504E+00
  1.59949146E+01  1.00782504E+00  1.59949146E+01  1.00782504E+00
Atom fragment info                         I   N=          19
           1           1           1           1           1           1
           1           1           1           1           1           2
           2           2           2           2           2           2
           2
Atom residue num                           I   N=          19
           0           0           0           0           0           0
           0           0           0           0           0           0
           0           0           0           0           0           0
           0
Nuclear spins                              I   N=          19
           0           0           0           0           0           2
           1           1           1           1           1           1
           0           0           1           0           1           0
           1
Nuclear ZEff                               R   N=          19
 -3.60000000E+00 -3.60000000E+00 -3.60000000E+00 -3.60000000E+00 -3.60000000E+00
 -4.55000000E+00 -1.00000000E+00 -1.00000000E+00 -1.00000000E+00 -1.00000000E+00
 -1.00000000E+00 -1.29400000E+01 -5.60000000E+00 -5.60000000E+00 -1.00000000E+00
 -5.60000000E+00 -1.00000000E+00 -5.60000000E+00 -1.00000000E+00
Nuclear ZNuc                               R   N=          19
  6.00000000E+00  6.00000000E+00  6.00000000E+00  6.00000000E+00  6.00000000E+00
  7.00000000E+00  1.00000000E+00  1.00000000E+00  1.00000000E+00  1.00000000E+00
  1.00000000E+00  1.50000000E+01  8.00000000E+00  8.00000000E+00  1.00000000E+00
  8.00000000E+00  1.00000000E+00  8.00000000E+00  1.00000000E+00
Nuclear QMom                               R   N=          19
  0.00000000E+00  0.00000000E+00  0.00000000E+00  0.00000000E+00  0.00000000E+00
  2.04400000E+00  0.00000000E+00  0.00000000E+00  0.00000000E+00  0.00000000E+00
  0.00000000E+00  0.00000000E+00  0.00000000E+00  0.00000000E+00  0.00000000E+00
  0.00000000E+00  0.00000000E+00  0.00000000E+00  0.00000000E+00
Nuclear GFac                               R   N=          19
  0.00000000E+00  0.00000000E+00  0.00000000E+00  0.00000000E+00  0.00000000E+00
  4.03761000E-01  2.79284600E+00  2.79284600E+00  2.79284600E+00  2.79284600E+00
  2.79284600E+00  1.13160000E+00  0.00000000E+00  0.00000000E+00  2.79284600E+00
  0.00000000E+00  2.79284600E+00  0.00000000E+00  2.79284600E+00
MicOpt                                     I   N=          19
          -1          -1          -1          -1          -1          -1
          -1          -1          -1          -1          -1          -1
          -1          -1          -1          -1          -1          -1
          -1
Number of residues                         I                0
Number of secondary structures             I                0
Number of contracted shells                I              116
Number of primitive shells                 I              213
Pure/Cartesian d shells                    I                0
Pure/Cartesian f shells                    I                0
Highest angular momentum                   I                2
Largest degree of contraction              I                6
Shell types                                I   N=         116
           0          -1          -1          -1          -1          -2
          -2           0          -1          -1          -1          -1
          -2          -2           0          -1          -1          -1
          -1          -2          -2           0          -1          -1
          -1          -1          -2          -2           0          -1
          -1          -1          -1          -2          -2           0
          -1          -1          -1          -1          -2          -2
           0           0           0           1           0           0
           0           1           0           0           0           1
           0           0           0           1           0           0
           0           1           0           0           0           0
           0           0          -1           1           1           1
           1           1          -2          -2           0          -1
          -1          -1          -1          -2          -2           0
          -1          -1          -1          -1          -2          -2
           0           0           0           1           0          -1
          -1          -1          -1          -2          -2           0
           0           0           1           0          -1          -1
          -1          -1          -2          -2           0           0
           0           1
Number of primitives per shell             I   N=         116
           6           3           1           1           1           1
           1           6           3           1           1           1
           1           1           6           3           1           1
           1           1           1           6           3           1
           1           1           1           1           6           3
           1           1           1           1           1           6
           3           1           1           1           1           1
           3           1           1           1           3           1
           1           1           3           1           1           1
           3           1           1           1           3           1
           1           1           6           3           1           1
           1           1           1           4           2           1
           1           1           1           1           6           3
           1           1           1           1           1           6
           3           1           1           1           1           1
           3           1           1           1           6           3
           1           1           1           1           1           3
           1           1           1           6           3           1
           1           1           1           1           3           1
           1           1
Shell to atom map                          I   N=         116
           1           1           1           1           1           1
           1           2           2           2           2           2
           2           2           3           3           3           3
           3           3           3           4           4           4
           4           4           4           4           5           5
           5           5           5           5           5           6
           6           6           6           6           6           6
           7           7           7           7           8           8
           8           8           9           9           9           9
          10          10          10          10          11          11
          11          11          12          12          12          12
          12          12          12          12          12          12
          12          12          12          12          13          13
          13          13          13          13          13          14
          14          14          14          14          14          14
          15          15          15          15          16          16
          16          16          16          16          16          17
          17          17          17          18          18          18
          18          18          18          18          19          19
          19          19
Primitive exponents                        R   N=         213
  4.56324000E+03  6.82024000E+02  1.54973000E+02  4.44553000E+01  1.30290000E+01
  1.82773000E+00  2.09642000E+01  4.80331000E+00  1.45933000E+00  4.83456000E-01
  1.45585000E-01  4.38000000E-02  1.25200000E+00  3.13000000E-01  4.56324000E+03
  6.82024000E+02  1.54973000E+02  4.44553000E+01  1.30290000E+01  1.82773000E+00
  2.09642000E+01  4.80331000E+00  1.45933000E+00  4.83456000E-01  1.45585000E-01
  4.38000000E-02  1.25200000E+00  3.13000000E-01  4.56324000E+03  6.82024000E+02
  1.54973000E+02  4.44553000E+01  1.30290000E+01  1.82773000E+00  2.09642000E+01
  4.80331000E+00  1.45933000E+00  4.83456000E-01  1.45585000E-01  4.38000000E-02
  1.25200000E+00  3.13000000E-01  4.56324000E+03  6.82024000E+02  1.54973000E+02
  4.44553000E+01  1.30290000E+01  1.82773000E+00  2.09642000E+01  4.80331000E+00
  1.45933000E+00  4.83456000E-01  1.45585000E-01  4.38000000E-02  1.25200000E+00
  3.13000000E-01  4.56324000E+03  6.82024000E+02  1.54973000E+02  4.44553000E+01
  1.30290000E+01  1.82773000E+00  2.09642000E+01  4.80331000E+00  1.45933000E+00
  4.83456000E-01  1.45585000E-01  4.38000000E-02  1.25200000E+00  3.13000000E-01
  6.29348000E+03  9.49044000E+02  2.18776000E+02  6.36916000E+01  1.88282000E+01
  2.72023000E+00  3.06331000E+01  7.02614000E+00  2.11205000E+00  6.84009000E-01
  2.00878000E-01  6.39000000E-02  1.82600000E+00  4.56500000E-01  3.38650000E+01
  5.09479000E+00  1.15879000E+00  3.25840000E-01  1.02741000E-01  7.50000000E-01
  3.38650000E+01  5.09479000E+00  1.15879000E+00  3.25840000E-01  1.02741000E-01
  7.50000000E-01  3.38650000E+01  5.09479000E+00  1.15879000E+00  3.25840000E-01
  1.02741000E-01  7.50000000E-01  3.38650000E+01  5.09479000E+00  1.15879000E+00
  3.25840000E-01  1.02741000E-01  7.50000000E-01  3.38650000E+01  5.09479000E+00
  1.15879000E+00  3.25840000E-01  1.02741000E-01  7.50000000E-01  7.74924000E+04
  1.16058000E+04  2.64596000E+03  7.54976000E+02  2.48755000E+02  9.11565000E+01
  9.11565000E+01  3.62257000E+01  1.52113000E+01  4.79417000E+00  1.80793000E+00
  3.56816000E-01  1.14783000E-01  3.48000000E-02  3.84843000E+02  9.05521000E+01
  2.91339000E+01  1.08862000E+01  4.35259000E+00  1.77706000E+00  6.97005000E-01
  2.53532000E-01  6.84930000E-02  1.10000000E+00  2.75000000E-01  8.58850000E+03
  1.29723000E+03  2.99296000E+02  8.73771000E+01  2.56789000E+01  3.74004000E+00
  4.21175000E+01  9.62837000E+00  2.85332000E+00  9.05661000E-01  2.55611000E-01
  8.45000000E-02  2.58400000E+00  6.46000000E-01  8.58850000E+03  1.29723000E+03
  2.99296000E+02  8.73771000E+01  2.56789000E+01  3.74004000E+00  4.21175000E+01
  9.62837000E+00  2.85332000E+00  9.05661000E-01  2.55611000E-01  8.45000000E-02
  2.58400000E+00  6.46000000E-01  3.38650000E+01  5.09479000E+00  1.15879000E+00
  3.25840000E-01  1.02741000E-01  7.50000000E-01  8.58850000E+03  1.29723000E+03
  2.99296000E+02  8.73771000E+01  2.56789000E+01  3.74004000E+00  4.21175000E+01
  9.62837000E+00  2.85332000E+00  9.05661000E-01  2.55611000E-01  8.45000000E-02
  2.58400000E+00  6.46000000E-01  3.38650000E+01  5.09479000E+00  1.15879000E+00
  3.25840000E-01  1.02741000E-01  7.50000000E-01  8.58850000E+03  1.29723000E+03
  2.99296000E+02  8.73771000E+01  2.56789000E+01  3.74004000E+00  4.21175000E+01
  9.62837000E+00  2.85332000E+00  9.05661000E-01  2.55611000E-01  8.45000000E-02
  2.58400000E+00  6.46000000E-01  3.38650000E+01  5.09479000E+00  1.15879000E+00
  3.25840000E-01  1.02741000E-01  7.50000000E-01
Contraction coefficients                   R   N=         213
  1.96665025E-03  1.52306019E-02  7.61269097E-02  2.60801033E-01  6.16462078E-01
  2.21006028E-01  1.14660081E-01  9.19999648E-01 -3.03068213E-03  1.00000000E+00
  1.00000000E+00  1.00000000E+00  1.00000000E+00  1.00000000E+00  1.96665025E-03
  1.52306019E-02  7.61269097E-02  2.60801033E-01  6.16462078E-01  2.21006028E-01
  1.14660081E-01  9.19999648E-01 -3.03068213E-03  1.00000000E+00  1.00000000E+00
  1.00000000E+00  1.00000000E+00  1.00000000E+00  1.96665025E-03  1.52306019E-02
  7.61269097E-02  2.60801033E-01  6.16462078E-01  2.21006028E-01  1.14660081E-01
  9.19999648E-01 -3.03068213E-03  1.00000000E+00  1.00000000E+00  1.00000000E+00
  1.00000000E+00  1.00000000E+00  1.96665025E-03  1.52306019E-02  7.61269097E-02
  2.60801033E-01  6.16462078E-01  2.21006028E-01  1.14660081E-01  9.19999648E-01
 -3.03068213E-03  1.00000000E+00  1.00000000E+00  1.00000000E+00  1.00000000E+00
  1.00000000E+00  1.96665025E-03  1.52306019E-02  7.61269097E-02  2.60801033E-01
  6.16462078E-01  2.21006028E-01  1.14660081E-01  9.19999648E-01 -3.03068213E-03
  1.00000000E+00  1.00000000E+00  1.00000000E+00  1.00000000E+00  1.00000000E+00
  1.96978815E-03  1.49612859E-02  7.35005308E-02  2.48936766E-01  6.02459433E-01
  2.56201759E-01  1.11906080E-01  9.21666655E-01 -2.56919183E-03  1.00000000E+00
  1.00000000E+00  1.00000000E+00  1.00000000E+00  1.00000000E+00  2.54938145E-02
  1.90373109E-01  8.52161486E-01  1.00000000E+00  1.00000000E+00  1.00000000E+00
  2.54938145E-02  1.90373109E-01  8.52161486E-01  1.00000000E+00  1.00000000E+00
  1.00000000E+00  2.54938145E-02  1.90373109E-01  8.52161486E-01  1.00000000E+00
  1.00000000E+00  1.00000000E+00  2.54938145E-02  1.90373109E-01  8.52161486E-01
  1.00000000E+00  1.00000000E+00  1.00000000E+00  2.54938145E-02  1.90373109E-01
  8.52161486E-01  1.00000000E+00  1.00000000E+00  1.00000000E+00  7.81000147E-04
  6.06800114E-03  3.11600059E-02  1.23431023E-01  3.78209071E-01  5.63262106E-01
  1.60255011E-01  6.27647045E-01  2.63849019E-01  1.00000000E+00  1.00000000E+00
  1.00000000E+00  1.00000000E+00  1.00000000E+00  9.20599888E-03  6.98739915E-02
  2.92469964E-01  7.28102911E-01  6.28348873E-01  4.28043913E-01  1.00000000E+00
  1.00000000E+00  1.00000000E+00  1.00000000E+00  1.00000000E+00  1.89515008E-03
  1.43859006E-02  7.07320031E-02  2.40001011E-01  5.94797026E-01  2.80802012E-01
  1.13889012E-01  9.20811101E-01 -3.27447036E-03  1.00000000E+00  1.00000000E+00
  1.00000000E+00  1.00000000E+00  1.00000000E+00  1.89515008E-03  1.43859006E-02
  7.07320031E-02  2.40001011E-01  5.94797026E-01  2.80802012E-01  1.13889012E-01
  9.20811101E-01 -3.27447036E-03  1.00000000E+00  1.00000000E+00  1.00000000E+00
  1.00000000E+00  1.00000000E+00  2.54938145E-02  1.90373109E-01  8.52161486E-01
  1.00000000E+00  1.00000000E+00  1.00000000E+00  1.89515008E-03  1.43859006E-02
  7.07320031E-02  2.40001011E-01  5.94797026E-01  2.80802012E-01  1.13889012E-01
  9.20811101E-01 -3.27447036E-03  1.00000000E+00  1.00000000E+00  1.00000000E+00
  1.00000000E+00  1.00000000E+00  2.54938145E-02  1.90373109E-01  8.52161486E-01
  1.00000000E+00  1.00000000E+00  1.00000000E+00  1.89515008E-03  1.43859006E-02
  7.07320031E-02  2.40001011E-01  5.94797026E-01  2.80802012E-01  1.13889012E-01
  9.20811101E-01 -3.27447036E-03  1.00000000E+00  1.00000000E+00  1.00000000E+00
  1.00000000E+00  1.00000000E+00  2.54938145E-02  1.90373109E-01  8.52161486E-01
  1.00000000E+00  1.00000000E+00  1.00000000E+00
P(S=P) Contraction coefficients            R   N=         213
  0.00000000E+00  0.00000000E+00  0.00000000E+00  0.00000000E+00  0.00000000E+00
  0.00000000E+00  4.02486927E-02  2.37593957E-01  8.15853851E-01  1.00000000E+00
  1.00000000E+00  1.00000000E+00  0.00000000E+00  0.00000000E+00  0.00000000E+00
  0.00000000E+00  0.00000000E+00  0.00000000E+00  0.00000000E+00  0.00000000E+00
  4.02486927E-02  2.37593957E-01  8.15853851E-01  1.00000000E+00  1.00000000E+00
  1.00000000E+00  0.00000000E+00  0.00000000E+00  0.00000000E+00  0.00000000E+00
  0.00000000E+00  0.00000000E+00  0.00000000E+00  0.00000000E+00  4.02486927E-02
  2.37593957E-01  8.15853851E-01  1.00000000E+00  1.00000000E+00  1.00000000E+00
  0.00000000E+00  0.00000000E+00  0.00000000E+00  0.00000000E+00  0.00000000E+00
  0.00000000E+00  0.00000000E+00  0.00000000E+00  4.02486927E-02  2.37593957E-01
  8.15853851E-01  1.00000000E+00  1.00000000E+00  1.00000000E+00  0.00000000E+00
  0.00000000E+00  0.00000000E+00  0.00000000E+00  0.00000000E+00  0.00000000E+00
  0.00000000E+00  0.00000000E+00  4.02486927E-02  2.37593957E-01  8.15853851E-01
  1.00000000E+00  1.00000000E+00  1.00000000E+00  0.00000000E+00  0.00000000E+00
  0.00000000E+00  0.00000000E+00  0.00000000E+00  0.00000000E+00  0.00000000E+00
  0.00000000E+00  3.83119186E-02  2.37403116E-01  8.17592398E-01  1.00000000E+00
  1.00000000E+00  1.00000000E+00  0.00000000E+00  0.00000000E+00  0.00000000E+00
  0.00000000E+00  0.00000000E+00  0.00000000E+00  0.00000000E+00  0.00000000E+00
  0.00000000E+00  0.00000000E+00  0.00000000E+00  0.00000000E+00  0.00000000E+00
  0.00000000E+00  0.00000000E+00  0.00000000E+00  0.00000000E+00  0.00000000E+00
  0.00000000E+00  0.00000000E+00  0.00000000E+00  0.00000000E+00  0.00000000E+00
  0.00000000E+00  0.00000000E+00  0.00000000E+00  0.00000000E+00  0.00000000E+00
  0.00000000E+00  0.00000000E+00  0.00000000E+00  0.00000000E+00  0.00000000E+00
  0.00000000E+00  0.00000000E+00  0.00000000E+00  0.00000000E+00  0.00000000E+00
  0.00000000E+00  0.00000000E+00  0.00000000E+00  0.00000000E+00  0.00000000E+00
  0.00000000E+00  0.00000000E+00  1.00000000E+00  0.00000000E+00  0.00000000E+00
  0.00000000E+00  0.00000000E+00  0.00000000E+00  0.00000000E+00  0.00000000E+00
  0.00000000E+00  0.00000000E+00  0.00000000E+00  0.00000000E+00  0.00000000E+00
  0.00000000E+00  0.00000000E+00  0.00000000E+00  0.00000000E+00  0.00000000E+00
  3.65113974E-02  2.37152983E-01  8.19701941E-01  1.00000000E+00  1.00000000E+00
  1.00000000E+00  0.00000000E+00  0.00000000E+00  0.00000000E+00  0.00000000E+00
  0.00000000E+00  0.00000000E+00  0.00000000E+00  0.00000000E+00  3.65113974E-02
  2.37152983E-01  8.19701941E-01  1.00000000E+00  1.00000000E+00  1.00000000E+00
  0.00000000E+00  0.00000000E+00  0.00000000E+00  0.00000000E+00  0.00000000E+00
  0.00000000E+00  0.00000000E+00  0.00000000E+00  0.00000000E+00  0.00000000E+00
  0.00000000E+00  0.00000000E+00  0.00000000E+00  0.00000000E+00  3.65113974E-02
  2.37152983E-01  8.19701941E-01  1.00000000E+00  1.00000000E+00  1.00000000E+00
  0.00000000E+00  0.00000000E+00  0.00000000E+00  0.00000000E+00  0.00000000E+00
  0.00000000E+00  0.00000000E+00  0.00000000E+00  0.00000000E+00  0.00000000E+00
  0.00000000E+00  0.00000000E+00  0.00000000E+00  0.00000000E+00  3.65113974E-02
  2.37152983E-01  8.19701941E-01  1.00000000E+00  1.00000000E+00  1.00000000E+00
  0.00000000E+00  0.00000000E+00  0.00000000E+00  0.00000000E+00  0.00000000E+00
  0.00000000E+00  0.00000000E+00  0.00000000E+00
Coordinates of each shell                  R   N=         348
  2.46312308E+01  2.04412223E+01  1.62365080E+01  2.46312308E+01  2.04412223E+01
  1.62365080E+01  2.46312308E+01  2.04412223E+01  1.62365080E+01  2.46312308E+01
  2.04412223E+01  1.62365080E+01  2.46312308E+01  2.04412223E+01  1.62365080E+01
  2.46312308E+01  2.04412223E+01  1.62365080E+01  2.46312308E+01  2.04412223E+01
  1.62365080E+01  2.42708184E+01  2.29959393E+01  1.68148549E+01  2.42708184E+01
  2.29959393E+01  1.68148549E+01  2.42708184E+01  2.29959393E+01  1.68148549E+01
  2.42708184E+01  2.29959393E+01  1.68148549E+01  2.42708184E+01  2.29959393E+01
  1.68148549E+01  2.42708184E+01  2.29959393E+01  1.68148549E+01  2.42708184E+01
  2.29959393E+01  1.68148549E+01  2.29886392E+01  2.36157827E+01  1.90321934E+01
  2.29886392E+01  2.36157827E+01  1.90321934E+01  2.29886392E+01  2.36157827E+01
  1.90321934E+01  2.29886392E+01  2.36157827E+01  1.90321934E+01  2.29886392E+01
  2.36157827E+01  1.90321934E+01  2.29886392E+01  2.36157827E+01  1.90321934E+01
  2.29886392E+01  2.36157827E+01  1.90321934E+01  2.21106536E+01  2.16893051E+01
  2.05948230E+01  2.21106536E+01  2.16893051E+01  2.05948230E+01  2.21106536E+01
  2.16893051E+01  2.05948230E+01  2.21106536E+01  2.16893051E+01  2.05948230E+01
  2.21106536E+01  2.16893051E+01  2.05948230E+01  2.21106536E+01  2.16893051E+01
  2.05948230E+01  2.21106536E+01  2.16893051E+01  2.05948230E+01  2.25480628E+01
  1.91756141E+01  1.98832844E+01  2.25480628E+01  1.91756141E+01  1.98832844E+01
  2.25480628E+01  1.91756141E+01  1.98832844E+01  2.25480628E+01  1.91756141E+01
  1.98832844E+01  2.25480628E+01  1.91756141E+01  1.98832844E+01  2.25480628E+01
  1.91756141E+01  1.98832844E+01  2.25480628E+01  1.91756141E+01  1.98832844E+01
  2.37854971E+01  1.85727764E+01  1.77442789E+01  2.37854971E+01  1.85727764E+01
  1.77442789E+01  2.37854971E+01  1.85727764E+01  1.77442789E+01  2.37854971E+01
  1.85727764E+01  1.77442789E+01  2.37854971E+01  1.85727764E+01  1.77442789E+01
  2.37854971E+01  1.85727764E+01  1.77442789E+01  2.37854971E+01  1.85727764E+01
  1.77442789E+01  2.26780458E+01  2.55885585E+01  1.95342218E+01  2.26780458E+01
  2.55885585E+01  1.95342218E+01  2.26780458E+01  2.55885585E+01  1.95342218E+01
  2.26780458E+01  2.55885585E+01  1.95342218E+01  2.56233275E+01  1.98374264E+01
  1.45214889E+01  2.56233275E+01  1.98374264E+01  1.45214889E+01  2.56233275E+01
  1.98374264E+01  1.45214889E+01  2.56233275E+01  1.98374264E+01  1.45214889E+01
  2.49759622E+01  2.44584701E+01  1.55608874E+01  2.49759622E+01  2.44584701E+01
  1.55608874E+01  2.49759622E+01  2.44584701E+01  1.55608874E+01  2.49759622E+01
  2.44584701E+01  1.55608874E+01  2.11048601E+01  2.21128079E+01  2.23333521E+01
  2.11048601E+01  2.21128079E+01  2.23333521E+01  2.11048601E+01  2.21128079E+01
  2.23333521E+01  2.11048601E+01  2.21128079E+01  2.23333521E+01  2.18950415E+01
  1.75788655E+01  2.10486955E+01  2.18950415E+01  1.75788655E+01  2.10486955E+01
  2.18950415E+01  1.75788655E+01  2.10486955E+01  2.18950415E+01  1.75788655E+01
  2.10486955E+01  2.29437280E+01  1.15757271E+01  1.84989693E+01  2.29437280E+01
  1.15757271E+01  1.84989693E+01  2.29437280E+01  1.15757271E+01  1.84989693E+01
  2.29437280E+01  1.15757271E+01  1.84989693E+01  2.29437280E+01  1.15757271E+01
  1.84989693E+01  2.29437280E+01  1.15757271E+01  1.84989693E+01  2.29437280E+01
  1.15757271E+01  1.84989693E+01  2.29437280E+01  1.15757271E+01  1.84989693E+01
  2.29437280E+01  1.15757271E+01  1.84989693E+01  2.29437280E+01  1.15757271E+01
  1.84989693E+01  2.29437280E+01  1.15757271E+01  1.84989693E+01  2.29437280E+01
  1.15757271E+01  1.84989693E+01  2.29437280E+01  1.15757271E+01  1.84989693E+01
  2.29437280E+01  1.15757271E+01  1.84989693E+01  2.21525375E+01  1.26121399E+01
  2.09180134E+01  2.21525375E+01  1.26121399E+01  2.09180134E+01  2.21525375E+01
  1.26121399E+01  2.09180134E+01  2.21525375E+01  1.26121399E+01  2.09180134E+01
  2.21525375E+01  1.26121399E+01  2.09180134E+01  2.21525375E+01  1.26121399E+01
  2.09180134E+01  2.21525375E+01  1.26121399E+01  2.09180134E+01  2.05893636E+01
  1.06574412E+01  1.68729375E+01  2.05893636E+01  1.06574412E+01  1.68729375E+01
  2.05893636E+01  1.06574412E+01  1.68729375E+01  2.05893636E+01  1.06574412E+01
  1.68729375E+01  2.05893636E+01  1.06574412E+01  1.68729375E+01  2.05893636E+01
  1.06574412E+01  1.68729375E+01  2.05893636E+01  1.06574412E+01  1.68729375E+01
  2.12447962E+01  9.86609947E+00  1.52251662E+01  2.12447962E+01  9.86609947E+00
  1.52251662E+01  2.12447962E+01  9.86609947E+00  1.52251662E+01  2.12447962E+01
  9.86609947E+00  1.52251662E+01  2.45807278E+01  1.33103256E+01  1.66746807E+01
  2.45807278E+01  1.33103256E+01  1.66746807E+01  2.45807278E+01  1.33103256E+01
  1.66746807E+01  2.45807278E+01  1.33103256E+01  1.66746807E+01  2.45807278E+01
  1.33103256E+01  1.66746807E+01  2.45807278E+01  1.33103256E+01  1.66746807E+01
  2.45807278E+01  1.33103256E+01  1.66746807E+01  2.42049407E+01  1.52318672E+01
  1.70427029E+01  2.42049407E+01  1.52318672E+01  1.70427029E+01  2.42049407E+01
  1.52318672E+01  1.70427029E+01  2.42049407E+01  1.52318672E+01  1.70427029E+01
  2.46302954E+01  9.06200967E+00  1.85456191E+01  2.46302954E+01  9.06200967E+00
  1.85456191E+01  2.46302954E+01  9.06200967E+00  1.85456191E+01  2.46302954E+01
  9.06200967E+00  1.85456191E+01  2.46302954E+01  9.06200967E+00  1.85456191E+01
  2.46302954E+01  9.06200967E+00  1.85456191E+01  2.46302954E+01  9.06200967E+00
  1.85456191E+01  2.64846194E+01  9.57960565E+00  1.87372203E+01  2.64846194E+01
  9.57960565E+00  1.87372203E+01  2.64846194E+01  9.57960565E+00  1.87372203E+01
  2.64846194E+01  9.57960565E+00  1.87372203E+01
Num ILSW                                   I              100
ILSW                                       I   N=         100
           0           0           0           0           2           0
           0           0           0           0        4336          -1
           5           0           0           0           0           0
           0           0           0           0           0           0
           1           1           0           0           0           0
           0           0      100000           0          -1           0
           0           0           0           0           0           0
           0           0           0           1           0           0
           0 -2000000000           1           0           0           0
           0           0         131          52           0           0
           0           0          55           0           0           0
           0           0           0          19           0           1
           0           0           0           0           0           0
           0           0           0           0           0           0
           0           0           0           0           0           0
           0           0           0           0           0           0
           0           0           0           0
Num RLSW                                   I               52
RLSW                                       R   N=          52
  1.00000000E+00  1.00000000E+00  1.00000000E+00  1.00000000E+00  5.40000000E-01