          12
 G =       -0.000033 Gcorr = 0.051516 a.u. Nimag =   0 Frame:     1 Step:     1 Geom:     1
C           9.85003400     17.44881300      6.60994800
C           8.52728200     17.00976900      6.65927000
C           9.01476200     17.74607700      8.67490500
N          10.15469900     17.91490000      7.89033800
H          11.02933300     18.29380900      8.17504900
H          10.55444800     17.46235600      5.80552400
H           7.91506800     16.58055700      5.88864800
H           8.95059100     18.01731600      9.71543600
N           8.03051300     17.20187700      7.93995400
O           5.43324400     17.02561800      8.67321600
H           6.32314100     16.63006600      8.59624500
H           5.53689000     17.85885300      8.22147300
          12
 G =       -0.000022 Gcorr = 0.051527 a.u. Nimag =   0 Frame:     2 Step:     2 Geom:     2
C           9.93903900     17.16738500      6.89223500
C           8.69600500     16.58677400      7.14240000
C           8.83833400     18.34497500      8.45809100
N          10.02481000     18.28198800      7.72878400
H          10.79756400     18.90604200      7.78349500
H          10.72189300     16.88547000      6.22056200
H           8.24413600     15.71399400      6.71000900
H           8.61704900     19.10444600      9.18928600
N           8.03314900     17.32745300      8.10982100
O           5.42136900     17.09487800      8.77246900
H           6.36161300     16.88623200      8.93610300
H           5.45504700     17.57036900      7.94674600
          12
 G =       -0.000042 Gcorr = 0.051507 a.u. Nimag =   0 Frame:     3 Step:     3 Geom:     3
C          10.01882500     16.81418800      7.09121700
C           8.76676700     16.37621800      7.52176700
C           8.72686300     18.57407900      7.62386200
N           9.98884000     18.20851100      7.15771300
H          10.73796600     18.81554200      6.91284200
H          10.87723800     16.26812400      6.76191800
H           8.38180000     15.37848500      7.61775500
H           8.40981600     19.59210400      7.77721700
N           7.98567000     17.47568600      7.84567800
O           5.63229400     17.40817500      9.17651000
H           6.13404000     17.45065700      8.33941500
H           6.31988500     17.27824100      9.82411300
          12
 G =       -0.000089 Gcorr = 0.051461 a.u. Nimag =   0 Frame:     4 Step:     4 Geom:     4
C          10.24996800     17.12096600      7.65018300
C           9.10033500     16.66487100      8.29453100
C           8.47381500     18.34317700      7.01651900
N           9.84775600     18.18529500      6.84093700
H          10.44373100     18.72139900      6.25183400
H          11.26391600     16.78577200      7.70510600
H           8.97745000     15.86286900      8.99777100
H           7.88175100     19.09138200      6.51646400
N           8.01698800     17.43123000      7.89099000
O           5.56570400     17.45613000      9.03507700
H           6.14029100     17.95707500      9.60764100
H           6.17830300     17.13984400      8.34295200
          12
 G =       -0.000012 Gcorr = 0.051538 a.u. Nimag =   0 Frame:     5 Step:     5 Geom:     5
C          10.15758000     16.94587800      7.39393700
C           8.95003500     16.44434300      7.87891600
C           8.57001200     18.53374500      7.30220600
N           9.91172800     18.27109500      7.02951700
H          10.58103800     18.89924300      6.64603400
H          11.11610600     16.48391700      7.28760800
H           8.71232700     15.46801600      8.25729000
H           8.09008100     19.48117200      7.12215600
N           7.98471600     17.43822500      7.81436600
O           5.55158500     17.35882600      8.99220600
H           6.18545500     17.54552600      9.67959600
H           6.11934100     17.24002500      8.20617200
          12
 G =       -0.000031 Gcorr = 0.051519 a.u. Nimag =   0 Frame:     6 Step:     6 Geom:     6
C          10.20183100     17.29189900      7.48914300
C           9.13577200     16.66227700      8.13097500
C           8.28326100     18.37152400      7.03810500
N           9.65639200     18.37515200      6.79737400
H          10.16677500     19.02104500      6.23885200
H          11.24598400     17.06166500      7.47481600
H           9.12780300     15.79290000      8.76106100
H           7.59568100     19.09439600      6.63179900
N           7.96263800     17.34294600      7.84078400
O           5.58346000     16.99757100      9.07988700
H           6.18757700     16.81580300      8.33399100
H           6.13282600     17.50283100      9.67321500
          12
 G =       -0.000041 Gcorr = 0.051509 a.u. Nimag =   0 Frame:     7 Step:     7 Geom:     7
C          10.30406300     17.46778100      7.75271900
C           9.23472700     17.71675800      8.61260600
C           8.35856700     17.23461100      6.65241200
N           9.74357800     17.16248600      6.51092400
H          10.25238100     16.93761300      5.68619500
H          11.35950200     17.48485700      7.92369900
H           9.23525500     17.98630800      9.65195400
H           7.65824900     17.04824900      5.85541300
N           8.04482700     17.56755800      7.91566400
O           5.57496700     17.43292600      9.00868700
H           6.28491900     17.94417800      8.57411200
H           5.98897100     16.58668300      9.15561900
          12
 G =       -0.000021 Gcorr = 0.051529 a.u. Nimag =   0 Frame:     8 Step:     8 Geom:     8
C          10.18733100     17.28174900      7.49591300
C           9.17202600     16.82790600      8.33737400
C           8.34911600     18.54893800      7.24034800
N           9.66085500     18.37312900      6.80223900
H          10.14566200     18.91593000      6.12403600
H          11.18610400     16.92902000      7.34923900
H           9.16957300     16.01224600      9.03565400
H           7.68897500     19.32022900      6.88017300
N           8.04772400     17.62159000      8.16460700
O           5.56849800     17.07705500      9.09796300
H           5.70727400     16.51663900      8.33916800
H           6.42686600     17.53557500      9.18329100
          12
 G =       -0.000040 Gcorr = 0.051510 a.u. Nimag =   0 Frame:     9 Step:     9 Geom:     9
C          10.05413000     16.82985300      7.33827200
C           8.87954400     16.48758300      8.00771600
C           8.48338400     18.39931200      6.99235100
N           9.79806500     18.04276900      6.69582700
H          10.44501600     18.54708500      6.13298000
H          10.99661400     16.32859100      7.27562200
H           8.65854800     15.63104000      8.61631700
H           8.00294600     19.29374700      6.63245900
N           7.92417100     17.46747400      7.78231600
O           5.58185000     17.72769100      9.10963200
H           6.26603700     18.04833600      9.69117200
H           6.08969700     17.41652900      8.33534100
          12
 G =       -0.000027 Gcorr = 0.051522 a.u. Nimag =   0 Frame:    10 Step:    10 Geom:    10
C           9.54014800     17.12294000      6.37218200
C           8.20884800     16.93005300      6.74003000
C           9.10494500     18.20765800      8.29158000
N          10.10434800     17.93364000      7.35904900
H          11.04731400     18.24995100      7.37846500
H          10.09373500     16.76424600      5.53054600
H           7.43341000     16.37117000      6.25090500
H           9.24689900     18.81457900      9.17015400
N           7.96076500     17.60611300      7.92544600
O           5.76523500     17.32467200      9.47933500
H           6.31312500     16.55980600      9.63392700
H           6.26123200     17.80517700      8.78838400
          12
 G =       -0.000055 Gcorr = 0.051495 a.u. Nimag =   0 Frame:    11 Step:    11 Geom:    11
C           9.98457600     16.67049100      7.11909300
C           9.11413200     16.56279700      8.20332300
C           8.36154900     18.21689000      6.96226300
N           9.50325500     17.72058800      6.33480800
H           9.91194900     18.04418400      5.48752400
H          10.85911200     16.11046100      6.86410000
H           9.13083100     15.88375900      9.03488500
H           7.77176900     19.03598300      6.58590300
N           8.12088700     17.52409900      8.08794300
O           5.84381300     17.63448400      9.54316600
H           5.72467300     16.94486500      8.89568900
H           6.76345800     17.92140800      9.38130700
          12
 G =       -0.000019 Gcorr = 0.051531 a.u. Nimag =   0 Frame:    12 Step:    12 Geom:    12
C           9.86635500     16.89788800      6.82828900
C           8.47746000     16.79865500      6.90557300
C           9.08196500     18.27316100      8.42312000
N          10.24513300     17.83400300      7.79248400
H          11.17755600     18.12445200      7.98181000
H          10.57038000     16.40075500      6.19528900
H           7.79769400     16.19271100      6.33665800
H           9.06164800     19.00267700      9.21543300
N           8.01352300     17.65353800      7.89441100
O           5.50884400     17.65505000      8.91582600
H           5.96176700     16.90755800      9.29692300
H           6.17768000     18.01955700      8.30418800
          12
 G =       -0.000029 Gcorr = 0.051520 a.u. Nimag =   0 Frame:    13 Step:    13 Geom:    13
C           9.83465800     17.52526800      6.58747500
C           8.44385800     17.42400800      6.60521900
C           9.10090200     17.34595400      8.70396000
N          10.24677400     17.47537600      7.92055600
H          11.18868700     17.52344400      8.23701500
H          10.51991100     17.62291000      5.77237200
H           7.74337200     17.42047300      5.79145900
H           9.10698900     17.28138000      9.77922800
N           8.01131800     17.31479500      7.91853100
O           5.45378600     17.54530300      8.76690700
H           6.21487800     16.99305000      8.50211700
H           5.76486800     18.42804700      8.58516300
          12
 G =       -0.000020 Gcorr = 0.051529 a.u. Nimag =   0 Frame:    14 Step:    14 Geom:    14
C           9.75527900     17.74235200      6.47430500
C           8.44803200     18.14568000      6.74513600
C           9.11324900     16.97772100      8.48752800
N          10.17287000     17.00198400      7.58197000
H          11.06589600     16.57735300      7.69059000
H          10.38118500     17.91793200      5.62525100
H           7.77154800     18.73180700      6.15211000
H           9.14332200     16.47784100      9.44129100
N           8.07091500     17.66414100      7.98998300
O           5.57187500     17.61793300      9.02314500
H           5.61918900     16.91160100      8.38440100
H           6.44664400     18.04366300      8.93429400
          12
 G =       -0.000035 Gcorr = 0.051514 a.u. Nimag =   0 Frame:    15 Step:    15 Geom:    15
C           9.61467300     17.39449000      6.43686900
C           8.24020300     17.48817800      6.65357300
C           9.20166300     17.80032100      8.60823000
N          10.22019900     17.59303600      7.67918200
H          11.19967400     17.58612600      7.85296100
H          10.17238700     17.21227200      5.54287800
H           7.42603400     17.39801700      5.95938500
H           9.36697100     17.98240300      9.65699800
N           8.00648600     17.73810600      7.99770200
O           5.61038200     17.58576200      9.24263100
H           6.31049400     18.11080800      8.80848900
H           5.91083800     16.69049400      9.11110700
          12
 G =       -0.000035 Gcorr = 0.051514 a.u. Nimag =   0 Frame:    16 Step:    16 Geom:    16
C           9.79220300     17.82164700      6.54100400
C           8.40091200     17.76132800      6.61560600
C           9.15496200     17.24791800      8.61819900
N          10.26592500     17.49538500      7.81325000
H          11.22320900     17.45100700      8.08022500
H          10.44066600     18.05830400      5.72432900
H           7.66235700     17.94086400      5.85721100
H           9.21024500     16.97089800      9.65774800
N           8.02828800     17.40667300      7.90368000
O           5.53948800     17.53424000      8.95318700
H           6.25592000     17.02561100      8.52620800
H           5.87583100     18.42613200      8.92935700
          12
 G =       -0.000043 Gcorr = 0.051507 a.u. Nimag =   0 Frame:    17 Step:    17 Geom:    17
C           9.86363800     17.71711400      6.64778500
C           8.47127200     17.64345300      6.62025500
C           9.07335800     17.27663000      8.70484600
N          10.24085300     17.48392500      7.97171400
H          11.17511900     17.47024800      8.31312700
H          10.57096600     17.90676400      5.86856200
H           7.79165700     17.76137800      5.79739000
H           9.05100900     17.07136600      9.76208600
N           8.00368600     17.37168800      7.89749300
O           5.42990700     17.54119200      8.71053800
H           6.18744600     17.01276300      8.39244300
H           5.76109400     18.43349100      8.65376500
          12
 G =       -0.000032 Gcorr = 0.051517 a.u. Nimag =   0 Frame:    18 Step:    18 Geom:    18
C           9.59226300     17.86211000      6.42682700
C           8.36583900     17.23458100      6.64340600
C           9.01150100     18.02915000      8.59130100
N           9.99775400     18.36451900      7.66481400
H          10.83907500     18.86630600      7.83798900
H          10.17128600     17.98036000      5.53563500
H           7.72277200     16.72251000      5.95262000
H           9.05107400     18.28552100      9.63679500
N           8.02536800     17.34893000      7.98315800
O           5.59523000     16.79010400      9.02143400
H           5.53140500     17.63256000      8.57906800
H           6.51643600     16.52336500      8.83695400
          12
 G =        0.000002 Gcorr = 0.051552 a.u. Nimag =   0 Frame:    19 Step:    19 Geom:    19
C           9.82935400     17.17306200      6.60800200
C           8.57760900     16.64206300      6.91796200
C           9.07718100     18.04569000      8.53745800
N          10.14194100     18.06263800      7.63775300
H          10.97561100     18.60147400      7.70350000
H          10.48131700     16.99331300      5.77968300
H           7.98366400     15.92318400      6.38566700
H           9.03610900     18.63572500      9.43777900
N           8.13117200     17.19269800      8.11015800
O           5.62191000     17.00458500      9.10112600
H           5.59563300     17.64894500      8.39874200
H           6.54850300     16.69662700      9.07217300
          12
 G =       -0.000066 Gcorr = 0.051483 a.u. Nimag =   0 Frame:    20 Step:    20 Geom:    20
C          10.11339600     16.96195400      7.17881100
C           9.11170900     16.54989800      8.05724000
C           8.47694400     18.50008000      7.25959200
N           9.70649800     18.19909400      6.67538300
H          10.21255700     18.75235100      6.02162100
H          11.03099900     16.49338100      6.89261500
H           9.04036200     15.65784300      8.65065100
H           7.91636600     19.39811400      7.06067900
N           8.11233900     17.51118500      8.09262200
O           5.68874800     17.13804300      9.23187000
H           5.68222500     16.67521600      8.39828400
H           6.59786200     17.49285000      9.27063700
          12
 G =       -0.000034 Gcorr = 0.051515 a.u. Nimag =   0 Frame:    21 Step:    21 Geom:    21
C          10.20607200     17.71689100      7.37881500
C           9.35340900     17.81521200      8.47797600
C           8.06799400     17.51336300      6.71752100
N           9.38646700     17.52547500      6.26477400
H           9.70065700     17.41984700      5.32682600
H          11.27217000     17.76662300      7.31215500
H           9.58275400     17.96620700      9.51600000
H           7.21007600     17.38318000      6.07921600
N           8.04046800     17.68682800      8.04950900
O           5.88477900     17.32248900      9.64177900
H           6.33766300     16.48481100      9.59388300
H           6.46749500     17.90908400      9.12155300
