 Entering Gaussian System, Link 0=g16
 Initial command:
 /data0/home/software/g16/l1.exe "/data0/home/software/g16/scratch/Gau-2483291.inp" -scrdir="/data0/home/software/g16/scratch/"
 Default is to use a total of  22 processors:
                               22 via shared-memory
                                1 via Linda
 Entering Link 1 = /data0/home/software/g16/l1.exe PID=   2483292.
  
 Copyright (c) 1988,1990,1992,1993,1995,1998,2003,2009,2016,
            Gaussian, Inc.  All Rights Reserved.
  
 This is part of the Gaussian(R) 16 program.  It is based on
 the Gaussian(R) 09 system (copyright 2009, Gaussian, Inc.),
 the Gaussian(R) 03 system (copyright 2003, Gaussian, Inc.),
 the Gaussian(R) 98 system (copyright 1998, Gaussian, Inc.),
 the Gaussian(R) 94 system (copyright 1995, Gaussian, Inc.),
 the Gaussian 92(TM) system (copyright 1992, Gaussian, Inc.),
 the Gaussian 90(TM) system (copyright 1990, Gaussian, Inc.),
 the Gaussian 88(TM) system (copyright 1988, Gaussian, Inc.),
 the Gaussian 86(TM) system (copyright 1986, Carnegie Mellon
 University), and the Gaussian 82(TM) system (copyright 1983,
 Carnegie Mellon University). Gaussian is a federally registered
 trademark of Gaussian, Inc.
  
 This software contains proprietary and confidential information,
 including trade secrets, belonging to Gaussian, Inc.
  
 This software is provided under written license and may be
 used, copied, transmitted, or stored only in accord with that
 written license.
  
 The following legend is applicable only to US Government
 contracts under FAR:
  
                    RESTRICTED RIGHTS LEGEND
  
 Use, reproduction and disclosure by the US Government is
 subject to restrictions as set forth in subparagraphs (a)
 and (c) of the Commercial Computer Software - Restricted
 Rights clause in FAR 52.227-19.
  
 Gaussian, Inc.
 340 Quinnipiac St., Bldg. 40, Wallingford CT 06492
  
  
 ---------------------------------------------------------------
 Warning -- This program may not be used in any manner that
 competes with the business of Gaussian, Inc. or will provide
 assistance to any competitor of Gaussian, Inc.  The licensee
 of this program is prohibited from giving any competitor of
 Gaussian, Inc. access to this program.  By using this program,
 the user acknowledges that Gaussian, Inc. is engaged in the
 business of creating and licensing software in the field of
 computational chemistry and represents and warrants to the
 licensee that it is not a competitor of Gaussian, Inc. and that
 it will not use this program in any manner prohibited above.
 ---------------------------------------------------------------
  

 Cite this work as:
 Gaussian 16, Revision A.03,
 M. J. Frisch, G. W. Trucks, H. B. Schlegel, G. E. Scuseria, 
 M. A. Robb, J. R. Cheeseman, G. Scalmani, V. Barone, 
 G. A. Petersson, H. Nakatsuji, X. Li, M. Caricato, A. V. Marenich, 
 J. Bloino, B. G. Janesko, R. Gomperts, B. Mennucci, H. P. Hratchian, 
 J. V. Ortiz, A. F. Izmaylov, J. L. Sonnenberg, D. Williams-Young, 
 F. Ding, F. Lipparini, F. Egidi, J. Goings, B. Peng, A. Petrone, 
 T. Henderson, D. Ranasinghe, V. G. Zakrzewski, J. Gao, N. Rega, 
 G. Zheng, W. Liang, M. Hada, M. Ehara, K. Toyota, R. Fukuda, 
 J. Hasegawa, M. Ishida, T. Nakajima, Y. Honda, O. Kitao, H. Nakai, 
 T. Vreven, K. Throssell, J. A. Montgomery, Jr., J. E. Peralta, 
 F. Ogliaro, M. J. Bearpark, J. J. Heyd, E. N. Brothers, K. N. Kudin, 
 V. N. Staroverov, T. A. Keith, R. Kobayashi, J. Normand, 
 K. Raghavachari, A. P. Rendell, J. C. Burant, S. S. Iyengar, 
 J. Tomasi, M. Cossi, J. M. Millam, M. Klene, C. Adamo, R. Cammi, 
 J. W. Ochterski, R. L. Martin, K. Morokuma, O. Farkas, 
 J. B. Foresman, and D. J. Fox, Gaussian, Inc., Wallingford CT, 2016.
 
 ******************************************
 Gaussian 16:  ES64L-G16RevA.03 25-Dec-2016
                11-Oct-2023 
 ******************************************
 %nprocshared=24
 Will use up to   24 processors via shared memory.
 %mem=50GB
 ----------------------------------------
 #p opt freq b3lyp/6-311+g(2d,p) em=gd3bj
 ----------------------------------------
 1/18=20,19=15,26=3,38=1/1,3;
 2/9=110,12=2,17=6,18=5,40=1/2;
 3/5=4,6=6,7=112,11=2,25=1,30=1,71=1,74=-5,124=41/1,2,3;
 4//1;
 5/5=2,38=5/2;
 6/7=2,8=2,9=2,10=2,28=1/1;
 7//1,2,3,16;
 1/18=20,19=15,26=3/3(2);
 2/9=110/2;
 99//99;
 2/9=110/2;
 3/5=4,6=6,7=112,11=2,25=1,30=1,71=1,74=-5,124=41/1,2,3;
 4/5=5,16=3,69=1/1;
 5/5=2,38=5/2;
 7//1,2,3,16;
 1/18=20,19=15,26=3/3(-5);
 2/9=110/2;
 6/7=2,8=2,9=2,10=2,19=2,28=1/1;
 99/9=1/99;
 Leave Link    1 at Wed Oct 11 11:49:26 2023, MaxMem=  6710886400 cpu:               0.7 elap:               0.0
 (Enter /data0/home/software/g16/l101.exe)
 -------------------
 Title Card Required
 -------------------
 Symbolic Z-matrix:
 Charge =  0 Multiplicity = 1
 C                     0.63388   0.96688  -0.00007 
 C                     1.12922  -0.30808  -0.00006 
 C                    -1.00039  -0.51668   0.00007 
 N                    -0.73569   0.82143   0.00003 
 H                    -1.41446   1.56495   0.00015 
 H                     1.11166   1.93147  -0.00014 
 H                     2.16188  -0.61758  -0.00011 
 H                    -2.00555  -0.90859   0.00013 
 N                     0.10286  -1.22471   0.00001 
 
 ITRead=  0  0  0  0  0  0  0  0  0
 MicOpt= -1 -1 -1 -1 -1 -1 -1 -1 -1
 NAtoms=      9 NQM=        9 NQMF=       0 NMMI=      0 NMMIF=      0
                NMic=       0 NMicF=      0.
                    Isotopes and Nuclear Properties:
 (Nuclear quadrupole moments (NQMom) in fm**2, nuclear magnetic moments (NMagM)
  in nuclear magnetons)

  Atom         1           2           3           4           5           6           7           8           9
 IAtWgt=          12          12          12          14           1           1           1           1          14
 AtmWgt=  12.0000000  12.0000000  12.0000000  14.0030740   1.0078250   1.0078250   1.0078250   1.0078250  14.0030740
 NucSpn=           0           0           0           2           1           1           1           1           2
 AtZEff=  -0.0000000  -0.0000000  -0.0000000  -0.0000000  -0.0000000  -0.0000000  -0.0000000  -0.0000000  -0.0000000
 NQMom=    0.0000000   0.0000000   0.0000000   2.0440000   0.0000000   0.0000000   0.0000000   0.0000000   2.0440000
 NMagM=    0.0000000   0.0000000   0.0000000   0.4037610   2.7928460   2.7928460   2.7928460   2.7928460   0.4037610
 AtZNuc=   6.0000000   6.0000000   6.0000000   7.0000000   1.0000000   1.0000000   1.0000000   1.0000000   7.0000000
 Leave Link  101 at Wed Oct 11 11:49:26 2023, MaxMem=  6710886400 cpu:               7.6 elap:               0.3
 (Enter /data0/home/software/g16/l103.exe)

 GradGradGradGradGradGradGradGradGradGradGradGradGradGradGradGradGradGrad
 Berny optimization.
 Initialization pass.
                           ----------------------------
                           !    Initial Parameters    !
                           ! (Angstroms and Degrees)  !
 --------------------------                            --------------------------
 ! Name  Definition              Value          Derivative Info.                !
 --------------------------------------------------------------------------------
 ! R1    R(1,2)                  1.3678         estimate D2E/DX2                !
 ! R2    R(1,4)                  1.3773         estimate D2E/DX2                !
 ! R3    R(1,6)                  1.0764         estimate D2E/DX2                !
 ! R4    R(2,7)                  1.078          estimate D2E/DX2                !
 ! R5    R(2,9)                  1.3761         estimate D2E/DX2                !
 ! R6    R(3,4)                  1.364          estimate D2E/DX2                !
 ! R7    R(3,8)                  1.0789         estimate D2E/DX2                !
 ! R8    R(3,9)                  1.3109         estimate D2E/DX2                !
 ! R9    R(4,5)                  1.0068         estimate D2E/DX2                !
 ! A1    A(2,1,4)              105.1693         estimate D2E/DX2                !
 ! A2    A(2,1,6)              132.4182         estimate D2E/DX2                !
 ! A3    A(4,1,6)              122.4125         estimate D2E/DX2                !
 ! A4    A(1,2,7)              127.9159         estimate D2E/DX2                !
 ! A5    A(1,2,9)              110.5362         estimate D2E/DX2                !
 ! A6    A(7,2,9)              121.5478         estimate D2E/DX2                !
 ! A7    A(4,3,8)              122.4908         estimate D2E/DX2                !
 ! A8    A(4,3,9)              111.5008         estimate D2E/DX2                !
 ! A9    A(8,3,9)              126.0084         estimate D2E/DX2                !
 ! A10   A(1,4,3)              107.2523         estimate D2E/DX2                !
 ! A11   A(1,4,5)              126.3311         estimate D2E/DX2                !
 ! A12   A(3,4,5)              126.4166         estimate D2E/DX2                !
 ! A13   A(2,9,3)              105.5413         estimate D2E/DX2                !
 ! D1    D(4,1,2,7)           -179.9997         estimate D2E/DX2                !
 ! D2    D(4,1,2,9)              0.0017         estimate D2E/DX2                !
 ! D3    D(6,1,2,7)              0.0004         estimate D2E/DX2                !
 ! D4    D(6,1,2,9)           -179.9981         estimate D2E/DX2                !
 ! D5    D(2,1,4,3)             -0.0016         estimate D2E/DX2                !
 ! D6    D(2,1,4,5)            179.9932         estimate D2E/DX2                !
 ! D7    D(6,1,4,3)            179.9983         estimate D2E/DX2                !
 ! D8    D(6,1,4,5)             -0.0069         estimate D2E/DX2                !
 ! D9    D(1,2,9,3)             -0.0012         estimate D2E/DX2                !
 ! D10   D(7,2,9,3)           -179.9999         estimate D2E/DX2                !
 ! D11   D(8,3,4,1)           -179.9992         estimate D2E/DX2                !
 ! D12   D(8,3,4,5)              0.006          estimate D2E/DX2                !
 ! D13   D(9,3,4,1)              0.0009         estimate D2E/DX2                !
 ! D14   D(9,3,4,5)           -179.9939         estimate D2E/DX2                !
 ! D15   D(4,3,9,2)              0.0002         estimate D2E/DX2                !
 ! D16   D(8,3,9,2)           -179.9997         estimate D2E/DX2                !
 --------------------------------------------------------------------------------
 Trust Radius=3.00D-01 FncErr=1.00D-07 GrdErr=1.00D-06 EigMax=2.50D+02 EigMin=1.00D-04
 Number of steps in this run=     48 maximum allowed number of steps=    100.
 GradGradGradGradGradGradGradGradGradGradGradGradGradGradGradGradGradGrad

 Leave Link  103 at Wed Oct 11 11:49:26 2023, MaxMem=  6710886400 cpu:               0.2 elap:               0.0
 (Enter /data0/home/software/g16/l202.exe)
                          Input orientation:                          
 ---------------------------------------------------------------------
 Center     Atomic      Atomic             Coordinates (Angstroms)
 Number     Number       Type             X           Y           Z
 ---------------------------------------------------------------------
      1          6           0        0.633883    0.966881   -0.000070
      2          6           0        1.129218   -0.308075   -0.000055
      3          6           0       -1.000395   -0.516682    0.000067
      4          7           0       -0.735687    0.821425    0.000032
      5          1           0       -1.414461    1.564947    0.000147
      6          1           0        1.111661    1.931469   -0.000143
      7          1           0        2.161880   -0.617578   -0.000111
      8          1           0       -2.005549   -0.908593    0.000133
      9          7           0        0.102863   -1.224710    0.000014
 ---------------------------------------------------------------------
                    Distance matrix (angstroms):
                    1          2          3          4          5
     1  C    0.000000
     2  C    1.367797   0.000000
     3  C    2.207221   2.139806   0.000000
     4  N    1.377272   2.180285   1.364038   0.000000
     5  H    2.133869   3.158879   2.122411   1.006757   0.000000
     6  H    1.076430   2.239613   3.233299   2.155201   2.552573
     7  H    2.201201   1.078046   3.163884   3.235216   4.189705
     8  H    3.237901   3.191768   1.078855   2.146046   2.543184
     9  N    2.255006   1.376090   1.310909   2.211297   3.175604
                    6          7          8          9
     6  H    0.000000
     7  H    2.756919   0.000000
     8  H    4.216984   4.177578   0.000000
     9  N    3.313478   2.146663   2.131978   0.000000
 Stoichiometry    C3H4N2
 Framework group  C1[X(C3H4N2)]
 Deg. of freedom    21
 Full point group                 C1      NOp   1
 Largest Abelian subgroup         C1      NOp   1
 Largest concise Abelian subgroup C1      NOp   1
                         Standard orientation:                         
 ---------------------------------------------------------------------
 Center     Atomic      Atomic             Coordinates (Angstroms)
 Number     Number       Type             X           Y           Z
 ---------------------------------------------------------------------
      1          6           0        0.633888    0.966878   -0.000070
      2          6           0        1.129216   -0.308080   -0.000055
      3          6           0       -1.000398   -0.516677    0.000067
      4          7           0       -0.735683    0.821429    0.000032
      5          1           0       -1.414453    1.564954    0.000147
      6          1           0        1.111671    1.931464   -0.000143
      7          1           0        2.161877   -0.617589   -0.000111
      8          1           0       -2.005554   -0.908583    0.000133
      9          7           0        0.102857   -1.224710    0.000014
 ---------------------------------------------------------------------
 Rotational constants (GHZ):           9.7603164           9.4450697           4.8000529
 Leave Link  202 at Wed Oct 11 11:49:26 2023, MaxMem=  6710886400 cpu:               0.1 elap:               0.0
 (Enter /data0/home/software/g16/l301.exe)
 Standard basis: 6-311+G(2d,p) (5D, 7F)
 Ernie: Thresh=  0.10000D-02 Tol=  0.10000D-05 Strict=F.
 There are   169 symmetry adapted cartesian basis functions of A   symmetry.
 There are   159 symmetry adapted basis functions of A   symmetry.
   159 basis functions,   242 primitive gaussians,   169 cartesian basis functions
    18 alpha electrons       18 beta electrons
       nuclear repulsion energy       163.4242230708 Hartrees.
 IExCor=  402 DFT=T Ex+Corr=B3LYP ExCW=0 ScaHFX=  0.200000
 ScaDFX=  0.800000  0.720000  1.000000  0.810000 ScalE2=  1.000000  1.000000
 IRadAn=      5 IRanWt=     -1 IRanGd=            0 ICorTp=0 IEmpDi=141
 NAtoms=    9 NActive=    9 NUniq=    9 SFac= 1.00D+00 NAtFMM=   60 NAOKFM=F Big=F
 Integral buffers will be    131072 words long.
 Raffenetti 2 integral format.
 Two-electron integral symmetry is turned on.
 R6Disp:  Grimme-D3(BJ) Dispersion energy=       -0.0113385050 Hartrees.
 Nuclear repulsion after empirical dispersion term =      163.4128845659 Hartrees.
 Leave Link  301 at Wed Oct 11 11:49:27 2023, MaxMem=  6710886400 cpu:               1.1 elap:               0.1
 (Enter /data0/home/software/g16/l302.exe)
 NPDir=0 NMtPBC=     1 NCelOv=     1 NCel=       1 NClECP=     1 NCelD=      1
         NCelK=      1 NCelE2=     1 NClLst=     1 CellRange=     0.0.
 One-electron integrals computed using PRISM.
 One-electron integral symmetry used in STVInt
 NBasis=   159 RedAO= T EigKep=  5.12D-05  NBF=   159
 NBsUse=   159 1.00D-06 EigRej= -1.00D+00 NBFU=   159
 Precomputing XC quadrature grid using
 IXCGrd= 4 IRadAn=           5 IRanWt=          -1 IRanGd=           0 AccXCQ= 0.00D+00.
 Generated NRdTot=       0 NPtTot=           0 NUsed=           0 NTot=          32
 NSgBfM=   169   169   169   169   169 MxSgAt=     9 MxSgA2=     9.
 Leave Link  302 at Wed Oct 11 11:49:27 2023, MaxMem=  6710886400 cpu:               2.9 elap:               0.1
 (Enter /data0/home/software/g16/l303.exe)
 DipDrv:  MaxL=1.
 Leave Link  303 at Wed Oct 11 11:49:27 2023, MaxMem=  6710886400 cpu:               0.5 elap:               0.0
 (Enter /data0/home/software/g16/l401.exe)
 ExpMin= 4.38D-02 ExpMax= 6.29D+03 ExpMxC= 9.49D+02 IAcc=3 IRadAn=         5 AccDes= 0.00D+00
 Harris functional with IExCor=  402 and IRadAn=       5 diagonalized for initial guess.
 HarFok:  IExCor=  402 AccDes= 0.00D+00 IRadAn=         5 IDoV= 1 UseB2=F ITyADJ=14
 ICtDFT=  3500011 ScaDFX=  1.000000  1.000000  1.000000  1.000000
 FoFCou: FMM=F IPFlag=           0 FMFlag=      100000 FMFlg1=           0
         NFxFlg=           0 DoJE=T BraDBF=F KetDBF=T FulRan=T
         wScrn=  0.000000 ICntrl=       500 IOpCl=  0 I1Cent=   200000004 NGrid=           0
         NMat0=    1 NMatS0=      1 NMatT0=    0 NMatD0=    1 NMtDS0=    0 NMtDT0=    0
 Petite list used in FoFCou.
 Harris En= -226.288873446063    
 JPrj=0 DoOrth=F DoCkMO=F.
 Leave Link  401 at Wed Oct 11 11:49:27 2023, MaxMem=  6710886400 cpu:               6.7 elap:               0.3
 (Enter /data0/home/software/g16/l502.exe)
 Keep R1 ints in memory in canonical form, NReq=104803557.
 FoFCou: FMM=F IPFlag=           0 FMFlag=           0 FMFlg1=           0
         NFxFlg=           0 DoJE=F BraDBF=F KetDBF=F FulRan=T
         wScrn=  0.000000 ICntrl=       600 IOpCl=  0 I1Cent=           0 NGrid=           0
         NMat0=    1 NMatS0=  12720 NMatT0=    0 NMatD0=    1 NMtDS0=    0 NMtDT0=    0
 Symmetry not used in FoFCou.
 Two-electron integral symmetry not used.
 Closed shell SCF:
 Using DIIS extrapolation, IDIIS=  1040.
 NGot=  6710886400 LenX=  6629918005 LenY=  6629889003
 Requested convergence on RMS density matrix=1.00D-08 within 128 cycles.
 Requested convergence on MAX density matrix=1.00D-06.
 Requested convergence on             energy=1.00D-06.
 No special actions if energy rises.

 Cycle   1  Pass 1  IDiag  1:
 E= -226.185645045243    
 DIIS: error= 3.43D-02 at cycle   1 NSaved=   1.
 NSaved= 1 IEnMin= 1 EnMin= -226.185645045243     IErMin= 1 ErrMin= 3.43D-02
 ErrMax= 3.43D-02  0.00D+00 EMaxC= 1.00D-01 BMatC= 1.26D-01 BMatP= 1.26D-01
 IDIUse=3 WtCom= 6.57D-01 WtEn= 3.43D-01
 Coeff-Com:  0.100D+01
 Coeff-En:   0.100D+01
 Coeff:      0.100D+01
 Gap=     0.228 Goal=   None    Shift=    0.000
 GapD=    0.228 DampG=1.000 DampE=0.500 DampFc=0.5000 IDamp=-1.
 Damping current iteration by 5.00D-01
 RMSDP=1.13D-02 MaxDP=5.73D-01              OVMax= 2.33D-01

 Cycle   2  Pass 1  IDiag  1:
 E= -226.219649117447     Delta-E=       -0.034004072204 Rises=F Damp=T
 DIIS: error= 1.01D-02 at cycle   2 NSaved=   2.
 NSaved= 2 IEnMin= 2 EnMin= -226.219649117447     IErMin= 2 ErrMin= 1.01D-02
 ErrMax= 1.01D-02  0.00D+00 EMaxC= 1.00D-01 BMatC= 1.66D-02 BMatP= 1.26D-01
 IDIUse=3 WtCom= 8.99D-01 WtEn= 1.01D-01
 Coeff-Com:  0.147D+00 0.853D+00
 Coeff-En:   0.311D+00 0.689D+00
 Coeff:      0.164D+00 0.836D+00
 Gap=     0.284 Goal=   None    Shift=    0.000
 RMSDP=3.93D-03 MaxDP=2.18D-01 DE=-3.40D-02 OVMax= 1.79D-01

 Cycle   3  Pass 1  IDiag  1:
 E= -226.284506724188     Delta-E=       -0.064857606741 Rises=F Damp=F
 DIIS: error= 1.35D-02 at cycle   3 NSaved=   3.
 NSaved= 3 IEnMin= 3 EnMin= -226.284506724188     IErMin= 2 ErrMin= 1.01D-02
 ErrMax= 1.35D-02  0.00D+00 EMaxC= 1.00D-01 BMatC= 1.65D-02 BMatP= 1.66D-02
 IDIUse=3 WtCom= 8.65D-01 WtEn= 1.35D-01
 Coeff-Com: -0.109D-01 0.501D+00 0.510D+00
 Coeff-En:   0.000D+00 0.000D+00 0.100D+01
 Coeff:     -0.945D-02 0.433D+00 0.576D+00
 Gap=     0.237 Goal=   None    Shift=    0.000
 RMSDP=8.69D-04 MaxDP=1.76D-02 DE=-6.49D-02 OVMax= 6.88D-02

 Cycle   4  Pass 1  IDiag  1:
 E= -226.294757641587     Delta-E=       -0.010250917400 Rises=F Damp=F
 DIIS: error= 7.54D-03 at cycle   4 NSaved=   4.
 NSaved= 4 IEnMin= 4 EnMin= -226.294757641587     IErMin= 4 ErrMin= 7.54D-03
 ErrMax= 7.54D-03  0.00D+00 EMaxC= 1.00D-01 BMatC= 4.86D-03 BMatP= 1.65D-02
 IDIUse=3 WtCom= 9.25D-01 WtEn= 7.54D-02
 Coeff-Com: -0.260D-01 0.149D+00 0.380D+00 0.497D+00
 Coeff-En:   0.000D+00 0.000D+00 0.267D+00 0.733D+00
 Coeff:     -0.241D-01 0.138D+00 0.372D+00 0.515D+00
 Gap=     0.232 Goal=   None    Shift=    0.000
 RMSDP=4.31D-04 MaxDP=1.17D-02 DE=-1.03D-02 OVMax= 2.56D-02

 Cycle   5  Pass 1  IDiag  1:
 E= -226.298943926868     Delta-E=       -0.004186285281 Rises=F Damp=F
 DIIS: error= 1.23D-03 at cycle   5 NSaved=   5.
 NSaved= 5 IEnMin= 5 EnMin= -226.298943926868     IErMin= 5 ErrMin= 1.23D-03
 ErrMax= 1.23D-03  0.00D+00 EMaxC= 1.00D-01 BMatC= 1.28D-04 BMatP= 4.86D-03
 IDIUse=3 WtCom= 9.88D-01 WtEn= 1.23D-02
 Coeff-Com: -0.112D-01 0.341D-01 0.130D+00 0.242D+00 0.605D+00
 Coeff-En:   0.000D+00 0.000D+00 0.000D+00 0.000D+00 0.100D+01
 Coeff:     -0.111D-01 0.336D-01 0.128D+00 0.239D+00 0.610D+00
 Gap=     0.231 Goal=   None    Shift=    0.000
 RMSDP=7.34D-05 MaxDP=1.85D-03 DE=-4.19D-03 OVMax= 6.00D-03

 Cycle   6  Pass 1  IDiag  1:
 E= -226.299038435355     Delta-E=       -0.000094508487 Rises=F Damp=F
 DIIS: error= 4.49D-04 at cycle   6 NSaved=   6.
 NSaved= 6 IEnMin= 6 EnMin= -226.299038435355     IErMin= 6 ErrMin= 4.49D-04
 ErrMax= 4.49D-04  0.00D+00 EMaxC= 1.00D-01 BMatC= 2.55D-05 BMatP= 1.28D-04
 IDIUse=3 WtCom= 9.96D-01 WtEn= 4.49D-03
 Coeff-Com: -0.468D-02 0.605D-02 0.417D-01 0.971D-01 0.375D+00 0.485D+00
 Coeff-En:   0.000D+00 0.000D+00 0.000D+00 0.000D+00 0.147D+00 0.853D+00
 Coeff:     -0.466D-02 0.602D-02 0.415D-01 0.966D-01 0.374D+00 0.486D+00
 Gap=     0.232 Goal=   None    Shift=    0.000
 RMSDP=2.21D-05 MaxDP=7.56D-04 DE=-9.45D-05 OVMax= 2.32D-03

 Cycle   7  Pass 1  IDiag  1:
 E= -226.299060960074     Delta-E=       -0.000022524719 Rises=F Damp=F
 DIIS: error= 4.19D-05 at cycle   7 NSaved=   7.
 NSaved= 7 IEnMin= 7 EnMin= -226.299060960074     IErMin= 7 ErrMin= 4.19D-05
 ErrMax= 4.19D-05  0.00D+00 EMaxC= 1.00D-01 BMatC= 2.16D-07 BMatP= 2.55D-05
 IDIUse=1 WtCom= 1.00D+00 WtEn= 0.00D+00
 Coeff-Com: -0.490D-03-0.229D-03 0.536D-02 0.146D-01 0.695D-01 0.129D+00
 Coeff-Com:  0.782D+00
 Coeff:     -0.490D-03-0.229D-03 0.536D-02 0.146D-01 0.695D-01 0.129D+00
 Coeff:      0.782D+00
 Gap=     0.232 Goal=   None    Shift=    0.000
 RMSDP=4.95D-06 MaxDP=1.44D-04 DE=-2.25D-05 OVMax= 3.46D-04

 Cycle   8  Pass 1  IDiag  1:
 E= -226.299061059344     Delta-E=       -0.000000099270 Rises=F Damp=F
 DIIS: error= 3.55D-05 at cycle   8 NSaved=   8.
 NSaved= 8 IEnMin= 8 EnMin= -226.299061059344     IErMin= 8 ErrMin= 3.55D-05
 ErrMax= 3.55D-05  0.00D+00 EMaxC= 1.00D-01 BMatC= 1.36D-07 BMatP= 2.16D-07
 IDIUse=1 WtCom= 1.00D+00 WtEn= 0.00D+00
 Coeff-Com:  0.212D-03-0.725D-03-0.822D-03-0.786D-03 0.555D-02 0.318D-01
 Coeff-Com:  0.496D+00 0.468D+00
 Coeff:      0.212D-03-0.725D-03-0.822D-03-0.786D-03 0.555D-02 0.318D-01
 Coeff:      0.496D+00 0.468D+00
 Gap=     0.232 Goal=   None    Shift=    0.000
 RMSDP=2.24D-06 MaxDP=7.20D-05 DE=-9.93D-08 OVMax= 1.39D-04

 Cycle   9  Pass 1  IDiag  1:
 E= -226.299061183610     Delta-E=       -0.000000124266 Rises=F Damp=F
 DIIS: error= 4.11D-06 at cycle   9 NSaved=   9.
 NSaved= 9 IEnMin= 9 EnMin= -226.299061183610     IErMin= 9 ErrMin= 4.11D-06
 ErrMax= 4.11D-06  0.00D+00 EMaxC= 1.00D-01 BMatC= 8.17D-10 BMatP= 1.36D-07
 IDIUse=1 WtCom= 1.00D+00 WtEn= 0.00D+00
 Coeff-Com:  0.710D-04-0.177D-03-0.433D-03-0.912D-03-0.183D-02 0.132D-02
 Coeff-Com:  0.780D-01 0.110D+00 0.814D+00
 Coeff:      0.710D-04-0.177D-03-0.433D-03-0.912D-03-0.183D-02 0.132D-02
 Coeff:      0.780D-01 0.110D+00 0.814D+00
 Gap=     0.232 Goal=   None    Shift=    0.000
 RMSDP=2.64D-07 MaxDP=6.09D-06 DE=-1.24D-07 OVMax= 1.91D-05

 Cycle  10  Pass 1  IDiag  1:
 E= -226.299061184092     Delta-E=       -0.000000000482 Rises=F Damp=F
 DIIS: error= 1.55D-06 at cycle  10 NSaved=  10.
 NSaved=10 IEnMin=10 EnMin= -226.299061184092     IErMin=10 ErrMin= 1.55D-06
 ErrMax= 1.55D-06  0.00D+00 EMaxC= 1.00D-01 BMatC= 3.79D-10 BMatP= 8.17D-10
 IDIUse=1 WtCom= 1.00D+00 WtEn= 0.00D+00
 Coeff-Com:  0.266D-04-0.519D-04-0.167D-03-0.434D-03-0.121D-02-0.701D-03
 Coeff-Com:  0.168D-01 0.360D-01 0.470D+00 0.480D+00
 Coeff:      0.266D-04-0.519D-04-0.167D-03-0.434D-03-0.121D-02-0.701D-03
 Coeff:      0.168D-01 0.360D-01 0.470D+00 0.480D+00
 Gap=     0.232 Goal=   None    Shift=    0.000
 RMSDP=1.11D-07 MaxDP=3.52D-06 DE=-4.82D-10 OVMax= 8.00D-06

 Cycle  11  Pass 1  IDiag  1:
 E= -226.299061184423     Delta-E=       -0.000000000331 Rises=F Damp=F
 DIIS: error= 3.89D-07 at cycle  11 NSaved=  11.
 NSaved=11 IEnMin=11 EnMin= -226.299061184423     IErMin=11 ErrMin= 3.89D-07
 ErrMax= 3.89D-07  0.00D+00 EMaxC= 1.00D-01 BMatC= 1.53D-11 BMatP= 3.79D-10
 IDIUse=1 WtCom= 1.00D+00 WtEn= 0.00D+00
 Coeff-Com:  0.162D-05-0.432D-06-0.683D-05-0.613D-04-0.275D-03-0.378D-03
 Coeff-Com: -0.436D-02-0.227D-02 0.624D-01 0.173D+00 0.772D+00
 Coeff:      0.162D-05-0.432D-06-0.683D-05-0.613D-04-0.275D-03-0.378D-03
 Coeff:     -0.436D-02-0.227D-02 0.624D-01 0.173D+00 0.772D+00
 Gap=     0.232 Goal=   None    Shift=    0.000
 RMSDP=2.43D-08 MaxDP=5.73D-07 DE=-3.31D-10 OVMax= 1.46D-06

 Cycle  12  Pass 1  IDiag  1:
 E= -226.299061184440     Delta-E=       -0.000000000017 Rises=F Damp=F
 DIIS: error= 4.56D-08 at cycle  12 NSaved=  12.
 NSaved=12 IEnMin=12 EnMin= -226.299061184440     IErMin=12 ErrMin= 4.56D-08
 ErrMax= 4.56D-08  0.00D+00 EMaxC= 1.00D-01 BMatC= 2.83D-13 BMatP= 1.53D-11
 IDIUse=1 WtCom= 1.00D+00 WtEn= 0.00D+00
 Coeff-Com: -0.421D-06 0.986D-06 0.667D-05 0.818D-05 0.107D-05 0.140D-04
 Coeff-Com: -0.107D-02-0.186D-02-0.712D-02 0.434D-02 0.106D+00 0.900D+00
 Coeff:     -0.421D-06 0.986D-06 0.667D-05 0.818D-05 0.107D-05 0.140D-04
 Coeff:     -0.107D-02-0.186D-02-0.712D-02 0.434D-02 0.106D+00 0.900D+00
 Gap=     0.232 Goal=   None    Shift=    0.000
 RMSDP=3.72D-09 MaxDP=6.41D-08 DE=-1.71D-11 OVMax= 2.26D-07

 SCF Done:  E(RB3LYP) =  -226.299061184     A.U. after   12 cycles
            NFock= 12  Conv=0.37D-08     -V/T= 2.0040
 KE= 2.253976854231D+02 PE=-8.538158683264D+02 EE= 2.387062371531D+02
 Leave Link  502 at Wed Oct 11 11:49:31 2023, MaxMem=  6710886400 cpu:              69.6 elap:               4.1
 (Enter /data0/home/software/g16/l601.exe)
 Copying SCF densities to generalized density rwf, IOpCl= 0 IROHF=0.

 **********************************************************************

            Population analysis using the SCF density.

 **********************************************************************

 Orbital symmetries:
       Occupied  (A) (A) (A) (A) (A) (A) (A) (A) (A) (A) (A) (A)
                 (A) (A) (A) (A) (A) (A)
       Virtual   (A) (A) (A) (A) (A) (A) (A) (A) (A) (A) (A) (A)
                 (A) (A) (A) (A) (A) (A) (A) (A) (A) (A) (A) (A)
                 (A) (A) (A) (A) (A) (A) (A) (A) (A) (A) (A) (A)
                 (A) (A) (A) (A) (A) (A) (A) (A) (A) (A) (A) (A)
                 (A) (A) (A) (A) (A) (A) (A) (A) (A) (A) (A) (A)
                 (A) (A) (A) (A) (A) (A) (A) (A) (A) (A) (A) (A)
                 (A) (A) (A) (A) (A) (A) (A) (A) (A) (A) (A) (A)
                 (A) (A) (A) (A) (A) (A) (A) (A) (A) (A) (A) (A)
                 (A) (A) (A) (A) (A) (A) (A) (A) (A) (A) (A) (A)
                 (A) (A) (A) (A) (A) (A) (A) (A) (A) (A) (A) (A)
                 (A) (A) (A) (A) (A) (A) (A) (A) (A) (A) (A) (A)
                 (A) (A) (A) (A) (A) (A) (A) (A) (A)
 The electronic state is 1-A.
 Alpha  occ. eigenvalues --  -14.37693 -14.29646 -10.22798 -10.20381 -10.18565
 Alpha  occ. eigenvalues --   -1.02388  -0.87867  -0.75175  -0.62426  -0.59872
 Alpha  occ. eigenvalues --   -0.57071  -0.45037  -0.44641  -0.43957  -0.41599
 Alpha  occ. eigenvalues --   -0.29201  -0.27876  -0.24035
 Alpha virt. eigenvalues --   -0.00851   0.00810   0.02149   0.03256   0.04088
 Alpha virt. eigenvalues --    0.04850   0.05743   0.05965   0.07377   0.09261
 Alpha virt. eigenvalues --    0.10623   0.11007   0.11585   0.14141   0.15567
 Alpha virt. eigenvalues --    0.18288   0.18292   0.18490   0.19508   0.20675
 Alpha virt. eigenvalues --    0.21588   0.22123   0.22848   0.24045   0.25347
 Alpha virt. eigenvalues --    0.27123   0.28439   0.31205   0.39785   0.41246
 Alpha virt. eigenvalues --    0.44182   0.45817   0.50828   0.51184   0.53813
 Alpha virt. eigenvalues --    0.54392   0.55726   0.57680   0.57861   0.60701
 Alpha virt. eigenvalues --    0.62338   0.66469   0.70398   0.72659   0.73279
 Alpha virt. eigenvalues --    0.75564   0.75850   0.77053   0.80286   0.80658
 Alpha virt. eigenvalues --    0.82574   0.86355   0.87733   0.89188   0.89858
 Alpha virt. eigenvalues --    0.94898   0.96047   0.97135   1.02907   1.08315
 Alpha virt. eigenvalues --    1.15625   1.22032   1.24322   1.29642   1.31528
 Alpha virt. eigenvalues --    1.32547   1.35484   1.37487   1.39038   1.41548
 Alpha virt. eigenvalues --    1.42043   1.43912   1.48758   1.66521   1.66694
 Alpha virt. eigenvalues --    1.68848   1.69630   1.76841   1.79052   1.87280
 Alpha virt. eigenvalues --    1.88689   1.99764   2.00765   2.11708   2.20146
 Alpha virt. eigenvalues --    2.29497   2.36522   2.45404   2.49655   2.62120
 Alpha virt. eigenvalues --    2.66839   2.73524   2.75605   2.76065   2.81557
 Alpha virt. eigenvalues --    2.81870   2.90789   2.91243   3.07384   3.12917
 Alpha virt. eigenvalues --    3.18906   3.23526   3.29591   3.31821   3.35506
 Alpha virt. eigenvalues --    3.36585   3.39707   3.41865   3.42058   3.50201
 Alpha virt. eigenvalues --    3.56115   3.59311   3.59851   3.61933   3.69639
 Alpha virt. eigenvalues --    3.73182   3.86929   3.93081   3.96001   3.96229
 Alpha virt. eigenvalues --    4.00453   4.46517   4.60626   4.90117   4.93668
 Alpha virt. eigenvalues --    4.98282   5.02679   5.04073   5.04445   5.10229
 Alpha virt. eigenvalues --    5.23979   5.28627   5.37924   5.47540   5.58558
 Alpha virt. eigenvalues --    5.70787  23.83346  24.06448  24.13099  35.56269
 Alpha virt. eigenvalues --   35.63669
          Condensed to atoms (all electrons):
               1          2          3          4          5          6
     1  C    5.406567   0.205302  -0.267807   0.445655  -0.069817   0.384888
     2  C    0.205302   5.158457   0.039833  -0.199213   0.038806  -0.007066
     3  C   -0.267807   0.039833   4.965968   0.335676  -0.016797   0.011547
     4  N    0.445655  -0.199213   0.335676   6.349063   0.367842  -0.036588
     5  H   -0.069817   0.038806  -0.016797   0.367842   0.444537  -0.002118
     6  H    0.384888  -0.007066   0.011547  -0.036588  -0.002118   0.541914
     7  H   -0.094231   0.456163   0.021873   0.010073  -0.000081  -0.000644
     8  H   -0.002950   0.023109   0.435968  -0.062535   0.000823  -0.000067
     9  N    0.090499   0.260310   0.354767   0.020188  -0.001598   0.003090
               7          8          9
     1  C   -0.094231  -0.002950   0.090499
     2  C    0.456163   0.023109   0.260310
     3  C    0.021873   0.435968   0.354767
     4  N    0.010073  -0.062535   0.020188
     5  H   -0.000081   0.000823  -0.001598
     6  H   -0.000644  -0.000067   0.003090
     7  H    0.573958  -0.000054  -0.057046
     8  H   -0.000054   0.546954  -0.050998
     9  N   -0.057046  -0.050998   6.738979
 Mulliken charges:
               1
     1  C   -0.098105
     2  C    0.024299
     3  C    0.118971
     4  N   -0.230161
     5  H    0.238404
     6  H    0.105044
     7  H    0.089989
     8  H    0.109750
     9  N   -0.358191
 Sum of Mulliken charges =  -0.00000
 Mulliken charges with hydrogens summed into heavy atoms:
               1
     1  C    0.006939
     2  C    0.114288
     3  C    0.228722
     4  N    0.008242
     9  N   -0.358191
 Electronic spatial extent (au):  <R**2>=            285.7729
 Charge=             -0.0000 electrons
 Dipole moment (field-independent basis, Debye):
    X=             -1.5252    Y=              3.4568    Z=              0.0001  Tot=              3.7783
 Quadrupole moment (field-independent basis, Debye-Ang):
   XX=            -23.1522   YY=            -29.8569   ZZ=            -32.3605
   XY=             -0.8624   XZ=             -0.0008   YZ=              0.0002
 Traceless Quadrupole moment (field-independent basis, Debye-Ang):
   XX=              5.3043   YY=             -1.4003   ZZ=             -3.9040
   XY=             -0.8624   XZ=             -0.0008   YZ=              0.0002
 Octapole moment (field-independent basis, Debye-Ang**2):
  XXX=             -6.3375  YYY=             20.1718  ZZZ=              0.0004  XYY=             -4.4996
  XXY=              1.3575  XXZ=              0.0005  XZZ=             -1.6551  YZZ=              0.2728
  YYZ=              0.0002  XYZ=             -0.0006
 Hexadecapole moment (field-independent basis, Debye-Ang**3):
 XXXX=           -153.7402 YYYY=           -179.8097 ZZZZ=            -37.3707 XXXY=             -6.9356
 XXXZ=              0.0018 YYYX=             -3.3473 YYYZ=              0.0018 ZZZX=              0.0053
 ZZZY=              0.0019 XXYY=            -46.3527 XXZZ=            -40.2823 YYZZ=            -38.9649
 XXYZ=              0.0008 YYXZ=             -0.0003 ZZXY=             -1.5417
 N-N= 1.634128845659D+02 E-N=-8.538158714448D+02  KE= 2.253976854231D+02
 No NMR shielding tensors so no spin-rotation constants.
 Leave Link  601 at Wed Oct 11 11:49:31 2023, MaxMem=  6710886400 cpu:               2.1 elap:               0.1
 (Enter /data0/home/software/g16/l701.exe)
 ... and contract with generalized density number  0.
 Compute integral first derivatives.
 R6Disp: Adding Grimme-D3(BJ) dispersion energy 1st derivatives to the gradient.
 Leave Link  701 at Wed Oct 11 11:49:31 2023, MaxMem=  6710886400 cpu:               2.5 elap:               0.1
 (Enter /data0/home/software/g16/l702.exe)
 L702 exits ... SP integral derivatives will be done elsewhere.
 Leave Link  702 at Wed Oct 11 11:49:31 2023, MaxMem=  6710886400 cpu:               0.4 elap:               0.0
 (Enter /data0/home/software/g16/l703.exe)
 Integral derivatives from FoFJK, PRISM(SPDF).
 Compute integral first derivatives, UseDBF=F ICtDFT=           0.
 Calling FoFJK, ICntrl=      2127 FMM=F ISym2X=0 I1Cent= 0 IOpClX= 0 NMat=1 NMatS=1 NMatT=0.
 FoFJK:  IHMeth= 1 ICntrl=    2127 DoSepK=F KAlg= 0 I1Cent=           0 FoldK=F
 IRaf=         0 NMat=       1 IRICut=       1 DoRegI=T DoRafI=F ISym2E= 0 IDoP0=0 IntGTp=1.
 FoFCou: FMM=F IPFlag=           0 FMFlag=      100000 FMFlg1=         800
         NFxFlg=           0 DoJE=F BraDBF=F KetDBF=F FulRan=T
         wScrn=  0.000000 ICntrl=      2127 IOpCl=  0 I1Cent=           0 NGrid=           0
         NMat0=    1 NMatS0=      1 NMatT0=    0 NMatD0=    1 NMtDS0=    0 NMtDT0=    0
 Symmetry not used in FoFCou.
 Leave Link  703 at Wed Oct 11 11:49:32 2023, MaxMem=  6710886400 cpu:              20.7 elap:               0.9
 (Enter /data0/home/software/g16/l716.exe)
 Dipole        =-6.00067314D-01 1.36001031D+00 5.44254369D-05
 ***** Axes restored to original set *****
 -------------------------------------------------------------------
 Center     Atomic                   Forces (Hartrees/Bohr)
 Number     Number              X              Y              Z
 -------------------------------------------------------------------
      1        6           0.000747474    0.000440219    0.000003996
      2        6           0.001720095    0.000131033   -0.000004073
      3        6          -0.001875334   -0.000507474    0.000002517
      4        7          -0.000520244    0.000180527   -0.000002184
      5        1           0.000172467   -0.000130401   -0.000002123
      6        1          -0.000205569   -0.000179456    0.000001172
      7        1          -0.000181470    0.000030807   -0.000000433
      8        1           0.000178103    0.000122428    0.000000327
      9        7          -0.000035522   -0.000087683    0.000000802
 -------------------------------------------------------------------
 Cartesian Forces:  Max     0.001875334 RMS     0.000544904
 Leave Link  716 at Wed Oct 11 11:49:32 2023, MaxMem=  6710886400 cpu:               0.5 elap:               0.0
 (Enter /data0/home/software/g16/l103.exe)

 GradGradGradGradGradGradGradGradGradGradGradGradGradGradGradGradGradGrad
 Berny optimization.
 FormGI is forming the generalized inverse of G from B-inverse, IUseBI=4.
 Internal  Forces:  Max     0.000989776 RMS     0.000356196
 Search for a local minimum.
 Step number   1 out of a maximum of   48
 All quantities printed in internal units (Hartrees-Bohrs-Radians)
 RMS Force = .35620D-03 SwitMx=.10000D-02 MixMth= 2
 Mixed Optimization -- En-DIIS/RFO-DIIS
 Second derivative matrix not updated -- first step.
 ITU=  0
     Eigenvalues ---    0.02075   0.02194   0.02231   0.02362   0.02396
     Eigenvalues ---    0.02484   0.16000   0.16000   0.16000   0.16000
     Eigenvalues ---    0.22000   0.22912   0.36133   0.36231   0.36429
     Eigenvalues ---    0.43955   0.46128   0.46520   0.49979   0.51713
     Eigenvalues ---    0.61567
 RFO step:  Lambda=-1.38895251D-05 EMin= 2.07532889D-02
 Linear search not attempted -- first point.
 Iteration  1 RMS(Cart)=  0.00121958 RMS(Int)=  0.00000100
 Iteration  2 RMS(Cart)=  0.00000099 RMS(Int)=  0.00000012
 ITry= 1 IFail=0 DXMaxC= 3.74D-03 DCOld= 1.00D+10 DXMaxT= 3.00D-01 DXLimC= 3.00D+00 Rises=F
 Variable       Old X    -DE/DX   Delta X   Delta X   Delta X     New X
                                 (Linear)    (Quad)   (Total)
    R1        2.58476   0.00023   0.00000   0.00041   0.00041   2.58518
    R2        2.60267   0.00099   0.00000   0.00192   0.00192   2.60459
    R3        2.03416  -0.00025   0.00000  -0.00069  -0.00069   2.03347
    R4        2.03721  -0.00018   0.00000  -0.00050  -0.00050   2.03671
    R5        2.60043   0.00098   0.00000   0.00203   0.00203   2.60246
    R6        2.57766   0.00035   0.00000   0.00066   0.00066   2.57832
    R7        2.03874  -0.00021   0.00000  -0.00058  -0.00058   2.03816
    R8        2.47726   0.00082   0.00000   0.00133   0.00133   2.47858
    R9        1.90249  -0.00021   0.00000  -0.00046  -0.00046   1.90204
    A1        1.83555   0.00018   0.00000   0.00061   0.00061   1.83617
    A2        2.31113   0.00002   0.00000   0.00036   0.00036   2.31149
    A3        2.13650  -0.00020   0.00000  -0.00097  -0.00097   2.13553
    A4        2.23255   0.00029   0.00000   0.00130   0.00130   2.23385
    A5        1.92922  -0.00053   0.00000  -0.00232  -0.00232   1.92691
    A6        2.12141   0.00024   0.00000   0.00102   0.00102   2.12243
    A7        2.13787   0.00029   0.00000   0.00115   0.00115   2.13901
    A8        1.94606  -0.00068   0.00000  -0.00292  -0.00292   1.94314
    A9        2.19926   0.00039   0.00000   0.00177   0.00177   2.20103
   A10        1.87191   0.00036   0.00000   0.00150   0.00150   1.87341
   A11        2.20489  -0.00022   0.00000  -0.00099  -0.00099   2.20391
   A12        2.20639  -0.00014   0.00000  -0.00052  -0.00052   2.20587
   A13        1.84204   0.00068   0.00000   0.00312   0.00312   1.84516
    D1       -3.14159  -0.00000   0.00000  -0.00005  -0.00005   3.14155
    D2        0.00003  -0.00000   0.00000  -0.00011  -0.00011  -0.00008
    D3        0.00001   0.00000   0.00000   0.00002   0.00002   0.00003
    D4       -3.14156  -0.00000   0.00000  -0.00004  -0.00004   3.14159
    D5       -0.00003   0.00000   0.00000   0.00011   0.00011   0.00009
    D6        3.14147   0.00000   0.00000   0.00008   0.00008   3.14155
    D7        3.14156   0.00000   0.00000   0.00005   0.00005  -3.14157
    D8       -0.00012   0.00000   0.00000   0.00002   0.00002  -0.00010
    D9       -0.00002   0.00000   0.00000   0.00006   0.00006   0.00004
   D10       -3.14159   0.00000   0.00000   0.00000   0.00000  -3.14159
   D11       -3.14158  -0.00000   0.00000  -0.00005  -0.00005   3.14156
   D12        0.00010  -0.00000   0.00000  -0.00001  -0.00001   0.00009
   D13        0.00002  -0.00000   0.00000  -0.00009  -0.00009  -0.00007
   D14       -3.14149  -0.00000   0.00000  -0.00005  -0.00005  -3.14153
   D15        0.00000   0.00000   0.00000   0.00002   0.00002   0.00002
   D16       -3.14159  -0.00000   0.00000  -0.00002  -0.00002   3.14158
         Item               Value     Threshold  Converged?
 Maximum Force            0.000990     0.000450     NO 
 RMS     Force            0.000356     0.000300     NO 
 Maximum Displacement     0.003738     0.001800     NO 
 RMS     Displacement     0.001220     0.001200     NO 
 Predicted change in Energy=-6.944681D-06
 Lowest energy point so far.  Saving SCF results.
 GradGradGradGradGradGradGradGradGradGradGradGradGradGradGradGradGradGrad

 Leave Link  103 at Wed Oct 11 11:49:32 2023, MaxMem=  6710886400 cpu:               0.3 elap:               0.0
 (Enter /data0/home/software/g16/l202.exe)
                          Input orientation:                          
 ---------------------------------------------------------------------
 Center     Atomic      Atomic             Coordinates (Angstroms)
 Number     Number       Type             X           Y           Z
 ---------------------------------------------------------------------
      1          6           0        0.634643    0.966867   -0.000034
      2          6           0        1.131142   -0.307871   -0.000081
      3          6           0       -1.002373   -0.517135    0.000091
      4          7           0       -0.735902    0.820980    0.000004
      5          1           0       -1.413957    1.564831    0.000076
      6          1           0        1.111092    1.931704   -0.000080
      7          1           0        2.163410   -0.617761   -0.000156
      8          1           0       -2.007287   -0.908814    0.000167
      9          7           0        0.102645   -1.223716    0.000026
 ---------------------------------------------------------------------
                    Distance matrix (angstroms):
                    1          2          3          4          5
     1  C    0.000000
     2  C    1.368017   0.000000
     3  C    2.209544   2.143754   0.000000
     4  N    1.378288   2.181779   1.364389   0.000000
     5  H    2.134085   3.159832   2.122259   1.006515   0.000000
     6  H    1.076064   2.239665   3.234741   2.155248   2.551561
     7  H    2.201857   1.077779   3.167382   3.236663   4.190615
     8  H    3.240058   3.195445   1.078547   2.146766   2.543808
     9  N    2.254257   1.377163   1.311610   2.209964   3.174283
                    6          7          8          9
     6  H    0.000000
     7  H    2.758105   0.000000
     8  H    4.218155   4.180840   0.000000
     9  N    3.312649   2.148007   2.133302   0.000000
 Stoichiometry    C3H4N2
 Framework group  C1[X(C3H4N2)]
 Deg. of freedom    21
 Full point group                 C1      NOp   1
 RotChk:  IX=2 Diff= 1.40D-02
 Largest Abelian subgroup         C1      NOp   1
 Largest concise Abelian subgroup C1      NOp   1
                         Standard orientation:                         
 ---------------------------------------------------------------------
 Center     Atomic      Atomic             Coordinates (Angstroms)
 Number     Number       Type             X           Y           Z
 ---------------------------------------------------------------------
      1          6           0        0.644185    0.960464   -0.000036
      2          6           0        1.128003   -0.319141   -0.000083
      3          6           0       -1.007485   -0.507212    0.000089
      4          7           0       -0.727741    0.828191    0.000002
      5          1           0       -1.398376    1.578738    0.000074
      6          1           0        1.130190    1.920523   -0.000082
      7          1           0        2.157143   -0.639265   -0.000158
      8          1           0       -2.016238   -0.888894    0.000164
      9          7           0        0.090464   -1.224729    0.000024
 ---------------------------------------------------------------------
 Rotational constants (GHZ):           9.7358104           9.4527268           4.7960902
 Leave Link  202 at Wed Oct 11 11:49:32 2023, MaxMem=  6710886400 cpu:               0.1 elap:               0.0
 (Enter /data0/home/software/g16/l301.exe)
 Standard basis: 6-311+G(2d,p) (5D, 7F)
 Ernie: Thresh=  0.10000D-02 Tol=  0.10000D-05 Strict=F.
 There are   169 symmetry adapted cartesian basis functions of A   symmetry.
 There are   159 symmetry adapted basis functions of A   symmetry.
   159 basis functions,   242 primitive gaussians,   169 cartesian basis functions
    18 alpha electrons       18 beta electrons
       nuclear repulsion energy       163.3587221386 Hartrees.
 IExCor=  402 DFT=T Ex+Corr=B3LYP ExCW=0 ScaHFX=  0.200000
 ScaDFX=  0.800000  0.720000  1.000000  0.810000 ScalE2=  1.000000  1.000000
 IRadAn=      5 IRanWt=     -1 IRanGd=            0 ICorTp=0 IEmpDi=141
 NAtoms=    9 NActive=    9 NUniq=    9 SFac= 1.00D+00 NAtFMM=   60 NAOKFM=F Big=F
 Integral buffers will be    131072 words long.
 Raffenetti 2 integral format.
 Two-electron integral symmetry is turned on.
 R6Disp:  Grimme-D3(BJ) Dispersion energy=       -0.0113520761 Hartrees.
 Nuclear repulsion after empirical dispersion term =      163.3473700625 Hartrees.
 Leave Link  301 at Wed Oct 11 11:49:32 2023, MaxMem=  6710886400 cpu:               1.1 elap:               0.1
 (Enter /data0/home/software/g16/l302.exe)
 NPDir=0 NMtPBC=     1 NCelOv=     1 NCel=       1 NClECP=     1 NCelD=      1
         NCelK=      1 NCelE2=     1 NClLst=     1 CellRange=     0.0.
 One-electron integrals computed using PRISM.
 One-electron integral symmetry used in STVInt
 NBasis=   159 RedAO= T EigKep=  5.13D-05  NBF=   159
 NBsUse=   159 1.00D-06 EigRej= -1.00D+00 NBFU=   159
 Precomputing XC quadrature grid using
 IXCGrd= 4 IRadAn=           5 IRanWt=          -1 IRanGd=           0 AccXCQ= 0.00D+00.
 Generated NRdTot=       0 NPtTot=           0 NUsed=           0 NTot=          32
 NSgBfM=   169   169   169   169   169 MxSgAt=     9 MxSgA2=     9.
 Leave Link  302 at Wed Oct 11 11:49:33 2023, MaxMem=  6710886400 cpu:               2.9 elap:               0.1
 (Enter /data0/home/software/g16/l303.exe)
 DipDrv:  MaxL=1.
 Leave Link  303 at Wed Oct 11 11:49:33 2023, MaxMem=  6710886400 cpu:               0.5 elap:               0.0
 (Enter /data0/home/software/g16/l401.exe)
 Initial guess from the checkpoint file:  "/data0/home/software/g16/scratch/Gau-2483292.chk"
 B after Tr=    -0.000000   -0.000000   -0.000000
         Rot=    0.999988    0.000001   -0.000000    0.004965 Ang=   0.57 deg.
 Guess basis will be translated and rotated to current coordinates.
 JPrj=2 DoOrth=T DoCkMO=T.
 Leave Link  401 at Wed Oct 11 11:49:33 2023, MaxMem=  6710886400 cpu:               2.2 elap:               0.1
 (Enter /data0/home/software/g16/l502.exe)
 Keep R1 ints in memory in canonical form, NReq=104803557.
 FoFCou: FMM=F IPFlag=           0 FMFlag=           0 FMFlg1=           0
         NFxFlg=           0 DoJE=F BraDBF=F KetDBF=F FulRan=T
         wScrn=  0.000000 ICntrl=       600 IOpCl=  0 I1Cent=           0 NGrid=           0
         NMat0=    1 NMatS0=  12720 NMatT0=    0 NMatD0=    1 NMtDS0=    0 NMtDT0=    0
 Symmetry not used in FoFCou.
 Two-electron integral symmetry not used.
 Closed shell SCF:
 Using DIIS extrapolation, IDIIS=  1040.
 NGot=  6710886400 LenX=  6629918005 LenY=  6629889003
 Requested convergence on RMS density matrix=1.00D-08 within 128 cycles.
 Requested convergence on MAX density matrix=1.00D-06.
 Requested convergence on             energy=1.00D-06.
 No special actions if energy rises.

 Cycle   1  Pass 1  IDiag  1:
 E= -226.299062238123    
 DIIS: error= 1.29D-04 at cycle   1 NSaved=   1.
 NSaved= 1 IEnMin= 1 EnMin= -226.299062238123     IErMin= 1 ErrMin= 1.29D-04
 ErrMax= 1.29D-04  0.00D+00 EMaxC= 1.00D-01 BMatC= 3.27D-06 BMatP= 3.27D-06
 IDIUse=3 WtCom= 9.99D-01 WtEn= 1.29D-03
 Coeff-Com:  0.100D+01
 Coeff-En:   0.100D+01
 Coeff:      0.100D+01
 Gap=     0.495 Goal=   None    Shift=    0.000
 RMSDP=2.11D-05 MaxDP=4.58D-04              OVMax= 7.29D-04

 Cycle   2  Pass 1  IDiag  1:
 E= -226.299064963010     Delta-E=       -0.000002724887 Rises=F Damp=F
 DIIS: error= 7.96D-05 at cycle   2 NSaved=   2.
 NSaved= 2 IEnMin= 2 EnMin= -226.299064963010     IErMin= 2 ErrMin= 7.96D-05
 ErrMax= 7.96D-05  0.00D+00 EMaxC= 1.00D-01 BMatC= 6.77D-07 BMatP= 3.27D-06
 IDIUse=1 WtCom= 1.00D+00 WtEn= 0.00D+00
 Coeff-Com:  0.222D+00 0.778D+00
 Coeff:      0.222D+00 0.778D+00
 Gap=     0.232 Goal=   None    Shift=    0.000
 RMSDP=1.15D-05 MaxDP=3.98D-04 DE=-2.72D-06 OVMax= 5.38D-04

 Cycle   3  Pass 1  IDiag  1:
 E= -226.299064790168     Delta-E=        0.000000172842 Rises=F Damp=F
 DIIS: error= 9.22D-05 at cycle   3 NSaved=   3.
 NSaved= 3 IEnMin= 2 EnMin= -226.299064963010     IErMin= 2 ErrMin= 7.96D-05
 ErrMax= 9.22D-05  0.00D+00 EMaxC= 1.00D-01 BMatC= 8.40D-07 BMatP= 6.77D-07
 IDIUse=1 WtCom= 1.00D+00 WtEn= 0.00D+00
 Coeff-Com: -0.720D-03 0.528D+00 0.473D+00
 Coeff:     -0.720D-03 0.528D+00 0.473D+00
 Gap=     0.232 Goal=   None    Shift=    0.000
 RMSDP=6.96D-06 MaxDP=2.18D-04 DE= 1.73D-07 OVMax= 3.64D-04

 Cycle   4  Pass 1  IDiag  1:
 E= -226.299065478741     Delta-E=       -0.000000688573 Rises=F Damp=F
 DIIS: error= 2.18D-05 at cycle   4 NSaved=   4.
 NSaved= 4 IEnMin= 4 EnMin= -226.299065478741     IErMin= 4 ErrMin= 2.18D-05
 ErrMax= 2.18D-05  0.00D+00 EMaxC= 1.00D-01 BMatC= 3.82D-08 BMatP= 6.77D-07
 IDIUse=1 WtCom= 1.00D+00 WtEn= 0.00D+00
 Coeff-Com: -0.104D-01 0.279D+00 0.290D+00 0.442D+00
 Coeff:     -0.104D-01 0.279D+00 0.290D+00 0.442D+00
 Gap=     0.232 Goal=   None    Shift=    0.000
 RMSDP=1.02D-06 MaxDP=2.48D-05 DE=-6.89D-07 OVMax= 7.29D-05

 Cycle   5  Pass 1  IDiag  1:
 E= -226.299065510582     Delta-E=       -0.000000031841 Rises=F Damp=F
 DIIS: error= 5.19D-06 at cycle   5 NSaved=   5.
 NSaved= 5 IEnMin= 5 EnMin= -226.299065510582     IErMin= 5 ErrMin= 5.19D-06
 ErrMax= 5.19D-06  0.00D+00 EMaxC= 1.00D-01 BMatC= 2.08D-09 BMatP= 3.82D-08
 IDIUse=1 WtCom= 1.00D+00 WtEn= 0.00D+00
 Coeff-Com: -0.515D-02 0.744D-01 0.965D-01 0.232D+00 0.602D+00
 Coeff:     -0.515D-02 0.744D-01 0.965D-01 0.232D+00 0.602D+00
 Gap=     0.232 Goal=   None    Shift=    0.000
 RMSDP=2.12D-07 MaxDP=7.18D-06 DE=-3.18D-08 OVMax= 1.67D-05

 Cycle   6  Pass 1  IDiag  1:
 E= -226.299065512198     Delta-E=       -0.000000001616 Rises=F Damp=F
 DIIS: error= 1.19D-06 at cycle   6 NSaved=   6.
 NSaved= 6 IEnMin= 6 EnMin= -226.299065512198     IErMin= 6 ErrMin= 1.19D-06
 ErrMax= 1.19D-06  0.00D+00 EMaxC= 1.00D-01 BMatC= 2.15D-10 BMatP= 2.08D-09
 IDIUse=1 WtCom= 1.00D+00 WtEn= 0.00D+00
 Coeff-Com: -0.146D-02 0.114D-01 0.239D-01 0.808D-01 0.325D+00 0.560D+00
 Coeff:     -0.146D-02 0.114D-01 0.239D-01 0.808D-01 0.325D+00 0.560D+00
 Gap=     0.232 Goal=   None    Shift=    0.000
 RMSDP=8.76D-08 MaxDP=2.09D-06 DE=-1.62D-09 OVMax= 5.49D-06

 Cycle   7  Pass 1  IDiag  1:
 E= -226.299065512406     Delta-E=       -0.000000000208 Rises=F Damp=F
 DIIS: error= 1.37D-07 at cycle   7 NSaved=   7.
 NSaved= 7 IEnMin= 7 EnMin= -226.299065512406     IErMin= 7 ErrMin= 1.37D-07
 ErrMax= 1.37D-07  0.00D+00 EMaxC= 1.00D-01 BMatC= 3.93D-12 BMatP= 2.15D-10
 IDIUse=1 WtCom= 1.00D+00 WtEn= 0.00D+00
 Coeff-Com: -0.689D-04-0.252D-02-0.728D-03 0.411D-02 0.449D-01 0.162D+00
 Coeff-Com:  0.792D+00
 Coeff:     -0.689D-04-0.252D-02-0.728D-03 0.411D-02 0.449D-01 0.162D+00
 Coeff:      0.792D+00
 Gap=     0.232 Goal=   None    Shift=    0.000
 RMSDP=1.48D-08 MaxDP=4.30D-07 DE=-2.08D-10 OVMax= 5.18D-07

 Cycle   8  Pass 1  IDiag  1:
 E= -226.299065512411     Delta-E=       -0.000000000005 Rises=F Damp=F
 DIIS: error= 4.93D-08 at cycle   8 NSaved=   8.
 NSaved= 8 IEnMin= 8 EnMin= -226.299065512411     IErMin= 8 ErrMin= 4.93D-08
 ErrMax= 4.93D-08  0.00D+00 EMaxC= 1.00D-01 BMatC= 4.71D-13 BMatP= 3.93D-12
 IDIUse=1 WtCom= 1.00D+00 WtEn= 0.00D+00
 Coeff-Com:  0.524D-05-0.121D-02-0.841D-03-0.111D-03 0.114D-01 0.589D-01
 Coeff-Com:  0.364D+00 0.568D+00
 Coeff:      0.524D-05-0.121D-02-0.841D-03-0.111D-03 0.114D-01 0.589D-01
 Coeff:      0.364D+00 0.568D+00
 Gap=     0.232 Goal=   None    Shift=    0.000
 RMSDP=3.75D-09 MaxDP=1.33D-07 DE=-4.77D-12 OVMax= 4.18D-07

 SCF Done:  E(RB3LYP) =  -226.299065512     A.U. after    8 cycles
            NFock=  8  Conv=0.37D-08     -V/T= 2.0040
 KE= 2.253899675724D+02 PE=-8.536807175577D+02 EE= 2.386443144103D+02
 Leave Link  502 at Wed Oct 11 11:49:36 2023, MaxMem=  6710886400 cpu:              49.3 elap:               3.2
 (Enter /data0/home/software/g16/l701.exe)
 ... and contract with generalized density number  0.
 Compute integral first derivatives.
 R6Disp: Adding Grimme-D3(BJ) dispersion energy 1st derivatives to the gradient.
 Leave Link  701 at Wed Oct 11 11:49:36 2023, MaxMem=  6710886400 cpu:               2.5 elap:               0.1
 (Enter /data0/home/software/g16/l702.exe)
 L702 exits ... SP integral derivatives will be done elsewhere.
 Leave Link  702 at Wed Oct 11 11:49:36 2023, MaxMem=  6710886400 cpu:               0.4 elap:               0.0
 (Enter /data0/home/software/g16/l703.exe)
 Integral derivatives from FoFJK, PRISM(SPDF).
 Compute integral first derivatives, UseDBF=F ICtDFT=           0.
 Calling FoFJK, ICntrl=      2127 FMM=F ISym2X=0 I1Cent= 0 IOpClX= 0 NMat=1 NMatS=1 NMatT=0.
 FoFJK:  IHMeth= 1 ICntrl=    2127 DoSepK=F KAlg= 0 I1Cent=           0 FoldK=F
 IRaf=         0 NMat=       1 IRICut=       1 DoRegI=T DoRafI=F ISym2E= 0 IDoP0=0 IntGTp=1.
 FoFCou: FMM=F IPFlag=           0 FMFlag=      100000 FMFlg1=         800
         NFxFlg=           0 DoJE=F BraDBF=F KetDBF=F FulRan=T
         wScrn=  0.000000 ICntrl=      2127 IOpCl=  0 I1Cent=           0 NGrid=           0
         NMat0=    1 NMatS0=      1 NMatT0=    0 NMatD0=    1 NMtDS0=    0 NMtDT0=    0
 Symmetry not used in FoFCou.
 Leave Link  703 at Wed Oct 11 11:49:37 2023, MaxMem=  6710886400 cpu:              23.4 elap:               1.0
 (Enter /data0/home/software/g16/l716.exe)
 Dipole        =-5.85747355D-01 1.36494684D+00 3.19262883D-05
 ***** Axes restored to original set *****
 -------------------------------------------------------------------
 Center     Atomic                   Forces (Hartrees/Bohr)
 Number     Number              X              Y              Z
 -------------------------------------------------------------------
      1        6          -0.000080069   -0.000093241   -0.000009405
      2        6          -0.000398792    0.000180362    0.000006626
      3        6           0.000589588    0.000103250   -0.000005269
      4        7          -0.000032539    0.000219821    0.000009073
      5        1           0.000040121    0.000102965    0.000000407
      6        1          -0.000091658    0.000072521   -0.000000592
      7        1          -0.000094159   -0.000072917    0.000000695
      8        1           0.000075299    0.000002894    0.000000053
      9        7          -0.000007792   -0.000515654   -0.000001589
 -------------------------------------------------------------------
 Cartesian Forces:  Max     0.000589588 RMS     0.000185219
 Leave Link  716 at Wed Oct 11 11:49:37 2023, MaxMem=  6710886400 cpu:               0.4 elap:               0.0
 (Enter /data0/home/software/g16/l103.exe)

 GradGradGradGradGradGradGradGradGradGradGradGradGradGradGradGradGradGrad
 Berny optimization.
 Using GEDIIS/GDIIS optimizer.
 FormGI is forming the generalized inverse of G from B-inverse, IUseBI=4.
 Internal  Forces:  Max     0.000453111 RMS     0.000150298
 Search for a local minimum.
 Step number   2 out of a maximum of   48
 All quantities printed in internal units (Hartrees-Bohrs-Radians)
 RMS Force = .15030D-03 SwitMx=.10000D-02 MixMth= 2
 Mixed Optimization -- En-DIIS/RFO-DIIS
 Swapping is turned off.
 Update second derivatives using D2CorX and points    1    2
 DE= -4.33D-06 DEPred=-6.94D-06 R= 6.23D-01
 TightC=F SS=  1.41D+00  RLast= 6.87D-03 DXNew= 5.0454D-01 2.0618D-02
 Trust test= 6.23D-01 RLast= 6.87D-03 DXMaxT set to 3.00D-01
 ITU=  1  0
     Eigenvalues ---    0.02075   0.02194   0.02231   0.02362   0.02397
     Eigenvalues ---    0.02484   0.15362   0.16000   0.16000   0.16023
     Eigenvalues ---    0.22021   0.31578   0.35557   0.36189   0.36534
     Eigenvalues ---    0.43814   0.46330   0.46790   0.49868   0.53592
     Eigenvalues ---    0.62412
 En-DIIS/RFO-DIIS/Sim-DIIS IScMMF=       -3 using points:     2    1
 RFO step:  Lambda=-2.21223234D-06.
 NNeg= 0 NGDIIS= 2 SimSw=  2.50D-03 Rises=F DC= -4.33D-06 SmlDif=  1.00D-05
 NRisDI= 0 DoIntr=F SqrtH=F CThrHd= 10.0 CDAdj=  3.0
 RMS Error=  0.4123650891D-03 NUsed= 2 OKEnD=F EnDIS=F
 InvSVX:  RCond= 5.31D-05 Info=           0 Equed=N FErr=  1.21D-15 BErr=  4.43D-17
 DidBck=T Rises=F RFO-DIIS coefs:    0.74010    0.25990
 Iteration  1 RMS(Cart)=  0.00050129 RMS(Int)=  0.00000012
 Iteration  2 RMS(Cart)=  0.00000013 RMS(Int)=  0.00000002
 ITry= 1 IFail=0 DXMaxC= 1.32D-03 DCOld= 1.00D+10 DXMaxT= 3.00D-01 DXLimC= 3.00D+00 Rises=F
 Variable       Old X    -DE/DX   Delta X   Delta X   Delta X     New X
                                 (Linear)    (Quad)   (Total)
    R1        2.58518   0.00005  -0.00011   0.00019   0.00009   2.58526
    R2        2.60459  -0.00035  -0.00050   0.00010  -0.00040   2.60418
    R3        2.03347   0.00002   0.00018  -0.00017   0.00001   2.03348
    R4        2.03671  -0.00007   0.00013  -0.00030  -0.00017   2.03654
    R5        2.60246  -0.00009  -0.00053   0.00049  -0.00003   2.60243
    R6        2.57832   0.00012  -0.00017   0.00038   0.00021   2.57853
    R7        2.03816  -0.00007   0.00015  -0.00033  -0.00017   2.03798
    R8        2.47858  -0.00012  -0.00034   0.00028  -0.00007   2.47852
    R9        1.90204   0.00005   0.00012  -0.00007   0.00005   1.90209
    A1        1.83617  -0.00004  -0.00016   0.00006  -0.00010   1.83606
    A2        2.31149   0.00013  -0.00009   0.00071   0.00061   2.31211
    A3        2.13553  -0.00010   0.00025  -0.00076  -0.00051   2.13502
    A4        2.23385  -0.00005  -0.00034   0.00040   0.00006   2.23391
    A5        1.92691   0.00029   0.00060   0.00019   0.00079   1.92770
    A6        2.12243  -0.00025  -0.00026  -0.00059  -0.00085   2.12157
    A7        2.13901  -0.00017  -0.00030  -0.00015  -0.00044   2.13857
    A8        1.94314   0.00039   0.00076   0.00032   0.00108   1.94422
    A9        2.20103  -0.00022  -0.00046  -0.00018  -0.00064   2.20040
   A10        1.87341  -0.00019  -0.00039  -0.00017  -0.00056   1.87285
   A11        2.20391   0.00000   0.00026  -0.00042  -0.00016   2.20375
   A12        2.20587   0.00019   0.00013   0.00058   0.00072   2.20658
   A13        1.84516  -0.00045  -0.00081  -0.00041  -0.00122   1.84394
    D1        3.14155   0.00000   0.00001   0.00005   0.00006  -3.14157
    D2       -0.00008   0.00000   0.00003   0.00010   0.00013   0.00005
    D3        0.00003  -0.00000  -0.00001  -0.00003  -0.00003  -0.00001
    D4        3.14159   0.00000   0.00001   0.00003   0.00004  -3.14156
    D5        0.00009  -0.00000  -0.00003  -0.00011  -0.00014  -0.00005
    D6        3.14155  -0.00000  -0.00002  -0.00003  -0.00005   3.14150
    D7       -3.14157  -0.00000  -0.00001  -0.00004  -0.00006   3.14156
    D8       -0.00010   0.00000  -0.00000   0.00003   0.00003  -0.00007
    D9        0.00004  -0.00000  -0.00001  -0.00005  -0.00007  -0.00003
   D10       -3.14159  -0.00000  -0.00000  -0.00000  -0.00000  -3.14159
   D11        3.14156   0.00000   0.00001   0.00005   0.00006  -3.14157
   D12        0.00009  -0.00000   0.00000  -0.00003  -0.00003   0.00007
   D13       -0.00007   0.00000   0.00002   0.00008   0.00011   0.00004
   D14       -3.14153   0.00000   0.00001   0.00001   0.00002  -3.14151
   D15        0.00002  -0.00000  -0.00000  -0.00002  -0.00003  -0.00000
   D16        3.14158   0.00000   0.00001   0.00002   0.00003  -3.14158
         Item               Value     Threshold  Converged?
 Maximum Force            0.000453     0.000450     NO 
 RMS     Force            0.000150     0.000300     YES
 Maximum Displacement     0.001321     0.001800     YES
 RMS     Displacement     0.000501     0.001200     YES
 Predicted change in Energy=-1.106118D-06
 Lowest energy point so far.  Saving SCF results.
 GradGradGradGradGradGradGradGradGradGradGradGradGradGradGradGradGradGrad

 Leave Link  103 at Wed Oct 11 11:49:37 2023, MaxMem=  6710886400 cpu:               0.3 elap:               0.0
 (Enter /data0/home/software/g16/l202.exe)
                          Input orientation:                          
 ---------------------------------------------------------------------
 Center     Atomic      Atomic             Coordinates (Angstroms)
 Number     Number       Type             X           Y           Z
 ---------------------------------------------------------------------
      1          6           0        0.634483    0.966935   -0.000076
      2          6           0        1.130728   -0.307951   -0.000053
      3          6           0       -1.001761   -0.517120    0.000066
      4          7           0       -0.735866    0.821221    0.000047
      5          1           0       -1.413737    1.565276    0.000143
      6          1           0        1.110547    1.931968   -0.000145
      7          1           0        2.162828   -0.618095   -0.000109
      8          1           0       -2.006588   -0.908768    0.000132
      9          7           0        0.102778   -1.224383    0.000010
 ---------------------------------------------------------------------
                    Distance matrix (angstroms):
                    1          2          3          4          5
     1  C    0.000000
     2  C    1.368062   0.000000
     3  C    2.209008   2.142724   0.000000
     4  N    1.378075   2.181560   1.364499   0.000000
     5  H    2.133827   3.159634   2.122757   1.006542   0.000000
     6  H    1.076070   2.240010   3.234174   2.154762   2.550779
     7  H    2.201853   1.077691   3.166200   3.236365   4.190337
     8  H    3.239370   3.194329   1.078455   2.146531   2.544084
     9  N    2.254902   1.377145   1.311574   2.210841   3.175218
                    6          7          8          9
     6  H    0.000000
     7  H    2.758644   0.000000
     8  H    4.217382   4.179536   0.000000
     9  N    3.313329   2.147415   2.132847   0.000000
 Stoichiometry    C3H4N2
 Framework group  C1[X(C3H4N2)]
 Deg. of freedom    21
 Full point group                 C1      NOp   1
 RotChk:  IX=0 Diff= 6.36D-03
 Largest Abelian subgroup         C1      NOp   1
 Largest concise Abelian subgroup C1      NOp   1
                         Standard orientation:                         
 ---------------------------------------------------------------------
 Center     Atomic      Atomic             Coordinates (Angstroms)
 Number     Number       Type             X           Y           Z
 ---------------------------------------------------------------------
      1          6           0        0.639669    0.963489   -0.000077
      2          6           0        1.128979   -0.314075   -0.000054
      3          6           0       -1.004616   -0.511653    0.000065
      4          7           0       -0.731452    0.825224    0.000046
      5          1           0       -1.405269    1.572951    0.000142
      6          1           0        1.120970    1.925921   -0.000146
      7          1           0        2.159378   -0.629822   -0.000110
      8          1           0       -2.011556   -0.897834    0.000131
      9          7           0        0.096064   -1.224907    0.000009
 ---------------------------------------------------------------------
 Rotational constants (GHZ):           9.7428563           9.4466504           4.7962336
 Leave Link  202 at Wed Oct 11 11:49:37 2023, MaxMem=  6710886400 cpu:               0.1 elap:               0.0
 (Enter /data0/home/software/g16/l301.exe)
 Standard basis: 6-311+G(2d,p) (5D, 7F)
 Ernie: Thresh=  0.10000D-02 Tol=  0.10000D-05 Strict=F.
 There are   169 symmetry adapted cartesian basis functions of A   symmetry.
 There are   159 symmetry adapted basis functions of A   symmetry.
   159 basis functions,   242 primitive gaussians,   169 cartesian basis functions
    18 alpha electrons       18 beta electrons
       nuclear repulsion energy       163.3622288312 Hartrees.
 IExCor=  402 DFT=T Ex+Corr=B3LYP ExCW=0 ScaHFX=  0.200000
 ScaDFX=  0.800000  0.720000  1.000000  0.810000 ScalE2=  1.000000  1.000000
 IRadAn=      5 IRanWt=     -1 IRanGd=            0 ICorTp=0 IEmpDi=141
 NAtoms=    9 NActive=    9 NUniq=    9 SFac= 1.00D+00 NAtFMM=   60 NAOKFM=F Big=F
 Integral buffers will be    131072 words long.
 Raffenetti 2 integral format.
 Two-electron integral symmetry is turned on.
 R6Disp:  Grimme-D3(BJ) Dispersion energy=       -0.0113489386 Hartrees.
 Nuclear repulsion after empirical dispersion term =      163.3508798927 Hartrees.
 Leave Link  301 at Wed Oct 11 11:49:37 2023, MaxMem=  6710886400 cpu:               1.1 elap:               0.1
 (Enter /data0/home/software/g16/l302.exe)
 NPDir=0 NMtPBC=     1 NCelOv=     1 NCel=       1 NClECP=     1 NCelD=      1
         NCelK=      1 NCelE2=     1 NClLst=     1 CellRange=     0.0.
 One-electron integrals computed using PRISM.
 One-electron integral symmetry used in STVInt
 NBasis=   159 RedAO= T EigKep=  5.13D-05  NBF=   159
 NBsUse=   159 1.00D-06 EigRej= -1.00D+00 NBFU=   159
 Precomputing XC quadrature grid using
 IXCGrd= 4 IRadAn=           5 IRanWt=          -1 IRanGd=           0 AccXCQ= 0.00D+00.
 Generated NRdTot=       0 NPtTot=           0 NUsed=           0 NTot=          32
 NSgBfM=   169   169   169   169   169 MxSgAt=     9 MxSgA2=     9.
 Leave Link  302 at Wed Oct 11 11:49:37 2023, MaxMem=  6710886400 cpu:               2.9 elap:               0.1
 (Enter /data0/home/software/g16/l303.exe)
 DipDrv:  MaxL=1.
 Leave Link  303 at Wed Oct 11 11:49:37 2023, MaxMem=  6710886400 cpu:               0.5 elap:               0.0
 (Enter /data0/home/software/g16/l401.exe)
 Initial guess from the checkpoint file:  "/data0/home/software/g16/scratch/Gau-2483292.chk"
 B after Tr=    -0.000000   -0.000000    0.000000
         Rot=    0.999997   -0.000002   -0.000001   -0.002253 Ang=  -0.26 deg.
 Guess basis will be translated and rotated to current coordinates.
 JPrj=2 DoOrth=T DoCkMO=T.
 Leave Link  401 at Wed Oct 11 11:49:38 2023, MaxMem=  6710886400 cpu:               2.2 elap:               0.1
 (Enter /data0/home/software/g16/l502.exe)
 Keep R1 ints in memory in canonical form, NReq=104803557.
 FoFCou: FMM=F IPFlag=           0 FMFlag=           0 FMFlg1=           0
         NFxFlg=           0 DoJE=F BraDBF=F KetDBF=F FulRan=T
         wScrn=  0.000000 ICntrl=       600 IOpCl=  0 I1Cent=           0 NGrid=           0
         NMat0=    1 NMatS0=  12720 NMatT0=    0 NMatD0=    1 NMtDS0=    0 NMtDT0=    0
 Symmetry not used in FoFCou.
 Two-electron integral symmetry not used.
 Closed shell SCF:
 Using DIIS extrapolation, IDIIS=  1040.
 NGot=  6710886400 LenX=  6629918005 LenY=  6629889003
 Requested convergence on RMS density matrix=1.00D-08 within 128 cycles.
 Requested convergence on MAX density matrix=1.00D-06.
 Requested convergence on             energy=1.00D-06.
 No special actions if energy rises.

 Cycle   1  Pass 1  IDiag  1:
 E= -226.299066339888    
 DIIS: error= 3.84D-05 at cycle   1 NSaved=   1.
 NSaved= 1 IEnMin= 1 EnMin= -226.299066339888     IErMin= 1 ErrMin= 3.84D-05
 ErrMax= 3.84D-05  0.00D+00 EMaxC= 1.00D-01 BMatC= 2.89D-07 BMatP= 2.89D-07
 IDIUse=1 WtCom= 1.00D+00 WtEn= 0.00D+00
 Coeff-Com:  0.100D+01
 Coeff:      0.100D+01
 Gap=     0.495 Goal=   None    Shift=    0.000
 RMSDP=7.06D-06 MaxDP=1.35D-04              OVMax= 2.40D-04

 Cycle   2  Pass 1  IDiag  1:
 E= -226.299066617758     Delta-E=       -0.000000277870 Rises=F Damp=F
 DIIS: error= 1.40D-05 at cycle   2 NSaved=   2.
 NSaved= 2 IEnMin= 2 EnMin= -226.299066617758     IErMin= 2 ErrMin= 1.40D-05
 ErrMax= 1.40D-05  0.00D+00 EMaxC= 1.00D-01 BMatC= 2.41D-08 BMatP= 2.89D-07
 IDIUse=1 WtCom= 1.00D+00 WtEn= 0.00D+00
 Coeff-Com:  0.911D-01 0.909D+00
 Coeff:      0.911D-01 0.909D+00
 Gap=     0.232 Goal=   None    Shift=    0.000
 RMSDP=2.69D-06 MaxDP=9.00D-05 DE=-2.78D-07 OVMax= 1.26D-04

 Cycle   3  Pass 1  IDiag  1:
 E= -226.299066591652     Delta-E=        0.000000026106 Rises=F Damp=F
 DIIS: error= 2.33D-05 at cycle   3 NSaved=   3.
 NSaved= 3 IEnMin= 2 EnMin= -226.299066617758     IErMin= 2 ErrMin= 1.40D-05
 ErrMax= 2.33D-05  0.00D+00 EMaxC= 1.00D-01 BMatC= 5.40D-08 BMatP= 2.41D-08
 IDIUse=1 WtCom= 1.00D+00 WtEn= 0.00D+00
 Coeff-Com: -0.873D-02 0.607D+00 0.402D+00
 Coeff:     -0.873D-02 0.607D+00 0.402D+00
 Gap=     0.232 Goal=   None    Shift=    0.000
 RMSDP=1.64D-06 MaxDP=5.04D-05 DE= 2.61D-08 OVMax= 9.03D-05

 Cycle   4  Pass 1  IDiag  1:
 E= -226.299066636194     Delta-E=       -0.000000044542 Rises=F Damp=F
 DIIS: error= 3.80D-06 at cycle   4 NSaved=   4.
 NSaved= 4 IEnMin= 4 EnMin= -226.299066636194     IErMin= 4 ErrMin= 3.80D-06
 ErrMax= 3.80D-06  0.00D+00 EMaxC= 1.00D-01 BMatC= 1.29D-09 BMatP= 2.41D-08
 IDIUse=1 WtCom= 1.00D+00 WtEn= 0.00D+00
 Coeff-Com: -0.864D-02 0.250D+00 0.211D+00 0.547D+00
 Coeff:     -0.864D-02 0.250D+00 0.211D+00 0.547D+00
 Gap=     0.232 Goal=   None    Shift=    0.000
 RMSDP=2.00D-07 MaxDP=5.67D-06 DE=-4.45D-08 OVMax= 1.56D-05

 Cycle   5  Pass 1  IDiag  1:
 E= -226.299066637093     Delta-E=       -0.000000000899 Rises=F Damp=F
 DIIS: error= 1.56D-06 at cycle   5 NSaved=   5.
 NSaved= 5 IEnMin= 5 EnMin= -226.299066637093     IErMin= 5 ErrMin= 1.56D-06
 ErrMax= 1.56D-06  0.00D+00 EMaxC= 1.00D-01 BMatC= 2.44D-10 BMatP= 1.29D-09
 IDIUse=1 WtCom= 1.00D+00 WtEn= 0.00D+00
 Coeff-Com: -0.425D-02 0.675D-01 0.791D-01 0.352D+00 0.506D+00
 Coeff:     -0.425D-02 0.675D-01 0.791D-01 0.352D+00 0.506D+00
 Gap=     0.232 Goal=   None    Shift=    0.000
 RMSDP=6.55D-08 MaxDP=2.00D-06 DE=-8.99D-10 OVMax= 6.01D-06

 Cycle   6  Pass 1  IDiag  1:
 E= -226.299066637315     Delta-E=       -0.000000000222 Rises=F Damp=F
 DIIS: error= 2.30D-07 at cycle   6 NSaved=   6.
 NSaved= 6 IEnMin= 6 EnMin= -226.299066637315     IErMin= 6 ErrMin= 2.30D-07
 ErrMax= 2.30D-07  0.00D+00 EMaxC= 1.00D-01 BMatC= 2.67D-12 BMatP= 2.44D-10
 IDIUse=1 WtCom= 1.00D+00 WtEn= 0.00D+00
 Coeff-Com: -0.777D-03 0.752D-02 0.147D-01 0.733D-01 0.151D+00 0.754D+00
 Coeff:     -0.777D-03 0.752D-02 0.147D-01 0.733D-01 0.151D+00 0.754D+00
 Gap=     0.232 Goal=   None    Shift=    0.000
 RMSDP=2.15D-08 MaxDP=7.08D-07 DE=-2.22D-10 OVMax= 1.17D-06

 Cycle   7  Pass 1  IDiag  1:
 E= -226.299066637314     Delta-E=        0.000000000001 Rises=F Damp=F
 DIIS: error= 6.30D-08 at cycle   7 NSaved=   7.
 NSaved= 7 IEnMin= 6 EnMin= -226.299066637315     IErMin= 7 ErrMin= 6.30D-08
 ErrMax= 6.30D-08  0.00D+00 EMaxC= 1.00D-01 BMatC= 7.66D-13 BMatP= 2.67D-12
 IDIUse=1 WtCom= 1.00D+00 WtEn= 0.00D+00
 Coeff-Com: -0.437D-04-0.281D-02 0.243D-03 0.750D-02 0.346D-01 0.415D+00
 Coeff-Com:  0.545D+00
 Coeff:     -0.437D-04-0.281D-02 0.243D-03 0.750D-02 0.346D-01 0.415D+00
 Coeff:      0.545D+00
 Gap=     0.232 Goal=   None    Shift=    0.000
 RMSDP=5.30D-09 MaxDP=1.64D-07 DE= 6.25D-13 OVMax= 3.43D-07

 SCF Done:  E(RB3LYP) =  -226.299066637     A.U. after    7 cycles
            NFock=  7  Conv=0.53D-08     -V/T= 2.0040
 KE= 2.253908426593D+02 PE=-8.536877803895D+02 EE= 2.386469912002D+02
 Leave Link  502 at Wed Oct 11 11:49:40 2023, MaxMem=  6710886400 cpu:              45.6 elap:               2.8
 (Enter /data0/home/software/g16/l701.exe)
 ... and contract with generalized density number  0.
 Compute integral first derivatives.
 R6Disp: Adding Grimme-D3(BJ) dispersion energy 1st derivatives to the gradient.
 Leave Link  701 at Wed Oct 11 11:49:41 2023, MaxMem=  6710886400 cpu:               2.7 elap:               0.1
 (Enter /data0/home/software/g16/l702.exe)
 L702 exits ... SP integral derivatives will be done elsewhere.
 Leave Link  702 at Wed Oct 11 11:49:41 2023, MaxMem=  6710886400 cpu:               0.4 elap:               0.0
 (Enter /data0/home/software/g16/l703.exe)
 Integral derivatives from FoFJK, PRISM(SPDF).
 Compute integral first derivatives, UseDBF=F ICtDFT=           0.
 Calling FoFJK, ICntrl=      2127 FMM=F ISym2X=0 I1Cent= 0 IOpClX= 0 NMat=1 NMatS=1 NMatT=0.
 FoFJK:  IHMeth= 1 ICntrl=    2127 DoSepK=F KAlg= 0 I1Cent=           0 FoldK=F
 IRaf=         0 NMat=       1 IRICut=       1 DoRegI=T DoRafI=F ISym2E= 0 IDoP0=0 IntGTp=1.
 FoFCou: FMM=F IPFlag=           0 FMFlag=      100000 FMFlg1=         800
         NFxFlg=           0 DoJE=F BraDBF=F KetDBF=F FulRan=T
         wScrn=  0.000000 ICntrl=      2127 IOpCl=  0 I1Cent=           0 NGrid=           0
         NMat0=    1 NMatS0=      1 NMatT0=    0 NMatD0=    1 NMtDS0=    0 NMtDT0=    0
 Symmetry not used in FoFCou.
 Leave Link  703 at Wed Oct 11 11:49:42 2023, MaxMem=  6710886400 cpu:              24.1 elap:               1.0
 (Enter /data0/home/software/g16/l716.exe)
 Dipole        =-5.92044240D-01 1.36282374D+00 4.83096022D-05
 ***** Axes restored to original set *****
 -------------------------------------------------------------------
 Center     Atomic                   Forces (Hartrees/Bohr)
 Number     Number              X              Y              Z
 -------------------------------------------------------------------
      1        6           0.000048891   -0.000105739    0.000006899
      2        6          -0.000013405    0.000133375   -0.000005815
      3        6           0.000062860    0.000011801    0.000003795
      4        7          -0.000019782   -0.000047620   -0.000005023
      5        1           0.000012053    0.000019902   -0.000002034
      6        1          -0.000019204    0.000028338    0.000001184
      7        1           0.000000605   -0.000027618   -0.000000609
      8        1          -0.000013427   -0.000008242    0.000000343
      9        7          -0.000058593   -0.000004197    0.000001259
 -------------------------------------------------------------------
 Cartesian Forces:  Max     0.000133375 RMS     0.000040640
 Leave Link  716 at Wed Oct 11 11:49:42 2023, MaxMem=  6710886400 cpu:               0.4 elap:               0.0
 (Enter /data0/home/software/g16/l103.exe)

 GradGradGradGradGradGradGradGradGradGradGradGradGradGradGradGradGradGrad
 Berny optimization.
 Using GEDIIS/GDIIS optimizer.
 FormGI is forming the generalized inverse of G from B-inverse, IUseBI=4.
 Internal  Forces:  Max     0.000081616 RMS     0.000020493
 Search for a local minimum.
 Step number   3 out of a maximum of   48
 All quantities printed in internal units (Hartrees-Bohrs-Radians)
 RMS Force = .20493D-04 SwitMx=.10000D-02 MixMth= 2
 Mixed Optimization -- En-DIIS/RFO-DIIS
 Swapping is turned off.
 Update second derivatives using D2CorX and points    1    2    3
 DE= -1.12D-06 DEPred=-1.11D-06 R= 1.02D+00
 TightC=F SS=  1.41D+00  RLast= 2.54D-03 DXNew= 5.0454D-01 7.6260D-03
 Trust test= 1.02D+00 RLast= 2.54D-03 DXMaxT set to 3.00D-01
 ITU=  1  1  0
     Eigenvalues ---    0.02075   0.02197   0.02233   0.02362   0.02397
     Eigenvalues ---    0.02484   0.13894   0.16000   0.16001   0.16007
     Eigenvalues ---    0.22032   0.31506   0.36074   0.36188   0.36445
     Eigenvalues ---    0.43769   0.45933   0.46561   0.49972   0.57276
     Eigenvalues ---    0.61757
 En-DIIS/RFO-DIIS/Sim-DIIS IScMMF=       -3 using points:     3    2    1
 RFO step:  Lambda=-4.69650646D-08.
 NNeg= 0 NGDIIS= 3 SimSw=  2.50D-03 Rises=F DC= -1.12D-06 SmlDif=  1.00D-05
 NRisDI= 0 DoIntr=F SqrtH=F CThrHd= 10.0 CDAdj=  3.0
 RMS Error=  0.9990559021D-04 NUsed= 3 OKEnD=F EnDIS=F
 InvSVX:  RCond= 4.87D-07 Info=           0 Equed=N FErr=  1.81D-15 BErr=  9.04D-17
 DidBck=F Rises=F RFO-DIIS coefs:    1.13163   -0.10135   -0.03029
 Iteration  1 RMS(Cart)=  0.00011525 RMS(Int)=  0.00000002
 Iteration  2 RMS(Cart)=  0.00000001 RMS(Int)=  0.00000001
 ITry= 1 IFail=0 DXMaxC= 3.74D-04 DCOld= 1.00D+10 DXMaxT= 3.00D-01 DXLimC= 3.00D+00 Rises=F
 Variable       Old X    -DE/DX   Delta X   Delta X   Delta X     New X
                                 (Linear)    (Quad)   (Total)
    R1        2.58526  -0.00008   0.00002  -0.00019  -0.00017   2.58510
    R2        2.60418  -0.00000   0.00001  -0.00000   0.00000   2.60418
    R3        2.03348   0.00002  -0.00002   0.00006   0.00005   2.03352
    R4        2.03654   0.00001  -0.00004   0.00005   0.00002   2.03656
    R5        2.60243   0.00003   0.00006   0.00003   0.00009   2.60252
    R6        2.57853  -0.00003   0.00005  -0.00010  -0.00005   2.57848
    R7        2.03798   0.00002  -0.00004   0.00008   0.00004   2.03802
    R8        2.47852  -0.00005   0.00003  -0.00010  -0.00007   2.47844
    R9        1.90209   0.00001  -0.00001   0.00002   0.00001   1.90210
    A1        1.83606   0.00000   0.00001  -0.00000   0.00000   1.83607
    A2        2.31211   0.00003   0.00009   0.00014   0.00023   2.31234
    A3        2.13502  -0.00003  -0.00010  -0.00014  -0.00024   2.13478
    A4        2.23391   0.00003   0.00005   0.00015   0.00020   2.23411
    A5        1.92770  -0.00000   0.00003  -0.00003   0.00001   1.92771
    A6        2.12157  -0.00003  -0.00008  -0.00012  -0.00020   2.12137
    A7        2.13857   0.00000  -0.00002   0.00005   0.00002   2.13859
    A8        1.94422  -0.00000   0.00005  -0.00006  -0.00000   1.94421
    A9        2.20040  -0.00000  -0.00003   0.00001  -0.00002   2.20038
   A10        1.87285   0.00001  -0.00003   0.00004   0.00001   1.87287
   A11        2.20375  -0.00002  -0.00005  -0.00012  -0.00017   2.20358
   A12        2.20658   0.00002   0.00008   0.00008   0.00016   2.20674
   A13        1.84394  -0.00000  -0.00007   0.00005  -0.00002   1.84392
    D1       -3.14157  -0.00000   0.00001  -0.00008  -0.00008   3.14153
    D2        0.00005  -0.00000   0.00001  -0.00019  -0.00017  -0.00012
    D3       -0.00001   0.00000  -0.00000   0.00004   0.00004   0.00003
    D4       -3.14156  -0.00000   0.00000  -0.00006  -0.00006   3.14157
    D5       -0.00005   0.00000  -0.00002   0.00020   0.00018   0.00013
    D6        3.14150   0.00000  -0.00000   0.00011   0.00010  -3.14158
    D7        3.14156   0.00000  -0.00001   0.00009   0.00008  -3.14154
    D8       -0.00007  -0.00000   0.00000  -0.00000   0.00000  -0.00007
    D9       -0.00003   0.00000  -0.00001   0.00010   0.00009   0.00006
   D10       -3.14159   0.00000  -0.00000   0.00000   0.00000  -3.14159
   D11       -3.14157  -0.00000   0.00001  -0.00008  -0.00008   3.14154
   D12        0.00007   0.00000  -0.00000   0.00001   0.00000   0.00007
   D13        0.00004  -0.00000   0.00001  -0.00015  -0.00014  -0.00010
   D14       -3.14151  -0.00000   0.00000  -0.00006  -0.00006  -3.14157
   D15       -0.00000   0.00000  -0.00000   0.00003   0.00003   0.00003
   D16       -3.14158  -0.00000   0.00000  -0.00004  -0.00003   3.14157
         Item               Value     Threshold  Converged?
 Maximum Force            0.000082     0.000450     YES
 RMS     Force            0.000020     0.000300     YES
 Maximum Displacement     0.000374     0.001800     YES
 RMS     Displacement     0.000115     0.001200     YES
 Predicted change in Energy=-2.737540D-08
 Optimization completed.
    -- Stationary point found.
                           ----------------------------
                           !   Optimized Parameters   !
                           ! (Angstroms and Degrees)  !
 --------------------------                            --------------------------
 ! Name  Definition              Value          Derivative Info.                !
 --------------------------------------------------------------------------------
 ! R1    R(1,2)                  1.3681         -DE/DX =   -0.0001              !
 ! R2    R(1,4)                  1.3781         -DE/DX =    0.0                 !
 ! R3    R(1,6)                  1.0761         -DE/DX =    0.0                 !
 ! R4    R(2,7)                  1.0777         -DE/DX =    0.0                 !
[...]
     38  0.000000D+00  0.000000D+00  0.212499D-02  0.548612D-02 -0.216959D-02
               26            27            28            29            30 
     26  0.929062D-02
     27 -0.341485D-02  0.164258D-01
     28 -0.712104D-03  0.733456D-02  0.610054D-02
     29 -0.488093D-02  0.726289D-02  0.116508D-02  0.748514D-02
     30 -0.217819D-02 -0.182836D-02 -0.689459D-04  0.138733D-02  0.314675D-02
     31 -0.891076D-02  0.578362D-02  0.514385D-02  0.658145D-04 -0.573957D-03
     32  0.612991D-03 -0.671855D-03  0.220002D-02 -0.436226D-02 -0.149039D-02
     33  0.313338D-02 -0.654119D-02 -0.371888D-03 -0.434143D-02  0.182788D-02
     34  0.424991D-03  0.256905D-02  0.864716D-03  0.176912D-02  0.647871D-04
     35 -0.210604D-02 -0.138530D-01 -0.452899D-02 -0.773684D-02  0.158714D-02
     36 -0.481444D-02 -0.474272D-02 -0.329238D-02 -0.162629D-02 -0.175954D-03
     37  0.665679D-02  0.507116D-02 -0.297789D-03  0.473464D-02 -0.634315D-03
     38  0.119154D-02 -0.255575D-02 -0.463406D-02  0.119288D-02 -0.885432D-03
               31            32            33            34            35 
     31  0.192914D-01
     32  0.659821D-02  0.105122D-01
     33 -0.248826D-02  0.131835D-02  0.103425D-01
     34 -0.184715D-02 -0.155953D-02  0.416031D-02  0.586821D-02
     35  0.628335D-02  0.498756D-02  0.539691D-02 -0.394655D-02  0.189024D-01
     36  0.692445D-02  0.210967D-02 -0.785288D-03 -0.223866D-02  0.955896D-02
     37 -0.154754D-01 -0.704457D-02 -0.183434D-02  0.354583D-02 -0.154418D-01
     38 -0.632575D-02 -0.321722D-02 -0.699310D-02 -0.491044D-02 -0.135417D-02
               36            37            38 
     36  0.810559D-02
     37 -0.100616D-01  0.188326D-01
     38  0.728483D-03  0.463870D-02  0.105207D-01
 Leave Link  716 at Wed Oct 11 11:50:08 2023, MaxMem=  6710886400 cpu:               0.6 elap:               0.0
 (Enter /data0/home/software/g16/l103.exe)

 GradGradGradGradGradGradGradGradGradGradGradGradGradGradGradGradGradGrad
 Berny optimization.
 Red2BG is reusing G-inverse.
 Internal  Forces:  Max     0.000081524 RMS     0.000020491
 Search for a local minimum.
 Step number   1 out of a maximum of    2
 All quantities printed in internal units (Hartrees-Bohrs-Radians)
 Second derivative matrix not updated -- analytic derivatives used.
 ITU=  0
     Eigenvalues ---    0.00458   0.01071   0.01965   0.02637   0.05955
     Eigenvalues ---    0.06237   0.09755   0.10427   0.10875   0.11690
     Eigenvalues ---    0.22844   0.24294   0.33572   0.36769   0.37113
     Eigenvalues ---    0.37496   0.40186   0.44067   0.46344   0.47877
     Eigenvalues ---    0.57576
 Angle between quadratic step and forces=  38.58 degrees.
 Linear search not attempted -- first point.
 Iteration  1 RMS(Cart)=  0.00013784 RMS(Int)=  0.00000002
 Iteration  2 RMS(Cart)=  0.00000002 RMS(Int)=  0.00000000
 ITry= 1 IFail=0 DXMaxC= 5.08D-04 DCOld= 1.00D+10 DXMaxT= 3.00D-01 DXLimC= 3.00D+00 Rises=F
 Variable       Old X    -DE/DX   Delta X   Delta X   Delta X     New X
                                 (Linear)    (Quad)   (Total)
    R1        2.58526  -0.00008   0.00000  -0.00021  -0.00021   2.58505
    R2        2.60418  -0.00000   0.00000   0.00006   0.00006   2.60424
    R3        2.03348   0.00002   0.00000   0.00005   0.00005   2.03353
    R4        2.03654   0.00001   0.00000   0.00002   0.00002   2.03656
    R5        2.60243   0.00003   0.00000   0.00016   0.00016   2.60259
    R6        2.57853  -0.00003   0.00000  -0.00008  -0.00008   2.57845
    R7        2.03798   0.00002   0.00000   0.00005   0.00005   2.03803
    R8        2.47852  -0.00005   0.00000  -0.00010  -0.00010   2.47842
    R9        1.90209   0.00001   0.00000   0.00001   0.00001   1.90210
    A1        1.83606   0.00000   0.00000   0.00003   0.00003   1.83609
    A2        2.31211   0.00003   0.00000   0.00030   0.00030   2.31241
    A3        2.13502  -0.00003   0.00000  -0.00033  -0.00033   2.13468
    A4        2.23391   0.00003   0.00000   0.00030   0.00030   2.23421
    A5        1.92770  -0.00000   0.00000  -0.00002  -0.00002   1.92768
    A6        2.12157  -0.00003   0.00000  -0.00028  -0.00028   2.12130
    A7        2.13857   0.00000   0.00000   0.00002   0.00002   2.13860
    A8        1.94422  -0.00000   0.00000   0.00001   0.00001   1.94423
    A9        2.20040  -0.00000   0.00000  -0.00004  -0.00004   2.20036
   A10        1.87285   0.00001   0.00000  -0.00001  -0.00001   1.87285
   A11        2.20375  -0.00002   0.00000  -0.00023  -0.00023   2.20352
   A12        2.20658   0.00002   0.00000   0.00023   0.00023   2.20682
   A13        1.84394  -0.00000   0.00000  -0.00001  -0.00001   1.84393
    D1       -3.14157  -0.00000   0.00000  -0.00002  -0.00002   3.14159
    D2        0.00005  -0.00000   0.00000  -0.00005  -0.00005  -0.00000
    D3       -0.00001   0.00000   0.00000   0.00001   0.00001   0.00000
    D4       -3.14156  -0.00000   0.00000  -0.00003  -0.00003  -3.14159
    D5       -0.00005   0.00000   0.00000   0.00005   0.00005   0.00000
    D6        3.14150   0.00000   0.00000   0.00009   0.00009   3.14159
    D7        3.14156   0.00000   0.00000   0.00003   0.00003   3.14159
    D8       -0.00007  -0.00000   0.00000   0.00007   0.00007  -0.00000
    D9       -0.00003   0.00000   0.00000   0.00003   0.00003   0.00000
   D10       -3.14159   0.00000   0.00000  -0.00000  -0.00000  -3.14159
   D11       -3.14157  -0.00000   0.00000  -0.00003  -0.00003   3.14159
   D12        0.00007   0.00000   0.00000  -0.00007  -0.00007   0.00000
   D13        0.00004  -0.00000   0.00000  -0.00004  -0.00004  -0.00000
   D14       -3.14151  -0.00000   0.00000  -0.00008  -0.00008  -3.14159
   D15       -0.00000   0.00000   0.00000   0.00000   0.00000   0.00000
   D16       -3.14158  -0.00000   0.00000  -0.00001  -0.00001  -3.14159
         Item               Value     Threshold  Converged?
 Maximum Force            0.000082     0.000450     YES
 RMS     Force            0.000020     0.000300     YES
 Maximum Displacement     0.000508     0.001800     YES
 RMS     Displacement     0.000138     0.001200     YES
 Predicted change in Energy=-3.845605D-08
 Optimization completed.
    -- Stationary point found.
                           ----------------------------
                           !   Optimized Parameters   !
                           ! (Angstroms and Degrees)  !
 --------------------------                            --------------------------
 ! Name  Definition              Value          Derivative Info.                !
 --------------------------------------------------------------------------------
 ! R1    R(1,2)                  1.3681         -DE/DX =   -0.0001              !
 ! R2    R(1,4)                  1.3781         -DE/DX =    0.0                 !
 ! R3    R(1,6)                  1.0761         -DE/DX =    0.0                 !
 ! R4    R(2,7)                  1.0777         -DE/DX =    0.0                 !
 ! R5    R(2,9)                  1.3771         -DE/DX =    0.0                 !
 ! R6    R(3,4)                  1.3645         -DE/DX =    0.0                 !
 ! R7    R(3,8)                  1.0785         -DE/DX =    0.0                 !
 ! R8    R(3,9)                  1.3116         -DE/DX =    0.0                 !
 ! R9    R(4,5)                  1.0065         -DE/DX =    0.0                 !
 ! A1    A(2,1,4)              105.1987         -DE/DX =    0.0                 !
 ! A2    A(2,1,6)              132.474          -DE/DX =    0.0                 !
 ! A3    A(4,1,6)              122.3274         -DE/DX =    0.0                 !
 ! A4    A(1,2,7)              127.9937         -DE/DX =    0.0                 !
 ! A5    A(1,2,9)              110.4491         -DE/DX =    0.0                 !
 ! A6    A(7,2,9)              121.5572         -DE/DX =    0.0                 !
 ! A7    A(4,3,8)              122.5311         -DE/DX =    0.0                 !
 ! A8    A(4,3,9)              111.3955         -DE/DX =    0.0                 !
 ! A9    A(8,3,9)              126.0734         -DE/DX =    0.0                 !
 ! A10   A(1,4,3)              107.3066         -DE/DX =    0.0                 !
 ! A11   A(1,4,5)              126.2654         -DE/DX =    0.0                 !
 ! A12   A(3,4,5)              126.428          -DE/DX =    0.0                 !
 ! A13   A(2,9,3)              105.6502         -DE/DX =    0.0                 !
 ! D1    D(4,1,2,7)            180.0011         -DE/DX =    0.0                 !
 ! D2    D(4,1,2,9)              0.0031         -DE/DX =    0.0                 !
 ! D3    D(6,1,2,7)             -0.0003         -DE/DX =    0.0                 !
 ! D4    D(6,1,2,9)           -179.9983         -DE/DX =    0.0                 !
 ! D5    D(2,1,4,3)             -0.0031         -DE/DX =    0.0                 !
 ! D6    D(2,1,4,5)            179.9946         -DE/DX =    0.0                 !
 ! D7    D(6,1,4,3)            179.9981         -DE/DX =    0.0                 !
 ! D8    D(6,1,4,5)             -0.0042         -DE/DX =    0.0                 !
 ! D9    D(1,2,9,3)             -0.0018         -DE/DX =    0.0                 !
 ! D10   D(7,2,9,3)           -180.0            -DE/DX =    0.0                 !
 ! D11   D(8,3,4,1)            180.0014         -DE/DX =    0.0                 !
 ! D12   D(8,3,4,5)              0.0037         -DE/DX =    0.0                 !
 ! D13   D(9,3,4,1)              0.0022         -DE/DX =    0.0                 !
 ! D14   D(9,3,4,5)           -179.9955         -DE/DX =    0.0                 !
 ! D15   D(4,3,9,2)             -0.0002         -DE/DX =    0.0                 !
 ! D16   D(8,3,9,2)           -179.9995         -DE/DX =    0.0                 !
 --------------------------------------------------------------------------------
 GradGradGradGradGradGradGradGradGradGradGradGradGradGradGradGradGradGrad

 Leave Link  103 at Wed Oct 11 11:50:08 2023, MaxMem=  6710886400 cpu:               0.3 elap:               0.0
 (Enter /data0/home/software/g16/l9999.exe)

 ----------------------------------------------------------------------

 Electric dipole moment (input orientation):
 (Debye = 10**-18 statcoulomb cm , SI units = C m)
                  (au)            (Debye)         (10**-30 SI)
   Tot        0.148587D+01      0.377670D+01      0.125977D+02
   x         -0.599444D+00     -0.152363D+01     -0.508230D+01
   y          0.135959D+01      0.345572D+01      0.115271D+02
   z          0.484015D-04      0.123024D-03      0.410365D-03

 Dipole polarizability, Alpha (input orientation).
 (esu units = cm**3 , SI units = C**2 m**2 J**-1)
 Alpha(0;0):
               (au)            (10**-24 esu)      (10**-40 SI)
   iso        0.474123D+02      0.702578D+01      0.781723D+01
   aniso      0.222552D+02      0.329788D+01      0.366939D+01
   xx         0.550772D+02      0.816160D+01      0.908101D+01
   yx         0.108086D+01      0.160166D+00      0.178209D+00
   yy         0.545282D+02      0.808024D+01      0.899048D+01
   zx        -0.143013D-02     -0.211924D-03     -0.235797D-03
   zy        -0.484658D-03     -0.718189D-04     -0.799093D-04
   zz         0.326315D+02      0.483548D+01      0.538020D+01

 ----------------------------------------------------------------------

 Dipole orientation:
     6          1.67829518          0.74016167          1.18823391
     6          1.57415413          0.69410767         -1.39451980
     6         -1.94562917         -0.85797152         -0.13044798
     7         -0.59138443         -0.26076812          1.98099241
     1         -1.14480079         -0.50490416          3.78434215
     1          3.10462173          1.36922100          2.49395442
     1          2.99072996          1.31874524         -2.71763782
     1         -3.80858436         -1.67948433         -0.04160245
     7         -0.69145441         -0.30496250         -2.19545879

 Electric dipole moment (dipole orientation):
 (Debye = 10**-18 statcoulomb cm , SI units = C m)
                  (au)            (Debye)         (10**-30 SI)
   Tot        0.148587D+01      0.377670D+01      0.125977D+02
   x          0.000000D+00      0.000000D+00      0.000000D+00
   y          0.000000D+00      0.000000D+00      0.000000D+00
   z          0.148587D+01      0.377670D+01      0.125977D+02

 Dipole polarizability, Alpha (dipole orientation).
 (esu units = cm**3 , SI units = C**2 m**2 J**-1)
 Alpha(0;0):
               (au)            (10**-24 esu)      (10**-40 SI)
   iso        0.474123D+02      0.702578D+01      0.781723D+01
   aniso      0.222552D+02      0.329788D+01      0.366939D+01
   xx         0.520162D+02      0.770801D+01      0.857632D+01
   yx         0.854829D+01      0.126673D+01      0.140942D+01
   yy         0.364011D+02      0.539409D+01      0.600173D+01
   zx         0.481389D+00      0.713345D-01      0.793704D-01
   zy         0.212854D+00      0.315417D-01      0.350948D-01
   zz         0.538196D+02      0.797524D+01      0.887365D+01

 ----------------------------------------------------------------------
 1\1\GINC-LOCALHOST\Freq\RB3LYP\6-311+G(2d,p)\C3H4N2\WUHANYU\11-Oct-202
 3\0\\#P Geom=AllCheck Guess=TCheck SCRF=Check GenChk RB3LYP/6-311+G(2d
 ,p) Freq\\Title Card Required\\0,1\C,0.6344833545,0.9669348302,-0.0000
 757403\C,1.1307284668,-0.3079513055,-0.0000534146\C,-1.001761293,-0.51
 7119964,0.0000658298\N,-0.7358658844,0.8212209547,0.0000466449\H,-1.41
 37368643,1.5652760408,0.000142568\H,1.1105471828,1.9319681556,-0.00014
 51035\H,2.1628280816,-0.618094508,-0.000108709\H,-2.0065879537,-0.9087
 67654,0.0001317476\N,0.1027779097,-1.2243825498,0.000010177\\Version=E
 S64L-G16RevA.03\State=1-A\HF=-226.2990666\RMSD=2.656e-09\RMSF=4.063e-0
 5\ZeroPoint=0.070814\Thermal=0.0746028\Dipole=-0.5994437,1.3595862,0.0
 000484\DipoleDeriv=0.1714727,-0.2634721,-0.0000196,-0.0760466,-0.01135
 07,-0.0000106,-0.0000224,0.0000175,-0.1618621,0.1831244,0.0415518,-0.0
 000163,-0.0090259,0.1297395,-0.0000013,-0.0000238,-0.0000083,-0.135856
 9,0.1470459,-0.1627934,-0.0000009,-0.1994822,0.5208863,0.0000111,-0.00
 00046,0.0000027,-0.015025,-0.3018258,0.3439776,-0.0000135,0.2431302,-0
 .4127284,-0.0000062,-0.0000133,-0.0000043,-0.2318604,0.1931318,-0.0122
 445,0.000012,-0.0139835,0.1846343,0.000001,0.000022,-0.0000152,0.32187
 68,0.0664824,-0.0225514,0.000011,-0.0420103,-0.0075182,0.0000084,0.000
 0093,0.0000075,0.2011554,-0.0449941,0.0041543,0.000013,0.0249284,0.082
 6215,0.0000007,0.0000178,-0.0000007,0.1619866,-0.0201041,-0.0072003,0.
 0000127,-0.0136465,0.0728882,0.0000002,0.0000138,0.0000031,0.166335,-0
 .3943332,0.078578,0.0000016,0.0861364,-0.5591724,-0.0000033,0.000001,-
 0.0000023,-0.3067495\Polar=55.0772228,1.0808555,54.5281737,-0.0014301,
 -0.0004847,32.6314668\Quadrupole=3.954594,-1.0462995,-2.9082946,-0.637
 3048,-0.000558,0.0000906\PG=C01 [X(C3H4N2)]\NImag=0\\0.59288621,0.0954
 4688,0.86570194,-0.00003796,-0.00003105,0.10943609,-0.14400165,0.11047
 745,0.00000136,0.82233931,0.09262933,-0.33266024,0.00000528,-0.1455357
 4,0.61041955,0.00000039,0.00000379,-0.06653545,-0.00003715,-0.00000550
 ,0.13337722,-0.05979760,-0.02531178,0.00000474,-0.11485102,-0.04224766
 ,0.00000819,0.90774702,-0.07348518,-0.04937047,0.00000681,0.01572097,0
 .01852759,-0.00000038,0.07093232,0.60432015,0.00000614,0.00000387,0.01
 666369,0.00000708,0.00000209,0.01116668,-0.00005020,-0.00000767,0.1354
 5778,-0.28300098,-0.02477207,0.00001878,-0.06618327,0.07642561,0.00000
 490,-0.12317519,-0.04968957,0.00000691,0.75950029,-0.01871196,-0.11744
 786,0.00000107,0.01602532,-0.02763543,-0.00000096,-0.05154066,-0.27831
 490,0.00000438,-0.18532617,0.79597924,0.00002111,0.00000115,-0.0515950
 7,0.00000440,-0.00000356,0.01360904,0.00000683,0.00000179,-0.05940064,
 -0.00006733,0.00002663,0.07791881,-0.00562243,0.02539434,0.00000014,-0
 .00715411,-0.00070975,0.00000079,0.01286272,-0.00330399,-0.00000245,-0
 .24975120,0.19148121,0.00003217,0.24788968,-0.00475178,0.01175601,0.00
 000079,-0.00542578,-0.00051927,0.00000014,0.02614935,-0.00555868,-0.00
 000257,0.19294063,-0.28428640,-0.00002821,-0.20804298,0.28580520,-0.00
 000134,-0.00000159,-0.00770816,0.00000007,-0.00000060,0.00239760,-0.00
 000229,0.00000117,-0.00886672,0.00003407,-0.00002981,-0.00213452,-0.00
 003129,0.00002960,0.01008871,-0.11329791,-0.11047820,0.00001085,0.0132
 8582,0.00691107,-0.00000102,-0.00693101,0.00291429,0.00000083,-0.00989
 272,-0.03173344,0.00000079,0.00055799,0.00027608,-0.00000013,0.1150754
 7,-0.12043641,-0.30477700,0.00001894,-0.01553338,-0.00620691,0.0000007
 8,0.00312887,-0.00141352,-0.00000007,0.00414731,0.00695070,-0.00000067
 ,-0.00079670,-0.00019532,0.00000001,0.12939338,0.31020959,0.00001150,0
 .00001748,-0.02034733,-0.00000022,0.00000029,-0.00121213,0.00000063,-0
 .00000045,0.00269005,0.00000007,0.00000231,-0.00422521,-0.00000021,0.0
 0000005,-0.00113002,-0.00001164,-0.00001950,0.01784340,-0.00140891,-0.
 00124056,0.00000026,-0.32142991,0.08767440,0.00001562,-0.00223900,-0.0
 0338243,0.00000038,0.00107446,0.00037010,0.00000023,0.00018049,-0.0000
 3136,0.00000005,-0.00032434,0.00054042,-0.00000012,0.34310466,0.023924
 07,0.00211535,-0.00000207,0.09007358,-0.08693731,-0.00000351,-0.004941
 58,-0.00317779,0.00000037,0.00233292,-0.00564851,0.00000009,0.00112622
 ,0.00082357,0.00000007,-0.00058750,-0.00009820,-0.00000002,-0.08827478
 ,0.08107689,-0.00000125,0.00000019,-0.00015689,0.00001649,-0.00000369,
 -0.02847824,0.00000080,-0.00000027,0.00509426,0.00000105,0.00000083,0.
 00507038,0.00000002,-0.00000013,0.00188208,-0.00000012,-0.00000012,-0.
 00215706,-0.00001744,0.00000394,0.02259136,0.00116028,0.00071713,0.000
 00006,-0.00239246,0.00347887,0.00000052,-0.30723036,-0.10335409,0.0000
 1863,0.00267225,0.00096783,-0.00000030,-0.00038419,-0.00084322,-0.0000
 0005,0.00028780,-0.00001675,0.00000008,-0.00051792,-0.00082427,0.00000
 006,0.32742476,0.00274687,-0.00601048,-0.00000024,0.00408272,-0.000664
 51,-0.00000013,-0.09868209,-0.09860556,0.00000622,-0.03185374,-0.00814
 013,0.00000250,0.00011502,0.00016422,0.00000001,-0.00138829,0.00044594
 ,0.00000008,0.00063952,0.00091326,-0.00000005,0.10690088,0.09911502,0.
 00000067,-0.00000030,0.00261270,0.00000074,0.00000041,0.00685181,0.000
 01909,0.00000618,-0.02501731,-0.00000046,0.00000015,-0.00177881,-0.000
 00011,0.00000019,-0.00123287,0.00000014,0.00000010,0.00177975,0.000000
 04,0.00000006,0.00107617,-0.00002014,-0.00000723,0.02059122,0.01308299
 ,-0.07023318,0.00000178,-0.17961272,-0.07862614,0.00000777,-0.30638556
 ,0.14364767,0.00001268,-0.03124363,0.07846777,0.00000208,0.00142104,-0
 .00027094,0.00000093,0.00123890,-0.00042674,-0.00000008,-0.01843952,-0
 .02282867,0.00000039,-0.02102015,0.01743911,0.00000003,0.54095864,0.00
 263818,-0.06930726,0.00000047,-0.06988513,-0.17432349,0.00000577,0.122
 51323,-0.18640681,-0.00000662,0.01579507,-0.08145671,0.00000028,-0.005
 26337,-0.00798934,0.00000113,0.00469261,-0.00491527,-0.00000023,0.0037
 0468,0.01093274,-0.00000071,-0.00702639,0.01278224,0.00000046,-0.06716
 889,0.50068390,0.00000076,0.00000646,0.01763041,0.00000723,0.00000527,
 -0.07117654,0.00001222,-0.00000717,-0.07778779,0.00000201,-0.00000459,
 0.02253603,0.00000095,0.00000014,0.00670390,0.00000030,0.00000053,0.00
 675856,0.00000097,0.00000106,-0.00492205,0.00000113,-0.00000116,-0.004
 88266,-0.00002557,-0.00000053,0.10514014\\-0.00004882,0.00010567,-0.00
 000690,0.00001336,-0.00013330,0.00000581,-0.00006287,-0.00001190,-0.00
 000379,0.00001988,0.00004773,0.00000502,-0.00001211,-0.00001986,0.0000
 0203,0.00001917,-0.00002838,-0.00000118,-0.00000065,0.00002763,0.00000
 061,0.00001335,0.00000822,-0.00000034,0.00005868,0.00000419,-0.0000012
 6\\\@


 In the race for quality, there is no finish line.
                               -- David T. Kearns
 Job cpu time:       0 days  0 hours 10 minutes  3.8 seconds.
 Elapsed time:       0 days  0 hours  0 minutes 25.7 seconds.
 File lengths (MBytes):  RWF=     26 Int=      0 D2E=      0 Chk=      3 Scr=      1
 Normal termination of Gaussian 16 at Wed Oct 11 11:50:08 2023.
