 Entering Gaussian System, Link 0=g16
 Initial command:
 /data0/hywu0/study/g16/l1.exe "/data0/hywu0/study/g16/scratch/Gau-873764.inp" -scrdir="/data0/hywu0/study/g16/scratch/"
 Default is to use a total of   8 processors:
                                8 via shared-memory
                                1 via Linda
 Entering Link 1 = /data0/hywu0/study/g16/l1.exe PID=    873765.
  
 Copyright (c) 1988,1990,1992,1993,1995,1998,2003,2009,2016,
            Gaussian, Inc.  All Rights Reserved.
  
 This is part of the Gaussian(R) 16 program.  It is based on
 the Gaussian(R) 09 system (copyright 2009, Gaussian, Inc.),
 the Gaussian(R) 03 system (copyright 2003, Gaussian, Inc.),
 the Gaussian(R) 98 system (copyright 1998, Gaussian, Inc.),
 the Gaussian(R) 94 system (copyright 1995, Gaussian, Inc.),
 the Gaussian 92(TM) system (copyright 1992, Gaussian, Inc.),
 the Gaussian 90(TM) system (copyright 1990, Gaussian, Inc.),
 the Gaussian 88(TM) system (copyright 1988, Gaussian, Inc.),
 the Gaussian 86(TM) system (copyright 1986, Carnegie Mellon
 University), and the Gaussian 82(TM) system (copyright 1983,
 Carnegie Mellon University). Gaussian is a federally registered
 trademark of Gaussian, Inc.
  
 This software contains proprietary and confidential information,
 including trade secrets, belonging to Gaussian, Inc.
  
 This software is provided under written license and may be
 used, copied, transmitted, or stored only in accord with that
 written license.
  
 The following legend is applicable only to US Government
 contracts under FAR:
  
                    RESTRICTED RIGHTS LEGEND
  
 Use, reproduction and disclosure by the US Government is
 subject to restrictions as set forth in subparagraphs (a)
 and (c) of the Commercial Computer Software - Restricted
 Rights clause in FAR 52.227-19.
  
 Gaussian, Inc.
 340 Quinnipiac St., Bldg. 40, Wallingford CT 06492
  
  
 ---------------------------------------------------------------
 Warning -- This program may not be used in any manner that
 competes with the business of Gaussian, Inc. or will provide
 assistance to any competitor of Gaussian, Inc.  The licensee
 of this program is prohibited from giving any competitor of
 Gaussian, Inc. access to this program.  By using this program,
 the user acknowledges that Gaussian, Inc. is engaged in the
 business of creating and licensing software in the field of
 computational chemistry and represents and warrants to the
 licensee that it is not a competitor of Gaussian, Inc. and that
 it will not use this program in any manner prohibited above.
 ---------------------------------------------------------------
  

 Cite this work as:
 Gaussian 16, Revision A.03,
 M. J. Frisch, G. W. Trucks, H. B. Schlegel, G. E. Scuseria, 
 M. A. Robb, J. R. Cheeseman, G. Scalmani, V. Barone, 
 G. A. Petersson, H. Nakatsuji, X. Li, M. Caricato, A. V. Marenich, 
 J. Bloino, B. G. Janesko, R. Gomperts, B. Mennucci, H. P. Hratchian, 
 J. V. Ortiz, A. F. Izmaylov, J. L. Sonnenberg, D. Williams-Young, 
 F. Ding, F. Lipparini, F. Egidi, J. Goings, B. Peng, A. Petrone, 
 T. Henderson, D. Ranasinghe, V. G. Zakrzewski, J. Gao, N. Rega, 
 G. Zheng, W. Liang, M. Hada, M. Ehara, K. Toyota, R. Fukuda, 
 J. Hasegawa, M. Ishida, T. Nakajima, Y. Honda, O. Kitao, H. Nakai, 
 T. Vreven, K. Throssell, J. A. Montgomery, Jr., J. E. Peralta, 
 F. Ogliaro, M. J. Bearpark, J. J. Heyd, E. N. Brothers, K. N. Kudin, 
 V. N. Staroverov, T. A. Keith, R. Kobayashi, J. Normand, 
 K. Raghavachari, A. P. Rendell, J. C. Burant, S. S. Iyengar, 
 J. Tomasi, M. Cossi, J. M. Millam, M. Klene, C. Adamo, R. Cammi, 
 J. W. Ochterski, R. L. Martin, K. Morokuma, O. Farkas, 
 J. B. Foresman, and D. J. Fox, Gaussian, Inc., Wallingford CT, 2016.
 
 ******************************************
 Gaussian 16:  ES64L-G16RevA.03 25-Dec-2016
                10-Jul-2023 
 ******************************************
 %chk=PA.chk
 %nprocshared=16
 Will use up to   16 processors via shared memory.
 %mem=50GB
 ------------------------------------
 #p 6-311+g(2d,p) nosymm em=gd3 m062x
 ------------------------------------
 1/38=1,172=1/1;
 2/12=2,15=1,17=6,18=5,40=1/2;
 3/5=4,6=6,7=112,11=2,25=1,30=1,74=-55,124=31/1,2,3;
 4//1;
 5/5=2,38=5/2;
 6/7=2,8=2,9=2,10=2,28=1/1;
 99/5=1,9=1/99;
 Leave Link    1 at Mon Jul 10 19:16:50 2023, MaxMem=  6710886400 cpu:               0.5 elap:               0.0
 (Enter /data0/hywu0/study/g16/l101.exe)
 -------------------
 Title Card Required
 -------------------
 Symbolic Z-matrix:
 Charge =  0 Multiplicity = 1
 P                     4.5337    20.24086   14.67933 
 O                     3.42405   20.49074   15.60936 
 O                     4.2137    20.93376   13.2742 
 H                     5.02037   20.75669   12.656 
 O                     5.94485   20.83344   15.07329 
 H                     6.38658   20.18688   15.81145 
 O                     4.7529    18.71919   14.28636 
 H                     5.17617   18.19982   15.13181 
 
 ITRead=  0  0  0  0  0  0  0  0
 MicOpt= -1 -1 -1 -1 -1 -1 -1 -1
 NAtoms=      8 NQM=        8 NQMF=       0 NMMI=      0 NMMIF=      0
                NMic=       0 NMicF=      0.
                    Isotopes and Nuclear Properties:
 (Nuclear quadrupole moments (NQMom) in fm**2, nuclear magnetic moments (NMagM)
  in nuclear magnetons)

  Atom         1           2           3           4           5           6           7           8
 IAtWgt=          31          16          16           1          16           1          16           1
 AtmWgt=  30.9737634  15.9949146  15.9949146   1.0078250  15.9949146   1.0078250  15.9949146   1.0078250
 NucSpn=           1           0           0           1           0           1           0           1
 AtZEff=  -0.0000000  -0.0000000  -0.0000000  -0.0000000  -0.0000000  -0.0000000  -0.0000000  -0.0000000
 NQMom=    0.0000000   0.0000000   0.0000000   0.0000000   0.0000000   0.0000000   0.0000000   0.0000000
 NMagM=    1.1316000   0.0000000   0.0000000   2.7928460   0.0000000   2.7928460   0.0000000   2.7928460
 AtZNuc=  15.0000000   8.0000000   8.0000000   1.0000000   8.0000000   1.0000000   8.0000000   1.0000000
 Leave Link  101 at Mon Jul 10 19:16:50 2023, MaxMem=  6710886400 cpu:               1.7 elap:               0.1
 (Enter /data0/hywu0/study/g16/l202.exe)
                          Input orientation:                          
 ---------------------------------------------------------------------
 Center     Atomic      Atomic             Coordinates (Angstroms)
 Number     Number       Type             X           Y           Z
 ---------------------------------------------------------------------
      1         15           0        4.533700   20.240861   14.679326
      2          8           0        3.424046   20.490743   15.609355
      3          8           0        4.213700   20.933763   13.274199
      4          1           0        5.020371   20.756689   12.655999
      5          8           0        5.944845   20.833443   15.073285
      6          1           0        6.386575   20.186875   15.811446
      7          8           0        4.752900   18.719195   14.286364
      8          1           0        5.176165   18.199819   15.131815
 ---------------------------------------------------------------------
                    Distance matrix (angstroms):
                    1          2          3          4          5
     1  P    0.000000
     2  O    1.469261   0.000000
     3  O    1.599029   2.504551   0.000000
     4  H    2.144010   3.367684   1.031622   0.000000
     5  O    1.580407   2.599854   2.498727   2.589173   0.000000
     6  H    2.172040   2.984921   3.422988   3.485405   1.076131
     7  O    1.586800   2.579640   2.493898   2.623168   2.551475
     8  H    2.187089   2.923405   3.442605   3.562516   2.744134
                    6          7          8
     6  H    0.000000
     7  O    2.673734   0.000000
     8  H    2.423919   1.078746   0.000000
 Symmetry turned off by external request.
 Stoichiometry    H3O4P
 Framework group  C1[X(H3O4P)]
 Deg. of freedom    18
 Full point group                 C1      NOp   1
 Rotational constants (GHZ):           4.5690905           4.4769598           4.4299285
 Leave Link  202 at Mon Jul 10 19:16:50 2023, MaxMem=  6710886400 cpu:               0.1 elap:               0.0
 (Enter /data0/hywu0/study/g16/l301.exe)
 Standard basis: 6-311+G(2d,p) (5D, 7F)
 Ernie: Thresh=  0.10000D-02 Tol=  0.10000D-05 Strict=F.
   161 basis functions,   248 primitive gaussians,   171 cartesian basis functions
    25 alpha electrons       25 beta electrons
       nuclear repulsion energy       279.6478010227 Hartrees.
 IExCor= 4336 DFT=T Ex+Corr=M062X ExCW=0 ScaHFX=  0.540000
 ScaDFX=  1.000000  1.000000  1.000000  1.000000 ScalE2=  1.000000  1.000000
 IRadAn=      5 IRanWt=     -1 IRanGd=            0 ICorTp=0 IEmpDi=131
 NAtoms=    8 NActive=    8 NUniq=    8 SFac= 1.00D+00 NAtFMM=   60 NAOKFM=F Big=F
 Integral buffers will be    131072 words long.
 Raffenetti 2 integral format.
 Two-electron integral symmetry is turned off.
 R6Disp:  Grimme-D3 Dispersion energy=       -0.0000439992 Hartrees.
 Nuclear repulsion after empirical dispersion term =      279.6477570235 Hartrees.
 Leave Link  301 at Mon Jul 10 19:16:50 2023, MaxMem=  6710886400 cpu:               0.5 elap:               0.0
 (Enter /data0/hywu0/study/g16/l302.exe)
 NPDir=0 NMtPBC=     1 NCelOv=     1 NCel=       1 NClECP=     1 NCelD=      1
         NCelK=      1 NCelE2=     1 NClLst=     1 CellRange=     0.0.
 One-electron integrals computed using PRISM.
 NBasis=   161 RedAO= T EigKep=  5.86D-04  NBF=   161
 NBsUse=   161 1.00D-06 EigRej= -1.00D+00 NBFU=   161
 Precomputing XC quadrature grid using
 IXCGrd= 4 IRadAn=           5 IRanWt=          -1 IRanGd=           0 AccXCQ= 0.00D+00.
 Generated NRdTot=       0 NPtTot=           0 NUsed=           0 NTot=          32
 NSgBfM=   171   171   171   171   171 MxSgAt=     8 MxSgA2=     8.
 Leave Link  302 at Mon Jul 10 19:16:50 2023, MaxMem=  6710886400 cpu:               1.8 elap:               0.1
 (Enter /data0/hywu0/study/g16/l303.exe)
 DipDrv:  MaxL=1.
 Leave Link  303 at Mon Jul 10 19:16:50 2023, MaxMem=  6710886400 cpu:               0.3 elap:               0.0
 (Enter /data0/hywu0/study/g16/l401.exe)
 ExpMin= 3.48D-02 ExpMax= 7.75D+04 ExpMxC= 2.65D+03 IAcc=3 IRadAn=         5 AccDes= 0.00D+00
 Harris functional with IExCor= 1009 and IRadAn=       5 diagonalized for initial guess.
 HarFok:  IExCor= 1009 AccDes= 0.00D+00 IRadAn=         5 IDoV= 1 UseB2=F ITyADJ=14
 ICtDFT=  3500011 ScaDFX=  1.000000  1.000000  1.000000  1.000000
 FoFCou: FMM=F IPFlag=           0 FMFlag=      100000 FMFlg1=           0
         NFxFlg=           0 DoJE=T BraDBF=F KetDBF=T FulRan=T
         wScrn=  0.000000 ICntrl=       500 IOpCl=  0 I1Cent=   200000004 NGrid=           0
         NMat0=    1 NMatS0=      1 NMatT0=    0 NMatD0=    1 NMtDS0=    0 NMtDT0=    0
 Symmetry not used in FoFCou.
 Harris En= -643.935169012410    
 JPrj=0 DoOrth=F DoCkMO=F.
 Leave Link  401 at Mon Jul 10 19:16:51 2023, MaxMem=  6710886400 cpu:               4.2 elap:               0.3
 (Enter /data0/hywu0/study/g16/l502.exe)
 Keep R1 ints in memory in canonical form, NReq=100986924.
 FoFCou: FMM=F IPFlag=           0 FMFlag=           0 FMFlg1=           0
         NFxFlg=           0 DoJE=F BraDBF=F KetDBF=F FulRan=T
         wScrn=  0.000000 ICntrl=       600 IOpCl=  0 I1Cent=           0 NGrid=           0
         NMat0=    1 NMatS0=  13041 NMatT0=    0 NMatD0=    1 NMtDS0=    0 NMtDT0=    0
 Symmetry not used in FoFCou.
 Two-electron integral symmetry not used.
 Closed shell SCF:
 Using DIIS extrapolation, IDIIS=  1040.
 NGot=  6710886400 LenX=  6625783546 LenY=  6625753864
 Requested convergence on RMS density matrix=1.00D-08 within 128 cycles.
 Requested convergence on MAX density matrix=1.00D-06.
 Requested convergence on             energy=1.00D-06.
 No special actions if energy rises.

 Cycle   1  Pass 1  IDiag  1:
 E= -643.834164406506    
 DIIS: error= 5.05D-02 at cycle   1 NSaved=   1.
 NSaved= 1 IEnMin= 1 EnMin= -643.834164406506     IErMin= 1 ErrMin= 5.05D-02
 ErrMax= 5.05D-02  0.00D+00 EMaxC= 1.00D-01 BMatC= 5.13D-01 BMatP= 5.13D-01
 IDIUse=3 WtCom= 4.95D-01 WtEn= 5.05D-01
 Coeff-Com:  0.100D+01
 Coeff-En:   0.100D+01
 Coeff:      0.100D+01
 Gap=     0.223 Goal=   None    Shift=    0.000
 GapD=    0.223 DampG=1.000 DampE=0.500 DampFc=0.5000 IDamp=-1.
 Damping current iteration by 5.00D-01
 RMSDP=8.24D-03 MaxDP=2.19D-01              OVMax= 2.83D-01

 Cycle   2  Pass 1  IDiag  1:
 E= -643.950431992170     Delta-E=       -0.116267585664 Rises=F Damp=T
 DIIS: error= 1.08D-02 at cycle   2 NSaved=   2.
 NSaved= 2 IEnMin= 2 EnMin= -643.950431992170     IErMin= 2 ErrMin= 1.08D-02
 ErrMax= 1.08D-02  0.00D+00 EMaxC= 1.00D-01 BMatC= 2.89D-02 BMatP= 5.13D-01
 IDIUse=3 WtCom= 8.92D-01 WtEn= 1.08D-01
 Coeff-Com:  0.827D-01 0.917D+00
 Coeff-En:   0.221D+00 0.779D+00
 Coeff:      0.977D-01 0.902D+00
 Gap=     0.330 Goal=   None    Shift=    0.000
 RMSDP=2.02D-03 MaxDP=7.59D-02 DE=-1.16D-01 OVMax= 1.88D-01

 Cycle   3  Pass 1  IDiag  1:
 E= -644.124598145532     Delta-E=       -0.174166153362 Rises=F Damp=F
 DIIS: error= 7.61D-03 at cycle   3 NSaved=   3.
 NSaved= 3 IEnMin= 3 EnMin= -644.124598145532     IErMin= 3 ErrMin= 7.61D-03
 ErrMax= 7.61D-03  0.00D+00 EMaxC= 1.00D-01 BMatC= 1.07D-02 BMatP= 2.89D-02
 IDIUse=3 WtCom= 9.24D-01 WtEn= 7.61D-02
 Coeff-Com: -0.102D-01 0.339D+00 0.671D+00
 Coeff-En:   0.000D+00 0.000D+00 0.100D+01
 Coeff:     -0.943D-02 0.313D+00 0.696D+00
 Gap=     0.319 Goal=   None    Shift=    0.000
 RMSDP=6.94D-04 MaxDP=1.53D-02 DE=-1.74D-01 OVMax= 3.63D-02

 Cycle   4  Pass 1  IDiag  1:
 E= -644.129357389637     Delta-E=       -0.004759244105 Rises=F Damp=F
 DIIS: error= 4.37D-03 at cycle   4 NSaved=   4.
 NSaved= 4 IEnMin= 4 EnMin= -644.129357389637     IErMin= 4 ErrMin= 4.37D-03
 ErrMax= 4.37D-03  0.00D+00 EMaxC= 1.00D-01 BMatC= 4.21D-03 BMatP= 1.07D-02
 IDIUse=3 WtCom= 9.56D-01 WtEn= 4.37D-02
 Coeff-Com: -0.206D-01 0.466D-01 0.405D+00 0.569D+00
 Coeff-En:   0.000D+00 0.000D+00 0.283D+00 0.717D+00
 Coeff:     -0.197D-01 0.445D-01 0.400D+00 0.575D+00
 Gap=     0.326 Goal=   None    Shift=    0.000
 RMSDP=2.77D-04 MaxDP=6.42D-03 DE=-4.76D-03 OVMax= 1.19D-02

 Cycle   5  Pass 1  IDiag  1:
 E= -644.132154219867     Delta-E=       -0.002796830230 Rises=F Damp=F
 DIIS: error= 2.60D-04 at cycle   5 NSaved=   5.
 NSaved= 5 IEnMin= 5 EnMin= -644.132154219867     IErMin= 5 ErrMin= 2.60D-04
 ErrMax= 2.60D-04  0.00D+00 EMaxC= 1.00D-01 BMatC= 1.77D-05 BMatP= 4.21D-03
 IDIUse=3 WtCom= 9.97D-01 WtEn= 2.60D-03
 Coeff-Com: -0.219D-02-0.709D-03 0.560D-01 0.116D+00 0.831D+00
 Coeff-En:   0.000D+00 0.000D+00 0.000D+00 0.000D+00 0.100D+01
 Coeff:     -0.219D-02-0.707D-03 0.558D-01 0.116D+00 0.831D+00
 Gap=     0.324 Goal=   None    Shift=    0.000
 RMSDP=3.07D-05 MaxDP=7.05D-04 DE=-2.80D-03 OVMax= 8.21D-04

 Cycle   6  Pass 1  IDiag  1:
 E= -644.132165818052     Delta-E=       -0.000011598185 Rises=F Damp=F
 DIIS: error= 8.01D-05 at cycle   6 NSaved=   6.
 NSaved= 6 IEnMin= 6 EnMin= -644.132165818052     IErMin= 6 ErrMin= 8.01D-05
 ErrMax= 8.01D-05  0.00D+00 EMaxC= 1.00D-01 BMatC= 1.79D-06 BMatP= 1.77D-05
 IDIUse=1 WtCom= 1.00D+00 WtEn= 0.00D+00
 Coeff-Com: -0.542D-05-0.182D-02 0.325D-02 0.152D-01 0.263D+00 0.720D+00
 Coeff:     -0.542D-05-0.182D-02 0.325D-02 0.152D-01 0.263D+00 0.720D+00
 Gap=     0.325 Goal=   None    Shift=    0.000
 RMSDP=1.14D-05 MaxDP=2.11D-04 DE=-1.16D-05 OVMax= 3.09D-04

 Cycle   7  Pass 1  IDiag  1:
 E= -644.132166966977     Delta-E=       -0.000001148925 Rises=F Damp=F
 DIIS: error= 4.74D-05 at cycle   7 NSaved=   7.
 NSaved= 7 IEnMin= 7 EnMin= -644.132166966977     IErMin= 7 ErrMin= 4.74D-05
 ErrMax= 4.74D-05  0.00D+00 EMaxC= 1.00D-01 BMatC= 4.39D-07 BMatP= 1.79D-06
 IDIUse=1 WtCom= 1.00D+00 WtEn= 0.00D+00
 Coeff-Com:  0.384D-03-0.643D-03-0.918D-02-0.147D-01-0.250D-01 0.331D+00
 Coeff-Com:  0.718D+00
 Coeff:      0.384D-03-0.643D-03-0.918D-02-0.147D-01-0.250D-01 0.331D+00
 Coeff:      0.718D+00
 Gap=     0.325 Goal=   None    Shift=    0.000
 RMSDP=4.90D-06 MaxDP=1.02D-04 DE=-1.15D-06 OVMax= 1.24D-04

 Cycle   8  Pass 1  IDiag  1:
 E= -644.132167274011     Delta-E=       -0.000000307033 Rises=F Damp=F
 DIIS: error= 1.06D-05 at cycle   8 NSaved=   8.
 NSaved= 8 IEnMin= 8 EnMin= -644.132167274011     IErMin= 8 ErrMin= 1.06D-05
 ErrMax= 1.06D-05  0.00D+00 EMaxC= 1.00D-01 BMatC= 2.83D-08 BMatP= 4.39D-07
 IDIUse=1 WtCom= 1.00D+00 WtEn= 0.00D+00
 Coeff-Com:  0.133D-03-0.154D-03-0.370D-02-0.590D-02-0.169D-01 0.922D-01
 Coeff-Com:  0.287D+00 0.647D+00
 Coeff:      0.133D-03-0.154D-03-0.370D-02-0.590D-02-0.169D-01 0.922D-01
 Coeff:      0.287D+00 0.647D+00
 Gap=     0.325 Goal=   None    Shift=    0.000
 RMSDP=8.78D-07 MaxDP=2.73D-05 DE=-3.07D-07 OVMax= 3.46D-05

 Cycle   9  Pass 1  IDiag  1:
 E= -644.132167296432     Delta-E=       -0.000000022421 Rises=F Damp=F
 DIIS: error= 1.96D-06 at cycle   9 NSaved=   9.
 NSaved= 9 IEnMin= 9 EnMin= -644.132167296432     IErMin= 9 ErrMin= 1.96D-06
 ErrMax= 1.96D-06  0.00D+00 EMaxC= 1.00D-01 BMatC= 1.08D-09 BMatP= 2.83D-08
 IDIUse=1 WtCom= 1.00D+00 WtEn= 0.00D+00
 Coeff-Com: -0.280D-04 0.561D-04 0.267D-03 0.589D-03-0.860D-03-0.199D-01
 Coeff-Com: -0.285D-01 0.889D-01 0.960D+00
 Coeff:     -0.280D-04 0.561D-04 0.267D-03 0.589D-03-0.860D-03-0.199D-01
 Coeff:     -0.285D-01 0.889D-01 0.960D+00
 Gap=     0.325 Goal=   None    Shift=    0.000
 RMSDP=3.97D-07 MaxDP=1.05D-05 DE=-2.24D-08 OVMax= 1.40D-05

 Cycle  10  Pass 1  IDiag  1:
 E= -644.132167297791     Delta-E=       -0.000000001359 Rises=F Damp=F
 DIIS: error= 3.12D-07 at cycle  10 NSaved=  10.
 NSaved=10 IEnMin=10 EnMin= -644.132167297791     IErMin=10 ErrMin= 3.12D-07
 ErrMax= 3.12D-07  0.00D+00 EMaxC= 1.00D-01 BMatC= 3.61D-11 BMatP= 1.08D-09
 IDIUse=1 WtCom= 1.00D+00 WtEn= 0.00D+00
 Coeff-Com: -0.579D-05 0.102D-04 0.137D-03 0.235D-03 0.438D-03-0.572D-02
 Coeff-Com: -0.145D-01-0.110D-01 0.112D+00 0.918D+00
 Coeff:     -0.579D-05 0.102D-04 0.137D-03 0.235D-03 0.438D-03-0.572D-02
 Coeff:     -0.145D-01-0.110D-01 0.112D+00 0.918D+00
 Gap=     0.325 Goal=   None    Shift=    0.000
 RMSDP=8.04D-08 MaxDP=1.24D-06 DE=-1.36D-09 OVMax= 3.57D-06

 Cycle  11  Pass 1  IDiag  1:
 E= -644.132167297818     Delta-E=       -0.000000000028 Rises=F Damp=F
 DIIS: error= 3.68D-07 at cycle  11 NSaved=  11.
 NSaved=11 IEnMin=11 EnMin= -644.132167297818     IErMin=10 ErrMin= 3.12D-07
 ErrMax= 3.68D-07  0.00D+00 EMaxC= 1.00D-01 BMatC= 2.47D-11 BMatP= 3.61D-11
 IDIUse=1 WtCom= 1.00D+00 WtEn= 0.00D+00
 Coeff-Com:  0.323D-06-0.117D-05 0.427D-04 0.583D-04 0.328D-03-0.908D-03
 Coeff-Com: -0.461D-02-0.150D-01-0.474D-01 0.505D+00 0.562D+00
 Coeff:      0.323D-06-0.117D-05 0.427D-04 0.583D-04 0.328D-03-0.908D-03
 Coeff:     -0.461D-02-0.150D-01-0.474D-01 0.505D+00 0.562D+00
 Gap=     0.325 Goal=   None    Shift=    0.000
 RMSDP=2.61D-08 MaxDP=6.89D-07 DE=-2.75D-11 OVMax= 9.61D-07

 Cycle  12  Pass 1  IDiag  1:
 E= -644.132167297838     Delta-E=       -0.000000000020 Rises=F Damp=F
 DIIS: error= 4.23D-08 at cycle  12 NSaved=  12.
 NSaved=12 IEnMin=12 EnMin= -644.132167297838     IErMin=12 ErrMin= 4.23D-08
 ErrMax= 4.23D-08  0.00D+00 EMaxC= 1.00D-01 BMatC= 5.67D-13 BMatP= 2.47D-11
 IDIUse=1 WtCom= 1.00D+00 WtEn= 0.00D+00
 Coeff-Com:  0.742D-06-0.141D-05-0.609D-05-0.130D-04 0.113D-04 0.447D-03
 Coeff-Com:  0.907D-03-0.112D-02-0.228D-01-0.708D-02 0.110D+00 0.920D+00
 Coeff:      0.742D-06-0.141D-05-0.609D-05-0.130D-04 0.113D-04 0.447D-03
 Coeff:      0.907D-03-0.112D-02-0.228D-01-0.708D-02 0.110D+00 0.920D+00
 Gap=     0.325 Goal=   None    Shift=    0.000
 RMSDP=9.79D-09 MaxDP=1.76D-07 DE=-1.96D-11 OVMax= 4.43D-07

 SCF Done:  E(RM062X) =  -644.132167298     A.U. after   12 cycles
            NFock= 12  Conv=0.98D-08     -V/T= 2.0026
 KE= 6.424689536637D+02 PE=-2.086891759627D+03 EE= 5.206428816422D+02
 Leave Link  502 at Mon Jul 10 19:16:57 2023, MaxMem=  6710886400 cpu:              78.2 elap:               6.0
 (Enter /data0/hywu0/study/g16/l601.exe)
 Copying SCF densities to generalized density rwf, IOpCl= 0 IROHF=0.

 **********************************************************************

            Population analysis using the SCF density.

 **********************************************************************

 Alpha  occ. eigenvalues --  -78.16825 -19.69814 -19.69459 -19.67814 -19.57950
 Alpha  occ. eigenvalues --   -6.97614  -5.09529  -5.09526  -5.09262  -1.24585
 Alpha  occ. eigenvalues --   -1.17397  -1.16526  -1.08225  -0.72601  -0.65733
 Alpha  occ. eigenvalues --   -0.63513  -0.59090  -0.53504  -0.51879  -0.49722
 Alpha  occ. eigenvalues --   -0.46191  -0.45435  -0.44999  -0.37771  -0.36826
 Alpha virt. eigenvalues --   -0.04328   0.00943   0.02749   0.04627   0.07923
 Alpha virt. eigenvalues --    0.08597   0.10741   0.12342   0.15876   0.17284
 Alpha virt. eigenvalues --    0.17368   0.18478   0.19450   0.19988   0.21480
 Alpha virt. eigenvalues --    0.22442   0.24500   0.25678   0.25857   0.27416
 Alpha virt. eigenvalues --    0.28291   0.28863   0.30306   0.32051   0.32961
 Alpha virt. eigenvalues --    0.34074   0.36525   0.38059   0.40184   0.42749
 Alpha virt. eigenvalues --    0.44023   0.44791   0.52409   0.55577   0.57482
 Alpha virt. eigenvalues --    0.73509   0.75915   0.76577   0.85997   0.97924
 Alpha virt. eigenvalues --    0.99789   1.00214   1.04838   1.05974   1.11559
 Alpha virt. eigenvalues --    1.14175   1.15205   1.18402   1.19212   1.20550
 Alpha virt. eigenvalues --    1.21837   1.22975   1.26604   1.26753   1.32207
 Alpha virt. eigenvalues --    1.32832   1.42097   1.42633   1.49690   1.51139
 Alpha virt. eigenvalues --    1.52673   1.54626   1.57991   1.59225   1.63733
 Alpha virt. eigenvalues --    1.66712   1.68110   1.70027   1.72425   1.82221
 Alpha virt. eigenvalues --    1.83013   1.85113   1.87403   1.88401   1.96821
 Alpha virt. eigenvalues --    1.98960   2.03677   2.09262   2.11938   2.14032
 Alpha virt. eigenvalues --    2.18043   2.21352   2.25590   2.36869   2.41152
 Alpha virt. eigenvalues --    2.43696   2.56864   2.61516   2.61940   2.70054
 Alpha virt. eigenvalues --    2.72781   2.80822   2.86661   2.89120   2.94249
 Alpha virt. eigenvalues --    5.01023   5.03002   5.06307   5.06641   5.10636
 Alpha virt. eigenvalues --    5.13548   5.17020   5.23502   5.35028   5.41849
 Alpha virt. eigenvalues --    5.42983   5.52211   6.71647   6.73757   6.74436
 Alpha virt. eigenvalues --    6.76344   6.79338   6.80821   6.83158   6.85304
 Alpha virt. eigenvalues --    6.91513   6.91899   6.94300   6.97872   7.00782
 Alpha virt. eigenvalues --    7.00956   7.10457   7.24537   7.25993   7.27253
 Alpha virt. eigenvalues --    7.31352   7.40424   7.64319  14.23249  14.23814
 Alpha virt. eigenvalues --   14.34056  49.97057  49.98746  50.00635  50.10637
 Alpha virt. eigenvalues --  163.85494
          Condensed to atoms (all electrons):
               1          2          3          4          5          6
     1  P   12.480007   0.560956   0.166283   0.044841   0.231101   0.003446
     2  O    0.560956   8.122002  -0.036894   0.002953  -0.004426  -0.013196
     3  O    0.166283  -0.036894   8.128439   0.220794   0.005101  -0.000693
     4  H    0.044841   0.002953   0.220794   0.455340  -0.014744   0.001845
     5  O    0.231101  -0.004426   0.005101  -0.014744   8.049650   0.250257
     6  H    0.003446  -0.013196  -0.000693   0.001845   0.250257   0.455105
     7  O    0.231003  -0.007418   0.007431  -0.013700   0.035079  -0.003346
     8  H   -0.000812  -0.014457  -0.000929   0.001796  -0.005810  -0.003344
               7          8
     1  P    0.231003  -0.000812
     2  O   -0.007418  -0.014457
     3  O    0.007431  -0.000929
     4  H   -0.013700   0.001796
     5  O    0.035079  -0.005810
     6  H   -0.003346  -0.003344
     7  O    8.056611   0.253621
     8  H    0.253621   0.459369
 Mulliken charges:
               1
     1  P    1.283175
     2  O   -0.609521
     3  O   -0.489532
     4  H    0.300875
     5  O   -0.546209
     6  H    0.309926
     7  O   -0.559281
     8  H    0.310566
 Sum of Mulliken charges =  -0.00000
 Mulliken charges with hydrogens summed into heavy atoms:
               1
     1  P    1.283175
     2  O   -0.609521
     3  O   -0.188657
     5  O   -0.236283
     7  O   -0.248715
 Electronic spatial extent (au):  <R**2>=         115248.2131
 Charge=             -0.0000 electrons
 Dipole moment (field-independent basis, Debye):
    X=              5.1904    Y=             -2.7401    Z=             -0.2938  Tot=              5.8766
 Quadrupole moment (field-independent basis, Debye-Ang):
   XX=             10.9873   YY=           -145.3722   ZZ=            -40.8863
   XY=             90.3671   XZ=             78.6540   YZ=            -50.7793
 Traceless Quadrupole moment (field-independent basis, Debye-Ang):
   XX=             69.4110   YY=            -86.9485   ZZ=             17.5374
   XY=             90.3671   XZ=             78.6540   YZ=            -50.7793
 Octapole moment (field-independent basis, Debye-Ang**2):
  XXX=           -168.8906  YYY=          -5466.4333  ZZZ=          -1612.1994  XYY=           1376.8340
  XXY=            141.0288  XXZ=            195.2971  XZZ=           1055.5011  YZZ=          -1553.4952
  YYZ=          -2431.6281  XYZ=           1351.0153
 Hexadecapole moment (field-independent basis, Debye-Ang**3):
 XXXX=          -2637.5292 YYYY=        -176258.1716 ZZZZ=         -45652.1350 XXXY=          -3878.0254
 XXXZ=          -2178.6523 YYYX=          15539.1251 YYYZ=         -87790.5039 ZZZX=          12045.1013
 ZZZY=         -44290.6833 XXYY=            458.3523 XXZZ=           2757.5528 YYZZ=         -53339.0005
 XXYZ=           2619.7084 YYXZ=          20238.6177 ZZXY=          17456.6239
 N-N= 2.796477570235D+02 E-N=-2.086891764505D+03  KE= 6.424689536637D+02
 No NMR shielding tensors so no spin-rotation constants.
 Leave Link  601 at Mon Jul 10 19:16:57 2023, MaxMem=  6710886400 cpu:               1.0 elap:               0.1
 (Enter /data0/hywu0/study/g16/l9999.exe)
 1\1\GINC-LOCALHOST\SP\RM062X\6-311+G(2d,p)\H3O4P1\HYWU0\10-Jul-2023\0\
 \#p 6-311+g(2d,p) nosymm em=gd3 m062x\\Title Card Required\\0,1\P,0,4.
 5337,20.240861,14.679326\O,0,3.424046,20.490743,15.609355\O,0,4.2137,2
 0.933763,13.274199\H,0,5.020371,20.756689,12.655999\O,0,5.944845,20.83
 3443,15.073285\H,0,6.386575,20.186875,15.811446\O,0,4.7529,18.719195,1
 4.286364\H,0,5.176165,18.199819,15.131815\\Version=ES64L-G16RevA.03\HF
 =-644.1321673\RMSD=9.795e-09\Dipole=2.0420603,-1.0780261,-0.1155801\Qu
 adrupole=51.6053941,-64.644047,13.038653,67.1857485,58.4773124,-37.753
 1661\PG=C01 [X(H3O4P1)]\\@


 IF YOU DON'T HAVE THE LAW - ARGUE THE FACTS.
 IF YOU DON'T HAVE THE FACTS - ARGUE THE LAW.
 IF YOU DON'T HAVE EITHER - POUND THE TABLE.
 Job cpu time:       0 days  0 hours  1 minutes 29.0 seconds.
 Elapsed time:       0 days  0 hours  0 minutes  6.8 seconds.
 File lengths (MBytes):  RWF=     15 Int=      0 D2E=      0 Chk=      3 Scr=      1
 Normal termination of Gaussian 16 at Mon Jul 10 19:16:57 2023.
