 Entering Gaussian System, Link 0=g16
 Initial command:
 /data0/home/software/g16/l1.exe "/data0/home/software/g16/scratch/Gau-348003.inp" -scrdir="/data0/home/software/g16/scratch/"
 Default is to use a total of  22 processors:
                               22 via shared-memory
                                1 via Linda
 Entering Link 1 = /data0/home/software/g16/l1.exe PID=    348004.
  
 Copyright (c) 1988,1990,1992,1993,1995,1998,2003,2009,2016,
            Gaussian, Inc.  All Rights Reserved.
  
 This is part of the Gaussian(R) 16 program.  It is based on
 the Gaussian(R) 09 system (copyright 2009, Gaussian, Inc.),
 the Gaussian(R) 03 system (copyright 2003, Gaussian, Inc.),
 the Gaussian(R) 98 system (copyright 1998, Gaussian, Inc.),
 the Gaussian(R) 94 system (copyright 1995, Gaussian, Inc.),
 the Gaussian 92(TM) system (copyright 1992, Gaussian, Inc.),
 the Gaussian 90(TM) system (copyright 1990, Gaussian, Inc.),
 the Gaussian 88(TM) system (copyright 1988, Gaussian, Inc.),
 the Gaussian 86(TM) system (copyright 1986, Carnegie Mellon
 University), and the Gaussian 82(TM) system (copyright 1983,
 Carnegie Mellon University). Gaussian is a federally registered
 trademark of Gaussian, Inc.
  
 This software contains proprietary and confidential information,
 including trade secrets, belonging to Gaussian, Inc.
  
 This software is provided under written license and may be
 used, copied, transmitted, or stored only in accord with that
 written license.
  
 The following legend is applicable only to US Government
 contracts under FAR:
  
                    RESTRICTED RIGHTS LEGEND
  
 Use, reproduction and disclosure by the US Government is
 subject to restrictions as set forth in subparagraphs (a)
 and (c) of the Commercial Computer Software - Restricted
 Rights clause in FAR 52.227-19.
  
 Gaussian, Inc.
 340 Quinnipiac St., Bldg. 40, Wallingford CT 06492
  
  
 ---------------------------------------------------------------
 Warning -- This program may not be used in any manner that
 competes with the business of Gaussian, Inc. or will provide
 assistance to any competitor of Gaussian, Inc.  The licensee
 of this program is prohibited from giving any competitor of
 Gaussian, Inc. access to this program.  By using this program,
 the user acknowledges that Gaussian, Inc. is engaged in the
 business of creating and licensing software in the field of
 computational chemistry and represents and warrants to the
 licensee that it is not a competitor of Gaussian, Inc. and that
 it will not use this program in any manner prohibited above.
 ---------------------------------------------------------------
  

 Cite this work as:
 Gaussian 16, Revision A.03,
 M. J. Frisch, G. W. Trucks, H. B. Schlegel, G. E. Scuseria, 
 M. A. Robb, J. R. Cheeseman, G. Scalmani, V. Barone, 
 G. A. Petersson, H. Nakatsuji, X. Li, M. Caricato, A. V. Marenich, 
 J. Bloino, B. G. Janesko, R. Gomperts, B. Mennucci, H. P. Hratchian, 
 J. V. Ortiz, A. F. Izmaylov, J. L. Sonnenberg, D. Williams-Young, 
 F. Ding, F. Lipparini, F. Egidi, J. Goings, B. Peng, A. Petrone, 
 T. Henderson, D. Ranasinghe, V. G. Zakrzewski, J. Gao, N. Rega, 
 G. Zheng, W. Liang, M. Hada, M. Ehara, K. Toyota, R. Fukuda, 
 J. Hasegawa, M. Ishida, T. Nakajima, Y. Honda, O. Kitao, H. Nakai, 
 T. Vreven, K. Throssell, J. A. Montgomery, Jr., J. E. Peralta, 
 F. Ogliaro, M. J. Bearpark, J. J. Heyd, E. N. Brothers, K. N. Kudin, 
 V. N. Staroverov, T. A. Keith, R. Kobayashi, J. Normand, 
 K. Raghavachari, A. P. Rendell, J. C. Burant, S. S. Iyengar, 
 J. Tomasi, M. Cossi, J. M. Millam, M. Klene, C. Adamo, R. Cammi, 
 J. W. Ochterski, R. L. Martin, K. Morokuma, O. Farkas, 
 J. B. Foresman, and D. J. Fox, Gaussian, Inc., Wallingford CT, 2016.
 
 ******************************************
 Gaussian 16:  ES64L-G16RevA.03 25-Dec-2016
                20-Feb-2023 
 ******************************************
 %nproc=24
 Will use up to   24 processors via shared memory.
 %mem=50GB
 ---------------------------------------------------
 #p M062X/6-311+G(2d,p) nosymm em=GD3 counterpoise=3
 ---------------------------------------------------
 1/38=1,62=3,172=1/1;
 2/12=2,15=1,17=6,18=5,40=1/2;
 1/38=1,53=2,62=3,63=1/22;
 3/5=4,6=6,7=112,11=2,25=1,30=1,74=-55,124=31/1,2,3;
 4//1;
 5/5=2,38=5/2;
 6/7=2,8=2,9=2,10=2,28=1/1;
 1/53=2,62=3,63=1/22;
 3/5=7,6=11,7=112,11=2,25=1,30=1,74=-55,82=7,124=31/1,2,3;
 4//1;
 5/5=2,38=5/2;
 6/7=2,8=2,9=2,10=2,28=1/1;
 1/53=2,62=3,63=1/22(-4);
 99/5=1,9=1/99;
 Leave Link    1 at Mon Feb 20 00:32:04 2023, MaxMem=  6710886400 cpu:               0.7 elap:               0.0
 (Enter /data0/home/software/g16/l101.exe)
 -------------------
 Title Card Required
 -------------------
 Symbolic Z-matrix:
 Charge =  0 Multiplicity = 1 in supermolecule
 Charge =  0 Multiplicity = 1 in fragment      1.
 Charge =  0 Multiplicity = 1 in fragment      2.
 Charge =  0 Multiplicity = 1 in fragment      3.
 P                     15.39208   16.59722   11.5074    
 O                     15.04061   16.32935   12.90973    
 O                     16.88569   16.12462   11.22336    
 H                     17.08447   16.33545   10.22996    
 O                     14.53619   15.86167   10.40234    
 H                     13.55378   16.3011   10.40105    
 O                     15.40672   18.14084   11.13326    
 H                     14.40055   18.48719   11.05917    
 O                     11.101    15.0383   12.28057    
 H                     11.4385   15.71674   11.64326    
 H                     11.17454   14.21565   11.80568    
 O                     12.77373   15.15883   14.51086    
 H                     13.60813   15.22179   14.03477    
 H                     12.12472   15.00322   13.80236    
 
 ITRead=  0  0  0  0  0  0  0  0  0  0  0  0  0  0
 MicOpt= -1 -1 -1 -1 -1 -1 -1 -1 -1 -1 -1 -1 -1 -1
 NAtoms=     14 NQM=       14 NQMF=       0 NMMI=      0 NMMIF=      0
                NMic=       0 NMicF=      0.
                    Isotopes and Nuclear Properties:
 (Nuclear quadrupole moments (NQMom) in fm**2, nuclear magnetic moments (NMagM)
  in nuclear magnetons)

  Atom         1           2           3           4           5           6           7           8           9          10
 IAtWgt=          31          16          16           1          16           1          16           1          16           1
 AtmWgt=  30.9737634  15.9949146  15.9949146   1.0078250  15.9949146   1.0078250  15.9949146   1.0078250  15.9949146   1.0078250
 NucSpn=           1           0           0           1           0           1           0           1           0           1
 AtZEff=  -0.0000000  -0.0000000  -0.0000000  -0.0000000  -0.0000000  -0.0000000  -0.0000000  -0.0000000  -0.0000000  -0.0000000
 NQMom=    0.0000000   0.0000000   0.0000000   0.0000000   0.0000000   0.0000000   0.0000000   0.0000000   0.0000000   0.0000000
 NMagM=    1.1316000   0.0000000   0.0000000   2.7928460   0.0000000   2.7928460   0.0000000   2.7928460   0.0000000   2.7928460
 AtZNuc=  15.0000000   8.0000000   8.0000000   1.0000000   8.0000000   1.0000000   8.0000000   1.0000000   8.0000000   1.0000000

  Atom        11          12          13          14
 IAtWgt=           1          16           1           1
 AtmWgt=   1.0078250  15.9949146   1.0078250   1.0078250
 NucSpn=           1           0           1           1
 AtZEff=  -0.0000000  -0.0000000  -0.0000000  -0.0000000
 NQMom=    0.0000000   0.0000000   0.0000000   0.0000000
 NMagM=    2.7928460   0.0000000   2.7928460   2.7928460
 AtZNuc=   1.0000000   8.0000000   1.0000000   1.0000000
 Leave Link  101 at Mon Feb 20 00:32:04 2023, MaxMem=  6710886400 cpu:               2.0 elap:               0.1
 (Enter /data0/home/software/g16/l202.exe)
                          Input orientation:                          
 ---------------------------------------------------------------------
 Center     Atomic      Atomic             Coordinates (Angstroms)
 Number     Number       Type             X           Y           Z
 ---------------------------------------------------------------------
      1         15           0       15.392076   16.597220   11.507399
      2          8           0       15.040612   16.329347   12.909729
      3          8           0       16.885688   16.124621   11.223357
      4          1           0       17.084472   16.335453   10.229960
      5          8           0       14.536186   15.861675   10.402337
      6          1           0       13.553777   16.301097   10.401048
      7          8           0       15.406716   18.140836   11.133256
      8          1           0       14.400545   18.487190   11.059168
      9          8           0       11.100997   15.038299   12.280570
     10          1           0       11.438500   15.716736   11.643264
     11          1           0       11.174540   14.215646   11.805682
     12          8           0       12.773726   15.158833   14.510860
     13          1           0       13.608127   15.221788   14.034773
     14          1           0       12.124724   15.003221   13.802359
 ---------------------------------------------------------------------
                    Distance matrix (angstroms):
                    1          2          3          4          5
     1  P    0.000000
     2  O    1.470310   0.000000
     3  O    1.592139   2.508001   0.000000
     4  H    2.136487   3.370247   1.034796   0.000000
     5  O    1.579473   2.600034   2.502673   2.597680   0.000000
     6  H    2.165882   2.916326   3.436418   3.535005   1.076207
     7  O    1.588379   2.563470   2.502119   2.624922   2.546888
     8  H    2.180833   2.913855   3.432874   3.538506   2.709826
     9  O    4.630485   4.193234   5.980004   6.456747   4.000779
    10  H    4.052712   3.867097   5.478554   5.852968   3.340145
    11  H    4.852677   4.542374   6.049835   6.473313   3.997431
    12  O    4.236212   3.012058   5.352444   6.188140   4.525507
    13  H    3.385544   2.131766   4.411527   5.272744   3.803333
    14  H    4.299217   3.325327   5.529518   6.255875   4.255848
                    6          7          8          9         10
     6  H    0.000000
     7  O    2.711854   0.000000
     8  H    2.434983   1.066691   0.000000
     9  O    3.338172   5.429667   4.926834   0.000000
    10  H    2.521701   4.677938   4.097596   0.990123   0.000000
    11  H    3.461628   5.811247   5.404672   0.952725   1.532751
    12  O    4.336335   5.218543   5.063465   2.790474   3.212038
    13  H    3.791018   4.491610   4.488318   3.065387   3.266737
    14  H    3.910958   5.266898   4.984225   1.834418   2.375226
                   11         12         13         14
    11  H    0.000000
    12  O    3.281004   0.000000
    13  H    3.450147   0.962729   0.000000
    14  H    2.347305   0.973341   1.517324   0.000000
 Symmetry turned off by external request.
 Stoichiometry    H7O6P
 Framework group  C1[X(H7O6P)]
 Deg. of freedom    36
 Full point group                 C1      NOp   1
 Rotational constants (GHZ):           2.7529092           0.8548116           0.7646943
 Leave Link  202 at Mon Feb 20 00:32:04 2023, MaxMem=  6710886400 cpu:               0.1 elap:               0.0
 (Enter /data0/home/software/g16/l122.exe)
 Counterpoise: doing full-system calculation.
 Leave Link  122 at Mon Feb 20 00:32:04 2023, MaxMem=  6710886400 cpu:               0.0 elap:               0.0
 (Enter /data0/home/software/g16/l301.exe)
 Standard basis: 6-311+G(2d,p) (5D, 7F)
 Ernie: Thresh=  0.10000D-02 Tol=  0.10000D-05 Strict=F.
   239 basis functions,   364 primitive gaussians,   253 cartesian basis functions
    35 alpha electrons       35 beta electrons
       nuclear repulsion energy       436.7405865099 Hartrees.
 IExCor= 4336 DFT=T Ex+Corr=M062X ExCW=0 ScaHFX=  0.540000
 ScaDFX=  1.000000  1.000000  1.000000  1.000000 ScalE2=  1.000000  1.000000
 IRadAn=      5 IRanWt=     -1 IRanGd=            0 ICorTp=0 IEmpDi=131
 NAtoms=   14 NActive=   14 NUniq=   14 SFac= 1.00D+00 NAtFMM=   60 NAOKFM=F Big=F
 Integral buffers will be    131072 words long.
 Raffenetti 2 integral format.
 Two-electron integral symmetry is turned off.
 R6Disp:  Grimme-D3 Dispersion energy=       -0.0003885536 Hartrees.
 Nuclear repulsion after empirical dispersion term =      436.7401979563 Hartrees.
 Leave Link  301 at Mon Feb 20 00:32:04 2023, MaxMem=  6710886400 cpu:               1.1 elap:               0.1
 (Enter /data0/home/software/g16/l302.exe)
 NPDir=0 NMtPBC=     1 NCelOv=     1 NCel=       1 NClECP=     1 NCelD=      1
         NCelK=      1 NCelE2=     1 NClLst=     1 CellRange=     0.0.
 One-electron integrals computed using PRISM.
 NBasis=   239 RedAO= T EigKep=  5.35D-04  NBF=   239
 NBsUse=   239 1.00D-06 EigRej= -1.00D+00 NBFU=   239
 Precomputing XC quadrature grid using
 IXCGrd= 4 IRadAn=           5 IRanWt=          -1 IRanGd=           0 AccXCQ= 0.00D+00.
 Generated NRdTot=       0 NPtTot=           0 NUsed=           0 NTot=          32
 NSgBfM=   252   252   252   252   252 MxSgAt=    14 MxSgA2=    14.
 Leave Link  302 at Mon Feb 20 00:32:04 2023, MaxMem=  6710886400 cpu:               3.9 elap:               0.2
 (Enter /data0/home/software/g16/l303.exe)
 DipDrv:  MaxL=1.
 Leave Link  303 at Mon Feb 20 00:32:04 2023, MaxMem=  6710886400 cpu:               0.6 elap:               0.0
 (Enter /data0/home/software/g16/l401.exe)
 ExpMin= 3.48D-02 ExpMax= 7.75D+04 ExpMxC= 2.65D+03 IAcc=3 IRadAn=         5 AccDes= 0.00D+00
 Harris functional with IExCor= 1009 and IRadAn=       5 diagonalized for initial guess.
 HarFok:  IExCor= 1009 AccDes= 0.00D+00 IRadAn=         5 IDoV= 1 UseB2=F ITyADJ=14
 ICtDFT=  3500011 ScaDFX=  1.000000  1.000000  1.000000  1.000000
 FoFCou: FMM=F IPFlag=           0 FMFlag=      100000 FMFlg1=           0
         NFxFlg=           0 DoJE=T BraDBF=F KetDBF=T FulRan=T
         wScrn=  0.000000 ICntrl=       500 IOpCl=  0 I1Cent=   200000004 NGrid=           0
         NMat0=    1 NMatS0=      1 NMatT0=    0 NMatD0=    1 NMtDS0=    0 NMtDT0=    0
 Symmetry not used in FoFCou.
 Harris En= -796.771787369197    
 JPrj=0 DoOrth=F DoCkMO=F.
 Leave Link  401 at Mon Feb 20 00:32:04 2023, MaxMem=  6710886400 cpu:              10.5 elap:               0.5
 (Enter /data0/home/software/g16/l502.exe)
 Two-electron integral symmetry not used.
 Closed shell SCF:
 Using DIIS extrapolation, IDIIS=  1040.
 NGot=  6710886400 LenX=  6710750439 LenY=  6710685989
 Requested convergence on RMS density matrix=1.00D-08 within 128 cycles.
 Requested convergence on MAX density matrix=1.00D-06.
 Requested convergence on             energy=1.00D-06.
 No special actions if energy rises.
 Fock matrices will be formed incrementally for  20 cycles.

 Cycle   1  Pass 1  IDiag  1:
 FoFJK:  IHMeth= 1 ICntrl=       0 DoSepK=F KAlg= 0 I1Cent=           0 FoldK=F
 IRaf= 900000000 NMat=       1 IRICut=       1 DoRegI=T DoRafI=F ISym2E= 0 IDoP0=0 IntGTp=1.
 FoFCou: FMM=F IPFlag=           0 FMFlag=      100000 FMFlg1=           0
         NFxFlg=           0 DoJE=F BraDBF=F KetDBF=F FulRan=T
         wScrn=  0.000000 ICntrl=         0 IOpCl=  0 I1Cent=           0 NGrid=           0
         NMat0=    1 NMatS0=      1 NMatT0=    0 NMatD0=    1 NMtDS0=    0 NMtDT0=    0
 Symmetry not used in FoFCou.
 E= -796.549626882080    
 DIIS: error= 4.53D-02 at cycle   1 NSaved=   1.
 NSaved= 1 IEnMin= 1 EnMin= -796.549626882080     IErMin= 1 ErrMin= 4.53D-02
 ErrMax= 4.53D-02  0.00D+00 EMaxC= 1.00D-01 BMatC= 7.36D-01 BMatP= 7.36D-01
 IDIUse=3 WtCom= 5.47D-01 WtEn= 4.53D-01
 Coeff-Com:  0.100D+01
 Coeff-En:   0.100D+01
 Coeff:      0.100D+01
 Gap=     0.222 Goal=   None    Shift=    0.000
 GapD=    0.222 DampG=1.000 DampE=0.500 DampFc=0.5000 IDamp=-1.
 Damping current iteration by 5.00D-01
 RMSDP=6.43D-03 MaxDP=2.40D-01              OVMax= 2.33D-01

 Cycle   2  Pass 1  IDiag  1:
 RMSU=  3.21D-03    CP:  1.00D+00
 E= -796.727474873688     Delta-E=       -0.177847991608 Rises=F Damp=T
 DIIS: error= 9.06D-03 at cycle   2 NSaved=   2.
 NSaved= 2 IEnMin= 2 EnMin= -796.727474873688     IErMin= 2 ErrMin= 9.06D-03
 ErrMax= 9.06D-03  0.00D+00 EMaxC= 1.00D-01 BMatC= 3.60D-02 BMatP= 7.36D-01
 IDIUse=3 WtCom= 9.09D-01 WtEn= 9.06D-02
 Coeff-Com:  0.726D-01 0.927D+00
 Coeff-En:   0.193D+00 0.807D+00
 Coeff:      0.835D-01 0.917D+00
 Gap=     0.271 Goal=   None    Shift=    0.000
 RMSDP=1.48D-03 MaxDP=8.05D-02 DE=-1.78D-01 OVMax= 1.66D-01

 Cycle   3  Pass 1  IDiag  1:
 RMSU=  1.01D-03    CP:  9.96D-01  6.65D-01
 E= -796.977641697496     Delta-E=       -0.250166823808 Rises=F Damp=F
 DIIS: error= 5.81D-03 at cycle   3 NSaved=   3.
 NSaved= 3 IEnMin= 3 EnMin= -796.977641697496     IErMin= 3 ErrMin= 5.81D-03
 ErrMax= 5.81D-03  0.00D+00 EMaxC= 1.00D-01 BMatC= 9.92D-03 BMatP= 3.60D-02
 IDIUse=3 WtCom= 9.42D-01 WtEn= 5.81D-02
 Coeff-Com: -0.157D-01 0.285D+00 0.731D+00
 Coeff-En:   0.000D+00 0.000D+00 0.100D+01
 Coeff:     -0.148D-01 0.268D+00 0.747D+00
 Gap=     0.275 Goal=   None    Shift=    0.000
 RMSDP=4.97D-04 MaxDP=1.66D-02 DE=-2.50D-01 OVMax= 3.76D-02

 Cycle   4  Pass 1  IDiag  1:
 RMSU=  4.27D-04    CP:  9.97D-01  7.33D-01  8.75D-01
 E= -796.980994408074     Delta-E=       -0.003352710578 Rises=F Damp=F
 DIIS: error= 4.46D-03 at cycle   4 NSaved=   4.
 NSaved= 4 IEnMin= 4 EnMin= -796.980994408074     IErMin= 4 ErrMin= 4.46D-03
 ErrMax= 4.46D-03  0.00D+00 EMaxC= 1.00D-01 BMatC= 5.47D-03 BMatP= 9.92D-03
 IDIUse=3 WtCom= 9.55D-01 WtEn= 4.46D-02
 Coeff-Com: -0.201D-01 0.419D-01 0.450D+00 0.529D+00
 Coeff-En:   0.000D+00 0.000D+00 0.355D+00 0.645D+00
 Coeff:     -0.192D-01 0.400D-01 0.445D+00 0.534D+00
 Gap=     0.274 Goal=   None    Shift=    0.000
 RMSDP=2.26D-04 MaxDP=7.99D-03 DE=-3.35D-03 OVMax= 1.40D-02

 Cycle   5  Pass 1  IDiag  1:
 RMSU=  6.74D-05    CP:  9.96D-01  7.08D-01  9.73D-01  5.94D-01
 E= -796.984670992116     Delta-E=       -0.003676584042 Rises=F Damp=F
 DIIS: error= 3.07D-04 at cycle   5 NSaved=   5.
 NSaved= 5 IEnMin= 5 EnMin= -796.984670992116     IErMin= 5 ErrMin= 3.07D-04
 ErrMax= 3.07D-04  0.00D+00 EMaxC= 1.00D-01 BMatC= 2.34D-05 BMatP= 5.47D-03
 IDIUse=3 WtCom= 9.97D-01 WtEn= 3.07D-03
 Coeff-Com: -0.244D-02-0.120D-04 0.710D-01 0.116D+00 0.815D+00
 Coeff-En:   0.000D+00 0.000D+00 0.000D+00 0.000D+00 0.100D+01
 Coeff:     -0.243D-02-0.120D-04 0.708D-01 0.116D+00 0.816D+00
 Gap=     0.276 Goal=   None    Shift=    0.000
 RMSDP=2.27D-05 MaxDP=6.35D-04 DE=-3.68D-03 OVMax= 9.83D-04

 Cycle   6  Pass 1  IDiag  1:
 RMSU=  1.63D-05    CP:  9.96D-01  7.05D-01  9.75D-01  6.18D-01  1.07D+00
 E= -796.984685843796     Delta-E=       -0.000014851680 Rises=F Damp=F
 DIIS: error= 8.88D-05 at cycle   6 NSaved=   6.
 NSaved= 6 IEnMin= 6 EnMin= -796.984685843796     IErMin= 6 ErrMin= 8.88D-05
 ErrMax= 8.88D-05  0.00D+00 EMaxC= 1.00D-01 BMatC= 3.27D-06 BMatP= 2.34D-05
 IDIUse=1 WtCom= 1.00D+00 WtEn= 0.00D+00
 Coeff-Com:  0.109D-03-0.202D-02 0.347D-02 0.155D-01 0.297D+00 0.686D+00
 Coeff:      0.109D-03-0.202D-02 0.347D-02 0.155D-01 0.297D+00 0.686D+00
 Gap=     0.275 Goal=   None    Shift=    0.000
 RMSDP=9.91D-06 MaxDP=3.92D-04 DE=-1.49D-05 OVMax= 3.16D-04

 Cycle   7  Pass 1  IDiag  1:
 RMSU=  5.23D-06    CP:  9.96D-01  7.03D-01  9.77D-01  6.21D-01  1.15D+00
                    CP:  8.59D-01
 E= -796.984688022880     Delta-E=       -0.000002179084 Rises=F Damp=F
 DIIS: error= 4.43D-05 at cycle   7 NSaved=   7.
 NSaved= 7 IEnMin= 7 EnMin= -796.984688022880     IErMin= 7 ErrMin= 4.43D-05
 ErrMax= 4.43D-05  0.00D+00 EMaxC= 1.00D-01 BMatC= 5.45D-07 BMatP= 3.27D-06
 IDIUse=1 WtCom= 1.00D+00 WtEn= 0.00D+00
 Coeff-Com:  0.430D-03-0.719D-03-0.111D-01-0.140D-01-0.195D-01 0.284D+00
 Coeff-Com:  0.761D+00
 Coeff:      0.430D-03-0.719D-03-0.111D-01-0.140D-01-0.195D-01 0.284D+00
 Coeff:      0.761D+00
 Gap=     0.276 Goal=   None    Shift=    0.000
 RMSDP=4.09D-06 MaxDP=1.30D-04 DE=-2.18D-06 OVMax= 1.37D-04

 Cycle   8  Pass 1  IDiag  1:
 RMSU=  2.26D-06    CP:  9.96D-01  7.03D-01  9.77D-01  6.22D-01  1.18D+00
                    CP:  9.45D-01  8.43D-01
 E= -796.984688415352     Delta-E=       -0.000000392471 Rises=F Damp=F
 DIIS: error= 9.71D-06 at cycle   8 NSaved=   8.
 NSaved= 8 IEnMin= 8 EnMin= -796.984688415352     IErMin= 8 ErrMin= 9.71D-06
 ErrMax= 9.71D-06  0.00D+00 EMaxC= 1.00D-01 BMatC= 3.75D-08 BMatP= 5.45D-07
 IDIUse=1 WtCom= 1.00D+00 WtEn= 0.00D+00
 Coeff-Com:  0.150D-03-0.181D-03-0.452D-02-0.586D-02-0.169D-01 0.786D-01
 Coeff-Com:  0.305D+00 0.644D+00
 Coeff:      0.150D-03-0.181D-03-0.452D-02-0.586D-02-0.169D-01 0.786D-01
 Coeff:      0.305D+00 0.644D+00
 Gap=     0.276 Goal=   None    Shift=    0.000
 RMSDP=7.42D-07 MaxDP=3.14D-05 DE=-3.92D-07 OVMax= 3.80D-05

 Cycle   9  Pass 1  IDiag  1:
 RMSU=  5.31D-07    CP:  9.96D-01  7.03D-01  9.77D-01  6.22D-01  1.18D+00
                    CP:  9.61D-01  9.12D-01  8.92D-01
 E= -796.984688444698     Delta-E=       -0.000000029347 Rises=F Damp=F
 DIIS: error= 1.74D-06 at cycle   9 NSaved=   9.
 NSaved= 9 IEnMin= 9 EnMin= -796.984688444698     IErMin= 9 ErrMin= 1.74D-06
 ErrMax= 1.74D-06  0.00D+00 EMaxC= 1.00D-01 BMatC= 1.85D-09 BMatP= 3.75D-08
 IDIUse=1 WtCom= 1.00D+00 WtEn= 0.00D+00
 Coeff-Com: -0.141D-04 0.365D-04-0.362D-04 0.224D-04-0.192D-02-0.982D-02
 Coeff-Com: -0.181D-02 0.140D+00 0.874D+00
 Coeff:     -0.141D-04 0.365D-04-0.362D-04 0.224D-04-0.192D-02-0.982D-02
 Coeff:     -0.181D-02 0.140D+00 0.874D+00
 Gap=     0.276 Goal=   None    Shift=    0.000
 RMSDP=2.85D-07 MaxDP=8.53D-06 DE=-2.93D-08 OVMax= 1.39D-05

 Cycle  10  Pass 1  IDiag  1:
 RMSU=  1.40D-07    CP:  9.96D-01  7.03D-01  9.77D-01  6.23D-01  1.18D+00
                    CP:  9.62D-01  9.23D-01  9.70D-01  1.03D+00
 E= -796.984688446366     Delta-E=       -0.000000001668 Rises=F Damp=F
 DIIS: error= 1.60D-06 at cycle  10 NSaved=  10.
 NSaved=10 IEnMin=10 EnMin= -796.984688446366     IErMin=10 ErrMin= 1.60D-06
 ErrMax= 1.60D-06  0.00D+00 EMaxC= 1.00D-01 BMatC= 5.02D-10 BMatP= 1.85D-09
 IDIUse=1 WtCom= 1.00D+00 WtEn= 0.00D+00
 Coeff-Com: -0.201D-04 0.349D-04 0.360D-03 0.493D-03 0.120D-03-0.123D-01
 Coeff-Com: -0.280D-01 0.129D-01 0.427D+00 0.599D+00
 Coeff:     -0.201D-04 0.349D-04 0.360D-03 0.493D-03 0.120D-03-0.123D-01
 Coeff:     -0.280D-01 0.129D-01 0.427D+00 0.599D+00
 Gap=     0.276 Goal=   None    Shift=    0.000
 RMSDP=9.69D-08 MaxDP=3.47D-06 DE=-1.67D-09 OVMax= 4.88D-06

 Cycle  11  Pass 1  IDiag  1:
 RMSU=  5.54D-08    CP:  9.96D-01  7.03D-01  9.77D-01  6.23D-01  1.18D+00
                    CP:  9.62D-01  9.26D-01  9.85D-01  1.13D+00  9.24D-01
 E= -796.984688446741     Delta-E=       -0.000000000375 Rises=F Damp=F
 DIIS: error= 1.54D-07 at cycle  11 NSaved=  11.
 NSaved=11 IEnMin=11 EnMin= -796.984688446741     IErMin=11 ErrMin= 1.54D-07
 ErrMax= 1.54D-07  0.00D+00 EMaxC= 1.00D-01 BMatC= 1.32D-11 BMatP= 5.02D-10
 IDIUse=1 WtCom= 1.00D+00 WtEn= 0.00D+00
 Coeff-Com:  0.405D-06-0.853D-06 0.386D-04 0.456D-04 0.235D-03-0.557D-03
 Coeff-Com: -0.394D-02-0.123D-01-0.339D-01 0.902D-01 0.960D+00
 Coeff:      0.405D-06-0.853D-06 0.386D-04 0.456D-04 0.235D-03-0.557D-03
 Coeff:     -0.394D-02-0.123D-01-0.339D-01 0.902D-01 0.960D+00
 Gap=     0.276 Goal=   None    Shift=    0.000
 RMSDP=3.10D-08 MaxDP=7.01D-07 DE=-3.75D-10 OVMax= 2.01D-06

 Cycle  12  Pass 1  IDiag  1:
 RMSU=  1.47D-08    CP:  9.96D-01  7.03D-01  9.77D-01  6.23D-01  1.18D+00
                    CP:  9.62D-01  9.26D-01  9.90D-01  1.15D+00  1.04D+00
                    CP:  1.09D+00
 E= -796.984688446746     Delta-E=       -0.000000000005 Rises=F Damp=F
 DIIS: error= 4.60D-08 at cycle  12 NSaved=  12.
 NSaved=12 IEnMin=12 EnMin= -796.984688446746     IErMin=12 ErrMin= 4.60D-08
 ErrMax= 4.60D-08  0.00D+00 EMaxC= 1.00D-01 BMatC= 1.09D-12 BMatP= 1.32D-11
 IDIUse=1 WtCom= 1.00D+00 WtEn= 0.00D+00
 Coeff-Com:  0.952D-06-0.171D-05-0.197D-05-0.377D-05 0.664D-04 0.333D-03
 Coeff-Com:  0.706D-04-0.368D-02-0.269D-01-0.258D-02 0.275D+00 0.758D+00
 Coeff:      0.952D-06-0.171D-05-0.197D-05-0.377D-05 0.664D-04 0.333D-03
 Coeff:      0.706D-04-0.368D-02-0.269D-01-0.258D-02 0.275D+00 0.758D+00
 Gap=     0.276 Goal=   None    Shift=    0.000
 RMSDP=6.49D-09 MaxDP=1.74D-07 DE=-5.23D-12 OVMax= 3.73D-07

 SCF Done:  E(RM062X) =  -796.984688447     A.U. after   12 cycles
            NFock= 12  Conv=0.65D-08     -V/T= 2.0026
 KE= 7.949013292636D+02 PE=-2.762232274875D+03 EE= 7.336060592087D+02
 Leave Link  502 at Mon Feb 20 00:32:17 2023, MaxMem=  6710886400 cpu:             287.2 elap:              12.0
 (Enter /data0/home/software/g16/l601.exe)
 Copying SCF densities to generalized density rwf, IOpCl= 0 IROHF=0.

 **********************************************************************

            Population analysis using the SCF density.

 **********************************************************************

 Alpha  occ. eigenvalues --  -78.18499 -19.71788 -19.70425 -19.69513 -19.66493
 Alpha  occ. eigenvalues --  -19.59655 -19.55936  -6.99286  -5.11206  -5.11187
 Alpha  occ. eigenvalues --   -5.10943  -1.26265  -1.19084  -1.18135  -1.17158
 Alpha  occ. eigenvalues --   -1.10015  -1.06999  -0.74275  -0.67353  -0.65199
 Alpha  occ. eigenvalues --   -0.64315  -0.60731  -0.56064  -0.54888  -0.53474
 Alpha  occ. eigenvalues --   -0.51671  -0.50570  -0.47861  -0.47093  -0.46736
 Alpha  occ. eigenvalues --   -0.44693  -0.40518  -0.39431  -0.38412  -0.33909
 Alpha virt. eigenvalues --   -0.06345  -0.00615   0.00770   0.03830   0.05252
 Alpha virt. eigenvalues --    0.06049   0.08638   0.09862   0.10902   0.12300
 Alpha virt. eigenvalues --    0.13613   0.14566   0.15797   0.16425   0.16705
 Alpha virt. eigenvalues --    0.17897   0.18157   0.18468   0.19864   0.20315
 Alpha virt. eigenvalues --    0.21232   0.21897   0.22620   0.23453   0.24285
 Alpha virt. eigenvalues --    0.25951   0.26221   0.26936   0.27613   0.28144
 Alpha virt. eigenvalues --    0.29032   0.30448   0.31784   0.33114   0.34227
 Alpha virt. eigenvalues --    0.34977   0.36706   0.38661   0.39702   0.41760
 Alpha virt. eigenvalues --    0.42821   0.44714   0.45296   0.47445   0.50558
 Alpha virt. eigenvalues --    0.52874   0.54430   0.56119   0.57904   0.62884
 Alpha virt. eigenvalues --    0.69496   0.73567   0.75268   0.75669   0.85238
 Alpha virt. eigenvalues --    0.94701   0.96544   0.98811   1.00670   1.01144
 Alpha virt. eigenvalues --    1.04168   1.04610   1.06248   1.09837   1.10067
 Alpha virt. eigenvalues --    1.12057   1.12875   1.13220   1.14765   1.15536
 Alpha virt. eigenvalues --    1.17715   1.18293   1.19211   1.19461   1.21432
 Alpha virt. eigenvalues --    1.22111   1.25027   1.25277   1.27459   1.30186
 Alpha virt. eigenvalues --    1.31548   1.33528   1.38336   1.39435   1.40487
 Alpha virt. eigenvalues --    1.41501   1.43379   1.49821   1.51426   1.53155
 Alpha virt. eigenvalues --    1.54106   1.57192   1.57528   1.58753   1.63392
 Alpha virt. eigenvalues --    1.64784   1.65313   1.66997   1.68702   1.71447
 Alpha virt. eigenvalues --    1.71685   1.73773   1.80612   1.81717   1.81983
 Alpha virt. eigenvalues --    1.83707   1.84484   1.87915   1.94144   1.96310
 Alpha virt. eigenvalues --    1.97521   2.00781   2.03032   2.05554   2.08402
 Alpha virt. eigenvalues --    2.11023   2.11666   2.12835   2.17047   2.20403
 Alpha virt. eigenvalues --    2.24244   2.24776   2.26105   2.35708   2.36902
 Alpha virt. eigenvalues --    2.41172   2.43160   2.43939   2.53327   2.55568
 Alpha virt. eigenvalues --    2.57236   2.61233   2.61561   2.63610   2.65877
 Alpha virt. eigenvalues --    2.69342   2.72215   2.80361   2.85346   2.87970
 Alpha virt. eigenvalues --    2.89023   2.94184   2.98169   3.00993   3.18682
 Alpha virt. eigenvalues --    5.00390   5.03488   5.04619   5.05368   5.08875
 Alpha virt. eigenvalues --    5.09652   5.13308   5.14475   5.19275   5.24620
 Alpha virt. eigenvalues --    5.36568   5.40392   5.43748   5.48224   5.50717
 Alpha virt. eigenvalues --    5.57512   5.87801   6.00724   6.70192   6.72817
 Alpha virt. eigenvalues --    6.73686   6.75453   6.76985   6.78103   6.79045
 Alpha virt. eigenvalues --    6.79662   6.81358   6.83986   6.85633   6.87102
 Alpha virt. eigenvalues --    6.87559   6.89810   6.90417   6.90932   6.92883
 Alpha virt. eigenvalues --    6.96514   6.98157   6.98798   6.99206   7.02881
 Alpha virt. eigenvalues --    7.06692   7.10358   7.22516   7.23355   7.24729
 Alpha virt. eigenvalues --    7.26470   7.30380   7.40293   7.63934  14.22190
 Alpha virt. eigenvalues --   14.22858  14.32505  49.94778  49.96720  49.98221
 Alpha virt. eigenvalues --   49.99603  50.06556  50.09507 163.86574
          Condensed to atoms (all electrons):
               1          2          3          4          5          6
     1  P   12.573285   0.524831   0.132629   0.046724   0.231913   0.000776
     2  O    0.524831   8.160728  -0.019665  -0.001308  -0.024404  -0.017872
     3  O    0.132629  -0.019665   8.141418   0.208911   0.014346  -0.001288
     4  H    0.046724  -0.001308   0.208911   0.458624  -0.013538   0.002184
     5  O    0.231913  -0.024404   0.014346  -0.013538   8.047016   0.241251
     6  H    0.000776  -0.017872  -0.001288   0.002184   0.241251   0.489370
     7  O    0.221072   0.004810  -0.000106  -0.010203   0.037256  -0.002636
     8  H    0.005291  -0.013494   0.000193   0.001948  -0.008540  -0.003453
     9  O    0.001594  -0.000502   0.000213   0.000006  -0.000793   0.007113
    10  H   -0.000483   0.001048   0.000005  -0.000008   0.000507  -0.000451
    11  H   -0.001411   0.000305  -0.000039   0.000001   0.000421  -0.000497
    12  O    0.002530  -0.001031   0.000106  -0.000031  -0.000355   0.000215
    13  H    0.000184   0.015621  -0.000543   0.000036  -0.002065   0.000027
    14  H   -0.000035   0.001663  -0.000087  -0.000002  -0.000308  -0.000561
               7          8          9         10         11         12
     1  P    0.221072   0.005291   0.001594  -0.000483  -0.001411   0.002530
     2  O    0.004810  -0.013494  -0.000502   0.001048   0.000305  -0.001031
     3  O   -0.000106   0.000193   0.000213   0.000005  -0.000039   0.000106
     4  H   -0.010203   0.001948   0.000006  -0.000008   0.000001  -0.000031
     5  O    0.037256  -0.008540  -0.000793   0.000507   0.000421  -0.000355
     6  H   -0.002636  -0.003453   0.007113  -0.000451  -0.000497   0.000215
     7  O    8.030298   0.251509  -0.000509  -0.000047   0.000064  -0.000656
     8  H    0.251509   0.455302   0.000018  -0.000224  -0.000000  -0.000158
     9  O   -0.000509   0.000018   8.021893   0.296972   0.305002   0.033053
    10  H   -0.000047  -0.000224   0.296972   0.452236  -0.018798  -0.005711
    11  H    0.000064  -0.000000   0.305002  -0.018798   0.423749  -0.006093
    12  O   -0.000656  -0.000158   0.033053  -0.005711  -0.006093   8.060375
    13  H    0.000381   0.000239   0.007773  -0.000980  -0.002030   0.288746
    14  H    0.000053   0.000030  -0.082429   0.005748   0.006273   0.299548
              13         14
     1  P    0.000184  -0.000035
     2  O    0.015621   0.001663
     3  O   -0.000543  -0.000087
     4  H    0.000036  -0.000002
     5  O   -0.002065  -0.000308
     6  H    0.000027  -0.000561
     7  O    0.000381   0.000053
     8  H    0.000239   0.000030
     9  O    0.007773  -0.082429
    10  H   -0.000980   0.005748
    11  H   -0.002030   0.006273
    12  O    0.288746   0.299548
    13  H    0.416591  -0.028246
    14  H   -0.028246   0.410016
 Mulliken charges:
               1
     1  P    1.261099
     2  O   -0.630731
     3  O   -0.476094
     4  H    0.306654
     5  O   -0.522706
     6  H    0.285822
     7  O   -0.531284
     8  H    0.311341
     9  O   -0.589405
    10  H    0.270187
    11  H    0.293052
    12  O   -0.670536
    13  H    0.304266
    14  H    0.388336
 Sum of Mulliken charges =  -0.00000
 Mulliken charges with hydrogens summed into heavy atoms:
               1
     1  P    1.261099
     2  O   -0.630731
     3  O   -0.169440
     5  O   -0.236885
     7  O   -0.219944
     9  O   -0.026166
    12  O    0.022066
         Mulliken charges condensed to fragments:
      1      0.004100
      2     -0.026166
      3      0.022066
 Electronic spatial extent (au):  <R**2>=         154839.5581
 Charge=             -0.0000 electrons
 Dipole moment (field-independent basis, Debye):
    X=             -1.0624    Y=              1.8569    Z=             -9.2759  Tot=              9.5194
 Quadrupole moment (field-independent basis, Debye-Ang):
   XX=            -79.2437   YY=             14.9786   ZZ=           -281.4460
   XY=              8.3533   XZ=           -138.3868   YZ=           -126.4200
 Traceless Quadrupole moment (field-independent basis, Debye-Ang):
   XX=             35.9933   YY=            130.2157   ZZ=           -166.2090
   XY=              8.3533   XZ=           -138.3868   YZ=           -126.4200
 Octapole moment (field-independent basis, Debye-Ang**2):
  XXX=          -2750.6507  YYY=           -735.6656  ZZZ=          -6164.8226  XYY=           -123.1333
  XXY=           -936.8771  XXZ=          -2684.8203  XZZ=          -3989.8707  YZZ=          -4239.2112
  YYZ=          -2210.3321  XYZ=          -1920.8668
 Hexadecapole moment (field-independent basis, Debye-Ang**3):
 XXXX=         -73542.2909 YYYY=         -39948.2017 ZZZZ=        -117460.4693 XXXY=         -40073.2679
 XXXZ=         -57281.6944 YYYX=         -17247.3008 YYYZ=         -47253.6020 ZZZX=         -86057.3962
 ZZZY=         -95316.1172 XXYY=         -19738.4132 XXZZ=         -64718.1213 YYZZ=         -70303.3250
 XXYZ=         -39198.2617 YYXZ=         -34005.4133 ZZXY=         -60469.6213
 N-N= 4.367401979563D+02 E-N=-2.762232276898D+03  KE= 7.949013292636D+02
 No NMR shielding tensors so no spin-rotation constants.
 Leave Link  601 at Mon Feb 20 00:32:17 2023, MaxMem=  6710886400 cpu:               1.9 elap:               0.1
 (Enter /data0/home/software/g16/l122.exe)
 CPIOFr:  IOpCl= 0 IRwI=-1 IRwCP=  731 ICalc= -1 LCPTot=       89292 Len1MO=      233639 IndFrg=       89292
 CPIOFr:  IOpCl= 0 IRwI=-1 IRwCP=  731 ICalc=  0 LCPTot=       89292 Len1MO=      233639 IndFrg=      322931
 Counterpoise: doing calculation for fragment   1 using the basis set of the full-system, NewBq=T
 Leave Link  122 at Mon Feb 20 00:32:17 2023, MaxMem=  6710886400 cpu:               0.2 elap:               0.0
 (Enter /data0/home/software/g16/l301.exe)
 Basis read from rwf:  (5D, 7F)
 No pseudopotential information found on rwf file.
   239 basis functions,   364 primitive gaussians,   253 cartesian basis functions
    25 alpha electrons       25 beta electrons
       nuclear repulsion energy       279.8838696016 Hartrees.
 IExCor= 4336 DFT=T Ex+Corr=M062X ExCW=0 ScaHFX=  0.540000
 ScaDFX=  1.000000  1.000000  1.000000  1.000000 ScalE2=  1.000000  1.000000
 IRadAn=      5 IRanWt=     -1 IRanGd=            0 ICorTp=0 IEmpDi=131
 NAtoms=   14 NActive=   14 NUniq=   14 SFac= 1.00D+00 NAtFMM=   60 NAOKFM=F Big=F
 Integral buffers will be    131072 words long.
 Raffenetti 2 integral format.
 Two-electron integral symmetry is turned off.
 R6Disp:  Grimme-D3 Dispersion energy=       -0.0000437469 Hartrees.
 Nuclear repulsion after empirical dispersion term =      279.8838258547 Hartrees.
 No density basis found on file   718.
 Leave Link  301 at Mon Feb 20 00:32:17 2023, MaxMem=  6710886400 cpu:               1.3 elap:               0.1
 (Enter /data0/home/software/g16/l302.exe)
 NPDir=0 NMtPBC=     1 NCelOv=     1 NCel=       1 NClECP=     1 NCelD=      1
         NCelK=      1 NCelE2=     1 NClLst=     1 CellRange=     0.0.
 One-electron integrals computed using PRISM.
 NBasis=   239 RedAO= T EigKep=  5.35D-04  NBF=   239
 NBsUse=   239 1.00D-06 EigRej= -1.00D+00 NBFU=   239
 Precomputing XC quadrature grid using
 IXCGrd= 4 IRadAn=           5 IRanWt=          -1 IRanGd=           0 AccXCQ= 0.00D+00.
 Generated NRdTot=       0 NPtTot=           0 NUsed=           0 NTot=          32
 NSgBfM=   252   252   252   252   252 MxSgAt=    14 MxSgA2=    14.
 Leave Link  302 at Mon Feb 20 00:32:17 2023, MaxMem=  6710886400 cpu:               3.8 elap:               0.2
 (Enter /data0/home/software/g16/l303.exe)
 DipDrv:  MaxL=1.
 Leave Link  303 at Mon Feb 20 00:32:17 2023, MaxMem=  6710886400 cpu:               0.6 elap:               0.0
 (Enter /data0/home/software/g16/l401.exe)
 ExpMin= 3.48D-02 ExpMax= 7.75D+04 ExpMxC= 2.65D+03 IAcc=3 IRadAn=         5 AccDes= 0.00D+00
 Harris functional with IExCor= 1009 and IRadAn=       5 diagonalized for initial guess.
 HarFok:  IExCor= 1009 AccDes= 0.00D+00 IRadAn=         5 IDoV= 1 UseB2=F ITyADJ=14
 ICtDFT=  3500011 ScaDFX=  1.000000  1.000000  1.000000  1.000000
 FoFCou: FMM=F IPFlag=           0 FMFlag=      100000 FMFlg1=           0
         NFxFlg=           0 DoJE=T BraDBF=F KetDBF=T FulRan=T
         wScrn=  0.000000 ICntrl=       500 IOpCl=  0 I1Cent=   200000004 NGrid=           0
         NMat0=    1 NMatS0=      1 NMatT0=    0 NMatD0=    1 NMtDS0=    0 NMtDT0=    0
 Symmetry not used in FoFCou.
 Harris En= -643.936814610983    
 JPrj=0 DoOrth=F DoCkMO=F.
 Leave Link  401 at Mon Feb 20 00:32:17 2023, MaxMem=  6710886400 cpu:              10.4 elap:               0.5
 (Enter /data0/home/software/g16/l502.exe)
 Two-electron integral symmetry not used.
 Closed shell SCF:
 Using DIIS extrapolation, IDIIS=  1040.
 NGot=  6710886400 LenX=  6710750439 LenY=  6710685989
 Requested convergence on RMS density matrix=1.00D-08 within 128 cycles.
 Requested convergence on MAX density matrix=1.00D-06.
 Requested convergence on             energy=1.00D-06.
 No special actions if energy rises.
 Fock matrices will be formed incrementally for  20 cycles.

 Cycle   1  Pass 1  IDiag  1:
 FoFJK:  IHMeth= 1 ICntrl=       0 DoSepK=F KAlg= 0 I1Cent=           0 FoldK=F
 IRaf= 900000000 NMat=       1 IRICut=       1 DoRegI=T DoRafI=F ISym2E= 0 IDoP0=0 IntGTp=1.
 FoFCou: FMM=F IPFlag=           0 FMFlag=      100000 FMFlg1=           0
         NFxFlg=           0 DoJE=F BraDBF=F KetDBF=F FulRan=T
         wScrn=  0.000000 ICntrl=         0 IOpCl=  0 I1Cent=           0 NGrid=           0
         NMat0=    1 NMatS0=      1 NMatT0=    0 NMatD0=    1 NMtDS0=    0 NMtDT0=    0
 Symmetry not used in FoFCou.
 E= -643.837520487875    
 DIIS: error= 4.66D-02 at cycle   1 NSaved=   1.
 NSaved= 1 IEnMin= 1 EnMin= -643.837520487875     IErMin= 1 ErrMin= 4.66D-02
 ErrMax= 4.66D-02  0.00D+00 EMaxC= 1.00D-01 BMatC= 5.12D-01 BMatP= 5.12D-01
 IDIUse=3 WtCom= 5.34D-01 WtEn= 4.66D-01
 Coeff-Com:  0.100D+01
 Coeff-En:   0.100D+01
 Coeff:      0.100D+01
 Gap=     0.223 Goal=   None    Shift=    0.000
 GapD=    0.223 DampG=1.000 DampE=0.500 DampFc=0.5000 IDamp=-1.
 Damping current iteration by 5.00D-01
 RMSDP=5.72D-03 MaxDP=2.40D-01              OVMax= 2.82D-01

 Cycle   2  Pass 1  IDiag  1:
 RMSU=  2.86D-03    CP:  1.01D+00
 E= -643.953923410464     Delta-E=       -0.116402922590 Rises=F Damp=T
 DIIS: error= 7.78D-03 at cycle   2 NSaved=   2.
 NSaved= 2 IEnMin= 2 EnMin= -643.953923410464     IErMin= 2 ErrMin= 7.78D-03
 ErrMax= 7.78D-03  0.00D+00 EMaxC= 1.00D-01 BMatC= 2.86D-02 BMatP= 5.12D-01
 IDIUse=3 WtCom= 9.22D-01 WtEn= 7.78D-02
 Coeff-Com:  0.809D-01 0.919D+00
 Coeff-En:   0.218D+00 0.782D+00
 Coeff:      0.916D-01 0.908D+00
 Gap=     0.330 Goal=   None    Shift=    0.000
 RMSDP=1.44D-03 MaxDP=8.24D-02 DE=-1.16D-01 OVMax= 1.87D-01

 Cycle   3  Pass 1  IDiag  1:
 RMSU=  9.13D-04    CP:  9.99D-01  6.13D-01
 E= -644.126503145726     Delta-E=       -0.172579735262 Rises=F Damp=F
 DIIS: error= 6.33D-03 at cycle   3 NSaved=   3.
 NSaved= 3 IEnMin= 3 EnMin= -644.126503145726     IErMin= 3 ErrMin= 6.33D-03
 ErrMax= 6.33D-03  0.00D+00 EMaxC= 1.00D-01 BMatC= 1.12D-02 BMatP= 2.86D-02
 IDIUse=3 WtCom= 9.37D-01 WtEn= 6.33D-02
 Coeff-Com: -0.138D-01 0.346D+00 0.668D+00
 Coeff-En:   0.000D+00 0.000D+00 0.100D+01
 Coeff:     -0.129D-01 0.324D+00 0.689D+00
 Gap=     0.320 Goal=   None    Shift=    0.000
 RMSDP=4.75D-04 MaxDP=1.57D-02 DE=-1.73D-01 OVMax= 3.65D-02

 Cycle   4  Pass 1  IDiag  1:
 RMSU=  4.01D-04    CP:  9.99D-01  6.93D-01  8.77D-01
 E= -644.131720376770     Delta-E=       -0.005217231044 Rises=F Damp=F
 DIIS: error= 3.84D-03 at cycle   4 NSaved=   4.
 NSaved= 4 IEnMin= 4 EnMin= -644.131720376770     IErMin= 4 ErrMin= 3.84D-03
 ErrMax= 3.84D-03  0.00D+00 EMaxC= 1.00D-01 BMatC= 4.03D-03 BMatP= 1.12D-02
 IDIUse=3 WtCom= 9.62D-01 WtEn= 3.84D-02
 Coeff-Com: -0.227D-01 0.505D-01 0.398D+00 0.574D+00
 Coeff-En:   0.000D+00 0.000D+00 0.262D+00 0.738D+00
 Coeff:     -0.218D-01 0.486D-01 0.393D+00 0.580D+00
 Gap=     0.326 Goal=   None    Shift=    0.000
 RMSDP=1.87D-04 MaxDP=6.27D-03 DE=-5.22D-03 OVMax= 1.14D-02

 Cycle   5  Pass 1  IDiag  1:
 RMSU=  5.88D-05    CP:  9.99D-01  6.71D-01  9.70D-01  6.45D-01
 E= -644.134385477826     Delta-E=       -0.002665101056 Rises=F Damp=F
 DIIS: error= 2.51D-04 at cycle   5 NSaved=   5.
 NSaved= 5 IEnMin= 5 EnMin= -644.134385477826     IErMin= 5 ErrMin= 2.51D-04
 ErrMax= 2.51D-04  0.00D+00 EMaxC= 1.00D-01 BMatC= 1.74D-05 BMatP= 4.03D-03
 IDIUse=3 WtCom= 9.97D-01 WtEn= 2.51D-03
 Coeff-Com: -0.259D-02 0.183D-03 0.544D-01 0.117D+00 0.831D+00
 Coeff-En:   0.000D+00 0.000D+00 0.000D+00 0.000D+00 0.100D+01
 Coeff:     -0.258D-02 0.182D-03 0.543D-01 0.117D+00 0.831D+00
 Gap=     0.324 Goal=   None    Shift=    0.000
 RMSDP=2.13D-05 MaxDP=6.88D-04 DE=-2.67D-03 OVMax= 8.31D-04

 Cycle   6  Pass 1  IDiag  1:
 RMSU=  1.38D-05    CP:  9.98D-01  6.67D-01  9.73D-01  6.71D-01  1.07D+00
 E= -644.134396927499     Delta-E=       -0.000011449673 Rises=F Damp=F
 DIIS: error= 7.15D-05 at cycle   6 NSaved=   6.
 NSaved= 6 IEnMin= 6 EnMin= -644.134396927499     IErMin= 6 ErrMin= 7.15D-05
 ErrMax= 7.15D-05  0.00D+00 EMaxC= 1.00D-01 BMatC= 1.71D-06 BMatP= 1.74D-05
 IDIUse=1 WtCom= 1.00D+00 WtEn= 0.00D+00
 Coeff-Com: -0.358D-04-0.167D-02 0.244D-02 0.143D-01 0.257D+00 0.728D+00
 Coeff:     -0.358D-04-0.167D-02 0.244D-02 0.143D-01 0.257D+00 0.728D+00
 Gap=     0.325 Goal=   None    Shift=    0.000
 RMSDP=8.08D-06 MaxDP=3.18D-04 DE=-1.14D-05 OVMax= 3.05D-04

 Cycle   7  Pass 1  IDiag  1:
 RMSU=  4.40D-06    CP:  9.99D-01  6.66D-01  9.75D-01  6.73D-01  1.16D+00
                    CP:  8.86D-01
 E= -644.134398032311     Delta-E=       -0.000001104812 Rises=F Damp=F
 DIIS: error= 3.90D-05 at cycle   7 NSaved=   7.
 NSaved= 7 IEnMin= 7 EnMin= -644.134398032311     IErMin= 7 ErrMin= 3.90D-05
 ErrMax= 3.90D-05  0.00D+00 EMaxC= 1.00D-01 BMatC= 4.27D-07 BMatP= 1.71D-06
 IDIUse=1 WtCom= 1.00D+00 WtEn= 0.00D+00
 Coeff-Com:  0.437D-03-0.739D-03-0.906D-02-0.149D-01-0.246D-01 0.334D+00
 Coeff-Com:  0.715D+00
 Coeff:      0.437D-03-0.739D-03-0.906D-02-0.149D-01-0.246D-01 0.334D+00
 Coeff:      0.715D+00
 Gap=     0.325 Goal=   None    Shift=    0.000
 RMSDP=3.40D-06 MaxDP=1.13D-04 DE=-1.10D-06 OVMax= 1.38D-04

 Cycle   8  Pass 1  IDiag  1:
 RMSU=  1.98D-06    CP:  9.98D-01  6.65D-01  9.75D-01  6.75D-01  1.18D+00
                    CP:  9.75D-01  8.13D-01
 E= -644.134398329428     Delta-E=       -0.000000297118 Rises=F Damp=F
 DIIS: error= 9.65D-06 at cycle   8 NSaved=   8.
 NSaved= 8 IEnMin= 8 EnMin= -644.134398329428     IErMin= 8 ErrMin= 9.65D-06
 ErrMax= 9.65D-06  0.00D+00 EMaxC= 1.00D-01 BMatC= 2.86D-08 BMatP= 4.27D-07
 IDIUse=1 WtCom= 1.00D+00 WtEn= 0.00D+00
 Coeff-Com:  0.158D-03-0.203D-03-0.368D-02-0.604D-02-0.168D-01 0.938D-01
 Coeff-Com:  0.291D+00 0.642D+00
 Coeff:      0.158D-03-0.203D-03-0.368D-02-0.604D-02-0.168D-01 0.938D-01
 Coeff:      0.291D+00 0.642D+00
 Gap=     0.325 Goal=   None    Shift=    0.000
 RMSDP=6.05D-07 MaxDP=2.68D-05 DE=-2.97D-07 OVMax= 3.57D-05

 Cycle   9  Pass 1  IDiag  1:
 RMSU=  4.03D-07    CP:  9.98D-01  6.65D-01  9.75D-01  6.75D-01  1.18D+00
                    CP:  9.87D-01  8.88D-01  8.90D-01
 E= -644.134398351941     Delta-E=       -0.000000022513 Rises=F Damp=F
 DIIS: error= 1.60D-06 at cycle   9 NSaved=   9.
 NSaved= 9 IEnMin= 9 EnMin= -644.134398351941     IErMin= 9 ErrMin= 1.60D-06
 ErrMax= 1.60D-06  0.00D+00 EMaxC= 1.00D-01 BMatC= 1.01D-09 BMatP= 2.86D-08
 IDIUse=1 WtCom= 1.00D+00 WtEn= 0.00D+00
 Coeff-Com: -0.298D-04 0.575D-04 0.293D-03 0.636D-03-0.719D-03-0.208D-01
 Coeff-Com: -0.303D-01 0.826D-01 0.968D+00
 Coeff:     -0.298D-04 0.575D-04 0.293D-03 0.636D-03-0.719D-03-0.208D-01
 Coeff:     -0.303D-01 0.826D-01 0.968D+00
 Gap=     0.325 Goal=   None    Shift=    0.000
 RMSDP=2.80D-07 MaxDP=1.03D-05 DE=-2.25D-08 OVMax= 1.45D-05

 Cycle  10  Pass 1  IDiag  1:
 RMSU=  1.14D-07    CP:  9.98D-01  6.65D-01  9.75D-01  6.75D-01  1.19D+00
                    CP:  9.86D-01  9.05D-01  9.72D-01  1.13D+00
 E= -644.134398353249     Delta-E=       -0.000000001307 Rises=F Damp=F
 DIIS: error= 2.38D-07 at cycle  10 NSaved=  10.
 NSaved=10 IEnMin=10 EnMin= -644.134398353249     IErMin=10 ErrMin= 2.38D-07
 ErrMax= 2.38D-07  0.00D+00 EMaxC= 1.00D-01 BMatC= 2.18D-11 BMatP= 1.01D-09
 IDIUse=1 WtCom= 1.00D+00 WtEn= 0.00D+00
 Coeff-Com: -0.399D-05 0.657D-05 0.111D-03 0.185D-03 0.503D-03-0.397D-02
 Coeff-Com: -0.121D-01-0.182D-01 0.307D-01 0.100D+01
 Coeff:     -0.399D-05 0.657D-05 0.111D-03 0.185D-03 0.503D-03-0.397D-02
 Coeff:     -0.121D-01-0.182D-01 0.307D-01 0.100D+01
 Gap=     0.325 Goal=   None    Shift=    0.000
 RMSDP=5.59D-08 MaxDP=1.34D-06 DE=-1.31D-09 OVMax= 3.77D-06

 Cycle  11  Pass 1  IDiag  1:
 RMSU=  2.79D-08    CP:  9.98D-01  6.65D-01  9.75D-01  6.75D-01  1.19D+00
                    CP:  9.86D-01  9.07D-01  9.85D-01  1.20D+00  1.17D+00
 E= -644.134398353295     Delta-E=       -0.000000000046 Rises=F Damp=F
 DIIS: error= 1.96D-07 at cycle  11 NSaved=  11.
 NSaved=11 IEnMin=11 EnMin= -644.134398353295     IErMin=11 ErrMin= 1.96D-07
 ErrMax= 1.96D-07  0.00D+00 EMaxC= 1.00D-01 BMatC= 1.00D-11 BMatP= 2.18D-11
 IDIUse=1 WtCom= 1.00D+00 WtEn= 0.00D+00
 Coeff-Com:  0.230D-06-0.787D-06 0.322D-04 0.445D-04 0.266D-03-0.584D-03
 Coeff-Com: -0.357D-02-0.127D-01-0.465D-01 0.467D+00 0.596D+00
 Coeff:      0.230D-06-0.787D-06 0.322D-04 0.445D-04 0.266D-03-0.584D-03
 Coeff:     -0.357D-02-0.127D-01-0.465D-01 0.467D+00 0.596D+00
 Gap=     0.325 Goal=   None    Shift=    0.000
 RMSDP=1.37D-08 MaxDP=4.88D-07 DE=-4.62D-11 OVMax= 7.04D-07

 Cycle  12  Pass 1  IDiag  1:
 RMSU=  1.01D-08    CP:  9.98D-01  6.65D-01  9.75D-01  6.75D-01  1.19D+00
                    CP:  9.86D-01  9.08D-01  9.86D-01  1.21D+00  1.23D+00
                    CP:  9.27D-01
 E= -644.134398353285     Delta-E=        0.000000000010 Rises=F Damp=F
 DIIS: error= 5.90D-08 at cycle  12 NSaved=  12.
 NSaved=12 IEnMin=11 EnMin= -644.134398353295     IErMin=12 ErrMin= 5.90D-08
 ErrMax= 5.90D-08  0.00D+00 EMaxC= 1.00D-01 BMatC= 9.86D-13 BMatP= 1.00D-11
 IDIUse=1 WtCom= 1.00D+00 WtEn= 0.00D+00
 Coeff-Com:  0.815D-06-0.149D-05-0.681D-05-0.144D-04 0.800D-05 0.473D-03
 Coeff-Com:  0.944D-03-0.116D-02-0.238D-01-0.416D-02 0.233D+00 0.794D+00
 Coeff:      0.815D-06-0.149D-05-0.681D-05-0.144D-04 0.800D-05 0.473D-03
 Coeff:      0.944D-03-0.116D-02-0.238D-01-0.416D-02 0.233D+00 0.794D+00
 Gap=     0.325 Goal=   None    Shift=    0.000
 RMSDP=6.38D-09 MaxDP=1.53D-07 DE= 9.78D-12 OVMax= 3.88D-07

 SCF Done:  E(RM062X) =  -644.134398353     A.U. after   12 cycles
            NFock= 12  Conv=0.64D-08     -V/T= 2.0026
 KE= 6.424854325227D+02 PE=-2.087370499132D+03 EE= 5.208668424011D+02
 Leave Link  502 at Mon Feb 20 00:32:29 2023, MaxMem=  6710886400 cpu:             271.5 elap:              11.4
 (Enter /data0/home/software/g16/l601.exe)
 Copying SCF densities to generalized density rwf, IOpCl= 0 IROHF=0.

 **********************************************************************

            Population analysis using the SCF density.

 **********************************************************************

 Alpha  occ. eigenvalues --  -78.16805 -19.69819 -19.69090 -19.68209 -19.57822
 Alpha  occ. eigenvalues --   -6.97601  -5.09517  -5.09507  -5.09251  -1.24668
 Alpha  occ. eigenvalues --   -1.17394  -1.16833  -1.08101  -0.72675  -0.65709
 Alpha  occ. eigenvalues --   -0.63826  -0.59049  -0.53370  -0.51897  -0.50112
 Alpha  occ. eigenvalues --   -0.46377  -0.45401  -0.44985  -0.37690  -0.36682
 Alpha virt. eigenvalues --   -0.04194   0.00691   0.02526   0.04396   0.07246
 Alpha virt. eigenvalues --    0.07391   0.09725   0.10841   0.12091   0.12866
 Alpha virt. eigenvalues --    0.14013   0.16500   0.16846   0.17177   0.17758
 Alpha virt. eigenvalues --    0.18728   0.19087   0.20231   0.21074   0.21445
 Alpha virt. eigenvalues --    0.22593   0.23487   0.24338   0.26438   0.26836
 Alpha virt. eigenvalues --    0.27567   0.28078   0.28729   0.29267   0.29965
 Alpha virt. eigenvalues --    0.30529   0.32220   0.33609   0.33985   0.36170
 Alpha virt. eigenvalues --    0.36525   0.38434   0.40445   0.41728   0.43026
 Alpha virt. eigenvalues --    0.44787   0.46470   0.47412   0.48539   0.53027
 Alpha virt. eigenvalues --    0.56284   0.57787   0.63847   0.69287   0.75416
 Alpha virt. eigenvalues --    0.75629   0.76766   0.78302   0.79177   0.80608
 Alpha virt. eigenvalues --    0.82102   0.84129   0.86783   0.90522   0.97475
 Alpha virt. eigenvalues --    0.98304   1.00051   1.00893   1.04833   1.05864
 Alpha virt. eigenvalues --    1.07980   1.08951   1.13905   1.14677   1.16416
 Alpha virt. eigenvalues --    1.18124   1.19990   1.20673   1.21553   1.23125
 Alpha virt. eigenvalues --    1.26093   1.27247   1.32505   1.34556   1.34942
 Alpha virt. eigenvalues --    1.43071   1.43273   1.51143   1.53000   1.54611
 Alpha virt. eigenvalues --    1.55880   1.58665   1.59926   1.65259   1.66440
 Alpha virt. eigenvalues --    1.67933   1.70394   1.73348   1.76232   1.82131
 Alpha virt. eigenvalues --    1.82754   1.83521   1.84089   1.85321   1.86590
 Alpha virt. eigenvalues --    1.88774   1.90294   1.95636   1.97449   1.99399
 Alpha virt. eigenvalues --    2.04489   2.08023   2.09960   2.12535   2.14105
 Alpha virt. eigenvalues --    2.15034   2.18734   2.21385   2.23644   2.24924
 Alpha virt. eigenvalues --    2.27232   2.31524   2.37301   2.44329   2.44733
 Alpha virt. eigenvalues --    2.45294   2.48053   2.56361   2.57480   2.58489
 Alpha virt. eigenvalues --    2.59738   2.61722   2.63494   2.66400   2.68130
 Alpha virt. eigenvalues --    2.70468   2.71102   2.71818   2.73698   2.76487
 Alpha virt. eigenvalues --    2.79413   2.82442   2.87109   2.88357   2.90667
 Alpha virt. eigenvalues --    2.93099   2.99037   3.02312   3.03855   3.17563
 Alpha virt. eigenvalues --    3.57893   3.60456   3.62618   3.69069   4.56182
 Alpha virt. eigenvalues --    4.62206   5.01939   5.04930   5.06178   5.06914
 Alpha virt. eigenvalues --    5.11407   5.12503   5.16458   5.19222   5.20969
 Alpha virt. eigenvalues --    5.27503   5.40339   5.42414   5.45190   5.52235
 Alpha virt. eigenvalues --    6.71810   6.74475   6.75685   6.77140   6.79717
 Alpha virt. eigenvalues --    6.80593   6.83168   6.85557   6.91858   6.92686
 Alpha virt. eigenvalues --    6.94473   6.98213   7.00194   7.01863   7.11958
 Alpha virt. eigenvalues --    7.24900   7.26289   7.28184   7.31884   7.42121
 Alpha virt. eigenvalues --    7.65557   9.90650   9.93460  10.02565  10.06780
 Alpha virt. eigenvalues --   10.17382  10.18010  10.22478  10.29104  10.39185
 Alpha virt. eigenvalues --   10.47252  12.98949  13.33525  13.40496  13.71612
 Alpha virt. eigenvalues --   13.91332  14.16032  14.23868  14.24558  14.34200
 Alpha virt. eigenvalues --   17.89791  18.26519  49.98075  49.99530  50.00906
 Alpha virt. eigenvalues --   50.11336 137.55249 139.51132 163.88267
          Condensed to atoms (all electrons):
               1          2          3          4          5          6
     1  P   12.579308   0.532272   0.129810   0.047133   0.239429   0.001376
     2  O    0.532272   8.124706  -0.019661   0.000336  -0.015798  -0.018366
     3  O    0.129810  -0.019661   8.149622   0.207418   0.006621  -0.001220
     4  H    0.047133   0.000336   0.207418   0.462565  -0.014244   0.002034
     5  O    0.239429  -0.015798   0.006621  -0.014244   8.037013   0.251678
     6  H    0.001376  -0.018366  -0.001220   0.002034   0.251678   0.462430
     7  O    0.215206   0.006377   0.012238  -0.010730   0.030449  -0.001678
     8  H    0.002674  -0.013901  -0.000079   0.002069  -0.008075  -0.002985
     9  O    0.001377  -0.000785   0.000055   0.000011   0.002156   0.002789
    10  H   -0.000835   0.000738   0.000030  -0.000008   0.000152  -0.002196
    11  H   -0.000414  -0.000079  -0.000024  -0.000000  -0.000531  -0.000286
    12  O    0.001398   0.002159   0.000124  -0.000038  -0.000652  -0.000205
    13  H   -0.000544   0.005506  -0.000147   0.000062  -0.000282   0.000052
    14  H   -0.000742   0.001053  -0.000020  -0.000002  -0.000145  -0.000116
               7          8          9         10         11         12
     1  P    0.215206   0.002674   0.001377  -0.000835  -0.000414   0.001398
     2  O    0.006377  -0.013901  -0.000785   0.000738  -0.000079   0.002159
     3  O    0.012238  -0.000079   0.000055   0.000030  -0.000024   0.000124
     4  H   -0.010730   0.002069   0.000011  -0.000008  -0.000000  -0.000038
     5  O    0.030449  -0.008075   0.002156   0.000152  -0.000531  -0.000652
     6  H   -0.001678  -0.002985   0.002789  -0.002196  -0.000286  -0.000205
     7  O    8.040021   0.252593  -0.000039  -0.000045   0.000021  -0.000022
     8  H    0.252593   0.456944   0.000058  -0.000164  -0.000003  -0.000167
     9  O   -0.000039   0.000058   0.006508  -0.001579  -0.003133   0.000291
    10  H   -0.000045  -0.000164  -0.001579   0.001485   0.000309   0.000041
    11  H    0.000021  -0.000003  -0.003133   0.000309   0.002094  -0.000045
    12  O   -0.000022  -0.000167   0.000291   0.000041  -0.000045   0.008936
    13  H    0.000311   0.000203   0.000571  -0.000055  -0.000171  -0.007389
    14  H   -0.000022   0.000009  -0.002137   0.000101   0.000706  -0.002230
              13         14
     1  P   -0.000544  -0.000742
     2  O    0.005506   0.001053
     3  O   -0.000147  -0.000020
     4  H    0.000062  -0.000002
     5  O   -0.000282  -0.000145
     6  H    0.000052  -0.000116
     7  O    0.000311  -0.000022
     8  H    0.000203   0.000009
     9  O    0.000571  -0.002137
    10  H   -0.000055   0.000101
    11  H   -0.000171   0.000706
    12  O   -0.007389  -0.002230
    13  H    0.009050  -0.000006
    14  H   -0.000006   0.003311
 Mulliken charges:
               1
     1  P    1.252553
     2  O   -0.604555
     3  O   -0.484767
     4  H    0.303393
     5  O   -0.527771
     6  H    0.306693
     7  O   -0.544681
     8  H    0.310822
     9  O   -0.006145
    10  H    0.002026
    11  H    0.001555
    12  O   -0.002201
    13  H   -0.007162
    14  H    0.000239
 Sum of Mulliken charges =  -0.00000
 Mulliken charges with hydrogens summed into heavy atoms:
               1
     1  P    1.252553
     2  O   -0.604555
     3  O   -0.181375
     5  O   -0.221079
     7  O   -0.233858
     9  O   -0.002563
    12  O   -0.009124
         Mulliken charges condensed to fragments:
      1      0.011687
      2     -0.002563
      3     -0.009124
 Electronic spatial extent (au):  <R**2>=         115508.1162
 Charge=             -0.0000 electrons
 Dipole moment (field-independent basis, Debye):
    X=             -2.2185    Y=              2.1269    Z=             -4.8171  Tot=              5.7140
 Quadrupole moment (field-independent basis, Debye-Ang):
   XX=            -96.4178   YY=             34.5697   ZZ=           -149.5669
   XY=             -7.9799   XZ=            -98.7678   YZ=            -55.5384
 Traceless Quadrupole moment (field-independent basis, Debye-Ang):
   XX=            -25.9462   YY=            105.0414   ZZ=            -79.0952
   XY=             -7.9799   XZ=            -98.7678   YZ=            -55.5384
 Octapole moment (field-independent basis, Debye-Ang**2):
  XXX=          -2890.4599  YYY=            -34.4258  ZZZ=          -3250.4511  XYY=           -216.2645
  XXY=          -1212.2777  XXZ=          -2233.1010  XZZ=          -2570.0077  YZZ=          -2201.5361
  YYZ=           -927.7967  XYZ=          -1305.8054
 Hexadecapole moment (field-independent basis, Debye-Ang**3):
 XXXX=         -73392.5483 YYYY=         -20672.1698 ZZZZ=         -60314.3700 XXXY=         -42800.1843
 XXXZ=         -50652.3681 YYYX=         -14300.7973 YYYZ=         -22303.6499 ZZZX=         -52881.3683
 ZZZY=         -50707.2586 XXYY=         -22507.4092 XXZZ=         -47678.5978 YYZZ=         -36625.6174
 XXYZ=         -32534.5962 YYXZ=         -22555.5209 ZZXY=         -38791.9656
 N-N= 2.798838258547D+02 E-N=-2.087370503286D+03  KE= 6.424854325227D+02
 No NMR shielding tensors so no spin-rotation constants.
 Leave Link  601 at Mon Feb 20 00:32:29 2023, MaxMem=  6710886400 cpu:               2.1 elap:               0.1
 (Enter /data0/home/software/g16/l122.exe)
 CPIOFr:  IOpCl= 0 IRwI=-1 IRwCP=  731 ICalc=  1 LCPTot=       89292 Len1MO=      233639 IndFrg=      556570
 Counterpoise: doing calculation for fragment   2 using the basis set of the full-system, NewBq=T
 Leave Link  122 at Mon Feb 20 00:32:29 2023, MaxMem=  6710886400 cpu:               0.1 elap:               0.0
 (Enter /data0/home/software/g16/l301.exe)
 Basis read from rwf:  (5D, 7F)
 No pseudopotential information found on rwf file.
   239 basis functions,   364 primitive gaussians,   253 cartesian basis functions
     5 alpha electrons        5 beta electrons
       nuclear repulsion energy         9.0643768651 Hartrees.
 IExCor= 4336 DFT=T Ex+Corr=M062X ExCW=0 ScaHFX=  0.540000
 ScaDFX=  1.000000  1.000000  1.000000  1.000000 ScalE2=  1.000000  1.000000
 IRadAn=      5 IRanWt=     -1 IRanGd=            0 ICorTp=0 IEmpDi=131
 NAtoms=   14 NActive=   14 NUniq=   14 SFac= 1.00D+00 NAtFMM=   60 NAOKFM=F Big=F
 Integral buffers will be    131072 words long.
 Raffenetti 2 integral format.
 Two-electron integral symmetry is turned off.
 R6Disp:  Grimme-D3 Dispersion energy=       -0.0000000080 Hartrees.
 Nuclear repulsion after empirical dispersion term =        9.0643768571 Hartrees.
 No density basis found on file   718.
 Leave Link  301 at Mon Feb 20 00:32:29 2023, MaxMem=  6710886400 cpu:               1.3 elap:               0.1
 (Enter /data0/home/software/g16/l302.exe)
 NPDir=0 NMtPBC=     1 NCelOv=     1 NCel=       1 NClECP=     1 NCelD=      1
         NCelK=      1 NCelE2=     1 NClLst=     1 CellRange=     0.0.
 One-electron integrals computed using PRISM.
 NBasis=   239 RedAO= T EigKep=  5.35D-04  NBF=   239
 NBsUse=   239 1.00D-06 EigRej= -1.00D+00 NBFU=   239
 Precomputing XC quadrature grid using
 IXCGrd= 4 IRadAn=           5 IRanWt=          -1 IRanGd=           0 AccXCQ= 0.00D+00.
 Generated NRdTot=       0 NPtTot=           0 NUsed=           0 NTot=          32
 NSgBfM=   252   252   252   252   252 MxSgAt=    14 MxSgA2=    14.
 Leave Link  302 at Mon Feb 20 00:32:29 2023, MaxMem=  6710886400 cpu:               3.9 elap:               0.2
 (Enter /data0/home/software/g16/l303.exe)
 DipDrv:  MaxL=1.
 Leave Link  303 at Mon Feb 20 00:32:29 2023, MaxMem=  6710886400 cpu:               0.6 elap:               0.0
 (Enter /data0/home/software/g16/l401.exe)
 ExpMin= 3.48D-02 ExpMax= 7.75D+04 ExpMxC= 2.65D+03 IAcc=3 IRadAn=         5 AccDes= 0.00D+00
 Harris functional with IExCor= 1009 and IRadAn=       5 diagonalized for initial guess.
 HarFok:  IExCor= 1009 AccDes= 0.00D+00 IRadAn=         5 IDoV= 1 UseB2=F ITyADJ=14
 ICtDFT=  3500011 ScaDFX=  1.000000  1.000000  1.000000  1.000000
 FoFCou: FMM=F IPFlag=           0 FMFlag=      100000 FMFlg1=           0
         NFxFlg=           0 DoJE=T BraDBF=F KetDBF=T FulRan=T
         wScrn=  0.000000 ICntrl=       500 IOpCl=  0 I1Cent=   200000004 NGrid=           0
         NMat0=    1 NMatS0=      1 NMatT0=    0 NMatD0=    1 NMtDS0=    0 NMtDT0=    0
 Symmetry not used in FoFCou.
 Harris En= -76.4164017535839    
 JPrj=0 DoOrth=F DoCkMO=F.
 Leave Link  401 at Mon Feb 20 00:32:30 2023, MaxMem=  6710886400 cpu:               9.6 elap:               0.4
 (Enter /data0/home/software/g16/l502.exe)
 Two-electron integral symmetry not used.
 Closed shell SCF:
 Using DIIS extrapolation, IDIIS=  1040.
 NGot=  6710886400 LenX=  6710750439 LenY=  6710685989
 Requested convergence on RMS density matrix=1.00D-08 within 128 cycles.
 Requested convergence on MAX density matrix=1.00D-06.
 Requested convergence on             energy=1.00D-06.
 No special actions if energy rises.
 Fock matrices will be formed incrementally for  20 cycles.

 Cycle   1  Pass 1  IDiag  1:
 FoFJK:  IHMeth= 1 ICntrl=       0 DoSepK=F KAlg= 0 I1Cent=           0 FoldK=F
 IRaf= 900000000 NMat=       1 IRICut=       1 DoRegI=T DoRafI=F ISym2E= 0 IDoP0=0 IntGTp=1.
 FoFCou: FMM=F IPFlag=           0 FMFlag=      100000 FMFlg1=           0
         NFxFlg=           0 DoJE=F BraDBF=F KetDBF=F FulRan=T
         wScrn=  0.000000 ICntrl=         0 IOpCl=  0 I1Cent=           0 NGrid=           0
         NMat0=    1 NMatS0=      1 NMatT0=    0 NMatD0=    1 NMtDS0=    0 NMtDT0=    0
 Symmetry not used in FoFCou.
 E= -76.3471002173273    
 DIIS: error= 3.54D-02 at cycle   1 NSaved=   1.
 NSaved= 1 IEnMin= 1 EnMin= -76.3471002173273     IErMin= 1 ErrMin= 3.54D-02
 ErrMax= 3.54D-02  0.00D+00 EMaxC= 1.00D-01 BMatC= 1.20D-01 BMatP= 1.20D-01
 IDIUse=3 WtCom= 6.46D-01 WtEn= 3.54D-01
 Coeff-Com:  0.100D+01
 Coeff-En:   0.100D+01
 Coeff:      0.100D+01
 Gap=     0.280 Goal=   None    Shift=    0.000
 GapD=    0.280 DampG=1.000 DampE=0.500 DampFc=0.5000 IDamp=-1.
 Damping current iteration by 5.00D-01
 RMSDP=2.01D-03 MaxDP=9.91D-02              OVMax= 1.72D-01

 Cycle   2  Pass 1  IDiag  1:
 RMSU=  9.97D-04    CP:  9.77D-01
 E= -76.3778705648790     Delta-E=       -0.030770347552 Rises=F Damp=T
 DIIS: error= 6.47D-03 at cycle   2 NSaved=   2.
 NSaved= 2 IEnMin= 2 EnMin= -76.3778705648790     IErMin= 2 ErrMin= 6.47D-03
 ErrMax= 6.47D-03  0.00D+00 EMaxC= 1.00D-01 BMatC= 5.03D-03 BMatP= 1.20D-01
 IDIUse=3 WtCom= 9.35D-01 WtEn= 6.47D-02
 Coeff-Com:  0.883D-01 0.912D+00
 Coeff-En:   0.198D+00 0.802D+00
 Coeff:      0.954D-01 0.905D+00
 Gap=     0.401 Goal=   None    Shift=    0.000
 RMSDP=2.94D-04 MaxDP=1.52D-02 DE=-3.08D-02 OVMax= 1.04D-01

 Cycle   3  Pass 1  IDiag  1:
 RMSU=  1.97D-04    CP:  9.87D-01  7.87D-01
 E= -76.4220506090202     Delta-E=       -0.044180044141 Rises=F Damp=F
 DIIS: error= 1.14D-03 at cycle   3 NSaved=   3.
 NSaved= 3 IEnMin= 3 EnMin= -76.4220506090202     IErMin= 3 ErrMin= 1.14D-03
 ErrMax= 1.14D-03  0.00D+00 EMaxC= 1.00D-01 BMatC= 1.41D-04 BMatP= 5.03D-03
 IDIUse=3 WtCom= 9.89D-01 WtEn= 1.14D-02
 Coeff-Com: -0.264D-01 0.493D-01 0.977D+00
 Coeff-En:   0.000D+00 0.000D+00 0.100D+01
 Coeff:     -0.261D-01 0.487D-01 0.977D+00
 Gap=     0.404 Goal=   None    Shift=    0.000
 RMSDP=2.73D-05 MaxDP=1.23D-03 DE=-4.42D-02 OVMax= 3.83D-03

 Cycle   4  Pass 1  IDiag  1:
 RMSU=  2.43D-05    CP:  9.86D-01  7.93D-01  1.04D+00
 E= -76.4221641895338     Delta-E=       -0.000113580514 Rises=F Damp=F
 DIIS: error= 1.65D-04 at cycle   4 NSaved=   4.
 NSaved= 4 IEnMin= 4 EnMin= -76.4221641895338     IErMin= 4 ErrMin= 1.65D-04
 ErrMax= 1.65D-04  0.00D+00 EMaxC= 1.00D-01 BMatC= 2.83D-06 BMatP= 1.41D-04
 IDIUse=3 WtCom= 9.98D-01 WtEn= 1.65D-03
 Coeff-Com: -0.286D-02-0.237D-04 0.149D+00 0.854D+00
 Coeff-En:   0.000D+00 0.000D+00 0.000D+00 0.100D+01
 Coeff:     -0.285D-02-0.237D-04 0.149D+00 0.854D+00
 Gap=     0.404 Goal=   None    Shift=    0.000
 RMSDP=6.27D-06 MaxDP=3.25D-04 DE=-1.14D-04 OVMax= 5.31D-04

 Cycle   5  Pass 1  IDiag  1:
 RMSU=  3.55D-06    CP:  9.86D-01  7.89D-01  1.05D+00  1.11D+00
 E= -76.4221660104097     Delta-E=       -0.000001820876 Rises=F Damp=F
 DIIS: error= 3.06D-05 at cycle   5 NSaved=   5.
 NSaved= 5 IEnMin= 5 EnMin= -76.4221660104097     IErMin= 5 ErrMin= 3.06D-05
 ErrMax= 3.06D-05  0.00D+00 EMaxC= 1.00D-01 BMatC= 7.78D-08 BMatP= 2.83D-06
 IDIUse=1 WtCom= 1.00D+00 WtEn= 0.00D+00
 Coeff-Com:  0.142D-02-0.220D-02-0.370D-01-0.532D-01 0.109D+01
 Coeff:      0.142D-02-0.220D-02-0.370D-01-0.532D-01 0.109D+01
 Gap=     0.405 Goal=   None    Shift=    0.000
 RMSDP=4.18D-06 MaxDP=1.94D-04 DE=-1.82D-06 OVMax= 2.20D-04

 Cycle   6  Pass 1  IDiag  1:
 RMSU=  9.49D-07    CP:  9.86D-01  7.85D-01  1.05D+00  1.20D+00  1.31D+00
 E= -76.4221661492049     Delta-E=       -0.000000138795 Rises=F Damp=F
 DIIS: error= 5.06D-06 at cycle   6 NSaved=   6.
 NSaved= 6 IEnMin= 6 EnMin= -76.4221661492049     IErMin= 6 ErrMin= 5.06D-06
 ErrMax= 5.06D-06  0.00D+00 EMaxC= 1.00D-01 BMatC= 1.87D-09 BMatP= 7.78D-08
 IDIUse=1 WtCom= 1.00D+00 WtEn= 0.00D+00
 Coeff-Com: -0.262D-03 0.376D-03 0.338D-02-0.623D-02-0.152D+00 0.115D+01
 Coeff:     -0.262D-03 0.376D-03 0.338D-02-0.623D-02-0.152D+00 0.115D+01
 Gap=     0.405 Goal=   None    Shift=    0.000
 RMSDP=5.73D-07 MaxDP=2.78D-05 DE=-1.39D-07 OVMax= 4.00D-05

 Cycle   7  Pass 1  IDiag  1:
 RMSU=  1.15D-07    CP:  9.86D-01  7.85D-01  1.05D+00  1.22D+00  1.38D+00
                    CP:  1.23D+00
 E= -76.4221661529680     Delta-E=       -0.000000003763 Rises=F Damp=F
 DIIS: error= 4.73D-07 at cycle   7 NSaved=   7.
 NSaved= 7 IEnMin= 7 EnMin= -76.4221661529680     IErMin= 7 ErrMin= 4.73D-07
 ErrMax= 4.73D-07  0.00D+00 EMaxC= 1.00D-01 BMatC= 3.07D-11 BMatP= 1.87D-09
 IDIUse=1 WtCom= 1.00D+00 WtEn= 0.00D+00
 Coeff-Com: -0.240D-05 0.203D-04 0.167D-03 0.144D-02-0.151D-01-0.331D-01
 Coeff-Com:  0.105D+01
 Coeff:     -0.240D-05 0.203D-04 0.167D-03 0.144D-02-0.151D-01-0.331D-01
 Coeff:      0.105D+01
 Gap=     0.405 Goal=   None    Shift=    0.000
 RMSDP=7.66D-08 MaxDP=3.82D-06 DE=-3.76D-09 OVMax= 5.11D-06

 Cycle   8  Pass 1  IDiag  1:
 RMSU=  2.01D-08    CP:  9.86D-01  7.85D-01  1.05D+00  1.22D+00  1.39D+00
                    CP:  1.26D+00  1.21D+00
 E= -76.4221661530280     Delta-E=       -0.000000000060 Rises=F Damp=F
 DIIS: error= 1.51D-07 at cycle   8 NSaved=   8.
 NSaved= 8 IEnMin= 8 EnMin= -76.4221661530280     IErMin= 8 ErrMin= 1.51D-07
 ErrMax= 1.51D-07  0.00D+00 EMaxC= 1.00D-01 BMatC= 2.04D-12 BMatP= 3.07D-11
 IDIUse=1 WtCom= 1.00D+00 WtEn= 0.00D+00
 Coeff-Com:  0.132D-04-0.161D-04-0.136D-03 0.611D-03 0.463D-02-0.569D-01
 Coeff-Com:  0.152D+00 0.900D+00
 Coeff:      0.132D-04-0.161D-04-0.136D-03 0.611D-03 0.463D-02-0.569D-01
 Coeff:      0.152D+00 0.900D+00
 Gap=     0.405 Goal=   None    Shift=    0.000
 RMSDP=9.46D-09 MaxDP=4.44D-07 DE=-6.00D-11 OVMax= 8.47D-07

 SCF Done:  E(RM062X) =  -76.4221661530     A.U. after    8 cycles
            NFock=  8  Conv=0.95D-08     -V/T= 2.0032
 KE= 7.617463079293D+01 PE=-1.989659193773D+02 EE= 3.730474557417D+01
 Leave Link  502 at Mon Feb 20 00:32:36 2023, MaxMem=  6710886400 cpu:             158.5 elap:               6.6
 (Enter /data0/home/software/g16/l601.exe)
 Copying SCF densities to generalized density rwf, IOpCl= 0 IROHF=0.

 **********************************************************************

            Population analysis using the SCF density.

 **********************************************************************

 Alpha  occ. eigenvalues --  -19.62740  -1.13171  -0.60550  -0.47516  -0.39991
 Alpha virt. eigenvalues --    0.00459   0.04205   0.05044   0.05231   0.09429
 Alpha virt. eigenvalues --    0.10442   0.12999   0.13716   0.15039   0.15714
 Alpha virt. eigenvalues --    0.16342   0.17261   0.19125   0.19225   0.20213
 Alpha virt. eigenvalues --    0.21580   0.21913   0.22531   0.23241   0.24676
 Alpha virt. eigenvalues --    0.25944   0.26416   0.28230   0.28938   0.29763
 Alpha virt. eigenvalues --    0.31729   0.32777   0.33166   0.36069   0.36905
 Alpha virt. eigenvalues --    0.37653   0.38385   0.39318   0.40246   0.41171
 Alpha virt. eigenvalues --    0.42121   0.44269   0.46545   0.49488   0.54449
 Alpha virt. eigenvalues --    0.58000   0.66535   0.67612   0.72167   0.72690
 Alpha virt. eigenvalues --    0.73292   0.74564   0.76033   0.76285   0.78107
 Alpha virt. eigenvalues --    0.79731   0.82063   0.83182   0.85987   0.87865
 Alpha virt. eigenvalues --    0.88268   0.90565   0.93762   0.97437   0.98153
 Alpha virt. eigenvalues --    0.98968   1.00319   1.04830   1.06126   1.08122
 Alpha virt. eigenvalues --    1.09491   1.11835   1.13154   1.14756   1.18155
 Alpha virt. eigenvalues --    1.21266   1.22002   1.23099   1.24061   1.30152
 Alpha virt. eigenvalues --    1.31842   1.36836   1.45255   1.46557   1.47921
 Alpha virt. eigenvalues --    1.56477   1.57969   1.69534   1.75911   1.76885
 Alpha virt. eigenvalues --    1.80523   1.85944   1.87725   1.91363   1.94355
 Alpha virt. eigenvalues --    1.96283   1.99513   2.05133   2.06494   2.10043
 Alpha virt. eigenvalues --    2.17437   2.20078   2.23479   2.26786   2.29838
 Alpha virt. eigenvalues --    2.32381   2.34403   2.37487   2.39906   2.40795
 Alpha virt. eigenvalues --    2.43120   2.44154   2.46645   2.47912   2.52777
 Alpha virt. eigenvalues --    2.53389   2.54412   2.56413   2.57308   2.59855
 Alpha virt. eigenvalues --    2.63138   2.63774   2.65116   2.67391   2.67651
 Alpha virt. eigenvalues --    2.69528   2.70080   2.73766   2.77649   2.78814
 Alpha virt. eigenvalues --    2.81396   2.85463   2.86704   2.87313   2.91390
 Alpha virt. eigenvalues --    2.91742   2.94923   2.97264   2.98443   3.00780
 Alpha virt. eigenvalues --    3.02116   3.05136   3.06121   3.07251   3.09148
 Alpha virt. eigenvalues --    3.13555   3.20146   3.22594   3.25782   3.28318
 Alpha virt. eigenvalues --    3.31421   3.35060   3.38795   3.44611   3.49762
 Alpha virt. eigenvalues --    3.57188   3.63407   3.68355   3.77657   3.82168
 Alpha virt. eigenvalues --    4.41245   4.49839   4.56757   4.57493   4.59459
 Alpha virt. eigenvalues --    4.66925   4.74346   4.93704   4.97203   5.06046
 Alpha virt. eigenvalues --    5.10803   5.13022   5.52443   5.91615   6.81339
 Alpha virt. eigenvalues --    6.83778   6.91434   6.97767   7.10377   9.64496
 Alpha virt. eigenvalues --    9.76519   9.79400   9.82190   9.97746  10.08799
 Alpha virt. eigenvalues --   10.11395  10.14912  10.15669  10.21996  10.23060
 Alpha virt. eigenvalues --   10.28779  10.30789  10.31746  10.38946  10.40403
 Alpha virt. eigenvalues --   10.41019  10.44918  10.48832  10.50780  10.53739
 Alpha virt. eigenvalues --   10.55308  10.69499  10.71474  10.74424  10.77761
 Alpha virt. eigenvalues --   10.85627  10.91500  12.79889  13.15520  13.27604
 Alpha virt. eigenvalues --   13.31921  13.34251  13.41398  13.45135  13.47694
 Alpha virt. eigenvalues --   13.53581  13.62583  13.68237  13.72158  13.72811
 Alpha virt. eigenvalues --   13.91626  13.96521  14.35441  17.66956  18.28686
 Alpha virt. eigenvalues --   18.35097  18.53690  18.55161  49.99376  53.31829
 Alpha virt. eigenvalues --   53.32974  53.43322  71.23212 135.71329 138.80698
 Alpha virt. eigenvalues --  139.31830 139.78020 139.78777 484.96179
          Condensed to atoms (all electrons):
               1          2          3          4          5          6
     1  P    0.006324  -0.001770  -0.001853  -0.000148  -0.001564   0.000268
     2  O   -0.001770   0.003509  -0.000468  -0.000045  -0.000701   0.000476
     3  O   -0.001853  -0.000468   0.001704   0.000055   0.000578  -0.000124
     4  H   -0.000148  -0.000045   0.000055   0.000019   0.000058  -0.000008
     5  O   -0.001564  -0.000701   0.000578   0.000058   0.002694  -0.001546
     6  H    0.000268   0.000476  -0.000124  -0.000008  -0.001546   0.001350
     7  O   -0.001119  -0.000765   0.000119   0.000065   0.000356  -0.000120
     8  H   -0.000142  -0.000096  -0.000020   0.000002   0.000078  -0.000056
     9  O    0.000100   0.000245   0.000094  -0.000001  -0.000624   0.002779
    10  H   -0.000041   0.000561  -0.000025   0.000000   0.000623   0.000280
    11  H   -0.000221   0.000154  -0.000013  -0.000000   0.000363  -0.000027
    12  O    0.000553  -0.001029   0.000118   0.000001   0.000040  -0.000013
    13  H   -0.000537   0.000678  -0.000053  -0.000001  -0.000058   0.000062
    14  H    0.000261   0.000169  -0.000058   0.000000   0.000158  -0.000248
               7          8          9         10         11         12
     1  P   -0.001119  -0.000142   0.000100  -0.000041  -0.000221   0.000553
     2  O   -0.000765  -0.000096   0.000245   0.000561   0.000154  -0.001029
     3  O    0.000119  -0.000020   0.000094  -0.000025  -0.000013   0.000118
     4  H    0.000065   0.000002  -0.000001   0.000000  -0.000000   0.000001
     5  O    0.000356   0.000078  -0.000624   0.000623   0.000363   0.000040
     6  H   -0.000120  -0.000056   0.002779   0.000280  -0.000027  -0.000013
     7  O    0.001273   0.000152  -0.000164  -0.000063   0.000008  -0.000024
     8  H    0.000152   0.000067  -0.000073  -0.000003   0.000002  -0.000007
     9  O   -0.000164  -0.000073   7.992428   0.314326   0.316476   0.057477
    10  H   -0.000063  -0.000003   0.314326   0.421878  -0.019458  -0.004824
    11  H    0.000008   0.000002   0.316476  -0.019458   0.435325  -0.003703
    12  O   -0.000024  -0.000007   0.057477  -0.004824  -0.003703   0.024293
    13  H   -0.000004  -0.000001  -0.002395   0.000420   0.000324  -0.002079
    14  H    0.000027   0.000012  -0.109268   0.008879   0.007729  -0.031734
              13         14
     1  P   -0.000537   0.000261
     2  O    0.000678   0.000169
     3  O   -0.000053  -0.000058
     4  H   -0.000001   0.000000
     5  O   -0.000058   0.000158
     6  H    0.000062  -0.000248
     7  O   -0.000004   0.000027
     8  H   -0.000001   0.000012
     9  O   -0.002395  -0.109268
    10  H    0.000420   0.008879
    11  H    0.000324   0.007729
    12  O   -0.002079  -0.031734
    13  H    0.000992   0.000896
    14  H    0.000896   0.050689
 Mulliken charges:
               1
     1  P   -0.000111
     2  O   -0.000917
     3  O   -0.000054
     4  H    0.000002
     5  O   -0.000455
     6  H   -0.003074
     7  O    0.000259
     8  H    0.000085
     9  O   -0.571400
    10  H    0.277447
    11  H    0.263041
    12  O   -0.039067
    13  H    0.001756
    14  H    0.072489
 Sum of Mulliken charges =  -0.00000
 Mulliken charges with hydrogens summed into heavy atoms:
               1
     1  P   -0.000111
     2  O   -0.000917
     3  O   -0.000052
     5  O   -0.003529
     7  O    0.000343
     9  O   -0.030911
    12  O    0.035177
         Mulliken charges condensed to fragments:
      1     -0.004266
      2     -0.030911
      3      0.035177
 Electronic spatial extent (au):  <R**2>=          17830.8147
 Charge=             -0.0000 electrons
 Dipole moment (field-independent basis, Debye):
    X=              0.7058    Y=             -0.2736    Z=             -1.8813  Tot=              2.0279
 Quadrupole moment (field-independent basis, Debye-Ang):
   XX=              8.1952   YY=            -12.7243   ZZ=            -52.2791
   XY=              8.0563   XZ=            -12.8523   YZ=            -31.7563
 Traceless Quadrupole moment (field-independent basis, Debye-Ang):
   XX=             27.1312   YY=              6.2117   ZZ=            -33.3430
   XY=              8.0563   XZ=            -12.8523   YZ=            -31.7563
 Octapole moment (field-independent basis, Debye-Ang**2):
  XXX=             11.3701  YYY=           -388.8050  ZZZ=          -1073.9474  XYY=             32.9871
  XXY=            100.3734  XXZ=           -144.8622  XZZ=           -489.3871  YZZ=           -829.8068
  YYZ=           -585.6102  XYZ=           -226.0982
 Hexadecapole moment (field-independent basis, Debye-Ang**3):
 XXXX=          -1700.1753 YYYY=          -9850.5081 ZZZZ=         -19393.4283 XXXY=            -19.3738
 XXXZ=          -2654.0507 YYYX=          -1581.2365 YYYZ=         -11277.0516 ZZZX=         -10897.4552
 ZZZY=         -16696.5179 XXYY=            613.4956 XXZZ=          -5541.8582 YYZZ=         -13832.7999
 XXYZ=          -2477.8483 YYXZ=          -4512.5244 ZZXY=          -7777.3591
 N-N= 9.064376857128D+00 E-N=-1.989659216904D+02  KE= 7.617463079293D+01
 No NMR shielding tensors so no spin-rotation constants.
 Leave Link  601 at Mon Feb 20 00:32:36 2023, MaxMem=  6710886400 cpu:               2.1 elap:               0.1
 (Enter /data0/home/software/g16/l122.exe)
 CPIOFr:  IOpCl= 0 IRwI=-1 IRwCP=  731 ICalc=  2 LCPTot=       89292 Len1MO=      233639 IndFrg=      790209
 Counterpoise: doing calculation for fragment   3 using the basis set of the full-system, NewBq=T
 Leave Link  122 at Mon Feb 20 00:32:37 2023, MaxMem=  6710886400 cpu:               0.1 elap:               0.0
 (Enter /data0/home/software/g16/l301.exe)
 Basis read from rwf:  (5D, 7F)
 No pseudopotential information found on rwf file.
   239 basis functions,   364 primitive gaussians,   253 cartesian basis functions
     5 alpha electrons        5 beta electrons
       nuclear repulsion energy         9.0954348208 Hartrees.
 IExCor= 4336 DFT=T Ex+Corr=M062X ExCW=0 ScaHFX=  0.540000
 ScaDFX=  1.000000  1.000000  1.000000  1.000000 ScalE2=  1.000000  1.000000
 IRadAn=      5 IRanWt=     -1 IRanGd=            0 ICorTp=0 IEmpDi=131
 NAtoms=   14 NActive=   14 NUniq=   14 SFac= 1.00D+00 NAtFMM=   60 NAOKFM=F Big=F
 Integral buffers will be    131072 words long.
 Raffenetti 2 integral format.
 Two-electron integral symmetry is turned off.
 R6Disp:  Grimme-D3 Dispersion energy=       -0.0000000074 Hartrees.
 Nuclear repulsion after empirical dispersion term =        9.0954348134 Hartrees.
 No density basis found on file   718.
 Leave Link  301 at Mon Feb 20 00:32:37 2023, MaxMem=  6710886400 cpu:               1.3 elap:               0.1
 (Enter /data0/home/software/g16/l302.exe)
 NPDir=0 NMtPBC=     1 NCelOv=     1 NCel=       1 NClECP=     1 NCelD=      1
         NCelK=      1 NCelE2=     1 NClLst=     1 CellRange=     0.0.
 One-electron integrals computed using PRISM.
 NBasis=   239 RedAO= T EigKep=  5.35D-04  NBF=   239
 NBsUse=   239 1.00D-06 EigRej= -1.00D+00 NBFU=   239
 Precomputing XC quadrature grid using
 IXCGrd= 4 IRadAn=           5 IRanWt=          -1 IRanGd=           0 AccXCQ= 0.00D+00.
 Generated NRdTot=       0 NPtTot=           0 NUsed=           0 NTot=          32
 NSgBfM=   252   252   252   252   252 MxSgAt=    14 MxSgA2=    14.
 Leave Link  302 at Mon Feb 20 00:32:37 2023, MaxMem=  6710886400 cpu:               3.8 elap:               0.2
 (Enter /data0/home/software/g16/l303.exe)
 DipDrv:  MaxL=1.
 Leave Link  303 at Mon Feb 20 00:32:37 2023, MaxMem=  6710886400 cpu:               0.6 elap:               0.0
 (Enter /data0/home/software/g16/l401.exe)
 ExpMin= 3.48D-02 ExpMax= 7.75D+04 ExpMxC= 2.65D+03 IAcc=3 IRadAn=         5 AccDes= 0.00D+00
 Harris functional with IExCor= 1009 and IRadAn=       5 diagonalized for initial guess.
 HarFok:  IExCor= 1009 AccDes= 0.00D+00 IRadAn=         5 IDoV= 1 UseB2=F ITyADJ=14
 ICtDFT=  3500011 ScaDFX=  1.000000  1.000000  1.000000  1.000000
 FoFCou: FMM=F IPFlag=           0 FMFlag=      100000 FMFlg1=           0
         NFxFlg=           0 DoJE=T BraDBF=F KetDBF=T FulRan=T
         wScrn=  0.000000 ICntrl=       500 IOpCl=  0 I1Cent=   200000004 NGrid=           0
         NMat0=    1 NMatS0=      1 NMatT0=    0 NMatD0=    1 NMtDS0=    0 NMtDT0=    0
 Symmetry not used in FoFCou.
 Harris En= -76.4168841838506    
 JPrj=0 DoOrth=F DoCkMO=F.
 Leave Link  401 at Mon Feb 20 00:32:37 2023, MaxMem=  6710886400 cpu:               9.8 elap:               0.4
 (Enter /data0/home/software/g16/l502.exe)
 Two-electron integral symmetry not used.
 Closed shell SCF:
 Using DIIS extrapolation, IDIIS=  1040.
 NGot=  6710886400 LenX=  6710750439 LenY=  6710685989
 Requested convergence on RMS density matrix=1.00D-08 within 128 cycles.
 Requested convergence on MAX density matrix=1.00D-06.
 Requested convergence on             energy=1.00D-06.
 No special actions if energy rises.
 Fock matrices will be formed incrementally for  20 cycles.

 Cycle   1  Pass 1  IDiag  1:
 FoFJK:  IHMeth= 1 ICntrl=       0 DoSepK=F KAlg= 0 I1Cent=           0 FoldK=F
 IRaf= 900000000 NMat=       1 IRICut=       1 DoRegI=T DoRafI=F ISym2E= 0 IDoP0=0 IntGTp=1.
 FoFCou: FMM=F IPFlag=           0 FMFlag=      100000 FMFlg1=           0
         NFxFlg=           0 DoJE=F BraDBF=F KetDBF=F FulRan=T
         wScrn=  0.000000 ICntrl=         0 IOpCl=  0 I1Cent=           0 NGrid=           0
[...]
 KE= 7.618156400912D+01 PE=-1.989739855702D+02 EE= 3.730689508888D+01
 Leave Link  502 at Mon Feb 20 00:32:52 2023, MaxMem=  6710886400 cpu:               8.5 elap:               0.4
 (Enter /data0/home/software/g16/l601.exe)
 Copying SCF densities to generalized density rwf, IOpCl= 0 IROHF=0.

 **********************************************************************

            Population analysis using the SCF density.

 **********************************************************************

 Alpha  occ. eigenvalues --  -19.62668  -1.13174  -0.60555  -0.47456  -0.39949
 Alpha virt. eigenvalues --    0.06156   0.13254   0.17413   0.17952   0.18935
 Alpha virt. eigenvalues --    0.23324   0.50268   0.53667   0.97937   1.00416
 Alpha virt. eigenvalues --    1.06016   1.18435   1.19818   1.32317   1.34103
 Alpha virt. eigenvalues --    1.69405   1.73771   1.75601   2.06549   2.09804
 Alpha virt. eigenvalues --    2.35404   2.41073   2.54317   2.87356   3.01040
 Alpha virt. eigenvalues --    5.05645   5.47118   5.90950   6.78311   6.80249
 Alpha virt. eigenvalues --    6.87207   6.91371   7.09873  49.95454
          Condensed to atoms (all electrons):
               9         10         11
     9  O    7.920131   0.315673   0.321943
    10  H    0.315673   0.426683  -0.024030
    11  H    0.321943  -0.024030   0.426015
 Mulliken charges:
               1
     1  P    0.000000
     2  O    0.000000
     3  O    0.000000
     4  H    0.000000
     5  O    0.000000
     6  H    0.000000
     7  O    0.000000
     8  H    0.000000
     9  O   -0.557747
    10  H    0.281675
    11  H    0.276072
    12  O    0.000000
    13  H    0.000000
    14  H    0.000000
 Sum of Mulliken charges =  -0.00000
 Mulliken charges with hydrogens summed into heavy atoms:
               1
     1  P    0.000000
     2  O    0.000000
     3  O    0.000000
     5  O    0.000000
     7  O    0.000000
     9  O   -0.000000
    12  O    0.000000
         Mulliken charges condensed to fragments:
      1      0.000000
      2     -0.000000
      3      0.000000
 Electronic spatial extent (au):  <R**2>=          17832.2227
 Charge=             -0.0000 electrons
 Dipole moment (field-independent basis, Debye):
    X=              0.7263    Y=             -0.2782    Z=             -1.9734  Tot=              2.1212
 Quadrupole moment (field-independent basis, Debye-Ang):
   XX=              8.6952   YY=            -12.8433   ZZ=            -54.5540
   XY=              8.3150   XZ=            -13.6460   YZ=            -33.2008
 Traceless Quadrupole moment (field-independent basis, Debye-Ang):
   XX=             28.2625   YY=              6.7241   ZZ=            -34.9866
   XY=              8.3150   XZ=            -13.6460   YZ=            -33.2008
 Octapole moment (field-independent basis, Debye-Ang**2):
  XXX=             20.5678  YYY=           -391.0492  ZZZ=          -1116.2653  XYY=             36.3736
  XXY=            107.3299  XXZ=           -150.6980  XZZ=           -512.1255  YZZ=           -864.7672
  YYZ=           -608.0125  XYZ=           -238.6756
 Hexadecapole moment (field-independent basis, Debye-Ang**3):
 XXXX=          -1548.6254 YYYY=          -9886.7293 ZZZZ=         -20096.1474 XXXY=            112.5768
 XXXZ=          -2679.2121 YYYX=          -1534.1319 YYYZ=         -11621.0975 ZZZX=         -11340.1291
 ZZZY=         -17342.3828 XXYY=            712.9436 XXZZ=          -5762.1931 YYZZ=         -14367.6187
 XXYZ=          -2572.6869 YYXZ=          -4708.5446 ZZXY=          -8127.3694
 N-N= 9.064376857128D+00 E-N=-1.989739854843D+02  KE= 7.618156400912D+01
 No NMR shielding tensors so no spin-rotation constants.
 Leave Link  601 at Mon Feb 20 00:32:52 2023, MaxMem=  6710886400 cpu:               1.7 elap:               0.1
 (Enter /data0/home/software/g16/l122.exe)
 CPIOFr:  IOpCl= 0 IRwI=-1 IRwCP=  731 ICalc=  5 LCPTot=       89292 Len1MO=      233639 IndFrg=     1491126
 Counterpoise: doing calculation for fragment   3 using the basis set of the fragment.
 Leave Link  122 at Mon Feb 20 00:32:52 2023, MaxMem=  6710886400 cpu:               0.1 elap:               0.0
 (Enter /data0/home/software/g16/l301.exe)
 Basis read from rwf:  (5D, 7F)
 No pseudopotential information found on rwf file.
    39 basis functions,    58 primitive gaussians,    41 cartesian basis functions
     5 alpha electrons        5 beta electrons
       nuclear repulsion energy         9.0954348208 Hartrees.
 IExCor= 4336 DFT=T Ex+Corr=M062X ExCW=0 ScaHFX=  0.540000
 ScaDFX=  1.000000  1.000000  1.000000  1.000000 ScalE2=  1.000000  1.000000
 IRadAn=      5 IRanWt=     -1 IRanGd=            0 ICorTp=0 IEmpDi=131
 NAtoms=   14 NActive=    3 NUniq=    3 SFac= 1.00D+00 NAtFMM=   60 NAOKFM=F Big=F
 Integral buffers will be    131072 words long.
 Raffenetti 2 integral format.
 Two-electron integral symmetry is turned off.
 R6Disp:  Grimme-D3 Dispersion energy=       -0.0000000074 Hartrees.
 Nuclear repulsion after empirical dispersion term =        9.0954348134 Hartrees.
 No density basis found on file   718.
 Leave Link  301 at Mon Feb 20 00:32:53 2023, MaxMem=  6710886400 cpu:               1.3 elap:               0.1
 (Enter /data0/home/software/g16/l302.exe)
 NPDir=0 NMtPBC=     1 NCelOv=     1 NCel=       1 NClECP=     1 NCelD=      1
         NCelK=      1 NCelE2=     1 NClLst=     1 CellRange=     0.0.
 One-electron integrals computed using PRISM.
 NBasis=    39 RedAO= T EigKep=  3.01D-03  NBF=    39
 NBsUse=    39 1.00D-06 EigRej= -1.00D+00 NBFU=    39
 Precomputing XC quadrature grid using
 IXCGrd= 4 IRadAn=           5 IRanWt=          -1 IRanGd=           0 AccXCQ= 0.00D+00.
 Generated NRdTot=       0 NPtTot=           0 NUsed=           0 NTot=          32
 NSgBfM=    41    41    41    41    41 MxSgAt=     3 MxSgA2=     3.
 Leave Link  302 at Mon Feb 20 00:32:53 2023, MaxMem=  6710886400 cpu:               2.2 elap:               0.1
 (Enter /data0/home/software/g16/l303.exe)
 DipDrv:  MaxL=1.
 Leave Link  303 at Mon Feb 20 00:32:53 2023, MaxMem=  6710886400 cpu:               0.4 elap:               0.0
 (Enter /data0/home/software/g16/l401.exe)
 ExpMin= 8.45D-02 ExpMax= 8.59D+03 ExpMxC= 1.30D+03 IAcc=3 IRadAn=         5 AccDes= 0.00D+00
 Harris functional with IExCor= 1009 and IRadAn=       5 diagonalized for initial guess.
 HarFok:  IExCor= 1009 AccDes= 0.00D+00 IRadAn=         5 IDoV= 1 UseB2=F ITyADJ=14
 ICtDFT=  3500011 ScaDFX=  1.000000  1.000000  1.000000  1.000000
 FoFCou: FMM=F IPFlag=           0 FMFlag=      100000 FMFlg1=           0
         NFxFlg=           0 DoJE=T BraDBF=F KetDBF=T FulRan=T
         wScrn=  0.000000 ICntrl=       500 IOpCl=  0 I1Cent=   200000004 NGrid=           0
         NMat0=    1 NMatS0=      1 NMatT0=    0 NMatD0=    1 NMtDS0=    0 NMtDT0=    0
 Symmetry not used in FoFCou.
 Harris En= -76.4163866401666    
 JPrj=0 DoOrth=F DoCkMO=F.
 Leave Link  401 at Mon Feb 20 00:32:53 2023, MaxMem=  6710886400 cpu:               2.9 elap:               0.1
 (Enter /data0/home/software/g16/l502.exe)
 Keep R1 ints in memory in canonical form, NReq=21037771.
 FoFCou: FMM=F IPFlag=           0 FMFlag=           0 FMFlg1=           0
         NFxFlg=           0 DoJE=F BraDBF=F KetDBF=F FulRan=T
         wScrn=  0.000000 ICntrl=       600 IOpCl=  0 I1Cent=           0 NGrid=           0
         NMat0=    1 NMatS0=    780 NMatT0=    0 NMatD0=    1 NMtDS0=    0 NMtDT0=    0
 Symmetry not used in FoFCou.
 Two-electron integral symmetry not used.
 Closed shell SCF:
 Using DIIS extrapolation, IDIIS=  1040.
 NGot=  6710886400 LenX=  6710576653 LenY=  6710574531
 Requested convergence on RMS density matrix=1.00D-08 within 128 cycles.
 Requested convergence on MAX density matrix=1.00D-06.
 Requested convergence on             energy=1.00D-06.
 No special actions if energy rises.
 Integral accuracy reduced to 1.0D-05 until final iterations.

 Cycle   1  Pass 0  IDiag  1:
 E= -76.3466153841241    
 DIIS: error= 6.99D-02 at cycle   1 NSaved=   1.
 NSaved= 1 IEnMin= 1 EnMin= -76.3466153841241     IErMin= 1 ErrMin= 6.99D-02
 ErrMax= 6.99D-02  0.00D+00 EMaxC= 1.00D-01 BMatC= 1.20D-01 BMatP= 1.20D-01
 IDIUse=3 WtCom= 3.01D-01 WtEn= 6.99D-01
 Coeff-Com:  0.100D+01
 Coeff-En:   0.100D+01
 Coeff:      0.100D+01
 Gap=     0.325 Goal=   None    Shift=    0.000
 GapD=    0.325 DampG=1.000 DampE=0.500 DampFc=0.5000 IDamp=-1.
 Damping current iteration by 5.00D-01
 RMSDP=7.96D-03 MaxDP=1.01D-01              OVMax= 1.68D-01

 Cycle   2  Pass 0  IDiag  1:
 E= -76.3779105717377     Delta-E=       -0.031295187614 Rises=F Damp=T
 DIIS: error= 1.14D-02 at cycle   2 NSaved=   2.
 NSaved= 2 IEnMin= 2 EnMin= -76.3779105717377     IErMin= 2 ErrMin= 1.14D-02
 ErrMax= 1.14D-02  0.00D+00 EMaxC= 1.00D-01 BMatC= 4.84D-03 BMatP= 1.20D-01
 IDIUse=3 WtCom= 8.86D-01 WtEn= 1.14D-01
 Coeff-Com:  0.829D-01 0.917D+00
 Coeff-En:   0.188D+00 0.812D+00
 Coeff:      0.949D-01 0.905D+00
 Gap=     0.457 Goal=   None    Shift=    0.000
 RMSDP=9.47D-04 MaxDP=1.41D-02 DE=-3.13D-02 OVMax= 1.00D-01

 Cycle   3  Pass 0  IDiag  1:
 E= -76.4217198270436     Delta-E=       -0.043809255306 Rises=F Damp=F
 DIIS: error= 2.16D-03 at cycle   3 NSaved=   3.
 NSaved= 3 IEnMin= 3 EnMin= -76.4217198270436     IErMin= 3 ErrMin= 2.16D-03
 ErrMax= 2.16D-03  0.00D+00 EMaxC= 1.00D-01 BMatC= 9.04D-05 BMatP= 4.84D-03
 IDIUse=3 WtCom= 9.78D-01 WtEn= 2.16D-02
 Coeff-Com: -0.199D-01 0.393D-01 0.981D+00
 Coeff-En:   0.000D+00 0.000D+00 0.100D+01
 Coeff:     -0.195D-01 0.384D-01 0.981D+00
 Gap=     0.462 Goal=   None    Shift=    0.000
 RMSDP=1.14D-04 MaxDP=1.04D-03 DE=-4.38D-02 OVMax= 3.31D-03

 Cycle   4  Pass 0  IDiag  1:
 E= -76.4217969858777     Delta-E=       -0.000077158834 Rises=F Damp=F
 DIIS: error= 4.13D-04 at cycle   4 NSaved=   4.
 NSaved= 4 IEnMin= 4 EnMin= -76.4217969858777     IErMin= 4 ErrMin= 4.13D-04
 ErrMax= 4.13D-04  0.00D+00 EMaxC= 1.00D-01 BMatC= 3.27D-06 BMatP= 9.04D-05
 IDIUse=3 WtCom= 9.96D-01 WtEn= 4.13D-03
 Coeff-Com: -0.188D-02-0.226D-02 0.162D+00 0.842D+00
 Coeff-En:   0.000D+00 0.000D+00 0.000D+00 0.100D+01
 Coeff:     -0.187D-02-0.225D-02 0.161D+00 0.843D+00
 Gap=     0.462 Goal=   None    Shift=    0.000
 RMSDP=2.21D-05 MaxDP=3.54D-04 DE=-7.72D-05 OVMax= 5.36D-04

 Cycle   5  Pass 0  IDiag  1:
 E= -76.4217990062608     Delta-E=       -0.000002020383 Rises=F Damp=F
 DIIS: error= 8.86D-05 at cycle   5 NSaved=   5.
 NSaved= 5 IEnMin= 5 EnMin= -76.4217990062608     IErMin= 5 ErrMin= 8.86D-05
 ErrMax= 8.86D-05  0.00D+00 EMaxC= 1.00D-01 BMatC= 8.21D-08 BMatP= 3.27D-06
 IDIUse=1 WtCom= 1.00D+00 WtEn= 0.00D+00
 Coeff-Com:  0.118D-02-0.179D-02-0.367D-01-0.640D-01 0.110D+01
 Coeff:      0.118D-02-0.179D-02-0.367D-01-0.640D-01 0.110D+01
 Gap=     0.462 Goal=   None    Shift=    0.000
 RMSDP=8.96D-06 MaxDP=1.02D-04 DE=-2.02D-06 OVMax= 2.02D-04

 Initial convergence to 1.0D-05 achieved.  Increase integral accuracy.
 Cycle   6  Pass 1  IDiag  1:
 E= -76.4218024807348     Delta-E=       -0.000003474474 Rises=F Damp=F
 DIIS: error= 1.22D-05 at cycle   1 NSaved=   1.
 NSaved= 1 IEnMin= 1 EnMin= -76.4218024807348     IErMin= 1 ErrMin= 1.22D-05
 ErrMax= 1.22D-05  0.00D+00 EMaxC= 1.00D-01 BMatC= 8.61D-09 BMatP= 8.61D-09
 IDIUse=1 WtCom= 1.00D+00 WtEn= 0.00D+00
 Coeff-Com:  0.100D+01
 Coeff:      0.100D+01
 Gap=     0.462 Goal=   None    Shift=    0.000
 RMSDP=8.96D-06 MaxDP=1.02D-04 DE=-3.47D-06 OVMax= 3.42D-05

 Cycle   7  Pass 1  IDiag  1:
 E= -76.4218024878705     Delta-E=       -0.000000007136 Rises=F Damp=F
 DIIS: error= 7.94D-06 at cycle   2 NSaved=   2.
 NSaved= 2 IEnMin= 2 EnMin= -76.4218024878705     IErMin= 2 ErrMin= 7.94D-06
 ErrMax= 7.94D-06  0.00D+00 EMaxC= 1.00D-01 BMatC= 7.68D-10 BMatP= 8.61D-09
 IDIUse=1 WtCom= 1.00D+00 WtEn= 0.00D+00
 Coeff-Com:  0.665D-01 0.933D+00
 Coeff:      0.665D-01 0.933D+00
 Gap=     0.462 Goal=   None    Shift=    0.000
 RMSDP=5.89D-07 MaxDP=9.48D-06 DE=-7.14D-09 OVMax= 1.67D-05

 Cycle   8  Pass 1  IDiag  1:
 E= -76.4218024880671     Delta-E=       -0.000000000197 Rises=F Damp=F
 DIIS: error= 4.97D-06 at cycle   3 NSaved=   3.
 NSaved= 3 IEnMin= 3 EnMin= -76.4218024880671     IErMin= 3 ErrMin= 4.97D-06
 ErrMax= 4.97D-06  0.00D+00 EMaxC= 1.00D-01 BMatC= 6.88D-10 BMatP= 7.68D-10
 IDIUse=1 WtCom= 1.00D+00 WtEn= 0.00D+00
 Coeff-Com: -0.544D-01 0.500D+00 0.554D+00
 Coeff:     -0.544D-01 0.500D+00 0.554D+00
 Gap=     0.462 Goal=   None    Shift=    0.000
 RMSDP=3.07D-07 MaxDP=3.97D-06 DE=-1.97D-10 OVMax= 7.23D-06

 Cycle   9  Pass 1  IDiag  1:
 E= -76.4218024885237     Delta-E=       -0.000000000457 Rises=F Damp=F
 DIIS: error= 5.85D-07 at cycle   4 NSaved=   4.
 NSaved= 4 IEnMin= 4 EnMin= -76.4218024885237     IErMin= 4 ErrMin= 5.85D-07
 ErrMax= 5.85D-07  0.00D+00 EMaxC= 1.00D-01 BMatC= 3.11D-12 BMatP= 6.88D-10
 IDIUse=1 WtCom= 1.00D+00 WtEn= 0.00D+00
 Coeff-Com:  0.106D-02-0.574D-01-0.146D-01 0.107D+01
 Coeff:      0.106D-02-0.574D-01-0.146D-01 0.107D+01
 Gap=     0.462 Goal=   None    Shift=    0.000
 RMSDP=5.68D-08 MaxDP=4.74D-07 DE=-4.57D-10 OVMax= 1.36D-06

 Cycle  10  Pass 1  IDiag  1:
 E= -76.4218024885289     Delta-E=       -0.000000000005 Rises=F Damp=F
 DIIS: error= 7.80D-08 at cycle   5 NSaved=   5.
 NSaved= 5 IEnMin= 5 EnMin= -76.4218024885289     IErMin= 5 ErrMin= 7.80D-08
 ErrMax= 7.80D-08  0.00D+00 EMaxC= 1.00D-01 BMatC= 1.89D-13 BMatP= 3.11D-12
 IDIUse=1 WtCom= 1.00D+00 WtEn= 0.00D+00
 Coeff-Com:  0.276D-02-0.369D-01-0.331D-01 0.181D+00 0.886D+00
 Coeff:      0.276D-02-0.369D-01-0.331D-01 0.181D+00 0.886D+00
 Gap=     0.462 Goal=   None    Shift=    0.000
 RMSDP=1.32D-08 MaxDP=1.18D-07 DE=-5.22D-12 OVMax= 3.14D-07

 Cycle  11  Pass 1  IDiag  1:
 E= -76.4218024885293     Delta-E=       -0.000000000000 Rises=F Damp=F
 DIIS: error= 8.55D-09 at cycle   6 NSaved=   6.
 NSaved= 6 IEnMin= 6 EnMin= -76.4218024885293     IErMin= 6 ErrMin= 8.55D-09
 ErrMax= 8.55D-09  0.00D+00 EMaxC= 1.00D-01 BMatC= 2.83D-15 BMatP= 1.89D-13
 IDIUse=1 WtCom= 1.00D+00 WtEn= 0.00D+00
 Coeff-Com:  0.127D-03 0.333D-03-0.146D-02-0.291D-01 0.201D-02 0.103D+01
 Coeff:      0.127D-03 0.333D-03-0.146D-02-0.291D-01 0.201D-02 0.103D+01
 Gap=     0.462 Goal=   None    Shift=    0.000
 RMSDP=2.22D-09 MaxDP=2.15D-08 DE=-3.41D-13 OVMax= 5.65D-08

 SCF Done:  E(RM062X) =  -76.4218024885     A.U. after   11 cycles
            NFock= 11  Conv=0.22D-08     -V/T= 2.0030
 KE= 7.619336827959D+01 PE=-1.990394779795D+02 EE= 3.732887239795D+01
 Leave Link  502 at Mon Feb 20 00:32:53 2023, MaxMem=  6710886400 cpu:               8.6 elap:               0.4
 (Enter /data0/home/software/g16/l601.exe)
 Copying SCF densities to generalized density rwf, IOpCl= 0 IROHF=0.

 **********************************************************************

            Population analysis using the SCF density.

 **********************************************************************

 Alpha  occ. eigenvalues --  -19.62660  -1.13366  -0.60528  -0.47679  -0.39999
 Alpha virt. eigenvalues --    0.06233   0.13313   0.17415   0.17943   0.18906
 Alpha virt. eigenvalues --    0.23382   0.51029   0.53359   0.98087   1.00233
 Alpha virt. eigenvalues --    1.06013   1.17698   1.20116   1.32020   1.33969
 Alpha virt. eigenvalues --    1.70371   1.74306   1.75349   2.07593   2.09420
 Alpha virt. eigenvalues --    2.36282   2.39901   2.54816   2.87973   3.01211
 Alpha virt. eigenvalues --    5.05635   5.48723   5.91152   6.78453   6.80075
 Alpha virt. eigenvalues --    6.87314   6.91593   7.09493  49.95594
          Condensed to atoms (all electrons):
              12         13         14
    12  O    7.917472   0.318989   0.317224
    13  H    0.318989   0.428884  -0.023929
    14  H    0.317224  -0.023929   0.429074
 Mulliken charges:
               1
     1  P    0.000000
     2  O    0.000000
     3  O    0.000000
     4  H    0.000000
     5  O    0.000000
     6  H    0.000000
     7  O    0.000000
     8  H    0.000000
     9  O    0.000000
    10  H    0.000000
    11  H    0.000000
    12  O   -0.553686
    13  H    0.276055
    14  H    0.277630
 Sum of Mulliken charges =   0.00000
 Mulliken charges with hydrogens summed into heavy atoms:
               1
     1  P    0.000000
     2  O    0.000000
     3  O    0.000000
     5  O    0.000000
     7  O    0.000000
     9  O    0.000000
    12  O    0.000000
         Mulliken charges condensed to fragments:
      1      0.000000
      2      0.000000
      3      0.000000
 Electronic spatial extent (au):  <R**2>=          21499.0239
 Charge=              0.0000 electrons
 Dipole moment (field-independent basis, Debye):
    X=              0.3351    Y=             -0.1634    Z=             -2.0999  Tot=              2.1328
 Quadrupole moment (field-independent basis, Debye-Ang):
   XX=              4.0379   YY=            -12.6142   ZZ=            -66.7549
   XY=              3.4369   XZ=            -21.7639   YZ=            -33.9867
 Traceless Quadrupole moment (field-independent basis, Debye-Ang):
   XX=             29.1483   YY=             12.4962   ZZ=            -41.6445
   XY=              3.4369   XZ=            -21.7639   YZ=            -33.9867
 Octapole moment (field-independent basis, Debye-Ang**2):
  XXX=             -8.9154  YYY=           -460.9016  ZZZ=          -1578.8634  XYY=            -70.7696
  XXY=             45.8799  XXZ=           -279.7866  XZZ=           -776.7844  YZZ=          -1040.1285
  YYZ=           -658.5363  XYZ=           -351.1931
 Hexadecapole moment (field-independent basis, Debye-Ang**3):
 XXXX=          -1620.9276 YYYY=         -12838.8844 ZZZZ=         -32977.7530 XXXY=           -258.5165
 XXXZ=          -4439.3986 YYYX=          -4418.8118 YYYZ=         -13831.6365 ZZZX=         -19034.8185
 ZZZY=         -24299.7939 XXYY=           -791.9760 XXZZ=          -9929.2628 YYZZ=         -17796.2897
 XXYZ=          -4433.3287 YYXZ=          -7061.4874 ZZXY=         -12047.5836
 N-N= 9.095434813409D+00 E-N=-1.990394778994D+02  KE= 7.619336827959D+01
 No NMR shielding tensors so no spin-rotation constants.
 Leave Link  601 at Mon Feb 20 00:32:53 2023, MaxMem=  6710886400 cpu:               1.8 elap:               0.1
 (Enter /data0/home/software/g16/l122.exe)
 CPIOFr:  IOpCl= 0 IRwI=-1 IRwCP=  731 ICalc=  6 LCPTot=       89292 Len1MO=      233639 IndFrg=     1724765
 Restoring MOs from calculation   1 to rwf.
 CPIOFr:  IOpCl= 0 IRwI=-2 IRwCP=  731 ICalc=  0 LCPTot=       89292 Len1MO=      233639 IndFrg=      322931
 Counterpoise corrected energy =    -796.982582762816
                   BSSE energy =       0.002105683931
              sum of fragments =    -796.976940154231
           complexation energy =      -4.86 kcal/mole (raw)
           complexation energy =      -3.54 kcal/mole (corrected)
 Leave Link  122 at Mon Feb 20 00:32:53 2023, MaxMem=  6710886400 cpu:               0.2 elap:               0.0
 (Enter /data0/home/software/g16/l9999.exe)
 1\1\GINC-LOCALHOST\SP\RM062X\6-311+G(2d,p)\H7O6P1\WUHANYU\20-Feb-2023\
 0\\#p M062X/6-311+G(2d,p) nosymm em=GD3 counterpoise=3\\Title Card Req
 uired\\0,1\P,0,15.392076,16.59722,11.507399\O,0,15.040612,16.329347,12
 .909729\O,0,16.885688,16.124621,11.223357\H,0,17.084472,16.335453,10.2
 2996\O,0,14.536186,15.861675,10.402337\H,0,13.553777,16.301097,10.4010
 48\O,0,15.406716,18.140836,11.133256\H,0,14.400545,18.48719,11.059168\
 O,0,11.100997,15.038299,12.28057\H,0,11.4385,15.716736,11.643264\H,0,1
 1.17454,14.215646,11.805682\O,0,12.773726,15.158833,14.51086\H,0,13.60
 8127,15.221788,14.034773\H,0,12.124724,15.003221,13.802359\\Version=ES
 64L-G16RevA.03\HF=-76.4218025\RMSD=2.220e-09\Dipole=-0.4080612,0.73253
 75,-3.7167373\Quadrupole=28.1357024,97.8571477,-125.9928501,6.5460365,
 -104.1570069,-95.8672078\PG=C01 [X(H7O6P1)]\\@


 HOW IS IT THAT THE SKY FEEDS THE STARS?

                           -- LUCRETIUS
 Job cpu time:       0 days  0 hours 18 minutes 45.8 seconds.
 Elapsed time:       0 days  0 hours  0 minutes 49.7 seconds.
 File lengths (MBytes):  RWF=     53 Int=      0 D2E=      0 Chk=     17 Scr=      1
 Normal termination of Gaussian 16 at Mon Feb 20 00:32:53 2023.
