 Entering Gaussian System, Link 0=g16
 Initial command:
 /data0/home/software/g16/l1.exe "/data0/home/software/g16/scratch/Gau-294880.inp" -scrdir="/data0/home/software/g16/scratch/"
 Default is to use a total of  22 processors:
                               22 via shared-memory
                                1 via Linda
 Entering Link 1 = /data0/home/software/g16/l1.exe PID=    294881.
  
 Copyright (c) 1988,1990,1992,1993,1995,1998,2003,2009,2016,
            Gaussian, Inc.  All Rights Reserved.
  
 This is part of the Gaussian(R) 16 program.  It is based on
 the Gaussian(R) 09 system (copyright 2009, Gaussian, Inc.),
 the Gaussian(R) 03 system (copyright 2003, Gaussian, Inc.),
 the Gaussian(R) 98 system (copyright 1998, Gaussian, Inc.),
 the Gaussian(R) 94 system (copyright 1995, Gaussian, Inc.),
 the Gaussian 92(TM) system (copyright 1992, Gaussian, Inc.),
 the Gaussian 90(TM) system (copyright 1990, Gaussian, Inc.),
 the Gaussian 88(TM) system (copyright 1988, Gaussian, Inc.),
 the Gaussian 86(TM) system (copyright 1986, Carnegie Mellon
 University), and the Gaussian 82(TM) system (copyright 1983,
 Carnegie Mellon University). Gaussian is a federally registered
 trademark of Gaussian, Inc.
  
 This software contains proprietary and confidential information,
 including trade secrets, belonging to Gaussian, Inc.
  
 This software is provided under written license and may be
 used, copied, transmitted, or stored only in accord with that
 written license.
  
 The following legend is applicable only to US Government
 contracts under FAR:
  
                    RESTRICTED RIGHTS LEGEND
  
 Use, reproduction and disclosure by the US Government is
 subject to restrictions as set forth in subparagraphs (a)
 and (c) of the Commercial Computer Software - Restricted
 Rights clause in FAR 52.227-19.
  
 Gaussian, Inc.
 340 Quinnipiac St., Bldg. 40, Wallingford CT 06492
  
  
 ---------------------------------------------------------------
 Warning -- This program may not be used in any manner that
 competes with the business of Gaussian, Inc. or will provide
 assistance to any competitor of Gaussian, Inc.  The licensee
 of this program is prohibited from giving any competitor of
 Gaussian, Inc. access to this program.  By using this program,
 the user acknowledges that Gaussian, Inc. is engaged in the
 business of creating and licensing software in the field of
 computational chemistry and represents and warrants to the
 licensee that it is not a competitor of Gaussian, Inc. and that
 it will not use this program in any manner prohibited above.
 ---------------------------------------------------------------
  

 Cite this work as:
 Gaussian 16, Revision A.03,
 M. J. Frisch, G. W. Trucks, H. B. Schlegel, G. E. Scuseria, 
 M. A. Robb, J. R. Cheeseman, G. Scalmani, V. Barone, 
 G. A. Petersson, H. Nakatsuji, X. Li, M. Caricato, A. V. Marenich, 
 J. Bloino, B. G. Janesko, R. Gomperts, B. Mennucci, H. P. Hratchian, 
 J. V. Ortiz, A. F. Izmaylov, J. L. Sonnenberg, D. Williams-Young, 
 F. Ding, F. Lipparini, F. Egidi, J. Goings, B. Peng, A. Petrone, 
 T. Henderson, D. Ranasinghe, V. G. Zakrzewski, J. Gao, N. Rega, 
 G. Zheng, W. Liang, M. Hada, M. Ehara, K. Toyota, R. Fukuda, 
 J. Hasegawa, M. Ishida, T. Nakajima, Y. Honda, O. Kitao, H. Nakai, 
 T. Vreven, K. Throssell, J. A. Montgomery, Jr., J. E. Peralta, 
 F. Ogliaro, M. J. Bearpark, J. J. Heyd, E. N. Brothers, K. N. Kudin, 
 V. N. Staroverov, T. A. Keith, R. Kobayashi, J. Normand, 
 K. Raghavachari, A. P. Rendell, J. C. Burant, S. S. Iyengar, 
 J. Tomasi, M. Cossi, J. M. Millam, M. Klene, C. Adamo, R. Cammi, 
 J. W. Ochterski, R. L. Martin, K. Morokuma, O. Farkas, 
 J. B. Foresman, and D. J. Fox, Gaussian, Inc., Wallingford CT, 2016.
 
 ******************************************
 Gaussian 16:  ES64L-G16RevA.03 25-Dec-2016
                19-Feb-2023 
 ******************************************
 %nproc=24
 Will use up to   24 processors via shared memory.
 %mem=50GB
 ---------------------------------------------------
 #p M062X/6-311+G(2d,p) nosymm em=GD3 counterpoise=2
 ---------------------------------------------------
 1/38=1,62=2,172=1/1;
 2/12=2,15=1,17=6,18=5,40=1/2;
 1/38=1,53=2,62=2,63=1/22;
 3/5=4,6=6,7=112,11=2,25=1,30=1,74=-55,124=31/1,2,3;
 4//1;
 5/5=2,38=5/2;
 6/7=2,8=2,9=2,10=2,28=1/1;
 1/53=2,62=2,63=1/22;
 3/5=7,6=11,7=112,11=2,25=1,30=1,74=-55,82=7,124=31/1,2,3;
 4//1;
 5/5=2,38=5/2;
 6/7=2,8=2,9=2,10=2,28=1/1;
 1/53=2,62=2,63=1/22(-4);
 99/5=1,9=1/99;
 Leave Link    1 at Sun Feb 19 13:26:51 2023, MaxMem=  6710886400 cpu:               0.7 elap:               0.0
 (Enter /data0/home/software/g16/l101.exe)
 -------------------
 Title Card Required
 -------------------
 Symbolic Z-matrix:
 Charge =  0 Multiplicity = 1 in supermolecule
 Charge =  0 Multiplicity = 1 in fragment      1.
 Charge =  0 Multiplicity = 1 in fragment      2.
 O                     7.11141   10.24222   7.38556    
 H                     7.89381   10.78126   7.16761    
 H                     6.85186   10.55493   8.26357    
 O                     6.71101   11.18254   10.14418    
 H                     7.66716   11.44222   10.05576    
 H                     6.23457   12.00154   10.09009    
 
 ITRead=  0  0  0  0  0  0
 MicOpt= -1 -1 -1 -1 -1 -1
 NAtoms=      6 NQM=        6 NQMF=       0 NMMI=      0 NMMIF=      0
                NMic=       0 NMicF=      0.
                    Isotopes and Nuclear Properties:
 (Nuclear quadrupole moments (NQMom) in fm**2, nuclear magnetic moments (NMagM)
  in nuclear magnetons)

  Atom         1           2           3           4           5           6
 IAtWgt=          16           1           1          16           1           1
 AtmWgt=  15.9949146   1.0078250   1.0078250  15.9949146   1.0078250   1.0078250
 NucSpn=           0           1           1           0           1           1
 AtZEff=  -0.0000000  -0.0000000  -0.0000000  -0.0000000  -0.0000000  -0.0000000
 NQMom=    0.0000000   0.0000000   0.0000000   0.0000000   0.0000000   0.0000000
 NMagM=    0.0000000   2.7928460   2.7928460   0.0000000   2.7928460   2.7928460
 AtZNuc=   8.0000000   1.0000000   1.0000000   8.0000000   1.0000000   1.0000000
 Leave Link  101 at Sun Feb 19 13:26:51 2023, MaxMem=  6710886400 cpu:               1.9 elap:               0.1
 (Enter /data0/home/software/g16/l202.exe)
                          Input orientation:                          
 ---------------------------------------------------------------------
 Center     Atomic      Atomic             Coordinates (Angstroms)
 Number     Number       Type             X           Y           Z
 ---------------------------------------------------------------------
      1          8           0        7.111406   10.242216    7.385558
      2          1           0        7.893805   10.781262    7.167611
      3          1           0        6.851857   10.554925    8.263571
      4          8           0        6.711013   11.182545   10.144183
      5          1           0        7.667157   11.442221   10.055757
      6          1           0        6.234570   12.001537   10.090090
 ---------------------------------------------------------------------
                    Distance matrix (angstroms):
                    1          2          3          4          5
     1  O    0.000000
     2  H    0.974792   0.000000
     3  H    0.967502   1.529056   0.000000
     4  O    2.941861   3.228003   1.987573   0.000000
     5  H    2.979737   2.971468   2.159615   0.994717   0.000000
     6  H    3.343433   3.575334   2.410374   0.949037   1.538284
                    6
     6  H    0.000000
 Symmetry turned off by external request.
 Stoichiometry    H4O2
 Framework group  C1[X(H4O2)]
 Deg. of freedom    12
 Full point group                 C1      NOp   1
 Rotational constants (GHZ):         191.6125034           6.4948954           6.4170068
 Leave Link  202 at Sun Feb 19 13:26:51 2023, MaxMem=  6710886400 cpu:               0.1 elap:               0.0
 (Enter /data0/home/software/g16/l122.exe)
 Counterpoise: doing full-system calculation.
 Leave Link  122 at Sun Feb 19 13:26:51 2023, MaxMem=  6710886400 cpu:               0.0 elap:               0.0
 (Enter /data0/home/software/g16/l301.exe)
 Standard basis: 6-311+G(2d,p) (5D, 7F)
 Ernie: Thresh=  0.10000D-02 Tol=  0.10000D-05 Strict=F.
    78 basis functions,   116 primitive gaussians,    82 cartesian basis functions
    10 alpha electrons       10 beta electrons
       nuclear repulsion energy        36.5564670219 Hartrees.
 IExCor= 4336 DFT=T Ex+Corr=M062X ExCW=0 ScaHFX=  0.540000
 ScaDFX=  1.000000  1.000000  1.000000  1.000000 ScalE2=  1.000000  1.000000
 IRadAn=      5 IRanWt=     -1 IRanGd=            0 ICorTp=0 IEmpDi=131
 NAtoms=    6 NActive=    6 NUniq=    6 SFac= 1.00D+00 NAtFMM=   60 NAOKFM=F Big=F
 Integral buffers will be    131072 words long.
 Raffenetti 2 integral format.
 Two-electron integral symmetry is turned off.
 R6Disp:  Grimme-D3 Dispersion energy=       -0.0000219268 Hartrees.
 Nuclear repulsion after empirical dispersion term =       36.5564450951 Hartrees.
 Leave Link  301 at Sun Feb 19 13:26:51 2023, MaxMem=  6710886400 cpu:               1.1 elap:               0.1
 (Enter /data0/home/software/g16/l302.exe)
 NPDir=0 NMtPBC=     1 NCelOv=     1 NCel=       1 NClECP=     1 NCelD=      1
         NCelK=      1 NCelE2=     1 NClLst=     1 CellRange=     0.0.
 One-electron integrals computed using PRISM.
 NBasis=    78 RedAO= T EigKep=  1.36D-03  NBF=    78
 NBsUse=    78 1.00D-06 EigRej= -1.00D+00 NBFU=    78
 Precomputing XC quadrature grid using
 IXCGrd= 4 IRadAn=           5 IRanWt=          -1 IRanGd=           0 AccXCQ= 0.00D+00.
 Generated NRdTot=       0 NPtTot=           0 NUsed=           0 NTot=          32
 NSgBfM=    82    82    82    82    82 MxSgAt=     6 MxSgA2=     6.
 Leave Link  302 at Sun Feb 19 13:26:51 2023, MaxMem=  6710886400 cpu:               2.5 elap:               0.1
 (Enter /data0/home/software/g16/l303.exe)
 DipDrv:  MaxL=1.
 Leave Link  303 at Sun Feb 19 13:26:51 2023, MaxMem=  6710886400 cpu:               0.4 elap:               0.0
 (Enter /data0/home/software/g16/l401.exe)
 ExpMin= 8.45D-02 ExpMax= 8.59D+03 ExpMxC= 1.30D+03 IAcc=3 IRadAn=         5 AccDes= 0.00D+00
 Harris functional with IExCor= 1009 and IRadAn=       5 diagonalized for initial guess.
 HarFok:  IExCor= 1009 AccDes= 0.00D+00 IRadAn=         5 IDoV= 1 UseB2=F ITyADJ=14
 ICtDFT=  3500011 ScaDFX=  1.000000  1.000000  1.000000  1.000000
 FoFCou: FMM=F IPFlag=           0 FMFlag=      100000 FMFlg1=           0
         NFxFlg=           0 DoJE=T BraDBF=F KetDBF=T FulRan=T
         wScrn=  0.000000 ICntrl=       500 IOpCl=  0 I1Cent=   200000004 NGrid=           0
         NMat0=    1 NMatS0=      1 NMatT0=    0 NMatD0=    1 NMtDS0=    0 NMtDT0=    0
 Symmetry not used in FoFCou.
 Harris En= -152.832913646322    
 JPrj=0 DoOrth=F DoCkMO=F.
 Leave Link  401 at Sun Feb 19 13:26:51 2023, MaxMem=  6710886400 cpu:               3.7 elap:               0.2
 (Enter /data0/home/software/g16/l502.exe)
 Keep R1 ints in memory in canonical form, NReq=26476721.
 FoFCou: FMM=F IPFlag=           0 FMFlag=           0 FMFlg1=           0
         NFxFlg=           0 DoJE=F BraDBF=F KetDBF=F FulRan=T
         wScrn=  0.000000 ICntrl=       600 IOpCl=  0 I1Cent=           0 NGrid=           0
         NMat0=    1 NMatS0=   3081 NMatT0=    0 NMatD0=    1 NMtDS0=    0 NMtDT0=    0
 Symmetry not used in FoFCou.
 Two-electron integral symmetry not used.
 Closed shell SCF:
 Using DIIS extrapolation, IDIIS=  1040.
 NGot=  6710886400 LenX=  6706122419 LenY=  6706115254
 Requested convergence on RMS density matrix=1.00D-08 within 128 cycles.
 Requested convergence on MAX density matrix=1.00D-06.
 Requested convergence on             energy=1.00D-06.
 No special actions if energy rises.
 Integral accuracy reduced to 1.0D-05 until final iterations.

 Cycle   1  Pass 0  IDiag  1:
 E= -152.705181562811    
 DIIS: error= 6.00D-02 at cycle   1 NSaved=   1.
 NSaved= 1 IEnMin= 1 EnMin= -152.705181562811     IErMin= 1 ErrMin= 6.00D-02
 ErrMax= 6.00D-02  0.00D+00 EMaxC= 1.00D-01 BMatC= 2.31D-01 BMatP= 2.31D-01
 IDIUse=3 WtCom= 4.00D-01 WtEn= 6.00D-01
 Coeff-Com:  0.100D+01
 Coeff-En:   0.100D+01
 Coeff:      0.100D+01
 Gap=     0.269 Goal=   None    Shift=    0.000
 GapD=    0.269 DampG=1.000 DampE=0.500 DampFc=0.5000 IDamp=-1.
 Damping current iteration by 5.00D-01
 RMSDP=6.81D-03 MaxDP=1.02D-01              OVMax= 1.77D-01

 Cycle   2  Pass 0  IDiag  1:
 E= -152.766031392989     Delta-E=       -0.060849830178 Rises=F Damp=T
 DIIS: error= 1.02D-02 at cycle   2 NSaved=   2.
 NSaved= 2 IEnMin= 2 EnMin= -152.766031392989     IErMin= 2 ErrMin= 1.02D-02
 ErrMax= 1.02D-02  0.00D+00 EMaxC= 1.00D-01 BMatC= 8.97D-03 BMatP= 2.31D-01
 IDIUse=3 WtCom= 8.98D-01 WtEn= 1.02D-01
 Coeff-Com:  0.709D-01 0.929D+00
 Coeff-En:   0.169D+00 0.831D+00
 Coeff:      0.810D-01 0.919D+00
 Gap=     0.405 Goal=   None    Shift=    0.000
 RMSDP=9.60D-04 MaxDP=1.62D-02 DE=-6.08D-02 OVMax= 1.05D-01

 Cycle   3  Pass 0  IDiag  1:
 E= -152.847697317764     Delta-E=       -0.081665924775 Rises=F Damp=F
 DIIS: error= 1.91D-03 at cycle   3 NSaved=   3.
 NSaved= 3 IEnMin= 3 EnMin= -152.847697317764     IErMin= 3 ErrMin= 1.91D-03
 ErrMax= 1.91D-03  0.00D+00 EMaxC= 1.00D-01 BMatC= 2.31D-04 BMatP= 8.97D-03
 IDIUse=3 WtCom= 9.81D-01 WtEn= 1.91D-02
 Coeff-Com: -0.234D-01 0.473D-01 0.976D+00
 Coeff-En:   0.000D+00 0.000D+00 0.100D+01
 Coeff:     -0.230D-01 0.464D-01 0.977D+00
 Gap=     0.408 Goal=   None    Shift=    0.000
 RMSDP=1.31D-04 MaxDP=1.54D-03 DE=-8.17D-02 OVMax= 4.22D-03

 Cycle   4  Pass 0  IDiag  1:
 E= -152.847872660131     Delta-E=       -0.000175342367 Rises=F Damp=F
 DIIS: error= 7.32D-04 at cycle   4 NSaved=   4.
 NSaved= 4 IEnMin= 4 EnMin= -152.847872660131     IErMin= 4 ErrMin= 7.32D-04
 ErrMax= 7.32D-04  0.00D+00 EMaxC= 1.00D-01 BMatC= 2.69D-05 BMatP= 2.31D-04
 IDIUse=3 WtCom= 9.93D-01 WtEn= 7.32D-03
 Coeff-Com: -0.830D-02 0.984D-02 0.372D+00 0.626D+00
 Coeff-En:   0.000D+00 0.000D+00 0.000D+00 0.100D+01
 Coeff:     -0.824D-02 0.977D-02 0.369D+00 0.629D+00
 Gap=     0.410 Goal=   None    Shift=    0.000
 RMSDP=3.93D-05 MaxDP=9.28D-04 DE=-1.75D-04 OVMax= 1.29D-03

 Cycle   5  Pass 0  IDiag  1:
 E= -152.847887858577     Delta-E=       -0.000015198446 Rises=F Damp=F
 DIIS: error= 2.25D-04 at cycle   5 NSaved=   5.
 NSaved= 5 IEnMin= 5 EnMin= -152.847887858577     IErMin= 5 ErrMin= 2.25D-04
 ErrMax= 2.25D-04  0.00D+00 EMaxC= 1.00D-01 BMatC= 3.71D-06 BMatP= 2.69D-05
 IDIUse=3 WtCom= 9.98D-01 WtEn= 2.25D-03
 Coeff-Com: -0.103D-04-0.267D-02 0.305D-01 0.259D+00 0.713D+00
 Coeff-En:   0.000D+00 0.000D+00 0.000D+00 0.000D+00 0.100D+01
 Coeff:     -0.103D-04-0.266D-02 0.304D-01 0.259D+00 0.714D+00
 Gap=     0.410 Goal=   None    Shift=    0.000
 RMSDP=1.58D-05 MaxDP=3.62D-04 DE=-1.52D-05 OVMax= 6.58D-04

 Cycle   6  Pass 0  IDiag  1:
 E= -152.847890471100     Delta-E=       -0.000002612523 Rises=F Damp=F
 DIIS: error= 4.54D-05 at cycle   6 NSaved=   6.
 NSaved= 6 IEnMin= 6 EnMin= -152.847890471100     IErMin= 6 ErrMin= 4.54D-05
 ErrMax= 4.54D-05  0.00D+00 EMaxC= 1.00D-01 BMatC= 1.11D-07 BMatP= 3.71D-06
 IDIUse=1 WtCom= 1.00D+00 WtEn= 0.00D+00
 Coeff-Com:  0.758D-03-0.111D-02-0.252D-01-0.329D-01 0.104D+00 0.954D+00
 Coeff:      0.758D-03-0.111D-02-0.252D-01-0.329D-01 0.104D+00 0.954D+00
 Gap=     0.410 Goal=   None    Shift=    0.000
 RMSDP=6.45D-06 MaxDP=1.01D-04 DE=-2.61D-06 OVMax= 1.36D-04

 Initial convergence to 1.0D-05 achieved.  Increase integral accuracy.
 Cycle   7  Pass 1  IDiag  1:
 E= -152.847883207967     Delta-E=        0.000007263133 Rises=F Damp=F
 DIIS: error= 1.77D-05 at cycle   1 NSaved=   1.
 NSaved= 1 IEnMin= 1 EnMin= -152.847883207967     IErMin= 1 ErrMin= 1.77D-05
 ErrMax= 1.77D-05  0.00D+00 EMaxC= 1.00D-01 BMatC= 4.30D-08 BMatP= 4.30D-08
 IDIUse=1 WtCom= 1.00D+00 WtEn= 0.00D+00
 Coeff-Com:  0.100D+01
 Coeff:      0.100D+01
 Gap=     0.410 Goal=   None    Shift=    0.000
 RMSDP=6.45D-06 MaxDP=1.01D-04 DE= 7.26D-06 OVMax= 4.77D-05

 Cycle   8  Pass 1  IDiag  1:
 E= -152.847883241470     Delta-E=       -0.000000033503 Rises=F Damp=F
 DIIS: error= 6.56D-06 at cycle   2 NSaved=   2.
 NSaved= 2 IEnMin= 2 EnMin= -152.847883241470     IErMin= 2 ErrMin= 6.56D-06
 ErrMax= 6.56D-06  0.00D+00 EMaxC= 1.00D-01 BMatC= 2.04D-09 BMatP= 4.30D-08
 IDIUse=1 WtCom= 1.00D+00 WtEn= 0.00D+00
 Coeff-Com: -0.140D-02 0.100D+01
 Coeff:     -0.140D-02 0.100D+01
 Gap=     0.410 Goal=   None    Shift=    0.000
 RMSDP=8.39D-07 MaxDP=1.48D-05 DE=-3.35D-08 OVMax= 2.30D-05

 Cycle   9  Pass 1  IDiag  1:
 E= -152.847883241745     Delta-E=       -0.000000000275 Rises=F Damp=F
 DIIS: error= 6.17D-06 at cycle   3 NSaved=   3.
 NSaved= 3 IEnMin= 3 EnMin= -152.847883241745     IErMin= 3 ErrMin= 6.17D-06
 ErrMax= 6.17D-06  0.00D+00 EMaxC= 1.00D-01 BMatC= 2.25D-09 BMatP= 2.04D-09
 IDIUse=1 WtCom= 1.00D+00 WtEn= 0.00D+00
 Coeff-Com: -0.451D-01 0.538D+00 0.507D+00
 Coeff:     -0.451D-01 0.538D+00 0.507D+00
 Gap=     0.410 Goal=   None    Shift=    0.000
 RMSDP=2.68D-07 MaxDP=6.80D-06 DE=-2.75D-10 OVMax= 9.25D-06

 Cycle  10  Pass 1  IDiag  1:
 E= -152.847883243208     Delta-E=       -0.000000001464 Rises=F Damp=F
 DIIS: error= 4.16D-07 at cycle   4 NSaved=   4.
 NSaved= 4 IEnMin= 4 EnMin= -152.847883243208     IErMin= 4 ErrMin= 4.16D-07
 ErrMax= 4.16D-07  0.00D+00 EMaxC= 1.00D-01 BMatC= 8.19D-12 BMatP= 2.04D-09
 IDIUse=1 WtCom= 1.00D+00 WtEn= 0.00D+00
 Coeff-Com: -0.107D-02-0.258D-01 0.572D-02 0.102D+01
 Coeff:     -0.107D-02-0.258D-01 0.572D-02 0.102D+01
 Gap=     0.410 Goal=   None    Shift=    0.000
 RMSDP=6.52D-08 MaxDP=9.62D-07 DE=-1.46D-09 OVMax= 1.83D-06

 Cycle  11  Pass 1  IDiag  1:
 E= -152.847883243223     Delta-E=       -0.000000000014 Rises=F Damp=F
 DIIS: error= 1.66D-07 at cycle   5 NSaved=   5.
 NSaved= 5 IEnMin= 5 EnMin= -152.847883243223     IErMin= 5 ErrMin= 1.66D-07
 ErrMax= 1.66D-07  0.00D+00 EMaxC= 1.00D-01 BMatC= 9.41D-13 BMatP= 8.19D-12
 IDIUse=1 WtCom= 1.00D+00 WtEn= 0.00D+00
 Coeff-Com:  0.298D-02-0.422D-01-0.331D-01 0.173D+00 0.900D+00
 Coeff:      0.298D-02-0.422D-01-0.331D-01 0.173D+00 0.900D+00
 Gap=     0.410 Goal=   None    Shift=    0.000
 RMSDP=2.35D-08 MaxDP=3.77D-07 DE=-1.44D-11 OVMax= 6.24D-07

 Cycle  12  Pass 1  IDiag  1:
 E= -152.847883243224     Delta-E=       -0.000000000001 Rises=F Damp=F
 DIIS: error= 5.60D-08 at cycle   6 NSaved=   6.
 NSaved= 6 IEnMin= 6 EnMin= -152.847883243224     IErMin= 6 ErrMin= 5.60D-08
 ErrMax= 5.60D-08  0.00D+00 EMaxC= 1.00D-01 BMatC= 2.90D-13 BMatP= 9.41D-13
 IDIUse=1 WtCom= 1.00D+00 WtEn= 0.00D+00
 Coeff-Com:  0.152D-02-0.197D-01-0.163D-01 0.294D-01 0.422D+00 0.583D+00
 Coeff:      0.152D-02-0.197D-01-0.163D-01 0.294D-01 0.422D+00 0.583D+00
 Gap=     0.410 Goal=   None    Shift=    0.000
 RMSDP=4.36D-09 MaxDP=8.79D-08 DE=-1.31D-12 OVMax= 1.88D-07

 SCF Done:  E(RM062X) =  -152.847883243     A.U. after   12 cycles
            NFock= 12  Conv=0.44D-08     -V/T= 2.0031
 KE= 1.523809663033D+02 PE=-4.347011899839D+02 EE= 9.291589534232D+01
 Leave Link  502 at Sun Feb 19 13:26:52 2023, MaxMem=  6710886400 cpu:              21.4 elap:               1.0
 (Enter /data0/home/software/g16/l601.exe)
 Copying SCF densities to generalized density rwf, IOpCl= 0 IROHF=0.

 **********************************************************************

            Population analysis using the SCF density.

 **********************************************************************

 Alpha  occ. eigenvalues --  -19.65705 -19.60584  -1.16334  -1.11261  -0.63630
 Alpha  occ. eigenvalues --   -0.58875  -0.50376  -0.46611  -0.42291  -0.38160
 Alpha virt. eigenvalues --    0.02867   0.09102   0.11333   0.14577   0.15934
 Alpha virt. eigenvalues --    0.17064   0.19143   0.20385   0.21897   0.24065
 Alpha virt. eigenvalues --    0.28547   0.36147   0.47125   0.51552   0.54149
 Alpha virt. eigenvalues --    0.63900   0.95137   0.97618   1.02127   1.05394
 Alpha virt. eigenvalues --    1.06952   1.08389   1.15533   1.17057   1.22576
 Alpha virt. eigenvalues --    1.22756   1.29657   1.34097   1.35897   1.45328
 Alpha virt. eigenvalues --    1.66806   1.69924   1.72302   1.74512   1.77267
 Alpha virt. eigenvalues --    1.94391   2.02479   2.09207   2.13547   2.17038
 Alpha virt. eigenvalues --    2.35065   2.40351   2.45408   2.49119   2.52850
 Alpha virt. eigenvalues --    2.60280   2.87012   2.91270   3.00755   3.09500
 Alpha virt. eigenvalues --    5.08012   5.10206   5.45912   5.50696   5.88605
 Alpha virt. eigenvalues --    5.94539   6.75451   6.78010   6.80473   6.82435
 Alpha virt. eigenvalues --    6.85073   6.88447   6.93577   6.94561   7.07836
 Alpha virt. eigenvalues --    7.15991  49.94697  49.99794
          Condensed to atoms (all electrons):
               1          2          3          4          5          6
     1  O    8.003873   0.311979   0.304634   0.015159   0.001205  -0.004918
     2  H    0.311979   0.457691  -0.031782  -0.001082   0.000310  -0.000165
     3  H    0.304634  -0.031782   0.367106  -0.005523  -0.003861  -0.001219
     4  O    0.015159  -0.001082  -0.005523   7.896213   0.340259   0.347243
     5  H    0.001205   0.000310  -0.003861   0.340259   0.402328  -0.031617
     6  H   -0.004918  -0.000165  -0.001219   0.347243  -0.031617   0.391550
 Mulliken charges:
               1
     1  O   -0.631930
     2  H    0.263050
     3  H    0.370645
     4  O   -0.592269
     5  H    0.291377
     6  H    0.299127
 Sum of Mulliken charges =   0.00000
 Mulliken charges with hydrogens summed into heavy atoms:
               1
     1  O    0.001765
     4  O   -0.001765
         Mulliken charges condensed to fragments:
      1      0.001765
      2     -0.001765
 Electronic spatial extent (au):  <R**2>=          17424.0105
 Charge=              0.0000 electrons
 Dipole moment (field-independent basis, Debye):
    X=              1.5959    Y=              3.4905    Z=              1.3852  Tot=              4.0804
 Quadrupole moment (field-independent basis, Debye-Ang):
   XX=             11.7012   YY=             62.7742   ZZ=              7.1417
   XY=             41.5024   XZ=             22.4974   YZ=             45.6449
 Traceless Quadrupole moment (field-independent basis, Debye-Ang):
   XX=            -15.5045   YY=             35.5686   ZZ=            -20.0640
   XY=             41.5024   XZ=             22.4974   YZ=             45.6449
 Octapole moment (field-independent basis, Debye-Ang**2):
  XXX=             14.1707  YYY=            818.5567  ZZZ=           -132.4921  XYY=            620.4877
  XXY=            297.7747  XXZ=            154.3313  XZZ=            158.2274  YZZ=            353.6891
  YYZ=            719.4054  XYZ=            454.7123
 Hexadecapole moment (field-independent basis, Debye-Ang**3):
 XXXX=           -870.5499 YYYY=           8986.7293 ZZZZ=          -4386.5743 XXXY=           1385.6455
 XXXZ=            444.4958 YYYX=           7635.8814 YYYZ=           9110.6665 ZZZX=             49.1728
 ZZZY=           1090.5586 XXYY=           4421.2695 XXZZ=           1032.4460 YYZZ=           5904.5241
 XXYZ=           3144.8315 YYXZ=           6452.2851 ZZXY=           3604.3308
 N-N= 3.655644509509D+01 E-N=-4.347011880728D+02  KE= 1.523809663033D+02
 No NMR shielding tensors so no spin-rotation constants.
 Leave Link  601 at Sun Feb 19 13:26:52 2023, MaxMem=  6710886400 cpu:               1.8 elap:               0.1
 (Enter /data0/home/software/g16/l122.exe)
 CPIOFr:  IOpCl= 0 IRwI=-1 IRwCP=  731 ICalc= -1 LCPTot=       10496 Len1MO=       26312 IndFrg=       10496
 CPIOFr:  IOpCl= 0 IRwI=-1 IRwCP=  731 ICalc=  0 LCPTot=       10496 Len1MO=       26312 IndFrg=       36808
 Counterpoise: doing calculation for fragment   1 using the basis set of the full-system, NewBq=T
 Leave Link  122 at Sun Feb 19 13:26:52 2023, MaxMem=  6710886400 cpu:               0.1 elap:               0.0
 (Enter /data0/home/software/g16/l301.exe)
 Basis read from rwf:  (5D, 7F)
 No pseudopotential information found on rwf file.
    78 basis functions,   116 primitive gaussians,    82 cartesian basis functions
     5 alpha electrons        5 beta electrons
       nuclear repulsion energy         9.0645918623 Hartrees.
 IExCor= 4336 DFT=T Ex+Corr=M062X ExCW=0 ScaHFX=  0.540000
 ScaDFX=  1.000000  1.000000  1.000000  1.000000 ScalE2=  1.000000  1.000000
 IRadAn=      5 IRanWt=     -1 IRanGd=            0 ICorTp=0 IEmpDi=131
 NAtoms=    6 NActive=    6 NUniq=    6 SFac= 1.00D+00 NAtFMM=   60 NAOKFM=F Big=F
 Integral buffers will be    131072 words long.
 Raffenetti 2 integral format.
 Two-electron integral symmetry is turned off.
 R6Disp:  Grimme-D3 Dispersion energy=       -0.0000000079 Hartrees.
 Nuclear repulsion after empirical dispersion term =        9.0645918544 Hartrees.
 No density basis found on file   718.
 Leave Link  301 at Sun Feb 19 13:26:52 2023, MaxMem=  6710886400 cpu:               1.3 elap:               0.1
 (Enter /data0/home/software/g16/l302.exe)
 NPDir=0 NMtPBC=     1 NCelOv=     1 NCel=       1 NClECP=     1 NCelD=      1
         NCelK=      1 NCelE2=     1 NClLst=     1 CellRange=     0.0.
 One-electron integrals computed using PRISM.
 NBasis=    78 RedAO= T EigKep=  1.36D-03  NBF=    78
 NBsUse=    78 1.00D-06 EigRej= -1.00D+00 NBFU=    78
 Precomputing XC quadrature grid using
 IXCGrd= 4 IRadAn=           5 IRanWt=          -1 IRanGd=           0 AccXCQ= 0.00D+00.
 Generated NRdTot=       0 NPtTot=           0 NUsed=           0 NTot=          32
 NSgBfM=    82    82    82    82    82 MxSgAt=     6 MxSgA2=     6.
 Leave Link  302 at Sun Feb 19 13:26:52 2023, MaxMem=  6710886400 cpu:               2.5 elap:               0.1
 (Enter /data0/home/software/g16/l303.exe)
 DipDrv:  MaxL=1.
 Leave Link  303 at Sun Feb 19 13:26:52 2023, MaxMem=  6710886400 cpu:               0.4 elap:               0.0
 (Enter /data0/home/software/g16/l401.exe)
 ExpMin= 8.45D-02 ExpMax= 8.59D+03 ExpMxC= 1.30D+03 IAcc=3 IRadAn=         5 AccDes= 0.00D+00
 Harris functional with IExCor= 1009 and IRadAn=       5 diagonalized for initial guess.
 HarFok:  IExCor= 1009 AccDes= 0.00D+00 IRadAn=         5 IDoV= 1 UseB2=F ITyADJ=14
 ICtDFT=  3500011 ScaDFX=  1.000000  1.000000  1.000000  1.000000
 FoFCou: FMM=F IPFlag=           0 FMFlag=      100000 FMFlg1=           0
         NFxFlg=           0 DoJE=T BraDBF=F KetDBF=T FulRan=T
         wScrn=  0.000000 ICntrl=       500 IOpCl=  0 I1Cent=   200000004 NGrid=           0
         NMat0=    1 NMatS0=      1 NMatT0=    0 NMatD0=    1 NMtDS0=    0 NMtDT0=    0
 Symmetry not used in FoFCou.
 Harris En= -76.4164483375730    
 JPrj=0 DoOrth=F DoCkMO=F.
 Leave Link  401 at Sun Feb 19 13:26:53 2023, MaxMem=  6710886400 cpu:               3.5 elap:               0.2
 (Enter /data0/home/software/g16/l502.exe)
 Keep R1 ints in memory in canonical form, NReq=26476721.
 FoFCou: FMM=F IPFlag=           0 FMFlag=           0 FMFlg1=           0
         NFxFlg=           0 DoJE=F BraDBF=F KetDBF=F FulRan=T
         wScrn=  0.000000 ICntrl=       600 IOpCl=  0 I1Cent=           0 NGrid=           0
         NMat0=    1 NMatS0=   3081 NMatT0=    0 NMatD0=    1 NMtDS0=    0 NMtDT0=    0
 Symmetry not used in FoFCou.
 Two-electron integral symmetry not used.
 Closed shell SCF:
 Using DIIS extrapolation, IDIIS=  1040.
 NGot=  6710886400 LenX=  6706122419 LenY=  6706115254
 Requested convergence on RMS density matrix=1.00D-08 within 128 cycles.
 Requested convergence on MAX density matrix=1.00D-06.
 Requested convergence on             energy=1.00D-06.
 No special actions if energy rises.
 Integral accuracy reduced to 1.0D-05 until final iterations.

 Cycle   1  Pass 0  IDiag  1:
 E= -76.3471469306627    
 DIIS: error= 4.70D-02 at cycle   1 NSaved=   1.
 NSaved= 1 IEnMin= 1 EnMin= -76.3471469306627     IErMin= 1 ErrMin= 4.70D-02
 ErrMax= 4.70D-02  0.00D+00 EMaxC= 1.00D-01 BMatC= 1.20D-01 BMatP= 1.20D-01
 IDIUse=3 WtCom= 5.30D-01 WtEn= 4.70D-01
 Coeff-Com:  0.100D+01
 Coeff-En:   0.100D+01
 Coeff:      0.100D+01
 Gap=     0.296 Goal=   None    Shift=    0.000
 GapD=    0.296 DampG=1.000 DampE=0.500 DampFc=0.5000 IDamp=-1.
 Damping current iteration by 5.00D-01
 RMSDP=4.17D-03 MaxDP=9.93D-02              OVMax= 1.69D-01

 Cycle   2  Pass 0  IDiag  1:
 E= -76.3780608285828     Delta-E=       -0.030913897920 Rises=F Damp=T
 DIIS: error= 7.45D-03 at cycle   2 NSaved=   2.
 NSaved= 2 IEnMin= 2 EnMin= -76.3780608285828     IErMin= 2 ErrMin= 7.45D-03
 ErrMax= 7.45D-03  0.00D+00 EMaxC= 1.00D-01 BMatC= 4.94D-03 BMatP= 1.20D-01
 IDIUse=3 WtCom= 9.26D-01 WtEn= 7.45D-02
 Coeff-Com:  0.857D-01 0.914D+00
 Coeff-En:   0.194D+00 0.806D+00
 Coeff:      0.937D-01 0.906D+00
 Gap=     0.423 Goal=   None    Shift=    0.000
 RMSDP=5.65D-04 MaxDP=1.45D-02 DE=-3.09D-02 OVMax= 1.02D-01

 Cycle   3  Pass 0  IDiag  1:
 E= -76.4219330386563     Delta-E=       -0.043872210073 Rises=F Damp=F
 DIIS: error= 1.48D-03 at cycle   3 NSaved=   3.
 NSaved= 3 IEnMin= 3 EnMin= -76.4219330386563     IErMin= 3 ErrMin= 1.48D-03
 ErrMax= 1.48D-03  0.00D+00 EMaxC= 1.00D-01 BMatC= 1.30D-04 BMatP= 4.94D-03
 IDIUse=3 WtCom= 9.85D-01 WtEn= 1.48D-02
 Coeff-Com: -0.249D-01 0.485D-01 0.976D+00
 Coeff-En:   0.000D+00 0.000D+00 0.100D+01
 Coeff:     -0.245D-01 0.478D-01 0.977D+00
 Gap=     0.424 Goal=   None    Shift=    0.000
 RMSDP=7.88D-05 MaxDP=1.23D-03 DE=-4.39D-02 OVMax= 3.74D-03

 Cycle   4  Pass 0  IDiag  1:
 E= -76.4220387783198     Delta-E=       -0.000105739664 Rises=F Damp=F
 DIIS: error= 2.64D-04 at cycle   4 NSaved=   4.
 NSaved= 4 IEnMin= 4 EnMin= -76.4220387783198     IErMin= 4 ErrMin= 2.64D-04
 ErrMax= 2.64D-04  0.00D+00 EMaxC= 1.00D-01 BMatC= 3.13D-06 BMatP= 1.30D-04
 IDIUse=3 WtCom= 9.97D-01 WtEn= 2.64D-03
 Coeff-Com: -0.280D-02-0.435D-03 0.158D+00 0.845D+00
 Coeff-En:   0.000D+00 0.000D+00 0.000D+00 0.100D+01
 Coeff:     -0.279D-02-0.434D-03 0.158D+00 0.845D+00
 Gap=     0.425 Goal=   None    Shift=    0.000
 RMSDP=1.22D-05 MaxDP=3.41D-04 DE=-1.06D-04 OVMax= 5.31D-04

 Cycle   5  Pass 0  IDiag  1:
 E= -76.4220407266681     Delta-E=       -0.000001948348 Rises=F Damp=F
 DIIS: error= 5.88D-05 at cycle   5 NSaved=   5.
 NSaved= 5 IEnMin= 5 EnMin= -76.4220407266681     IErMin= 5 ErrMin= 5.88D-05
 ErrMax= 5.88D-05  0.00D+00 EMaxC= 1.00D-01 BMatC= 8.36D-08 BMatP= 3.13D-06
 IDIUse=1 WtCom= 1.00D+00 WtEn= 0.00D+00
 Coeff-Com:  0.139D-02-0.216D-02-0.369D-01-0.633D-01 0.110D+01
 Coeff:      0.139D-02-0.216D-02-0.369D-01-0.633D-01 0.110D+01
 Gap=     0.425 Goal=   None    Shift=    0.000
 RMSDP=6.23D-06 MaxDP=9.93D-05 DE=-1.95D-06 OVMax= 2.10D-04

 Initial convergence to 1.0D-05 achieved.  Increase integral accuracy.
 Cycle   6  Pass 1  IDiag  1:
 E= -76.4220327947135     Delta-E=        0.000007931955 Rises=F Damp=F
 DIIS: error= 1.40D-05 at cycle   1 NSaved=   1.
 NSaved= 1 IEnMin= 1 EnMin= -76.4220327947135     IErMin= 1 ErrMin= 1.40D-05
 ErrMax= 1.40D-05  0.00D+00 EMaxC= 1.00D-01 BMatC= 2.04D-08 BMatP= 2.04D-08
 IDIUse=1 WtCom= 1.00D+00 WtEn= 0.00D+00
 Coeff-Com:  0.100D+01
 Coeff:      0.100D+01
 Gap=     0.425 Goal=   None    Shift=    0.000
 RMSDP=6.23D-06 MaxDP=9.93D-05 DE= 7.93D-06 OVMax= 5.10D-05

 Cycle   7  Pass 1  IDiag  1:
 E= -76.4220328107046     Delta-E=       -0.000000015991 Rises=F Damp=F
 DIIS: error= 8.13D-06 at cycle   2 NSaved=   2.
 NSaved= 2 IEnMin= 2 EnMin= -76.4220328107046     IErMin= 2 ErrMin= 8.13D-06
 ErrMax= 8.13D-06  0.00D+00 EMaxC= 1.00D-01 BMatC= 2.08D-09 BMatP= 2.04D-08
 IDIUse=1 WtCom= 1.00D+00 WtEn= 0.00D+00
 Coeff-Com:  0.767D-01 0.923D+00
 Coeff:      0.767D-01 0.923D+00
 Gap=     0.425 Goal=   None    Shift=    0.000
 RMSDP=5.70D-07 MaxDP=1.63D-05 DE=-1.60D-08 OVMax= 2.59D-05

 Cycle   8  Pass 1  IDiag  1:
 E= -76.4220328110371     Delta-E=       -0.000000000333 Rises=F Damp=F
 DIIS: error= 5.97D-06 at cycle   3 NSaved=   3.
 NSaved= 3 IEnMin= 3 EnMin= -76.4220328110371     IErMin= 3 ErrMin= 5.97D-06
 ErrMax= 5.97D-06  0.00D+00 EMaxC= 1.00D-01 BMatC= 1.97D-09 BMatP= 2.08D-09
 IDIUse=1 WtCom= 1.00D+00 WtEn= 0.00D+00
 Coeff-Com: -0.523D-01 0.510D+00 0.542D+00
 Coeff:     -0.523D-01 0.510D+00 0.542D+00
 Gap=     0.425 Goal=   None    Shift=    0.000
 RMSDP=2.34D-07 MaxDP=6.38D-06 DE=-3.33D-10 OVMax= 1.13D-05

 Cycle   9  Pass 1  IDiag  1:
 E= -76.4220328123330     Delta-E=       -0.000000001296 Rises=F Damp=F
 DIIS: error= 3.11D-07 at cycle   4 NSaved=   4.
 NSaved= 4 IEnMin= 4 EnMin= -76.4220328123330     IErMin= 4 ErrMin= 3.11D-07
 ErrMax= 3.11D-07  0.00D+00 EMaxC= 1.00D-01 BMatC= 2.87D-12 BMatP= 1.97D-09
 IDIUse=1 WtCom= 1.00D+00 WtEn= 0.00D+00
 Coeff-Com:  0.983D-02-0.130D+00-0.123D+00 0.124D+01
 Coeff:      0.983D-02-0.130D+00-0.123D+00 0.124D+01
 Gap=     0.425 Goal=   None    Shift=    0.000
 RMSDP=5.16D-08 MaxDP=7.50D-07 DE=-1.30D-09 OVMax= 1.95D-06

 Cycle  10  Pass 1  IDiag  1:
 E= -76.4220328123419     Delta-E=       -0.000000000009 Rises=F Damp=F
 DIIS: error= 4.95D-08 at cycle   5 NSaved=   5.
 NSaved= 5 IEnMin= 5 EnMin= -76.4220328123419     IErMin= 5 ErrMin= 4.95D-08
 ErrMax= 4.95D-08  0.00D+00 EMaxC= 1.00D-01 BMatC= 8.36D-14 BMatP= 2.87D-12
 IDIUse=1 WtCom= 1.00D+00 WtEn= 0.00D+00
 Coeff-Com:  0.129D-02-0.138D-01-0.112D-01 0.233D-01 0.100D+01
 Coeff:      0.129D-02-0.138D-01-0.112D-01 0.233D-01 0.100D+01
 Gap=     0.425 Goal=   None    Shift=    0.000
 RMSDP=6.47D-09 MaxDP=8.65D-08 DE=-8.94D-12 OVMax= 2.50D-07

 SCF Done:  E(RM062X) =  -76.4220328123     A.U. after   10 cycles
            NFock= 10  Conv=0.65D-08     -V/T= 2.0032
 KE= 7.617838609375D+01 PE=-1.989706368404D+02 EE= 3.730562607987D+01
 Leave Link  502 at Sun Feb 19 13:26:53 2023, MaxMem=  6710886400 cpu:              17.5 elap:               0.8
 (Enter /data0/home/software/g16/l601.exe)
 Copying SCF densities to generalized density rwf, IOpCl= 0 IROHF=0.

 **********************************************************************

            Population analysis using the SCF density.

 **********************************************************************

 Alpha  occ. eigenvalues --  -19.62710  -1.13186  -0.60519  -0.47537  -0.39972
 Alpha virt. eigenvalues --    0.02547   0.09217   0.12319   0.12679   0.15895
 Alpha virt. eigenvalues --    0.18301   0.20599   0.20964   0.23493   0.26084
 Alpha virt. eigenvalues --    0.28506   0.36770   0.50177   0.55050   0.62560
 Alpha virt. eigenvalues --    0.70150   0.71549   0.79246   0.93140   1.00056
 Alpha virt. eigenvalues --    1.03345   1.06046   1.06914   1.19828   1.20849
 Alpha virt. eigenvalues --    1.33329   1.39675   1.68388   1.70833   1.72854
 Alpha virt. eigenvalues --    1.74128   1.81932   1.94560   2.06986   2.08192
 Alpha virt. eigenvalues --    2.18550   2.22747   2.36764   2.41398   2.44750
 Alpha virt. eigenvalues --    2.47928   2.57450   2.57539   2.61551   2.63953
 Alpha virt. eigenvalues --    2.66240   2.85170   2.92094   2.97205   3.11533
 Alpha virt. eigenvalues --    3.44687   3.50865   4.40513   5.02434   5.07007
 Alpha virt. eigenvalues --    5.48727   5.93246   6.78525   6.80415   6.89265
 Alpha virt. eigenvalues --    6.91742   7.12618   9.79135   9.83207   9.91832
 Alpha virt. eigenvalues --    9.94596  10.10963  12.91454  13.22070  13.69198
 Alpha virt. eigenvalues --   17.66095  49.97630 136.14830
          Condensed to atoms (all electrons):
               1          2          3          4          5          6
     1  O    7.952139   0.319751   0.316394   0.017319  -0.000904  -0.003823
     2  H    0.319751   0.432221  -0.030878   0.001986  -0.000102  -0.000307
     3  H    0.316394  -0.030878   0.359328   0.009895  -0.000836  -0.001332
     4  O    0.017319   0.001986   0.009895   0.019415  -0.005659  -0.009747
     5  H   -0.000904  -0.000102  -0.000836  -0.005659   0.002624   0.002442
     6  H   -0.003823  -0.000307  -0.001332  -0.009747   0.002442   0.005873
 Mulliken charges:
               1
     1  O   -0.600876
     2  H    0.277329
     3  H    0.347428
     4  O   -0.033208
     5  H    0.002434
     6  H    0.006894
 Sum of Mulliken charges =   0.00000
 Mulliken charges with hydrogens summed into heavy atoms:
               1
     1  O    0.023881
     4  O   -0.023881
         Mulliken charges condensed to fragments:
      1      0.023881
      2     -0.023881
 Electronic spatial extent (au):  <R**2>=           7598.8143
 Charge=              0.0000 electrons
 Dipole moment (field-independent basis, Debye):
    X=              0.9179    Y=              1.4911    Z=              1.1476  Tot=              2.0935
 Quadrupole moment (field-independent basis, Debye-Ang):
   XX=              7.2280   YY=             23.8177   ZZ=             11.4679
   XY=             20.9251   XZ=             13.7521   YZ=             23.1337
 Traceless Quadrupole moment (field-independent basis, Debye-Ang):
   XX=             -6.9432   YY=              9.6465   ZZ=             -2.7033
   XY=             20.9251   XZ=             13.7521   YZ=             23.1337
 Octapole moment (field-independent basis, Debye-Ang**2):
  XXX=             15.1760  YYY=            261.7578  ZZZ=             66.6598  XYY=            284.6924
  XXY=            162.8481  XXZ=             94.0522  XZZ=            113.4791  YZZ=            204.3505
  YYZ=            303.5247  XYZ=            228.2349
 Hexadecapole moment (field-independent basis, Debye-Ang**3):
 XXXX=           -448.0392 YYYY=           2133.2490 ZZZZ=             58.4633 XXXY=            838.5475
 XXXZ=            334.3052 YYYX=           3142.6799 YYYZ=           3272.5556 ZZZX=            635.8628
 ZZZY=           1346.7950 XXYY=           2237.7460 XXZZ=            706.7754 YYZZ=           2609.2468
 XXYZ=           1632.7803 YYXZ=           2878.3855 ZZXY=           1825.1900
 N-N= 9.064591854450D+00 E-N=-1.989706375978D+02  KE= 7.617838609375D+01
 No NMR shielding tensors so no spin-rotation constants.
 Leave Link  601 at Sun Feb 19 13:26:54 2023, MaxMem=  6710886400 cpu:               1.8 elap:               0.1
 (Enter /data0/home/software/g16/l122.exe)
 CPIOFr:  IOpCl= 0 IRwI=-1 IRwCP=  731 ICalc=  1 LCPTot=       10496 Len1MO=       26312 IndFrg=       63120
 Counterpoise: doing calculation for fragment   2 using the basis set of the full-system, NewBq=T
 Leave Link  122 at Sun Feb 19 13:26:54 2023, MaxMem=  6710886400 cpu:               0.1 elap:               0.0
 (Enter /data0/home/software/g16/l301.exe)
 Basis read from rwf:  (5D, 7F)
 No pseudopotential information found on rwf file.
    78 basis functions,   116 primitive gaussians,    82 cartesian basis functions
     5 alpha electrons        5 beta electrons
       nuclear repulsion energy         9.0606552722 Hartrees.
 IExCor= 4336 DFT=T Ex+Corr=M062X ExCW=0 ScaHFX=  0.540000
 ScaDFX=  1.000000  1.000000  1.000000  1.000000 ScalE2=  1.000000  1.000000
 IRadAn=      5 IRanWt=     -1 IRanGd=            0 ICorTp=0 IEmpDi=131
 NAtoms=    6 NActive=    6 NUniq=    6 SFac= 1.00D+00 NAtFMM=   60 NAOKFM=F Big=F
 Integral buffers will be    131072 words long.
 Raffenetti 2 integral format.
 Two-electron integral symmetry is turned off.
 R6Disp:  Grimme-D3 Dispersion energy=       -0.0000000082 Hartrees.
 Nuclear repulsion after empirical dispersion term =        9.0606552640 Hartrees.
 No density basis found on file   718.
 Leave Link  301 at Sun Feb 19 13:26:54 2023, MaxMem=  6710886400 cpu:               1.3 elap:               0.1
 (Enter /data0/home/software/g16/l302.exe)
 NPDir=0 NMtPBC=     1 NCelOv=     1 NCel=       1 NClECP=     1 NCelD=      1
         NCelK=      1 NCelE2=     1 NClLst=     1 CellRange=     0.0.
 One-electron integrals computed using PRISM.
 NBasis=    78 RedAO= T EigKep=  1.36D-03  NBF=    78
 NBsUse=    78 1.00D-06 EigRej= -1.00D+00 NBFU=    78
 Precomputing XC quadrature grid using
 IXCGrd= 4 IRadAn=           5 IRanWt=          -1 IRanGd=           0 AccXCQ= 0.00D+00.
 Generated NRdTot=       0 NPtTot=           0 NUsed=           0 NTot=          32
 NSgBfM=    82    82    82    82    82 MxSgAt=     6 MxSgA2=     6.
 Leave Link  302 at Sun Feb 19 13:26:54 2023, MaxMem=  6710886400 cpu:               2.5 elap:               0.1
 (Enter /data0/home/software/g16/l303.exe)
 DipDrv:  MaxL=1.
 Leave Link  303 at Sun Feb 19 13:26:54 2023, MaxMem=  6710886400 cpu:               0.4 elap:               0.0
 (Enter /data0/home/software/g16/l401.exe)
 ExpMin= 8.45D-02 ExpMax= 8.59D+03 ExpMxC= 1.30D+03 IAcc=3 IRadAn=         5 AccDes= 0.00D+00
 Harris functional with IExCor= 1009 and IRadAn=       5 diagonalized for initial guess.
 HarFok:  IExCor= 1009 AccDes= 0.00D+00 IRadAn=         5 IDoV= 1 UseB2=F ITyADJ=14
 ICtDFT=  3500011 ScaDFX=  1.000000  1.000000  1.000000  1.000000
 FoFCou: FMM=F IPFlag=           0 FMFlag=      100000 FMFlg1=           0
         NFxFlg=           0 DoJE=T BraDBF=F KetDBF=T FulRan=T
         wScrn=  0.000000 ICntrl=       500 IOpCl=  0 I1Cent=   200000004 NGrid=           0
         NMat0=    1 NMatS0=      1 NMatT0=    0 NMatD0=    1 NMtDS0=    0 NMtDT0=    0
 Symmetry not used in FoFCou.
 Harris En= -76.4159226189385    
 JPrj=0 DoOrth=F DoCkMO=F.
 Leave Link  401 at Sun Feb 19 13:26:54 2023, MaxMem=  6710886400 cpu:               3.6 elap:               0.2
 (Enter /data0/home/software/g16/l502.exe)
 Keep R1 ints in memory in canonical form, NReq=26476721.
 FoFCou: FMM=F IPFlag=           0 FMFlag=           0 FMFlg1=           0
         NFxFlg=           0 DoJE=F BraDBF=F KetDBF=F FulRan=T
         wScrn=  0.000000 ICntrl=       600 IOpCl=  0 I1Cent=           0 NGrid=           0
         NMat0=    1 NMatS0=   3081 NMatT0=    0 NMatD0=    1 NMtDS0=    0 NMtDT0=    0
 Symmetry not used in FoFCou.
 Two-electron integral symmetry not used.
 Closed shell SCF:
 Using DIIS extrapolation, IDIIS=  1040.
 NGot=  6710886400 LenX=  6706122419 LenY=  6706115254
 Requested convergence on RMS density matrix=1.00D-08 within 128 cycles.
 Requested convergence on MAX density matrix=1.00D-06.
 Requested convergence on             energy=1.00D-06.
 No special actions if energy rises.
 Integral accuracy reduced to 1.0D-05 until final iterations.

 Cycle   1  Pass 0  IDiag  1:
 E= -76.3460699723512    
 DIIS: error= 5.44D-02 at cycle   1 NSaved=   1.
 NSaved= 1 IEnMin= 1 EnMin= -76.3460699723512     IErMin= 1 ErrMin= 5.44D-02
 ErrMax= 5.44D-02  0.00D+00 EMaxC= 1.00D-01 BMatC= 1.20D-01 BMatP= 1.20D-01
 IDIUse=3 WtCom= 4.56D-01 WtEn= 5.44D-01
 Coeff-Com:  0.100D+01
 Coeff-En:   0.100D+01
 Coeff:      0.100D+01
 Gap=     0.311 Goal=   None    Shift=    0.000
 GapD=    0.311 DampG=1.000 DampE=0.500 DampFc=0.5000 IDamp=-1.
 Damping current iteration by 5.00D-01
 RMSDP=5.12D-03 MaxDP=1.00D-01              OVMax= 1.70D-01

 Cycle   2  Pass 0  IDiag  1:
 E= -76.3771182098718     Delta-E=       -0.031048237521 Rises=F Damp=T
 DIIS: error= 8.12D-03 at cycle   2 NSaved=   2.
 NSaved= 2 IEnMin= 2 EnMin= -76.3771182098718     IErMin= 2 ErrMin= 8.12D-03
 ErrMax= 8.12D-03  0.00D+00 EMaxC= 1.00D-01 BMatC= 4.98D-03 BMatP= 1.20D-01
 IDIUse=3 WtCom= 9.19D-01 WtEn= 8.12D-02
 Coeff-Com:  0.864D-01 0.914D+00
 Coeff-En:   0.195D+00 0.805D+00
 Coeff:      0.952D-01 0.905D+00
 Gap=     0.442 Goal=   None    Shift=    0.000
 RMSDP=7.23D-04 MaxDP=1.45D-02 DE=-3.10D-02 OVMax= 1.02D-01

 Cycle   3  Pass 0  IDiag  1:
 E= -76.4212649115824     Delta-E=       -0.044146701711 Rises=F Damp=F
 DIIS: error= 1.77D-03 at cycle   3 NSaved=   3.
 NSaved= 3 IEnMin= 3 EnMin= -76.4212649115824     IErMin= 3 ErrMin= 1.77D-03
 ErrMax= 1.77D-03  0.00D+00 EMaxC= 1.00D-01 BMatC= 1.22D-04 BMatP= 4.98D-03
 IDIUse=3 WtCom= 9.82D-01 WtEn= 1.77D-02
 Coeff-Com: -0.239D-01 0.468D-01 0.977D+00
 Coeff-En:   0.000D+00 0.000D+00 0.100D+01
 Coeff:     -0.234D-01 0.460D-01 0.977D+00
 Gap=     0.444 Goal=   None    Shift=    0.000
 RMSDP=7.74D-05 MaxDP=1.22D-03 DE=-4.41D-02 OVMax= 3.66D-03

 Cycle   4  Pass 0  IDiag  1:
 E= -76.4213652141465     Delta-E=       -0.000100302564 Rises=F Damp=F
 DIIS: error= 2.19D-04 at cycle   4 NSaved=   4.
 NSaved= 4 IEnMin= 4 EnMin= -76.4213652141465     IErMin= 4 ErrMin= 2.19D-04
 ErrMax= 2.19D-04  0.00D+00 EMaxC= 1.00D-01 BMatC= 3.23D-06 BMatP= 1.22D-04
 IDIUse=3 WtCom= 9.98D-01 WtEn= 2.19D-03
 Coeff-Com: -0.263D-02-0.767D-03 0.160D+00 0.843D+00
 Coeff-En:   0.000D+00 0.000D+00 0.000D+00 0.100D+01
 Coeff:     -0.262D-02-0.765D-03 0.160D+00 0.844D+00
 Gap=     0.444 Goal=   None    Shift=    0.000
 RMSDP=1.61D-05 MaxDP=3.42D-04 DE=-1.00D-04 OVMax= 5.46D-04

 Cycle   5  Pass 0  IDiag  1:
 E= -76.4213672442458     Delta-E=       -0.000002030099 Rises=F Damp=F
 DIIS: error= 4.23D-05 at cycle   5 NSaved=   5.
 NSaved= 5 IEnMin= 5 EnMin= -76.4213672442458     IErMin= 5 ErrMin= 4.23D-05
 ErrMax= 4.23D-05  0.00D+00 EMaxC= 1.00D-01 BMatC= 8.49D-08 BMatP= 3.23D-06
 IDIUse=1 WtCom= 1.00D+00 WtEn= 0.00D+00
 Coeff-Com:  0.135D-02-0.209D-02-0.374D-01-0.641D-01 0.110D+01
 Coeff:      0.135D-02-0.209D-02-0.374D-01-0.641D-01 0.110D+01
 Gap=     0.444 Goal=   None    Shift=    0.000
 RMSDP=9.81D-06 MaxDP=1.33D-04 DE=-2.03D-06 OVMax= 2.17D-04

 Initial convergence to 1.0D-05 achieved.  Increase integral accuracy.
 Cycle   6  Pass 1  IDiag  1:
 E= -76.4213671771039     Delta-E=        0.000000067142 Rises=F Damp=F
 DIIS: error= 1.82D-05 at cycle   1 NSaved=   1.
 NSaved= 1 IEnMin= 1 EnMin= -76.4213671771039     IErMin= 1 ErrMin= 1.82D-05
 ErrMax= 1.82D-05  0.00D+00 EMaxC= 1.00D-01 BMatC= 2.26D-08 BMatP= 2.26D-08
 IDIUse=1 WtCom= 1.00D+00 WtEn= 0.00D+00
 Coeff-Com:  0.100D+01
 Coeff:      0.100D+01
 Gap=     0.444 Goal=   None    Shift=    0.000
 RMSDP=9.81D-06 MaxDP=1.33D-04 DE= 6.71D-08 OVMax= 5.77D-05

 Cycle   7  Pass 1  IDiag  1:
 E= -76.4213671961909     Delta-E=       -0.000000019087 Rises=F Damp=F
 DIIS: error= 6.60D-06 at cycle   2 NSaved=   2.
 NSaved= 2 IEnMin= 2 EnMin= -76.4213671961909     IErMin= 2 ErrMin= 6.60D-06
 ErrMax= 6.60D-06  0.00D+00 EMaxC= 1.00D-01 BMatC= 1.53D-09 BMatP= 2.26D-08
 IDIUse=1 WtCom= 1.00D+00 WtEn= 0.00D+00
 Coeff-Com:  0.435D-01 0.956D+00
 Coeff:      0.435D-01 0.956D+00
 Gap=     0.445 Goal=   None    Shift=    0.000
 RMSDP=8.31D-07 MaxDP=1.30D-05 DE=-1.91D-08 OVMax= 2.35D-05

 Cycle   8  Pass 1  IDiag  1:
 E= -76.4213671965209     Delta-E=       -0.000000000330 Rises=F Damp=F
 DIIS: error= 5.73D-06 at cycle   3 NSaved=   3.
 NSaved= 3 IEnMin= 3 EnMin= -76.4213671965209     IErMin= 3 ErrMin= 5.73D-06
 ErrMax= 5.73D-06  0.00D+00 EMaxC= 1.00D-01 BMatC= 1.54D-09 BMatP= 1.53D-09
 IDIUse=1 WtCom= 1.00D+00 WtEn= 0.00D+00
 Coeff-Com: -0.444D-01 0.515D+00 0.529D+00
 Coeff:     -0.444D-01 0.515D+00 0.529D+00
 Gap=     0.444 Goal=   None    Shift=    0.000
 RMSDP=2.25D-07 MaxDP=6.00D-06 DE=-3.30D-10 OVMax= 1.08D-05

 Cycle   9  Pass 1  IDiag  1:
 E= -76.4213671975358     Delta-E=       -0.000000001015 Rises=F Damp=F
 DIIS: error= 4.10D-07 at cycle   4 NSaved=   4.
 NSaved= 4 IEnMin= 4 EnMin= -76.4213671975358     IErMin= 4 ErrMin= 4.10D-07
 ErrMax= 4.10D-07  0.00D+00 EMaxC= 1.00D-01 BMatC= 8.23D-12 BMatP= 1.53D-09
 IDIUse=1 WtCom= 1.00D+00 WtEn= 0.00D+00
 Coeff-Com: -0.447D-02-0.600D-02 0.335D-01 0.977D+00
 Coeff:     -0.447D-02-0.600D-02 0.335D-01 0.977D+00
 Gap=     0.444 Goal=   None    Shift=    0.000
 RMSDP=7.15D-08 MaxDP=1.12D-06 DE=-1.01D-09 OVMax= 1.86D-06

 Cycle  10  Pass 1  IDiag  1:
 E= -76.4213671975489     Delta-E=       -0.000000000013 Rises=F Damp=F
 DIIS: error= 8.50D-08 at cycle   5 NSaved=   5.
 NSaved= 5 IEnMin= 5 EnMin= -76.4213671975489     IErMin= 5 ErrMin= 8.50D-08
 ErrMax= 8.50D-08  0.00D+00 EMaxC= 1.00D-01 BMatC= 4.94D-13 BMatP= 8.23D-12
 IDIUse=1 WtCom= 1.00D+00 WtEn= 0.00D+00
 Coeff-Com:  0.319D-02-0.420D-01-0.377D-01 0.663D-01 0.101D+01
 Coeff:      0.319D-02-0.420D-01-0.377D-01 0.663D-01 0.101D+01
 Gap=     0.444 Goal=   None    Shift=    0.000
 RMSDP=2.66D-08 MaxDP=3.92D-07 DE=-1.30D-11 OVMax= 7.39D-07

 Cycle  11  Pass 1  IDiag  1:
 E= -76.4213671975502     Delta-E=       -0.000000000001 Rises=F Damp=F
 DIIS: error= 9.27D-09 at cycle   6 NSaved=   6.
 NSaved= 6 IEnMin= 6 EnMin= -76.4213671975502     IErMin= 6 ErrMin= 9.27D-09
 ErrMax= 9.27D-09  0.00D+00 EMaxC= 1.00D-01 BMatC= 4.44D-15 BMatP= 4.94D-13
 IDIUse=1 WtCom= 1.00D+00 WtEn= 0.00D+00
 Coeff-Com:  0.352D-04 0.477D-03 0.405D-03-0.142D-01-0.683D-01 0.108D+01
 Coeff:      0.352D-04 0.477D-03 0.405D-03-0.142D-01-0.683D-01 0.108D+01
 Gap=     0.444 Goal=   None    Shift=    0.000
 RMSDP=2.75D-09 MaxDP=3.84D-08 DE=-1.32D-12 OVMax= 8.67D-08

 SCF Done:  E(RM062X) =  -76.4213671976     A.U. after   11 cycles
            NFock= 11  Conv=0.28D-08     -V/T= 2.0032
 KE= 7.617608818109D+01 PE=-1.989621974352D+02 EE= 3.730408679258D+01
 Leave Link  502 at Sun Feb 19 13:26:55 2023, MaxMem=  6710886400 cpu:              20.5 elap:               0.9
 (Enter /data0/home/software/g16/l601.exe)
 Copying SCF densities to generalized density rwf, IOpCl= 0 IROHF=0.

 **********************************************************************

            Population analysis using the SCF density.

 **********************************************************************

 Alpha  occ. eigenvalues --  -19.62688  -1.13131  -0.60614  -0.47387  -0.39956
 Alpha virt. eigenvalues --    0.04494   0.09448   0.12412   0.14535   0.16585
 Alpha virt. eigenvalues --    0.17788   0.19563   0.20828   0.22792   0.28673
 Alpha virt. eigenvalues --    0.34154   0.35514   0.50529   0.53949   0.59390
 Alpha virt. eigenvalues --    0.74085   0.75108   0.85729   0.93790   0.98557
 Alpha virt. eigenvalues --    1.01535   1.04100   1.12999   1.19572   1.24448
 Alpha virt. eigenvalues --    1.37640   1.49890   1.68192   1.74340   1.75687
 Alpha virt. eigenvalues --    1.77265   1.80014   1.88637   2.05529   2.10703
 Alpha virt. eigenvalues --    2.13994   2.22901   2.33908   2.42846   2.45957
 Alpha virt. eigenvalues --    2.51331   2.53789   2.56147   2.62760   2.65025
 Alpha virt. eigenvalues --    2.75753   2.83729   2.88902   3.01335   3.07529
 Alpha virt. eigenvalues --    3.46221   3.58257   4.48401   5.02277   5.15606
 Alpha virt. eigenvalues --    5.49849   5.91606   6.78913   6.81763   6.90996
 Alpha virt. eigenvalues --    6.92700   7.10913   9.75736   9.78061   9.86525
 Alpha virt. eigenvalues --    9.90209  10.08173  12.80879  13.20850  13.70114
 Alpha virt. eigenvalues --   17.65357  49.97754 137.07509
          Condensed to atoms (all electrons):
               1          2          3          4          5          6
     1  O    0.021381  -0.003236  -0.024773   0.037018  -0.000319  -0.001445
     2  H   -0.003236   0.001495   0.001707  -0.004365   0.000474   0.000216
     3  H   -0.024773   0.001707   0.035971  -0.046947  -0.002407   0.000945
     4  O    0.037018  -0.004365  -0.046947   7.872401   0.354079   0.357355
     5  H   -0.000319   0.000474  -0.002407   0.354079   0.399024  -0.035635
     6  H   -0.001445   0.000216   0.000945   0.357355  -0.035635   0.404398
 Mulliken charges:
               1
     1  O   -0.028626
     2  H    0.003711
     3  H    0.035505
     4  O   -0.569540
     5  H    0.284784
     6  H    0.274166
 Sum of Mulliken charges =  -0.00000
 Mulliken charges with hydrogens summed into heavy atoms:
               1
     1  O    0.010590
     4  O   -0.010590
         Mulliken charges condensed to fragments:
      1      0.010590
      2     -0.010590
 Electronic spatial extent (au):  <R**2>=           9831.9762
 Charge=              0.0000 electrons
 Dipole moment (field-independent basis, Debye):
    X=              0.8204    Y=              1.8845    Z=             -0.2541  Tot=              2.0709
 Quadrupole moment (field-independent basis, Debye-Ang):
   XX=              6.4799   YY=             36.4024   ZZ=            -12.8981
   XY=             21.3205   XZ=              6.4741   YZ=             16.1289
 Traceless Quadrupole moment (field-independent basis, Debye-Ang):
   XX=             -3.5148   YY=             26.4076   ZZ=            -22.8928
   XY=             21.3205   XZ=              6.4741   YZ=             16.1289
 Octapole moment (field-independent basis, Debye-Ang**2):
  XXX=             20.4729  YYY=            513.9338  ZZZ=           -313.8708  XYY=            334.8985
  XXY=            150.9994  XXZ=             52.2518  XZZ=             -5.2807  YZZ=             46.2001
  YYZ=            334.2431  XYZ=            194.6261
 Hexadecapole moment (field-independent basis, Debye-Ang**3):
 XXXX=           -215.6970 YYYY=           6209.5215 ZZZZ=          -5840.5241 XXXY=            738.8296
 XXXZ=            109.0745 YYYX=           4381.0465 YYYZ=           4803.7467 ZZZX=          -1301.3831
 ZZZY=          -1603.4791 XXYY=           2295.1949 XXZZ=             38.7023 YYZZ=           2052.7998
 XXYZ=           1374.3311 YYXZ=           3144.2860 ZZXY=           1167.3997
 N-N= 9.060655263986D+00 E-N=-1.989621975360D+02  KE= 7.617608818109D+01
 No NMR shielding tensors so no spin-rotation constants.
 Leave Link  601 at Sun Feb 19 13:26:55 2023, MaxMem=  6710886400 cpu:               1.6 elap:               0.1
 (Enter /data0/home/software/g16/l122.exe)
 CPIOFr:  IOpCl= 0 IRwI=-1 IRwCP=  731 ICalc=  2 LCPTot=       10496 Len1MO=       26312 IndFrg=       89432
 Counterpoise: doing calculation for fragment   1 using the basis set of the fragment.
 Leave Link  122 at Sun Feb 19 13:26:55 2023, MaxMem=  6710886400 cpu:               0.1 elap:               0.0
 (Enter /data0/home/software/g16/l301.exe)
 Basis read from rwf:  (5D, 7F)
 No pseudopotential information found on rwf file.
    39 basis functions,    58 primitive gaussians,    41 cartesian basis functions
     5 alpha electrons        5 beta electrons
       nuclear repulsion energy         9.0645918623 Hartrees.
 IExCor= 4336 DFT=T Ex+Corr=M062X ExCW=0 ScaHFX=  0.540000
 ScaDFX=  1.000000  1.000000  1.000000  1.000000 ScalE2=  1.000000  1.000000
 IRadAn=      5 IRanWt=     -1 IRanGd=            0 ICorTp=0 IEmpDi=131
 NAtoms=    6 NActive=    3 NUniq=    3 SFac= 1.00D+00 NAtFMM=   60 NAOKFM=F Big=F
 Integral buffers will be    131072 words long.
 Raffenetti 2 integral format.
 Two-electron integral symmetry is turned off.
 R6Disp:  Grimme-D3 Dispersion energy=       -0.0000000079 Hartrees.
 Nuclear repulsion after empirical dispersion term =        9.0645918544 Hartrees.
 No density basis found on file   718.
 Leave Link  301 at Sun Feb 19 13:26:55 2023, MaxMem=  6710886400 cpu:               1.3 elap:               0.1
 (Enter /data0/home/software/g16/l302.exe)
 NPDir=0 NMtPBC=     1 NCelOv=     1 NCel=       1 NClECP=     1 NCelD=      1
         NCelK=      1 NCelE2=     1 NClLst=     1 CellRange=     0.0.
 One-electron integrals computed using PRISM.
 NBasis=    39 RedAO= T EigKep=  3.09D-03  NBF=    39
 NBsUse=    39 1.00D-06 EigRej= -1.00D+00 NBFU=    39
 Precomputing XC quadrature grid using
 IXCGrd= 4 IRadAn=           5 IRanWt=          -1 IRanGd=           0 AccXCQ= 0.00D+00.
 Generated NRdTot=       0 NPtTot=           0 NUsed=           0 NTot=          32
 NSgBfM=    41    41    41    41    41 MxSgAt=     3 MxSgA2=     3.
 Leave Link  302 at Sun Feb 19 13:26:55 2023, MaxMem=  6710886400 cpu:               2.3 elap:               0.1
 (Enter /data0/home/software/g16/l303.exe)
 DipDrv:  MaxL=1.
 Leave Link  303 at Sun Feb 19 13:26:55 2023, MaxMem=  6710886400 cpu:               0.4 elap:               0.0
 (Enter /data0/home/software/g16/l401.exe)
 ExpMin= 8.45D-02 ExpMax= 8.59D+03 ExpMxC= 1.30D+03 IAcc=3 IRadAn=         5 AccDes= 0.00D+00
 Harris functional with IExCor= 1009 and IRadAn=       5 diagonalized for initial guess.
 HarFok:  IExCor= 1009 AccDes= 0.00D+00 IRadAn=         5 IDoV= 1 UseB2=F ITyADJ=14
 ICtDFT=  3500011 ScaDFX=  1.000000  1.000000  1.000000  1.000000
 FoFCou: FMM=F IPFlag=           0 FMFlag=      100000 FMFlg1=           0
         NFxFlg=           0 DoJE=T BraDBF=F KetDBF=T FulRan=T
         wScrn=  0.000000 ICntrl=       500 IOpCl=  0 I1Cent=   200000004 NGrid=           0
         NMat0=    1 NMatS0=      1 NMatT0=    0 NMatD0=    1 NMtDS0=    0 NMtDT0=    0
 Symmetry not used in FoFCou.
 Harris En= -76.4162181006636    
 JPrj=0 DoOrth=F DoCkMO=F.
 Leave Link  401 at Sun Feb 19 13:26:55 2023, MaxMem=  6710886400 cpu:               2.9 elap:               0.1
 (Enter /data0/home/software/g16/l502.exe)
 Keep R1 ints in memory in canonical form, NReq=21036027.
 FoFCou: FMM=F IPFlag=           0 FMFlag=           0 FMFlg1=           0
         NFxFlg=           0 DoJE=F BraDBF=F KetDBF=F FulRan=T
         wScrn=  0.000000 ICntrl=       600 IOpCl=  0 I1Cent=           0 NGrid=           0
         NMat0=    1 NMatS0=    780 NMatT0=    0 NMatD0=    1 NMtDS0=    0 NMtDT0=    0
 Symmetry not used in FoFCou.
 Two-electron integral symmetry not used.
 Closed shell SCF:
 Using DIIS extrapolation, IDIIS=  1040.
 NGot=  6710886400 LenX=  6710576925 LenY=  6710574803
 Requested convergence on RMS density matrix=1.00D-08 within 128 cycles.
 Requested convergence on MAX density matrix=1.00D-06.
 Requested convergence on             energy=1.00D-06.
 No special actions if energy rises.
 Integral accuracy reduced to 1.0D-05 until final iterations.

 Cycle   1  Pass 0  IDiag  1:
 E= -76.3468712880827    
 DIIS: error= 6.97D-02 at cycle   1 NSaved=   1.
 NSaved= 1 IEnMin= 1 EnMin= -76.3468712880827     IErMin= 1 ErrMin= 6.97D-02
 ErrMax= 6.97D-02  0.00D+00 EMaxC= 1.00D-01 BMatC= 1.20D-01 BMatP= 1.20D-01
 IDIUse=3 WtCom= 3.03D-01 WtEn= 6.97D-01
 Coeff-Com:  0.100D+01
 Coeff-En:   0.100D+01
 Coeff:      0.100D+01
 Gap=     0.324 Goal=   None    Shift=    0.000
 GapD=    0.324 DampG=1.000 DampE=0.500 DampFc=0.5000 IDamp=-1.
 Damping current iteration by 5.00D-01
 RMSDP=7.91D-03 MaxDP=1.00D-01              OVMax= 1.67D-01

 Cycle   2  Pass 0  IDiag  1:
 E= -76.3779646615211     Delta-E=       -0.031093373438 Rises=F Damp=T
 DIIS: error= 1.13D-02 at cycle   2 NSaved=   2.
 NSaved= 2 IEnMin= 2 EnMin= -76.3779646615211     IErMin= 2 ErrMin= 1.13D-02
 ErrMax= 1.13D-02  0.00D+00 EMaxC= 1.00D-01 BMatC= 4.88D-03 BMatP= 1.20D-01
 IDIUse=3 WtCom= 8.87D-01 WtEn= 1.13D-01
 Coeff-Com:  0.841D-01 0.916D+00
 Coeff-En:   0.190D+00 0.810D+00
 Coeff:      0.961D-01 0.904D+00
 Gap=     0.456 Goal=   None    Shift=    0.000
 RMSDP=9.48D-04 MaxDP=1.41D-02 DE=-3.11D-02 OVMax= 1.00D-01

 Cycle   3  Pass 0  IDiag  1:
 E= -76.4217017901576     Delta-E=       -0.043737128637 Rises=F Damp=F
 DIIS: error= 2.18D-03 at cycle   3 NSaved=   3.
 NSaved= 3 IEnMin= 3 EnMin= -76.4217017901576     IErMin= 3 ErrMin= 2.18D-03
 ErrMax= 2.18D-03  0.00D+00 EMaxC= 1.00D-01 BMatC= 9.20D-05 BMatP= 4.88D-03
 IDIUse=3 WtCom= 9.78D-01 WtEn= 2.18D-02
 Coeff-Com: -0.199D-01 0.403D-01 0.980D+00
 Coeff-En:   0.000D+00 0.000D+00 0.100D+01
 Coeff:     -0.195D-01 0.394D-01 0.980D+00
 Gap=     0.461 Goal=   None    Shift=    0.000
 RMSDP=1.15D-04 MaxDP=9.57D-04 DE=-4.37D-02 OVMax= 3.34D-03

 Cycle   4  Pass 0  IDiag  1:
 E= -76.4217802288328     Delta-E=       -0.000078438675 Rises=F Damp=F
 DIIS: error= 4.18D-04 at cycle   4 NSaved=   4.
 NSaved= 4 IEnMin= 4 EnMin= -76.4217802288328     IErMin= 4 ErrMin= 4.18D-04
 ErrMax= 4.18D-04  0.00D+00 EMaxC= 1.00D-01 BMatC= 3.37D-06 BMatP= 9.20D-05
 IDIUse=3 WtCom= 9.96D-01 WtEn= 4.18D-03
 Coeff-Com: -0.198D-02-0.217D-02 0.165D+00 0.839D+00
 Coeff-En:   0.000D+00 0.000D+00 0.000D+00 0.100D+01
 Coeff:     -0.197D-02-0.216D-02 0.164D+00 0.840D+00
 Gap=     0.461 Goal=   None    Shift=    0.000
 RMSDP=2.23D-05 MaxDP=3.56D-04 DE=-7.84D-05 OVMax= 5.42D-04

 Cycle   5  Pass 0  IDiag  1:
 E= -76.4217823075075     Delta-E=       -0.000002078675 Rises=F Damp=F
 DIIS: error= 9.09D-05 at cycle   5 NSaved=   5.
 NSaved= 5 IEnMin= 5 EnMin= -76.4217823075075     IErMin= 5 ErrMin= 9.09D-05
 ErrMax= 9.09D-05  0.00D+00 EMaxC= 1.00D-01 BMatC= 8.48D-08 BMatP= 3.37D-06
 IDIUse=1 WtCom= 1.00D+00 WtEn= 0.00D+00
 Coeff-Com:  0.118D-02-0.181D-02-0.369D-01-0.697D-01 0.111D+01
 Coeff:      0.118D-02-0.181D-02-0.369D-01-0.697D-01 0.111D+01
 Gap=     0.461 Goal=   None    Shift=    0.000
 RMSDP=9.10D-06 MaxDP=1.04D-04 DE=-2.08D-06 OVMax= 2.07D-04

 Initial convergence to 1.0D-05 achieved.  Increase integral accuracy.
 Cycle   6  Pass 1  IDiag  1:
 E= -76.4217741387360     Delta-E=        0.000008168771 Rises=F Damp=F
 DIIS: error= 2.88D-05 at cycle   1 NSaved=   1.
 NSaved= 1 IEnMin= 1 EnMin= -76.4217741387360     IErMin= 1 ErrMin= 2.88D-05
 ErrMax= 2.88D-05  0.00D+00 EMaxC= 1.00D-01 BMatC= 2.01D-08 BMatP= 2.01D-08
 IDIUse=1 WtCom= 1.00D+00 WtEn= 0.00D+00
 Coeff-Com:  0.100D+01
 Coeff:      0.100D+01
 Gap=     0.461 Goal=   None    Shift=    0.000
 RMSDP=9.10D-06 MaxDP=1.04D-04 DE= 8.17D-06 OVMax= 5.31D-05

 Cycle   7  Pass 1  IDiag  1:
 E= -76.4217741545224     Delta-E=       -0.000000015786 Rises=F Damp=F
 DIIS: error= 1.32D-05 at cycle   2 NSaved=   2.
 NSaved= 2 IEnMin= 2 EnMin= -76.4217741545224     IErMin= 2 ErrMin= 1.32D-05
 ErrMax= 1.32D-05  0.00D+00 EMaxC= 1.00D-01 BMatC= 2.46D-09 BMatP= 2.01D-08
 IDIUse=1 WtCom= 1.00D+00 WtEn= 0.00D+00
 Coeff-Com:  0.103D+00 0.897D+00
 Coeff:      0.103D+00 0.897D+00
 Gap=     0.461 Goal=   None    Shift=    0.000
 RMSDP=1.01D-06 MaxDP=1.73D-05 DE=-1.58D-08 OVMax= 2.68D-05

 Cycle   8  Pass 1  IDiag  1:
 E= -76.4217741550153     Delta-E=       -0.000000000493 Rises=F Damp=F
 DIIS: error= 9.15D-06 at cycle   3 NSaved=   3.
 NSaved= 3 IEnMin= 3 EnMin= -76.4217741550153     IErMin= 3 ErrMin= 9.15D-06
 ErrMax= 9.15D-06  0.00D+00 EMaxC= 1.00D-01 BMatC= 2.10D-09 BMatP= 2.46D-09
 IDIUse=1 WtCom= 1.00D+00 WtEn= 0.00D+00
 Coeff-Com: -0.528D-01 0.495D+00 0.558D+00
 Coeff:     -0.528D-01 0.495D+00 0.558D+00
 Gap=     0.461 Goal=   None    Shift=    0.000
 RMSDP=4.98D-07 MaxDP=6.53D-06 DE=-4.93D-10 OVMax= 1.18D-05

 Cycle   9  Pass 1  IDiag  1:
 E= -76.4217741563996     Delta-E=       -0.000000001384 Rises=F Damp=F
 DIIS: error= 4.46D-07 at cycle   4 NSaved=   4.
 NSaved= 4 IEnMin= 4 EnMin= -76.4217741563996     IErMin= 4 ErrMin= 4.46D-07
 ErrMax= 4.46D-07  0.00D+00 EMaxC= 1.00D-01 BMatC= 2.85D-12 BMatP= 2.10D-09
 IDIUse=1 WtCom= 1.00D+00 WtEn= 0.00D+00
 Coeff-Com:  0.927D-02-0.120D+00-0.124D+00 0.124D+01
 Coeff:      0.927D-02-0.120D+00-0.124D+00 0.124D+01
 Gap=     0.461 Goal=   None    Shift=    0.000
 RMSDP=9.36D-08 MaxDP=7.51D-07 DE=-1.38D-09 OVMax= 2.01D-06

 Cycle  10  Pass 1  IDiag  1:
 E= -76.4217741564086     Delta-E=       -0.000000000009 Rises=F Damp=F
 DIIS: error= 8.41D-08 at cycle   5 NSaved=   5.
 NSaved= 5 IEnMin= 5 EnMin= -76.4217741564086     IErMin= 5 ErrMin= 8.41D-08
 ErrMax= 8.41D-08  0.00D+00 EMaxC= 1.00D-01 BMatC= 9.22D-14 BMatP= 2.85D-12
 IDIUse=1 WtCom= 1.00D+00 WtEn= 0.00D+00
 Coeff-Com:  0.140D-02-0.149D-01-0.131D-01 0.238D-01 0.100D+01
 Coeff:      0.140D-02-0.149D-01-0.131D-01 0.238D-01 0.100D+01
 Gap=     0.461 Goal=   None    Shift=    0.000
 RMSDP=1.32D-08 MaxDP=9.37D-08 DE=-8.97D-12 OVMax= 2.64D-07

 Cycle  11  Pass 1  IDiag  1:
 E= -76.4217741564087     Delta-E=       -0.000000000000 Rises=F Damp=F
 DIIS: error= 1.24D-08 at cycle   6 NSaved=   6.
 NSaved= 6 IEnMin= 6 EnMin= -76.4217741564087     IErMin= 6 ErrMin= 1.24D-08
 ErrMax= 1.24D-08  0.00D+00 EMaxC= 1.00D-01 BMatC= 3.75D-15 BMatP= 9.22D-14
 IDIUse=1 WtCom= 1.00D+00 WtEn= 0.00D+00
 Coeff-Com: -0.198D-03 0.303D-02 0.365D-02-0.495D-01 0.104D+00 0.939D+00
 Coeff:     -0.198D-03 0.303D-02 0.365D-02-0.495D-01 0.104D+00 0.939D+00
 Gap=     0.461 Goal=   None    Shift=    0.000
 RMSDP=2.37D-09 MaxDP=1.78D-08 DE=-1.42D-13 OVMax= 4.99D-08

 SCF Done:  E(RM062X) =  -76.4217741564     A.U. after   11 cycles
            NFock= 11  Conv=0.24D-08     -V/T= 2.0032
 KE= 7.618094921219D+01 PE=-1.989741137991D+02 EE= 3.730679857608D+01
 Leave Link  502 at Sun Feb 19 13:26:56 2023, MaxMem=  6710886400 cpu:               8.9 elap:               0.4
 (Enter /data0/home/software/g16/l601.exe)
 Copying SCF densities to generalized density rwf, IOpCl= 0 IROHF=0.

 **********************************************************************

            Population analysis using the SCF density.

 **********************************************************************

 Alpha  occ. eigenvalues --  -19.62683  -1.13178  -0.60512  -0.47519  -0.39957
 Alpha virt. eigenvalues --    0.06186   0.13255   0.17417   0.17950   0.18914
 Alpha virt. eigenvalues --    0.23346   0.50982   0.52941   0.98091   1.00280
 Alpha virt. eigenvalues --    1.06023   1.18197   1.19882   1.32190   1.34117
 Alpha virt. eigenvalues --    1.69700   1.74066   1.75329   2.07673   2.08760
 Alpha virt. eigenvalues --    2.35718   2.40590   2.54412   2.87757   3.00416
 Alpha virt. eigenvalues --    5.05621   5.47717   5.90427   6.78373   6.80216
 Alpha virt. eigenvalues --    6.87273   6.91449   7.09852  49.95287
          Condensed to atoms (all electrons):
               1          2          3
     1  O    7.919955   0.317760   0.318978
     2  H    0.317760   0.427301  -0.023949
     3  H    0.318978  -0.023949   0.427168
 Mulliken charges:
               1
     1  O   -0.556693
     2  H    0.278889
     3  H    0.277804
     4  O    0.000000
     5  H    0.000000
     6  H    0.000000
 Sum of Mulliken charges =  -0.00000
 Mulliken charges with hydrogens summed into heavy atoms:
               1
     1  O   -0.000000
     4  O    0.000000
         Mulliken charges condensed to fragments:
      1     -0.000000
      2      0.000000
 Electronic spatial extent (au):  <R**2>=           7598.1177
 Charge=             -0.0000 electrons
 Dipole moment (field-independent basis, Debye):
    X=              0.9247    Y=              1.5107    Z=              1.1744  Tot=              2.1252
 Quadrupole moment (field-independent basis, Debye-Ang):
   XX=              7.3199   YY=             24.2266   ZZ=             11.9041
   XY=             21.1380   XZ=             13.9957   YZ=             23.5746
 Traceless Quadrupole moment (field-independent basis, Debye-Ang):
   XX=             -7.1636   YY=              9.7431   ZZ=             -2.5795
   XY=             21.1380   XZ=             13.9957   YZ=             23.5746
 Octapole moment (field-independent basis, Debye-Ang**2):
  XXX=             16.1083  YYY=            268.2153  ZZZ=             72.0765  XYY=            288.3834
  XXY=            164.8446  XXZ=             96.1473  XZZ=            117.0136  YZZ=            210.2380
  YYZ=            309.8430  XYZ=            231.9391
 Hexadecapole moment (field-independent basis, Debye-Ang**3):
 XXXX=           -439.5260 YYYY=           2224.9566 ZZZZ=            119.2774 XXXY=            856.0560
 XXXZ=            351.7945 YYYX=           3197.0187 YYYZ=           3357.3710 ZZZX=            678.1015
 ZZZY=           1414.4959 XXYY=           2269.3944 XXZZ=            735.1439 YYZZ=           2685.2542
 XXYZ=           1663.1971 YYXZ=           2929.4340 ZZXY=           1871.7212
 N-N= 9.064591854450D+00 E-N=-1.989741139020D+02  KE= 7.618094921219D+01
 No NMR shielding tensors so no spin-rotation constants.
 Leave Link  601 at Sun Feb 19 13:26:56 2023, MaxMem=  6710886400 cpu:               1.8 elap:               0.1
 (Enter /data0/home/software/g16/l122.exe)
 CPIOFr:  IOpCl= 0 IRwI=-1 IRwCP=  731 ICalc=  3 LCPTot=       10496 Len1MO=       26312 IndFrg=      115744
 Counterpoise: doing calculation for fragment   2 using the basis set of the fragment.
 Leave Link  122 at Sun Feb 19 13:26:56 2023, MaxMem=  6710886400 cpu:               0.1 elap:               0.0
 (Enter /data0/home/software/g16/l301.exe)
 Basis read from rwf:  (5D, 7F)
 No pseudopotential information found on rwf file.
    39 basis functions,    58 primitive gaussians,    41 cartesian basis functions
     5 alpha electrons        5 beta electrons
       nuclear repulsion energy         9.0606552722 Hartrees.
 IExCor= 4336 DFT=T Ex+Corr=M062X ExCW=0 ScaHFX=  0.540000
 ScaDFX=  1.000000  1.000000  1.000000  1.000000 ScalE2=  1.000000  1.000000
 IRadAn=      5 IRanWt=     -1 IRanGd=            0 ICorTp=0 IEmpDi=131
 NAtoms=    6 NActive=    3 NUniq=    3 SFac= 1.00D+00 NAtFMM=   60 NAOKFM=F Big=F
 Integral buffers will be    131072 words long.
 Raffenetti 2 integral format.
 Two-electron integral symmetry is turned off.
 R6Disp:  Grimme-D3 Dispersion energy=       -0.0000000082 Hartrees.
 Nuclear repulsion after empirical dispersion term =        9.0606552640 Hartrees.
 No density basis found on file   718.
 Leave Link  301 at Sun Feb 19 13:26:56 2023, MaxMem=  6710886400 cpu:               1.3 elap:               0.1
 (Enter /data0/home/software/g16/l302.exe)
 NPDir=0 NMtPBC=     1 NCelOv=     1 NCel=       1 NClECP=     1 NCelD=      1
         NCelK=      1 NCelE2=     1 NClLst=     1 CellRange=     0.0.
 One-electron integrals computed using PRISM.
 NBasis=    39 RedAO= T EigKep=  3.11D-03  NBF=    39
 NBsUse=    39 1.00D-06 EigRej= -1.00D+00 NBFU=    39
 Precomputing XC quadrature grid using
 IXCGrd= 4 IRadAn=           5 IRanWt=          -1 IRanGd=           0 AccXCQ= 0.00D+00.
 Generated NRdTot=       0 NPtTot=           0 NUsed=           0 NTot=          32
 NSgBfM=    41    41    41    41    41 MxSgAt=     3 MxSgA2=     3.
 Leave Link  302 at Sun Feb 19 13:26:56 2023, MaxMem=  6710886400 cpu:               2.3 elap:               0.1
 (Enter /data0/home/software/g16/l303.exe)
 DipDrv:  MaxL=1.
 Leave Link  303 at Sun Feb 19 13:26:56 2023, MaxMem=  6710886400 cpu:               0.4 elap:               0.0
 (Enter /data0/home/software/g16/l401.exe)
 ExpMin= 8.45D-02 ExpMax= 8.59D+03 ExpMxC= 1.30D+03 IAcc=3 IRadAn=         5 AccDes= 0.00D+00
 Harris functional with IExCor= 1009 and IRadAn=       5 diagonalized for initial guess.
 HarFok:  IExCor= 1009 AccDes= 0.00D+00 IRadAn=         5 IDoV= 1 UseB2=F ITyADJ=14
 ICtDFT=  3500011 ScaDFX=  1.000000  1.000000  1.000000  1.000000
 FoFCou: FMM=F IPFlag=           0 FMFlag=      100000 FMFlg1=           0
         NFxFlg=           0 DoJE=T BraDBF=F KetDBF=T FulRan=T
         wScrn=  0.000000 ICntrl=       500 IOpCl=  0 I1Cent=   200000004 NGrid=           0
         NMat0=    1 NMatS0=      1 NMatT0=    0 NMatD0=    1 NMtDS0=    0 NMtDT0=    0
 Symmetry not used in FoFCou.
 Harris En= -76.4155305986141    
 JPrj=0 DoOrth=F DoCkMO=F.
 Leave Link  401 at Sun Feb 19 13:26:56 2023, MaxMem=  6710886400 cpu:               2.8 elap:               0.1
 (Enter /data0/home/software/g16/l502.exe)
 Keep R1 ints in memory in canonical form, NReq=21036027.
 FoFCou: FMM=F IPFlag=           0 FMFlag=           0 FMFlg1=           0
         NFxFlg=           0 DoJE=F BraDBF=F KetDBF=F FulRan=T
         wScrn=  0.000000 ICntrl=       600 IOpCl=  0 I1Cent=           0 NGrid=           0
         NMat0=    1 NMatS0=    780 NMatT0=    0 NMatD0=    1 NMtDS0=    0 NMtDT0=    0
 Symmetry not used in FoFCou.
 Two-electron integral symmetry not used.
 Closed shell SCF:
 Using DIIS extrapolation, IDIIS=  1040.
 NGot=  6710886400 LenX=  6710576925 LenY=  6710574803
 Requested convergence on RMS density matrix=1.00D-08 within 128 cycles.
 Requested convergence on MAX density matrix=1.00D-06.
 Requested convergence on             energy=1.00D-06.
 No special actions if energy rises.
 Integral accuracy reduced to 1.0D-05 until final iterations.

 Cycle   1  Pass 0  IDiag  1:
 E= -76.3454980853924    
 DIIS: error= 6.99D-02 at cycle   1 NSaved=   1.
 NSaved= 1 IEnMin= 1 EnMin= -76.3454980853924     IErMin= 1 ErrMin= 6.99D-02
 ErrMax= 6.99D-02  0.00D+00 EMaxC= 1.00D-01 BMatC= 1.20D-01 BMatP= 1.20D-01
 IDIUse=3 WtCom= 3.01D-01 WtEn= 6.99D-01
 Coeff-Com:  0.100D+01
 Coeff-En:   0.100D+01
 Coeff:      0.100D+01
 Gap=     0.323 Goal=   None    Shift=    0.000
 GapD=    0.323 DampG=1.000 DampE=0.500 DampFc=0.5000 IDamp=-1.
 Damping current iteration by 5.00D-01
 RMSDP=7.90D-03 MaxDP=1.01D-01              OVMax= 1.68D-01

 Cycle   2  Pass 0  IDiag  1:
 E= -76.3767225024561     Delta-E=       -0.031224417064 Rises=F Damp=T
 DIIS: error= 1.10D-02 at cycle   2 NSaved=   2.
 NSaved= 2 IEnMin= 2 EnMin= -76.3767225024561     IErMin= 2 ErrMin= 1.10D-02
 ErrMax= 1.10D-02  0.00D+00 EMaxC= 1.00D-01 BMatC= 4.91D-03 BMatP= 1.20D-01
 IDIUse=3 WtCom= 8.90D-01 WtEn= 1.10D-01
 Coeff-Com:  0.846D-01 0.915D+00
 Coeff-En:   0.191D+00 0.809D+00
 Coeff:      0.963D-01 0.904D+00
 Gap=     0.456 Goal=   None    Shift=    0.000
 RMSDP=9.53D-04 MaxDP=1.42D-02 DE=-3.12D-02 OVMax= 1.01D-01

 Cycle   3  Pass 0  IDiag  1:
 E= -76.4207377253597     Delta-E=       -0.044015222904 Rises=F Damp=F
 DIIS: error= 2.22D-03 at cycle   3 NSaved=   3.
 NSaved= 3 IEnMin= 3 EnMin= -76.4207377253597     IErMin= 3 ErrMin= 2.22D-03
 ErrMax= 2.22D-03  0.00D+00 EMaxC= 1.00D-01 BMatC= 9.57D-05 BMatP= 4.91D-03
 IDIUse=3 WtCom= 9.78D-01 WtEn= 2.22D-02
 Coeff-Com: -0.202D-01 0.414D-01 0.979D+00
 Coeff-En:   0.000D+00 0.000D+00 0.100D+01
 Coeff:     -0.198D-01 0.405D-01 0.979D+00
 Gap=     0.460 Goal=   None    Shift=    0.000
 RMSDP=1.17D-04 MaxDP=1.11D-03 DE=-4.40D-02 OVMax= 3.39D-03

 Cycle   4  Pass 0  IDiag  1:
 E= -76.4208190950278     Delta-E=       -0.000081369668 Rises=F Damp=F
 DIIS: error= 4.23D-04 at cycle   4 NSaved=   4.
 NSaved= 4 IEnMin= 4 EnMin= -76.4208190950278     IErMin= 4 ErrMin= 4.23D-04
 ErrMax= 4.23D-04  0.00D+00 EMaxC= 1.00D-01 BMatC= 3.47D-06 BMatP= 9.57D-05
 IDIUse=3 WtCom= 9.96D-01 WtEn= 4.23D-03
 Coeff-Com: -0.207D-02-0.207D-02 0.166D+00 0.838D+00
 Coeff-En:   0.000D+00 0.000D+00 0.000D+00 0.100D+01
 Coeff:     -0.206D-02-0.206D-02 0.165D+00 0.839D+00
 Gap=     0.461 Goal=   None    Shift=    0.000
 RMSDP=2.25D-05 MaxDP=3.57D-04 DE=-8.14D-05 OVMax= 5.46D-04

 Cycle   5  Pass 0  IDiag  1:
 E= -76.4208212383724     Delta-E=       -0.000002143345 Rises=F Damp=F
 DIIS: error= 9.23D-05 at cycle   5 NSaved=   5.
 NSaved= 5 IEnMin= 5 EnMin= -76.4208212383724     IErMin= 5 ErrMin= 9.23D-05
 ErrMax= 9.23D-05  0.00D+00 EMaxC= 1.00D-01 BMatC= 8.84D-08 BMatP= 3.47D-06
 IDIUse=1 WtCom= 1.00D+00 WtEn= 0.00D+00
 Coeff-Com:  0.121D-02-0.185D-02-0.371D-01-0.713D-01 0.111D+01
 Coeff:      0.121D-02-0.185D-02-0.371D-01-0.713D-01 0.111D+01
 Gap=     0.461 Goal=   None    Shift=    0.000
 RMSDP=9.25D-06 MaxDP=1.05D-04 DE=-2.14D-06 OVMax= 2.10D-04

 Initial convergence to 1.0D-05 achieved.  Increase integral accuracy.
 Cycle   6  Pass 1  IDiag  1:
 E= -76.4208230803576     Delta-E=       -0.000001841985 Rises=F Damp=F
 DIIS: error= 2.47D-05 at cycle   1 NSaved=   1.
 NSaved= 1 IEnMin= 1 EnMin= -76.4208230803576     IErMin= 1 ErrMin= 2.47D-05
 ErrMax= 2.47D-05  0.00D+00 EMaxC= 1.00D-01 BMatC= 2.24D-08 BMatP= 2.24D-08
 IDIUse=1 WtCom= 1.00D+00 WtEn= 0.00D+00
 Coeff-Com:  0.100D+01
 Coeff:      0.100D+01
 Gap=     0.461 Goal=   None    Shift=    0.000
 RMSDP=9.25D-06 MaxDP=1.05D-04 DE=-1.84D-06 OVMax= 5.63D-05

 Cycle   7  Pass 1  IDiag  1:
 E= -76.4208230989489     Delta-E=       -0.000000018591 Rises=F Damp=F
 DIIS: error= 1.06D-05 at cycle   2 NSaved=   2.
 NSaved= 2 IEnMin= 2 EnMin= -76.4208230989489     IErMin= 2 ErrMin= 1.06D-05
 ErrMax= 1.06D-05  0.00D+00 EMaxC= 1.00D-01 BMatC= 1.65D-09 BMatP= 2.24D-08
 IDIUse=1 WtCom= 1.00D+00 WtEn= 0.00D+00
 Coeff-Com:  0.544D-01 0.946D+00
 Coeff:      0.544D-01 0.946D+00
 Gap=     0.461 Goal=   None    Shift=    0.000
 RMSDP=8.58D-07 MaxDP=1.34D-05 DE=-1.86D-08 OVMax= 2.34D-05

 Cycle   8  Pass 1  IDiag  1:
 E= -76.4208230992776     Delta-E=       -0.000000000329 Rises=F Damp=F
 DIIS: error= 7.78D-06 at cycle   3 NSaved=   3.
 NSaved= 3 IEnMin= 3 EnMin= -76.4208230992776     IErMin= 3 ErrMin= 7.78D-06
 ErrMax= 7.78D-06  0.00D+00 EMaxC= 1.00D-01 BMatC= 1.61D-09 BMatP= 1.65D-09
 IDIUse=1 WtCom= 1.00D+00 WtEn= 0.00D+00
 Coeff-Com: -0.447D-01 0.510D+00 0.535D+00
 Coeff:     -0.447D-01 0.510D+00 0.535D+00
 Gap=     0.461 Goal=   None    Shift=    0.000
 RMSDP=4.53D-07 MaxDP=6.12D-06 DE=-3.29D-10 OVMax= 1.10D-05

 Cycle   9  Pass 1  IDiag  1:
 E= -76.4208231003426     Delta-E=       -0.000000001065 Rises=F Damp=F
 DIIS: error= 8.40D-07 at cycle   4 NSaved=   4.
 NSaved= 4 IEnMin= 4 EnMin= -76.4208231003426     IErMin= 4 ErrMin= 8.40D-07
 ErrMax= 8.40D-07  0.00D+00 EMaxC= 1.00D-01 BMatC= 7.48D-12 BMatP= 1.61D-09
 IDIUse=1 WtCom= 1.00D+00 WtEn= 0.00D+00
 Coeff-Com: -0.374D-02-0.115D-01 0.255D-01 0.990D+00
 Coeff:     -0.374D-02-0.115D-01 0.255D-01 0.990D+00
 Gap=     0.461 Goal=   None    Shift=    0.000
 RMSDP=8.33D-08 MaxDP=6.54D-07 DE=-1.07D-09 OVMax= 1.82D-06

 Cycle  10  Pass 1  IDiag  1:
 E= -76.4208231003546     Delta-E=       -0.000000000012 Rises=F Damp=F
 DIIS: error= 1.32D-07 at cycle   5 NSaved=   5.
 NSaved= 5 IEnMin= 5 EnMin= -76.4208231003546     IErMin= 5 ErrMin= 1.32D-07
 ErrMax= 1.32D-07  0.00D+00 EMaxC= 1.00D-01 BMatC= 4.54D-13 BMatP= 7.48D-12
 IDIUse=1 WtCom= 1.00D+00 WtEn= 0.00D+00
 Coeff-Com:  0.319D-02-0.416D-01-0.379D-01 0.729D-01 0.100D+01
 Coeff:      0.319D-02-0.416D-01-0.379D-01 0.729D-01 0.100D+01
 Gap=     0.461 Goal=   None    Shift=    0.000
 RMSDP=2.82D-08 MaxDP=2.51D-07 DE=-1.20D-11 OVMax= 6.92D-07

 Cycle  11  Pass 1  IDiag  1:
 E= -76.4208231003556     Delta-E=       -0.000000000001 Rises=F Damp=F
 DIIS: error= 1.17D-08 at cycle   6 NSaved=   6.
 NSaved= 6 IEnMin= 6 EnMin= -76.4208231003556     IErMin= 6 ErrMin= 1.17D-08
 ErrMax= 1.17D-08  0.00D+00 EMaxC= 1.00D-01 BMatC= 3.76D-15 BMatP= 4.54D-13
 IDIUse=1 WtCom= 1.00D+00 WtEn= 0.00D+00
 Coeff-Com:  0.151D-04 0.675D-03 0.455D-03-0.144D-01-0.697D-01 0.108D+01
 Coeff:      0.151D-04 0.675D-03 0.455D-03-0.144D-01-0.697D-01 0.108D+01
 Gap=     0.461 Goal=   None    Shift=    0.000
 RMSDP=3.92D-09 MaxDP=3.18D-08 DE=-9.52D-13 OVMax= 8.17D-08

 SCF Done:  E(RM062X) =  -76.4208231004     A.U. after   11 cycles
            NFock= 11  Conv=0.39D-08     -V/T= 2.0032
 KE= 7.618020258727D+01 PE=-1.989665841417D+02 EE= 3.730490319011D+01
 Leave Link  502 at Sun Feb 19 13:26:57 2023, MaxMem=  6710886400 cpu:               8.6 elap:               0.4
 (Enter /data0/home/software/g16/l601.exe)
 Copying SCF densities to generalized density rwf, IOpCl= 0 IROHF=0.

 **********************************************************************

            Population analysis using the SCF density.

 **********************************************************************

 Alpha  occ. eigenvalues --  -19.62652  -1.13136  -0.60618  -0.47364  -0.39935
 Alpha virt. eigenvalues --    0.06139   0.13245   0.17408   0.17955   0.18952
 Alpha virt. eigenvalues --    0.23287   0.50005   0.53889   0.97839   1.00484
 Alpha virt. eigenvalues --    1.06018   1.18783   1.19712   1.32478   1.34106
 Alpha virt. eigenvalues --    1.69019   1.73593   1.75766   2.06153   2.10066
 Alpha virt. eigenvalues --    2.34925   2.41835   2.54139   2.87209   3.01188
 Alpha virt. eigenvalues --    5.05662   5.46526   5.91310   6.78236   6.80321
 Alpha virt. eigenvalues --    6.87083   6.91345   7.09949  49.95524
          Condensed to atoms (all electrons):
               4          5          6
     4  O    7.920415   0.315621   0.323310
     5  H    0.315621   0.425406  -0.024145
     6  H    0.323310  -0.024145   0.424607
 Mulliken charges:
               1
     1  O    0.000000
     2  H    0.000000
     3  H    0.000000
     4  O   -0.559346
     5  H    0.283118
     6  H    0.276229
 Sum of Mulliken charges =  -0.00000
 Mulliken charges with hydrogens summed into heavy atoms:
               1
     1  O    0.000000
     4  O   -0.000000
         Mulliken charges condensed to fragments:
      1      0.000000
      2     -0.000000
 Electronic spatial extent (au):  <R**2>=           9831.1170
 Charge=             -0.0000 electrons
 Dipole moment (field-independent basis, Debye):
    X=              0.8282    Y=              1.9292    Z=             -0.2530  Tot=              2.1146
 Quadrupole moment (field-independent basis, Debye-Ang):
   XX=              6.5867   YY=             37.4099   ZZ=            -12.8568
   XY=             21.7109   XZ=              6.5473   YZ=             16.5641
 Traceless Quadrupole moment (field-independent basis, Debye-Ang):
   XX=             -3.7933   YY=             27.0300   ZZ=            -23.2367
   XY=             21.7109   XZ=              6.5473   YZ=             16.5641
 Octapole moment (field-independent basis, Debye-Ang**2):
  XXX=             21.5782  YYY=            531.0429  ZZZ=           -312.9758  XYY=            342.7393
  XXY=            154.2703  XXZ=             53.2003  XZZ=             -4.4537  YZZ=             50.7058
  YYZ=            343.8840  XYZ=            198.3219
 Hexadecapole moment (field-independent basis, Debye-Ang**3):
 XXXX=           -205.4835 YYYY=           6468.9747 ZZZZ=          -5825.0166 XXXY=            765.4990
 XXXZ=            118.6339 YYYX=           4509.0469 YYYZ=           4966.1976 ZZZX=          -1290.9516
 ZZZY=          -1554.4636 XXYY=           2355.7421 XXZZ=             48.0202 YYZZ=           2148.5444
 XXYZ=           1404.6513 YYXZ=           3218.3486 ZZXY=           1204.1776
 N-N= 9.060655263986D+00 E-N=-1.989665842051D+02  KE= 7.618020258727D+01
 No NMR shielding tensors so no spin-rotation constants.
 Leave Link  601 at Sun Feb 19 13:26:57 2023, MaxMem=  6710886400 cpu:               1.7 elap:               0.1
 (Enter /data0/home/software/g16/l122.exe)
 CPIOFr:  IOpCl= 0 IRwI=-1 IRwCP=  731 ICalc=  4 LCPTot=       10496 Len1MO=       26312 IndFrg=      142056
 Restoring MOs from calculation   1 to rwf.
 CPIOFr:  IOpCl= 0 IRwI=-2 IRwCP=  731 ICalc=  0 LCPTot=       10496 Len1MO=       26312 IndFrg=       36808
 Counterpoise corrected energy =    -152.847080490096
                   BSSE energy =       0.000802753128
              sum of fragments =    -152.842597256764
           complexation energy =      -3.32 kcal/mole (raw)
           complexation energy =      -2.81 kcal/mole (corrected)
 Leave Link  122 at Sun Feb 19 13:26:57 2023, MaxMem=  6710886400 cpu:               0.1 elap:               0.0
 (Enter /data0/home/software/g16/l9999.exe)
 1\1\GINC-LOCALHOST\SP\RM062X\6-311+G(2d,p)\H4O2\WUHANYU\19-Feb-2023\0\
 \#p M062X/6-311+G(2d,p) nosymm em=GD3 counterpoise=2\\Title Card Requi
 red\\0,1\O,0,7.111406,10.242216,7.385558\H,0,7.893805,10.781262,7.1676
 11\H,0,6.851857,10.554925,8.263571\O,0,6.711013,11.182545,10.144183\H,
 0,7.667157,11.442221,10.055757\H,0,6.23457,12.001537,10.09009\\Version
 =ES64L-G16RevA.03\HF=-76.4208231\RMSD=3.921e-09\Dipole=0.6336366,1.398
 5936,0.5559372\Quadrupole=-11.8981091,26.9787968,-15.0806877,31.304608
 2,16.961833,34.5871973\PG=C01 [X(H4O2)]\\@


 THE ONLY DIFFERENCE BETWEEN ECCENTRICS AND JOGGERS
 IS THAT JOGGERS WEAR SWEATBANDS WHEN THEY RUN IN THE RAIN.
 Job cpu time:       0 days  0 hours  2 minutes  6.6 seconds.
 Elapsed time:       0 days  0 hours  0 minutes  6.2 seconds.
 File lengths (MBytes):  RWF=     10 Int=      0 D2E=      0 Chk=      3 Scr=      1
 Normal termination of Gaussian 16 at Sun Feb 19 13:26:57 2023.
