 Entering Gaussian System, Link 0=g16
 Initial command:
 /data0/home/software/g16/l1.exe "/data0/home/software/g16/scratch/Gau-2489422.inp" -scrdir="/data0/home/software/g16/scratch/"
 Default is to use a total of  22 processors:
                               22 via shared-memory
                                1 via Linda
 Entering Link 1 = /data0/home/software/g16/l1.exe PID=   2489423.
  
 Copyright (c) 1988,1990,1992,1993,1995,1998,2003,2009,2016,
            Gaussian, Inc.  All Rights Reserved.
  
 This is part of the Gaussian(R) 16 program.  It is based on
 the Gaussian(R) 09 system (copyright 2009, Gaussian, Inc.),
 the Gaussian(R) 03 system (copyright 2003, Gaussian, Inc.),
 the Gaussian(R) 98 system (copyright 1998, Gaussian, Inc.),
 the Gaussian(R) 94 system (copyright 1995, Gaussian, Inc.),
 the Gaussian 92(TM) system (copyright 1992, Gaussian, Inc.),
 the Gaussian 90(TM) system (copyright 1990, Gaussian, Inc.),
 the Gaussian 88(TM) system (copyright 1988, Gaussian, Inc.),
 the Gaussian 86(TM) system (copyright 1986, Carnegie Mellon
 University), and the Gaussian 82(TM) system (copyright 1983,
 Carnegie Mellon University). Gaussian is a federally registered
 trademark of Gaussian, Inc.
  
 This software contains proprietary and confidential information,
 including trade secrets, belonging to Gaussian, Inc.
  
 This software is provided under written license and may be
 used, copied, transmitted, or stored only in accord with that
 written license.
  
 The following legend is applicable only to US Government
 contracts under FAR:
  
                    RESTRICTED RIGHTS LEGEND
  
 Use, reproduction and disclosure by the US Government is
 subject to restrictions as set forth in subparagraphs (a)
 and (c) of the Commercial Computer Software - Restricted
 Rights clause in FAR 52.227-19.
  
 Gaussian, Inc.
 340 Quinnipiac St., Bldg. 40, Wallingford CT 06492
  
  
 ---------------------------------------------------------------
 Warning -- This program may not be used in any manner that
 competes with the business of Gaussian, Inc. or will provide
 assistance to any competitor of Gaussian, Inc.  The licensee
 of this program is prohibited from giving any competitor of
 Gaussian, Inc. access to this program.  By using this program,
 the user acknowledges that Gaussian, Inc. is engaged in the
 business of creating and licensing software in the field of
 computational chemistry and represents and warrants to the
 licensee that it is not a competitor of Gaussian, Inc. and that
 it will not use this program in any manner prohibited above.
 ---------------------------------------------------------------
  

 Cite this work as:
 Gaussian 16, Revision A.03,
 M. J. Frisch, G. W. Trucks, H. B. Schlegel, G. E. Scuseria, 
 M. A. Robb, J. R. Cheeseman, G. Scalmani, V. Barone, 
 G. A. Petersson, H. Nakatsuji, X. Li, M. Caricato, A. V. Marenich, 
 J. Bloino, B. G. Janesko, R. Gomperts, B. Mennucci, H. P. Hratchian, 
 J. V. Ortiz, A. F. Izmaylov, J. L. Sonnenberg, D. Williams-Young, 
 F. Ding, F. Lipparini, F. Egidi, J. Goings, B. Peng, A. Petrone, 
 T. Henderson, D. Ranasinghe, V. G. Zakrzewski, J. Gao, N. Rega, 
 G. Zheng, W. Liang, M. Hada, M. Ehara, K. Toyota, R. Fukuda, 
 J. Hasegawa, M. Ishida, T. Nakajima, Y. Honda, O. Kitao, H. Nakai, 
 T. Vreven, K. Throssell, J. A. Montgomery, Jr., J. E. Peralta, 
 F. Ogliaro, M. J. Bearpark, J. J. Heyd, E. N. Brothers, K. N. Kudin, 
 V. N. Staroverov, T. A. Keith, R. Kobayashi, J. Normand, 
 K. Raghavachari, A. P. Rendell, J. C. Burant, S. S. Iyengar, 
 J. Tomasi, M. Cossi, J. M. Millam, M. Klene, C. Adamo, R. Cammi, 
 J. W. Ochterski, R. L. Martin, K. Morokuma, O. Farkas, 
 J. B. Foresman, and D. J. Fox, Gaussian, Inc., Wallingford CT, 2016.
 
 ******************************************
 Gaussian 16:  ES64L-G16RevA.03 25-Dec-2016
                11-Oct-2023 
 ******************************************
 %mem=50GB
 %nprocshared=24
 Will use up to   24 processors via shared memory.
 ----------------------------------------
 #p opt freq b3lyp/6-311+g(2d,p) em=gd3bj
 ----------------------------------------
 1/18=20,19=15,26=3,38=1/1,3;
 2/9=110,12=2,17=6,18=5,40=1/2;
 3/5=4,6=6,7=112,11=2,25=1,30=1,71=1,74=-5,124=41/1,2,3;
 4//1;
 5/5=2,38=5/2;
 6/7=2,8=2,9=2,10=2,28=1/1;
 7//1,2,3,16;
 1/18=20,19=15,26=3/3(2);
 2/9=110/2;
 99//99;
 2/9=110/2;
 3/5=4,6=6,7=112,11=2,25=1,30=1,71=1,74=-5,124=41/1,2,3;
 4/5=5,16=3,69=1/1;
 5/5=2,38=5/2;
 7//1,2,3,16;
 1/18=20,19=15,26=3/3(-5);
 2/9=110/2;
 6/7=2,8=2,9=2,10=2,19=2,28=1/1;
 99/9=1/99;
 Leave Link    1 at Wed Oct 11 12:01:47 2023, MaxMem=  6710886400 cpu:               0.7 elap:               0.0
 (Enter /data0/home/software/g16/l101.exe)
 -------------------
 Title Card Required
 -------------------
 Symbolic Z-matrix:
 Charge =  0 Multiplicity = 1
 C                    -2.89084  -0.89804  -1.01167 
 H                    -3.42683  -0.1922   -1.64363 
 H                    -3.59725  -1.53911  -0.48766 
 H                    -2.2169   -1.5026   -1.61416 
 C                    -1.11027   0.75946  -0.78607 
 H                    -1.75562   1.3839   -1.40525 
 H                    -0.5383    0.07797  -1.41228 
 C                    -1.34145  -1.14987   0.8548 
 H                    -0.73296  -0.6356    1.59159 
 H                    -2.09003  -1.78285   1.32892 
 H                    -0.65918  -1.71006   0.21949 
 C                    -2.98055   0.68503   0.8499 
 H                    -3.68221   0.02918   1.36202 
 H                    -2.38389   1.22305   1.58084 
 H                    -3.52012   1.39041   0.21981 
 C                    -0.15419   1.60744   0.06759 
 H                    -0.21405   1.33616   1.12272 
 H                    -0.44331   2.65917  -0.00319 
 C                     1.3086    1.43663  -0.35009 
 H                     1.94495   2.12001   0.21095 
 H                     1.46325   1.60822  -1.41657 
 N                    -2.07481  -0.14298  -0.00536 
 S                     1.93077  -0.24806   0.02176 
 O                     1.55725  -0.44135   1.4384 
 O                     1.14667  -1.12643  -0.89012 
 O                     3.35808  -0.1997   -0.26215 
 
 ITRead=  0  0  0  0  0  0  0  0  0  0  0  0  0  0  0  0  0  0  0  0
 ITRead=  0  0  0  0  0  0
 MicOpt= -1 -1 -1 -1 -1 -1 -1 -1 -1 -1 -1 -1 -1 -1 -1 -1 -1 -1 -1 -1
 MicOpt= -1 -1 -1 -1 -1 -1
 NAtoms=     26 NQM=       26 NQMF=       0 NMMI=      0 NMMIF=      0
                NMic=       0 NMicF=      0.
                    Isotopes and Nuclear Properties:
 (Nuclear quadrupole moments (NQMom) in fm**2, nuclear magnetic moments (NMagM)
  in nuclear magnetons)

  Atom         1           2           3           4           5           6           7           8           9          10
 IAtWgt=          12           1           1           1          12           1           1          12           1           1
 AtmWgt=  12.0000000   1.0078250   1.0078250   1.0078250  12.0000000   1.0078250   1.0078250  12.0000000   1.0078250   1.0078250
 NucSpn=           0           1           1           1           0           1           1           0           1           1
 AtZEff=  -0.0000000  -0.0000000  -0.0000000  -0.0000000  -0.0000000  -0.0000000  -0.0000000  -0.0000000  -0.0000000  -0.0000000
 NQMom=    0.0000000   0.0000000   0.0000000   0.0000000   0.0000000   0.0000000   0.0000000   0.0000000   0.0000000   0.0000000
 NMagM=    0.0000000   2.7928460   2.7928460   2.7928460   0.0000000   2.7928460   2.7928460   0.0000000   2.7928460   2.7928460
 AtZNuc=   6.0000000   1.0000000   1.0000000   1.0000000   6.0000000   1.0000000   1.0000000   6.0000000   1.0000000   1.0000000

  Atom        11          12          13          14          15          16          17          18          19          20
 IAtWgt=           1          12           1           1           1          12           1           1          12           1
 AtmWgt=   1.0078250  12.0000000   1.0078250   1.0078250   1.0078250  12.0000000   1.0078250   1.0078250  12.0000000   1.0078250
 NucSpn=           1           0           1           1           1           0           1           1           0           1
 AtZEff=  -0.0000000  -0.0000000  -0.0000000  -0.0000000  -0.0000000  -0.0000000  -0.0000000  -0.0000000  -0.0000000  -0.0000000
 NQMom=    0.0000000   0.0000000   0.0000000   0.0000000   0.0000000   0.0000000   0.0000000   0.0000000   0.0000000   0.0000000
 NMagM=    2.7928460   0.0000000   2.7928460   2.7928460   2.7928460   0.0000000   2.7928460   2.7928460   0.0000000   2.7928460
 AtZNuc=   1.0000000   6.0000000   1.0000000   1.0000000   1.0000000   6.0000000   1.0000000   1.0000000   6.0000000   1.0000000

  Atom        21          22          23          24          25          26
 IAtWgt=           1          14          32          16          16          16
 AtmWgt=   1.0078250  14.0030740  31.9720718  15.9949146  15.9949146  15.9949146
 NucSpn=           1           2           0           0           0           0
 AtZEff=  -0.0000000  -0.0000000  -0.0000000  -0.0000000  -0.0000000  -0.0000000
 NQMom=    0.0000000   2.0440000   0.0000000   0.0000000   0.0000000   0.0000000
 NMagM=    2.7928460   0.4037610   0.0000000   0.0000000   0.0000000   0.0000000
 AtZNuc=   1.0000000   7.0000000  16.0000000   8.0000000   8.0000000   8.0000000
 Leave Link  101 at Wed Oct 11 12:01:47 2023, MaxMem=  6710886400 cpu:               7.7 elap:               0.3
 (Enter /data0/home/software/g16/l103.exe)

 GradGradGradGradGradGradGradGradGradGradGradGradGradGradGradGradGradGrad
 Berny optimization.
 Initialization pass.
                           ----------------------------
                           !    Initial Parameters    !
                           ! (Angstroms and Degrees)  !
 --------------------------                            --------------------------
 ! Name  Definition              Value          Derivative Info.                !
 --------------------------------------------------------------------------------
 ! R1    R(1,2)                  1.0885         estimate D2E/DX2                !
 ! R2    R(1,3)                  1.0884         estimate D2E/DX2                !
 ! R3    R(1,4)                  1.0875         estimate D2E/DX2                !
 ! R4    R(1,22)                 1.4996         estimate D2E/DX2                !
 ! R5    R(5,6)                  1.0908         estimate D2E/DX2                !
 ! R6    R(5,7)                  1.088          estimate D2E/DX2                !
 ! R7    R(5,16)                 1.5368         estimate D2E/DX2                !
 ! R8    R(5,22)                 1.5344         estimate D2E/DX2                !
 ! R9    R(8,9)                  1.0852         estimate D2E/DX2                !
 ! R10   R(8,10)                 1.089          estimate D2E/DX2                !
 ! R11   R(8,11)                 1.0876         estimate D2E/DX2                !
 ! R12   R(8,22)                 1.5138         estimate D2E/DX2                !
 ! R13   R(12,13)                1.0885         estimate D2E/DX2                !
 ! R14   R(12,14)                1.0862         estimate D2E/DX2                !
 ! R15   R(12,15)                1.0889         estimate D2E/DX2                !
 ! R16   R(12,22)                1.4958         estimate D2E/DX2                !
 ! R17   R(16,17)                1.0911         estimate D2E/DX2                !
 ! R18   R(16,18)                1.093          estimate D2E/DX2                !
 ! R19   R(16,19)                1.5308         estimate D2E/DX2                !
 ! R20   R(19,20)                1.0894         estimate D2E/DX2                !
 ! R21   R(19,21)                1.0912         estimate D2E/DX2                !
 ! R22   R(19,23)                1.834          estimate D2E/DX2                !
 ! R23   R(23,24)                1.4777         estimate D2E/DX2                !
 ! R24   R(23,25)                1.4893         estimate D2E/DX2                !
 ! R25   R(23,26)                1.4561         estimate D2E/DX2                !
 ! A1    A(2,1,3)              109.9908         estimate D2E/DX2                !
 ! A2    A(2,1,4)              110.1201         estimate D2E/DX2                !
 ! A3    A(2,1,22)             109.3327         estimate D2E/DX2                !
 ! A4    A(3,1,4)              109.9694         estimate D2E/DX2                !
 ! A5    A(3,1,22)             109.0671         estimate D2E/DX2                !
 ! A6    A(4,1,22)             108.328          estimate D2E/DX2                !
 ! A7    A(6,5,7)              110.0531         estimate D2E/DX2                !
 ! A8    A(6,5,16)             111.5619         estimate D2E/DX2                !
 ! A9    A(6,5,22)             104.6916         estimate D2E/DX2                !
 ! A10   A(7,5,16)             109.7712         estimate D2E/DX2                !
 ! A11   A(7,5,22)             104.7695         estimate D2E/DX2                !
 ! A12   A(16,5,22)            115.6564         estimate D2E/DX2                !
 ! A13   A(9,8,10)             111.4273         estimate D2E/DX2                !
 ! A14   A(9,8,11)             106.7946         estimate D2E/DX2                !
 ! A15   A(9,8,22)             110.0131         estimate D2E/DX2                !
 ! A16   A(10,8,11)            112.7155         estimate D2E/DX2                !
 ! A17   A(10,8,22)            107.5178         estimate D2E/DX2                !
 ! A18   A(11,8,22)            108.3356         estimate D2E/DX2                !
 ! A19   A(13,12,14)           109.6308         estimate D2E/DX2                !
 ! A20   A(13,12,15)           110.0691         estimate D2E/DX2                !
 ! A21   A(13,12,22)           109.015          estimate D2E/DX2                !
 ! A22   A(14,12,15)           109.9212         estimate D2E/DX2                !
 ! A23   A(14,12,22)           109.0475         estimate D2E/DX2                !
 ! A24   A(15,12,22)           109.1339         estimate D2E/DX2                !
 ! A25   A(5,16,17)            111.4589         estimate D2E/DX2                !
 ! A26   A(5,16,18)            109.2925         estimate D2E/DX2                !
 ! A27   A(5,16,19)            112.4173         estimate D2E/DX2                !
 ! A28   A(17,16,18)           106.6985         estimate D2E/DX2                !
 ! A29   A(17,16,19)           106.7704         estimate D2E/DX2                !
 ! A30   A(18,16,19)           110.0264         estimate D2E/DX2                !
 ! A31   A(16,19,20)           110.3456         estimate D2E/DX2                !
 ! A32   A(16,19,21)           112.6153         estimate D2E/DX2                !
 ! A33   A(16,19,23)           111.7987         estimate D2E/DX2                !
 ! A34   A(20,19,21)           108.7785         estimate D2E/DX2                !
 ! A35   A(20,19,23)           105.8818         estimate D2E/DX2                !
 ! A36   A(21,19,23)           107.129          estimate D2E/DX2                !
 ! A37   A(1,22,5)             107.2642         estimate D2E/DX2                !
 ! A38   A(1,22,8)             108.061          estimate D2E/DX2                !
 ! A39   A(1,22,12)            109.446          estimate D2E/DX2                !
 ! A40   A(5,22,8)             112.073          estimate D2E/DX2                !
 ! A41   A(5,22,12)            110.2428         estimate D2E/DX2                !
 ! A42   A(8,22,12)            109.6733         estimate D2E/DX2                !
 ! A43   A(19,23,24)           103.2248         estimate D2E/DX2                !
 ! A44   A(19,23,25)           103.8289         estimate D2E/DX2                !
 ! A45   A(19,23,26)           105.2186         estimate D2E/DX2                !
 ! A46   A(24,23,25)           112.1329         estimate D2E/DX2                !
 ! A47   A(24,23,26)           116.0427         estimate D2E/DX2                !
 ! A48   A(25,23,26)           114.6011         estimate D2E/DX2                !
 ! D1    D(2,1,22,5)           -58.8962         estimate D2E/DX2                !
 ! D2    D(2,1,22,8)          -179.9108         estimate D2E/DX2                !
 ! D3    D(2,1,22,12)           60.7054         estimate D2E/DX2                !
 ! D4    D(3,1,22,5)          -179.2005         estimate D2E/DX2                !
 ! D5    D(3,1,22,8)            59.785          estimate D2E/DX2                !
 ! D6    D(3,1,22,12)          -59.5989         estimate D2E/DX2                !
 ! D7    D(4,1,22,5)            61.12           estimate D2E/DX2                !
 ! D8    D(4,1,22,8)           -59.8946         estimate D2E/DX2                !
 ! D9    D(4,1,22,12)         -179.2784         estimate D2E/DX2                !
 ! D10   D(6,5,16,17)          127.2887         estimate D2E/DX2                !
 ! D11   D(6,5,16,18)            9.5976         estimate D2E/DX2                !
 ! D12   D(6,5,16,19)         -112.8747         estimate D2E/DX2                !
 ! D13   D(7,5,16,17)         -110.4467         estimate D2E/DX2                !
 ! D14   D(7,5,16,18)          131.8622         estimate D2E/DX2                !
 ! D15   D(7,5,16,19)            9.3899         estimate D2E/DX2                !
 ! D16   D(22,5,16,17)           7.7947         estimate D2E/DX2                !
 ! D17   D(22,5,16,18)        -109.8964         estimate D2E/DX2                !
 ! D18   D(22,5,16,19)         127.6313         estimate D2E/DX2                !
 ! D19   D(6,5,22,1)            57.9698         estimate D2E/DX2                !
 ! D20   D(6,5,22,8)           176.4176         estimate D2E/DX2                !
 ! D21   D(6,5,22,12)          -61.1203         estimate D2E/DX2                !
 ! D22   D(7,5,22,1)           -57.8611         estimate D2E/DX2                !
 ! D23   D(7,5,22,8)            60.5867         estimate D2E/DX2                !
 ! D24   D(7,5,22,12)         -176.9512         estimate D2E/DX2                !
 ! D25   D(16,5,22,1)         -178.8399         estimate D2E/DX2                !
 ! D26   D(16,5,22,8)          -60.3921         estimate D2E/DX2                !
 ! D27   D(16,5,22,12)          62.0699         estimate D2E/DX2                !
 ! D28   D(9,8,22,1)           179.5591         estimate D2E/DX2                !
 ! D29   D(9,8,22,5)            61.5842         estimate D2E/DX2                !
 ! D30   D(9,8,22,12)          -61.2009         estimate D2E/DX2                !
 ! D31   D(10,8,22,1)          -58.9293         estimate D2E/DX2                !
 ! D32   D(10,8,22,5)         -176.9042         estimate D2E/DX2                !
 ! D33   D(10,8,22,12)          60.3107         estimate D2E/DX2                !
 ! D34   D(11,8,22,1)           63.1572         estimate D2E/DX2                !
 ! D35   D(11,8,22,5)          -54.8177         estimate D2E/DX2                !
 ! D36   D(11,8,22,12)        -177.6029         estimate D2E/DX2                !
 ! D37   D(13,12,22,1)          59.913          estimate D2E/DX2                !
 ! D38   D(13,12,22,5)         177.6654         estimate D2E/DX2                !
 ! D39   D(13,12,22,8)         -58.472          estimate D2E/DX2                !
 ! D40   D(14,12,22,1)         179.5771         estimate D2E/DX2                !
 ! D41   D(14,12,22,5)         -62.6705         estimate D2E/DX2                !
 ! D42   D(14,12,22,8)          61.192          estimate D2E/DX2                !
 ! D43   D(15,12,22,1)         -60.3352         estimate D2E/DX2                !
 ! D44   D(15,12,22,5)          57.4173         estimate D2E/DX2                !
 ! D45   D(15,12,22,8)        -178.7202         estimate D2E/DX2                !
 ! D46   D(5,16,19,20)         174.6763         estimate D2E/DX2                !
 ! D47   D(5,16,19,21)          52.9137         estimate D2E/DX2                !
 ! D48   D(5,16,19,23)         -67.7658         estimate D2E/DX2                !
 ! D49   D(17,16,19,20)        -62.8009         estimate D2E/DX2                !
 ! D50   D(17,16,19,21)        175.4365         estimate D2E/DX2                !
 ! D51   D(17,16,19,23)         54.757          estimate D2E/DX2                !
 ! D52   D(18,16,19,20)         52.6193         estimate D2E/DX2                !
 ! D53   D(18,16,19,21)        -69.1433         estimate D2E/DX2                !
 ! D54   D(18,16,19,23)        170.1772         estimate D2E/DX2                !
 ! D55   D(16,19,23,24)        -50.6213         estimate D2E/DX2                !
 ! D56   D(16,19,23,25)         66.5351         estimate D2E/DX2                !
 ! D57   D(16,19,23,26)       -172.7162         estimate D2E/DX2                !
 ! D58   D(20,19,23,24)         69.5846         estimate D2E/DX2                !
 ! D59   D(20,19,23,25)       -173.259          estimate D2E/DX2                !
 ! D60   D(20,19,23,26)        -52.5103         estimate D2E/DX2                !
 ! D61   D(21,19,23,24)       -174.445          estimate D2E/DX2                !
 ! D62   D(21,19,23,25)        -57.2886         estimate D2E/DX2                !
 ! D63   D(21,19,23,26)         63.46           estimate D2E/DX2                !
 --------------------------------------------------------------------------------
 Trust Radius=3.00D-01 FncErr=1.00D-07 GrdErr=1.00D-06 EigMax=2.50D+02 EigMin=1.00D-04
 Number of steps in this run=    146 maximum allowed number of steps=    156.
 GradGradGradGradGradGradGradGradGradGradGradGradGradGradGradGradGradGrad

 Leave Link  103 at Wed Oct 11 12:01:47 2023, MaxMem=  6710886400 cpu:               0.2 elap:               0.0
 (Enter /data0/home/software/g16/l202.exe)
                          Input orientation:                          
 ---------------------------------------------------------------------
 Center     Atomic      Atomic             Coordinates (Angstroms)
 Number     Number       Type             X           Y           Z
 ---------------------------------------------------------------------
      1          6           0       -2.890841   -0.898042   -1.011673
      2          1           0       -3.426831   -0.192201   -1.643631
      3          1           0       -3.597245   -1.539105   -0.487659
      4          1           0       -2.216896   -1.502600   -1.614157
      5          6           0       -1.110272    0.759461   -0.786065
      6          1           0       -1.755619    1.383900   -1.405253
      7          1           0       -0.538302    0.077967   -1.412277
      8          6           0       -1.341452   -1.149866    0.854800
      9          1           0       -0.732963   -0.635599    1.591592
     10          1           0       -2.090029   -1.782851    1.328916
     11          1           0       -0.659180   -1.710055    0.219488
     12          6           0       -2.980548    0.685029    0.849898
     13          1           0       -3.682206    0.029182    1.362017
     14          1           0       -2.383893    1.223052    1.580838
     15          1           0       -3.520116    1.390407    0.219806
     16          6           0       -0.154186    1.607435    0.067586
     17          1           0       -0.214048    1.336156    1.122715
     18          1           0       -0.443309    2.659170   -0.003185
     19          6           0        1.308597    1.436631   -0.350086
     20          1           0        1.944953    2.120009    0.210953
     21          1           0        1.463248    1.608221   -1.416573
     22          7           0       -2.074814   -0.142978   -0.005355
     23         16           0        1.930774   -0.248056    0.021763
     24          8           0        1.557250   -0.441348    1.438395
     25          8           0        1.146669   -1.126428   -0.890124
     26          8           0        3.358076   -0.199699   -0.262154
 ---------------------------------------------------------------------
                    Distance matrix (angstroms):
                    1          2          3          4          5
     1  C    0.000000
     2  H    1.088516   0.000000
     3  H    1.088375   1.783105   0.000000
     4  H    1.087511   1.783804   1.782048   0.000000
     5  C    2.443080   2.647173   3.399630   2.650900   0.000000
     6  H    2.578933   2.309517   3.574566   2.930580   1.090775
     7  H    2.578278   2.910346   3.581476   2.314438   1.087991
     8  C    2.438800   3.392357   2.653734   2.643212   2.528124
     9  H    3.391504   4.233225   3.652906   3.637386   2.782410
    10  H    2.627269   3.626740   2.372985   2.959107   3.449119
    11  H    2.674964   3.665377   3.026798   2.414906   2.704280
    12  C    2.445324   2.680744   2.667611   3.382374   2.485930
    13  H    2.668409   3.024590   2.426529   3.653916   3.429637
    14  H    3.387794   3.672582   3.657925   4.202982   2.727500
    15  H    2.673860   2.446579   3.014713   3.664873   2.686488
    16  C    3.864129   4.108182   4.697198   4.093330   1.536841
    17  H    4.088089   4.506719   4.722971   4.422715   2.186146
    18  H    4.434097   4.441034   5.273286   4.802205   2.160240
    19  C    4.850121   5.172101   5.739444   4.760888   2.549424
    20  H    5.829953   6.135296   6.677809   5.811653   3.489919
    21  H    5.040178   5.215932   6.031346   4.822832   2.782254
    22  N    1.499566   2.124693   2.121222   2.111162   1.534355
    23  S    4.973776   5.610756   5.699589   4.631769   3.303882
    24  O    5.098717   5.865324   5.611022   4.968753   3.675029
    25  O    4.045791   4.728367   4.778807   3.461112   2.942990
    26  O    6.332332   6.924124   7.086702   5.882667   4.600066
                    6          7          8          9         10
     6  H    0.000000
     7  H    1.785321   0.000000
     8  C    3.420430   2.700419   0.000000
     9  H    3.755700   3.093590   1.085169   0.000000
    10  H    4.197121   3.658502   1.088955   1.796333   0.000000
    11  H    3.662584   2.423694   1.087625   1.744296   1.812032
    12  C    2.659808   3.383863   2.460386   2.710315   2.667005
    13  H    3.633838   4.193235   2.669560   3.031942   2.412382
    14  H    3.055706   3.698130   2.691571   2.486015   3.030722
    15  H    2.398814   3.643818   3.406286   3.708735   3.653059
    16  C    2.187192   2.162594   3.103549   2.772865   4.102741
    17  H    2.961308   2.848572   2.742831   2.092113   3.645549
    18  H    2.305269   2.942307   4.006439   3.671882   4.921151
    19  C    3.241231   2.526906   3.894159   3.497459   4.973406
    20  H    4.104657   3.601578   4.680500   4.082986   5.723918
    21  H    3.226694   2.519504   4.542304   4.348233   5.626976
    22  N    2.095938   2.095022   1.513773   2.143240   2.114165
    23  S    4.276581   2.873865   3.494950   3.116095   4.497900
    24  O    4.732121   3.575941   3.040568   2.303536   3.887706
    25  O    3.871741   2.135963   3.039088   3.151641   3.978850
    26  O    5.473969   4.072056   4.923004   4.512536   5.892344
                   11         12         13         14         15
    11  H    0.000000
    12  C    3.394495   0.000000
    13  H    3.670014   1.088451   0.000000
    14  H    3.664836   1.086158   1.777308   0.000000
    15  H    4.218746   1.088902   1.784335   1.780848   0.000000
    16  C    3.359142   3.074275   4.075949   2.721998   3.376353
    17  H    3.208327   2.855156   3.713969   2.220562   3.427575
    18  H    4.380218   3.326043   4.389882   2.887461   3.335600
    19  C    3.754756   4.516817   5.460799   4.172357   4.862446
    20  H    4.631519   5.169911   6.112399   4.628177   5.513563
    21  H    4.265249   5.073115   6.057196   4.892169   5.249676
    22  N    2.123748   1.495797   2.117322   2.116028   2.119166
    23  S    2.980671   5.067301   5.777429   4.817803   5.695260
    24  O    2.829826   4.712395   5.261096   4.280552   5.533528
    25  O    2.198397   4.831457   5.452120   4.908215   5.417129
    26  O    4.318738   6.495965   7.228823   6.196051   7.076033
                   16         17         18         19         20
    16  C    0.000000
    17  H    1.091088   0.000000
    18  H    1.093045   1.752306   0.000000
    19  C    1.530803   2.120775   2.164282   0.000000
    20  H    2.165565   2.471239   2.457711   1.089366   0.000000
    21  H    2.195181   3.055376   2.595596   1.091217   1.772797
    22  N    2.599630   2.631127   3.242506   3.749863   4.618054
    23  S    2.791416   2.884802   3.753512   1.833997   2.375653
    24  O    3.000940   2.529164   3.961515   2.605244   2.866614
    25  O    3.175443   3.459392   4.200648   2.624335   3.519798
    26  O    3.963641   4.127564   4.763478   2.624056   2.757135
                   21         22         23         24         25
    21  H    0.000000
    22  N    4.192388   0.000000
    23  S    2.394401   4.007058   0.000000
    24  O    3.515738   3.919863   1.477744   0.000000
    25  O    2.802798   3.482520   1.489260   2.461689   0.000000
    26  O    2.862103   5.439251   1.456069   2.488621   2.478607
                   26
    26  O    0.000000
 Stoichiometry    C6H15NO3S
 Framework group  C1[X(C6H15NO3S)]
 Deg. of freedom    72
 Full point group                 C1      NOp   1
 Largest Abelian subgroup         C1      NOp   1
 Largest concise Abelian subgroup C1      NOp   1
                         Standard orientation:                         
 ---------------------------------------------------------------------
 Center     Atomic      Atomic             Coordinates (Angstroms)
 Number     Number       Type             X           Y           Z
 ---------------------------------------------------------------------
      1          6           0       -2.890841   -0.898042   -1.011673
      2          1           0       -3.426831   -0.192201   -1.643631
      3          1           0       -3.597245   -1.539105   -0.487659
      4          1           0       -2.216896   -1.502600   -1.614157
      5          6           0       -1.110272    0.759461   -0.786065
      6          1           0       -1.755619    1.383900   -1.405253
      7          1           0       -0.538302    0.077967   -1.412277
      8          6           0       -1.341452   -1.149866    0.854800
      9          1           0       -0.732963   -0.635599    1.591592
     10          1           0       -2.090029   -1.782851    1.328916
     11          1           0       -0.659180   -1.710055    0.219488
     12          6           0       -2.980548    0.685029    0.849898
     13          1           0       -3.682206    0.029182    1.362017
     14          1           0       -2.383893    1.223052    1.580838
     15          1           0       -3.520116    1.390407    0.219806
     16          6           0       -0.154186    1.607435    0.067586
     17          1           0       -0.214048    1.336156    1.122715
     18          1           0       -0.443309    2.659170   -0.003185
     19          6           0        1.308597    1.436631   -0.350086
     20          1           0        1.944953    2.120009    0.210953
     21          1           0        1.463248    1.608221   -1.416573
     22          7           0       -2.074814   -0.142978   -0.005355
     23         16           0        1.930774   -0.248056    0.021763
     24          8           0        1.557250   -0.441348    1.438395
     25          8           0        1.146669   -1.126428   -0.890124
     26          8           0        3.358076   -0.199699   -0.262154
 ---------------------------------------------------------------------
 Rotational constants (GHZ):           1.9443013           0.5840472           0.5549471
 Leave Link  202 at Wed Oct 11 12:01:47 2023, MaxMem=  6710886400 cpu:               0.1 elap:               0.0
 (Enter /data0/home/software/g16/l301.exe)
 Standard basis: 6-311+G(2d,p) (5D, 7F)
 Ernie: Thresh=  0.10000D-02 Tol=  0.10000D-05 Strict=F.
 There are   417 symmetry adapted cartesian basis functions of A   symmetry.
 There are   395 symmetry adapted basis functions of A   symmetry.
   395 basis functions,   596 primitive gaussians,   417 cartesian basis functions
    49 alpha electrons       49 beta electrons
       nuclear repulsion energy       861.0860053742 Hartrees.
 IExCor=  402 DFT=T Ex+Corr=B3LYP ExCW=0 ScaHFX=  0.200000
 ScaDFX=  0.800000  0.720000  1.000000  0.810000 ScalE2=  1.000000  1.000000
 IRadAn=      5 IRanWt=     -1 IRanGd=            0 ICorTp=0 IEmpDi=141
 NAtoms=   26 NActive=   26 NUniq=   26 SFac= 1.00D+00 NAtFMM=   60 NAOKFM=F Big=F
 Integral buffers will be    131072 words long.
 Raffenetti 2 integral format.
 Two-electron integral symmetry is turned on.
 R6Disp:  Grimme-D3(BJ) Dispersion energy=       -0.0512544612 Hartrees.
 Nuclear repulsion after empirical dispersion term =      861.0347509130 Hartrees.
 Leave Link  301 at Wed Oct 11 12:01:47 2023, MaxMem=  6710886400 cpu:               1.1 elap:               0.1
 (Enter /data0/home/software/g16/l302.exe)
 NPDir=0 NMtPBC=     1 NCelOv=     1 NCel=       1 NClECP=     1 NCelD=      1
         NCelK=      1 NCelE2=     1 NClLst=     1 CellRange=     0.0.
 One-electron integrals computed using PRISM.
 One-electron integral symmetry used in STVInt
 NBasis=   395 RedAO= T EigKep=  1.59D-05  NBF=   395
 NBsUse=   395 1.00D-06 EigRej= -1.00D+00 NBFU=   395
 Precomputing XC quadrature grid using
 IXCGrd= 4 IRadAn=           5 IRanWt=          -1 IRanGd=           0 AccXCQ= 0.00D+00.
 Generated NRdTot=       0 NPtTot=           0 NUsed=           0 NTot=          32
 NSgBfM=   417   417   417   417   417 MxSgAt=    26 MxSgA2=    26.
 Leave Link  302 at Wed Oct 11 12:01:48 2023, MaxMem=  6710886400 cpu:               8.3 elap:               0.4
 (Enter /data0/home/software/g16/l303.exe)
 DipDrv:  MaxL=1.
 Leave Link  303 at Wed Oct 11 12:01:48 2023, MaxMem=  6710886400 cpu:               0.9 elap:               0.1
 (Enter /data0/home/software/g16/l401.exe)
 ExpMin= 4.05D-02 ExpMax= 9.34D+04 ExpMxC= 3.17D+03 IAcc=3 IRadAn=         5 AccDes= 0.00D+00
 Harris functional with IExCor=  402 and IRadAn=       5 diagonalized for initial guess.
 HarFok:  IExCor=  402 AccDes= 0.00D+00 IRadAn=         5 IDoV= 1 UseB2=F ITyADJ=14
 ICtDFT=  3500011 ScaDFX=  1.000000  1.000000  1.000000  1.000000
 FoFCou: FMM=F IPFlag=           0 FMFlag=      100000 FMFlg1=           0
         NFxFlg=           0 DoJE=T BraDBF=F KetDBF=T FulRan=T
         wScrn=  0.000000 ICntrl=       500 IOpCl=  0 I1Cent=   200000004 NGrid=           0
         NMat0=    1 NMatS0=      1 NMatT0=    0 NMatD0=    1 NMtDS0=    0 NMtDT0=    0
 Petite list used in FoFCou.
 Harris En= -916.575139377778    
 JPrj=0 DoOrth=F DoCkMO=F.
 Leave Link  401 at Wed Oct 11 12:01:49 2023, MaxMem=  6710886400 cpu:              31.7 elap:               1.3
 (Enter /data0/home/software/g16/l502.exe)
 Integral symmetry usage will be decided dynamically.
 Closed shell SCF:
 Using DIIS extrapolation, IDIIS=  1040.
 NGot=  6710886400 LenX=  6710524595 LenY=  6710350265
 Requested convergence on RMS density matrix=1.00D-08 within 128 cycles.
 Requested convergence on MAX density matrix=1.00D-06.
 Requested convergence on             energy=1.00D-06.
 No special actions if energy rises.
 Fock matrices will be formed incrementally for  20 cycles.

 Cycle   1  Pass 1  IDiag  1:
 FoFJK:  IHMeth= 1 ICntrl=       0 DoSepK=F KAlg= 0 I1Cent=           0 FoldK=F
 IRaf= 930000000 NMat=       1 IRICut=       1 DoRegI=T DoRafI=F ISym2E= 0 IDoP0=0 IntGTp=1.
 FoFCou: FMM=F IPFlag=           0 FMFlag=      100000 FMFlg1=           0
         NFxFlg=           0 DoJE=F BraDBF=F KetDBF=F FulRan=T
         wScrn=  0.000000 ICntrl=         0 IOpCl=  0 I1Cent=           0 NGrid=           0
         NMat0=    1 NMatS0=      1 NMatT0=    0 NMatD0=    1 NMtDS0=    0 NMtDT0=    0
 Symmetry not used in FoFCou.
 E= -915.938435990848    
 DIIS: error= 2.95D-02 at cycle   1 NSaved=   1.
 NSaved= 1 IEnMin= 1 EnMin= -915.938435990848     IErMin= 1 ErrMin= 2.95D-02
 ErrMax= 2.95D-02  0.00D+00 EMaxC= 1.00D-01 BMatC= 7.38D-01 BMatP= 7.38D-01
 IDIUse=3 WtCom= 7.05D-01 WtEn= 2.95D-01
 Coeff-Com:  0.100D+01
 Coeff-En:   0.100D+01
 Coeff:      0.100D+01
 Gap=     0.035 Goal=   None    Shift=    0.000
 GapD=    0.035 DampG=0.250 DampE=0.500 DampFc=0.2500 IDamp=-1.
 Damping current iteration by 2.50D-01
 RMSDP=2.12D-02 MaxDP=2.55D+00              OVMax= 6.38D-01

 Cycle   2  Pass 1  IDiag  1:
 RMSU=  5.25D-03    CP:  1.07D+00
 E= -916.105473960864     Delta-E=       -0.167037970016 Rises=F Damp=T
 DIIS: error= 8.83D-03 at cycle   2 NSaved=   2.
 NSaved= 2 IEnMin= 2 EnMin= -916.105473960864     IErMin= 2 ErrMin= 8.83D-03
 ErrMax= 8.83D-03  0.00D+00 EMaxC= 1.00D-01 BMatC= 1.17D-01 BMatP= 7.38D-01
 IDIUse=3 WtCom= 9.12D-01 WtEn= 8.83D-02
 Coeff-Com: -0.489D+00 0.149D+01
 Coeff-En:   0.000D+00 0.100D+01
 Coeff:     -0.446D+00 0.145D+01
 Gap=     0.058 Goal=   None    Shift=    0.000
 RMSDP=4.99D-03 MaxDP=5.99D-01 DE=-1.67D-01 OVMax= 6.12D-01

 Cycle   3  Pass 1  IDiag  1:
 RMSU=  2.07D-03    CP:  9.93D-01  1.50D-01
 E= -916.410199160376     Delta-E=       -0.304725199511 Rises=F Damp=F
 DIIS: error= 8.23D-03 at cycle   3 NSaved=   3.
 NSaved= 3 IEnMin= 3 EnMin= -916.410199160376     IErMin= 3 ErrMin= 8.23D-03
 ErrMax= 8.23D-03  0.00D+00 EMaxC= 1.00D-01 BMatC= 5.75D-02 BMatP= 1.17D-01
 IDIUse=3 WtCom= 9.18D-01 WtEn= 8.23D-02
 Coeff-Com: -0.338D+00 0.859D+00 0.479D+00
 Coeff-En:   0.000D+00 0.000D+00 0.100D+01
 Coeff:     -0.310D+00 0.788D+00 0.522D+00
 Gap=     0.177 Goal=   None    Shift=    0.000
 RMSDP=1.09D-03 MaxDP=1.24D-01 DE=-3.05D-01 OVMax= 7.05D-02

 Cycle   4  Pass 1  IDiag  1:
 RMSU=  1.01D-03    CP:  1.01D+00  2.23D-01  1.06D+00
 E= -916.458733070278     Delta-E=       -0.048533909902 Rises=F Damp=F
 DIIS: error= 2.38D-03 at cycle   4 NSaved=   4.
 NSaved= 4 IEnMin= 4 EnMin= -916.458733070278     IErMin= 4 ErrMin= 2.38D-03
 ErrMax= 2.38D-03  0.00D+00 EMaxC= 1.00D-01 BMatC= 4.60D-03 BMatP= 5.75D-02
 IDIUse=3 WtCom= 9.76D-01 WtEn= 2.38D-02
 Coeff-Com: -0.118D+00 0.228D+00 0.231D+00 0.660D+00
 Coeff-En:   0.000D+00 0.000D+00 0.000D+00 0.100D+01
 Coeff:     -0.116D+00 0.222D+00 0.226D+00 0.668D+00
 Gap=     0.170 Goal=   None    Shift=    0.000
 RMSDP=3.91D-04 MaxDP=2.67D-02 DE=-4.85D-02 OVMax= 1.56D-02

 Cycle   5  Pass 1  IDiag  1:
 RMSU=  3.53D-04    CP:  1.01D+00  2.44D-01  1.11D+00  1.01D+00
 E= -916.462528754824     Delta-E=       -0.003795684546 Rises=F Damp=F
 DIIS: error= 1.04D-03 at cycle   5 NSaved=   5.
 NSaved= 5 IEnMin= 5 EnMin= -916.462528754824     IErMin= 5 ErrMin= 1.04D-03
 ErrMax= 1.04D-03  0.00D+00 EMaxC= 1.00D-01 BMatC= 6.28D-04 BMatP= 4.60D-03
 IDIUse=3 WtCom= 9.90D-01 WtEn= 1.04D-02
 Coeff-Com: -0.423D-01 0.654D-01 0.667D-01 0.327D+00 0.583D+00
 Coeff-En:   0.000D+00 0.000D+00 0.000D+00 0.000D+00 0.100D+01
 Coeff:     -0.419D-01 0.647D-01 0.660D-01 0.323D+00 0.588D+00
 Gap=     0.171 Goal=   None    Shift=    0.000
 RMSDP=1.05D-04 MaxDP=3.60D-03 DE=-3.80D-03 OVMax= 5.91D-03

 Cycle   6  Pass 1  IDiag  1:
 RMSU=  8.72D-05    CP:  1.01D+00  2.43D-01  1.12D+00  1.04D+00  8.97D-01
 E= -916.462983217450     Delta-E=       -0.000454462627 Rises=F Damp=F
 DIIS: error= 4.35D-04 at cycle   6 NSaved=   6.
 NSaved= 6 IEnMin= 6 EnMin= -916.462983217450     IErMin= 6 ErrMin= 4.35D-04
 ErrMax= 4.35D-04  0.00D+00 EMaxC= 1.00D-01 BMatC= 9.96D-05 BMatP= 6.28D-04
 IDIUse=3 WtCom= 9.96D-01 WtEn= 4.35D-03
 Coeff-Com: -0.667D-02 0.687D-02 0.133D-02 0.669D-01 0.326D+00 0.605D+00
 Coeff-En:   0.000D+00 0.000D+00 0.000D+00 0.000D+00 0.102D+00 0.898D+00
 Coeff:     -0.664D-02 0.684D-02 0.132D-02 0.666D-01 0.325D+00 0.607D+00
 Gap=     0.172 Goal=   None    Shift=    0.000
 RMSDP=4.85D-05 MaxDP=5.01D-03 DE=-4.54D-04 OVMax= 2.36D-03

 Cycle   7  Pass 1  IDiag  1:
 RMSU=  4.06D-05    CP:  1.01D+00  2.44D-01  1.13D+00  1.06D+00  9.40D-01
                    CP:  8.73D-01
 E= -916.463052798637     Delta-E=       -0.000069581187 Rises=F Damp=F
 DIIS: error= 1.87D-04 at cycle   7 NSaved=   7.
 NSaved= 7 IEnMin= 7 EnMin= -916.463052798637     IErMin= 7 ErrMin= 1.87D-04
 ErrMax= 1.87D-04  0.00D+00 EMaxC= 1.00D-01 BMatC= 1.91D-05 BMatP= 9.96D-05
 IDIUse=3 WtCom= 9.98D-01 WtEn= 1.87D-03
 Coeff-Com:  0.246D-03-0.224D-02-0.466D-02 0.107D-01 0.145D+00 0.378D+00
 Coeff-Com:  0.472D+00
 Coeff-En:   0.000D+00 0.000D+00 0.000D+00 0.000D+00 0.000D+00 0.897D-01
 Coeff-En:   0.910D+00
 Coeff:      0.246D-03-0.224D-02-0.465D-02 0.107D-01 0.145D+00 0.378D+00
 Coeff:      0.473D+00
 Gap=     0.172 Goal=   None    Shift=    0.000
 RMSDP=1.88D-05 MaxDP=1.70D-03 DE=-6.96D-05 OVMax= 1.10D-03

 Cycle   8  Pass 1  IDiag  1:
 RMSU=  1.15D-05    CP:  1.01D+00  2.45D-01  1.13D+00  1.06D+00  9.59D-01
                    CP:  9.22D-01  7.01D-01
 E= -916.463065816575     Delta-E=       -0.000013017937 Rises=F Damp=F
 DIIS: error= 5.26D-05 at cycle   8 NSaved=   8.
 NSaved= 8 IEnMin= 8 EnMin= -916.463065816575     IErMin= 8 ErrMin= 5.26D-05
 ErrMax= 5.26D-05  0.00D+00 EMaxC= 1.00D-01 BMatC= 1.58D-06 BMatP= 1.91D-05
 IDIUse=1 WtCom= 1.00D+00 WtEn= 0.00D+00
 Coeff-Com:  0.846D-03-0.166D-02-0.174D-02-0.937D-03 0.392D-01 0.133D+00
 Coeff-Com:  0.265D+00 0.567D+00
 Coeff:      0.846D-03-0.166D-02-0.174D-02-0.937D-03 0.392D-01 0.133D+00
 Coeff:      0.265D+00 0.567D+00
 Gap=     0.172 Goal=   None    Shift=    0.000
 RMSDP=7.02D-06 MaxDP=7.80D-04 DE=-1.30D-05 OVMax= 2.79D-04

 Cycle   9  Pass 1  IDiag  1:
 RMSU=  4.22D-06    CP:  1.01D+00  2.44D-01  1.13D+00  1.05D+00  9.58D-01
                    CP:  9.16D-01  7.19D-01  7.19D-01
 E= -916.463066971153     Delta-E=       -0.000001154579 Rises=F Damp=F
 DIIS: error= 2.47D-05 at cycle   9 NSaved=   9.
 NSaved= 9 IEnMin= 9 EnMin= -916.463066971153     IErMin= 9 ErrMin= 2.47D-05
 ErrMax= 2.47D-05  0.00D+00 EMaxC= 1.00D-01 BMatC= 1.92D-07 BMatP= 1.58D-06
 IDIUse=1 WtCom= 1.00D+00 WtEn= 0.00D+00
 Coeff-Com:  0.333D-03-0.409D-03-0.264D-03-0.113D-02 0.942D-02 0.420D-01
 Coeff-Com:  0.106D+00 0.328D+00 0.516D+00
 Coeff:      0.333D-03-0.409D-03-0.264D-03-0.113D-02 0.942D-02 0.420D-01
 Coeff:      0.106D+00 0.328D+00 0.516D+00
 Gap=     0.172 Goal=   None    Shift=    0.000
 RMSDP=2.24D-06 MaxDP=2.78D-04 DE=-1.15D-06 OVMax= 7.06D-05

 Cycle  10  Pass 1  IDiag  1:
 RMSU=  9.63D-07    CP:  1.01D+00  2.44D-01  1.13D+00  1.05D+00  9.54D-01
                    CP:  9.24D-01  7.27D-01  7.53D-01  9.37D-01
 E= -916.463067119208     Delta-E=       -0.000000148055 Rises=F Damp=F
 DIIS: error= 4.97D-06 at cycle  10 NSaved=  10.
 NSaved=10 IEnMin=10 EnMin= -916.463067119208     IErMin=10 ErrMin= 4.97D-06
 ErrMax= 4.97D-06  0.00D+00 EMaxC= 1.00D-01 BMatC= 8.12D-09 BMatP= 1.92D-07
 IDIUse=1 WtCom= 1.00D+00 WtEn= 0.00D+00
 Coeff-Com:  0.571D-04-0.724D-04 0.655D-04-0.340D-04 0.461D-03 0.336D-02
 Coeff-Com:  0.127D-01 0.689D-01 0.208D+00 0.707D+00
 Coeff:      0.571D-04-0.724D-04 0.655D-04-0.340D-04 0.461D-03 0.336D-02
 Coeff:      0.127D-01 0.689D-01 0.208D+00 0.707D+00
 Gap=     0.172 Goal=   None    Shift=    0.000
 RMSDP=3.58D-07 MaxDP=2.37D-05 DE=-1.48D-07 OVMax= 1.30D-05

 Cycle  11  Pass 1  IDiag  1:
 RMSU=  2.67D-07    CP:  1.01D+00  2.44D-01  1.13D+00  1.05D+00  9.54D-01
                    CP:  9.25D-01  7.30D-01  7.61D-01  9.38D-01  9.31D-01
 E= -916.463067125659     Delta-E=       -0.000000006451 Rises=F Damp=F
 DIIS: error= 6.92D-07 at cycle  11 NSaved=  11.
 NSaved=11 IEnMin=11 EnMin= -916.463067125659     IErMin=11 ErrMin= 6.92D-07
 ErrMax= 6.92D-07  0.00D+00 EMaxC= 1.00D-01 BMatC= 5.69D-10 BMatP= 8.12D-09
 IDIUse=1 WtCom= 1.00D+00 WtEn= 0.00D+00
 Coeff-Com: -0.968D-05 0.107D-04 0.362D-04 0.856D-04-0.314D-03-0.124D-02
 Coeff-Com: -0.210D-02 0.354D-02 0.433D-01 0.275D+00 0.681D+00
 Coeff:     -0.968D-05 0.107D-04 0.362D-04 0.856D-04-0.314D-03-0.124D-02
 Coeff:     -0.210D-02 0.354D-02 0.433D-01 0.275D+00 0.681D+00
 Gap=     0.172 Goal=   None    Shift=    0.000
 RMSDP=1.08D-07 MaxDP=4.80D-06 DE=-6.45D-09 OVMax= 4.16D-06

 Cycle  12  Pass 1  IDiag  1:
 RMSU=  7.50D-08    CP:  1.01D+00  2.44D-01  1.13D+00  1.05D+00  9.54D-01
                    CP:  9.25D-01  7.30D-01  7.64D-01  9.46D-01  9.31D-01
                    CP:  8.52D-01
 E= -916.463067126223     Delta-E=       -0.000000000564 Rises=F Damp=F
 DIIS: error= 2.91D-07 at cycle  12 NSaved=  12.
 NSaved=12 IEnMin=12 EnMin= -916.463067126223     IErMin=12 ErrMin= 2.91D-07
 ErrMax= 2.91D-07  0.00D+00 EMaxC= 1.00D-01 BMatC= 5.01D-11 BMatP= 5.69D-10
 IDIUse=1 WtCom= 1.00D+00 WtEn= 0.00D+00
 Coeff-Com: -0.651D-05 0.822D-05 0.127D-04 0.246D-04-0.203D-03-0.706D-03
 Coeff-Com: -0.131D-02-0.225D-03 0.148D-01 0.107D+00 0.331D+00 0.550D+00
 Coeff:     -0.651D-05 0.822D-05 0.127D-04 0.246D-04-0.203D-03-0.706D-03
 Coeff:     -0.131D-02-0.225D-03 0.148D-01 0.107D+00 0.331D+00 0.550D+00
 Gap=     0.172 Goal=   None    Shift=    0.000
 RMSDP=4.30D-08 MaxDP=4.55D-06 DE=-5.64D-10 OVMax= 2.10D-06

 Cycle  13  Pass 1  IDiag  1:
 RMSU=  3.01D-08    CP:  1.01D+00  2.44D-01  1.13D+00  1.05D+00  9.54D-01
                    CP:  9.25D-01  7.30D-01  7.64D-01  9.51D-01  9.39D-01
                    CP:  8.18D-01  8.53D-01
 E= -916.463067126223     Delta-E=        0.000000000000 Rises=F Damp=F
 DIIS: error= 2.03D-07 at cycle  13 NSaved=  13.
 NSaved=13 IEnMin=12 EnMin= -916.463067126223     IErMin=13 ErrMin= 2.03D-07
 ErrMax= 2.03D-07  0.00D+00 EMaxC= 1.00D-01 BMatC= 1.59D-11 BMatP= 5.01D-11
 IDIUse=1 WtCom= 1.00D+00 WtEn= 0.00D+00
 Coeff-Com: -0.313D-05 0.422D-05 0.141D-05-0.307D-06-0.885D-04-0.270D-03
 Coeff-Com: -0.555D-03-0.890D-03 0.260D-02 0.239D-01 0.102D+00 0.369D+00
 Coeff-Com:  0.505D+00
 Coeff:     -0.313D-05 0.422D-05 0.141D-05-0.307D-06-0.885D-04-0.270D-03
 Coeff:     -0.555D-03-0.890D-03 0.260D-02 0.239D-01 0.102D+00 0.369D+00
 Coeff:      0.505D+00
 Gap=     0.172 Goal=   None    Shift=    0.000
 RMSDP=1.53D-08 MaxDP=9.64D-07 DE= 2.27D-13 OVMax= 9.66D-07

 Cycle  14  Pass 1  IDiag  1:
 RMSU=  7.77D-09    CP:  1.01D+00  2.44D-01  1.13D+00  1.05D+00  9.54D-01
                    CP:  9.25D-01  7.30D-01  7.64D-01  9.50D-01  9.40D-01
                    CP:  8.37D-01  9.28D-01  7.00D-01
 E= -916.463067126240     Delta-E=       -0.000000000017 Rises=F Damp=F
 DIIS: error= 4.12D-08 at cycle  14 NSaved=  14.
 NSaved=14 IEnMin=14 EnMin= -916.463067126240     IErMin=14 ErrMin= 4.12D-08
 ErrMax= 4.12D-08  0.00D+00 EMaxC= 1.00D-01 BMatC= 1.35D-12 BMatP= 1.59D-11
 IDIUse=1 WtCom= 1.00D+00 WtEn= 0.00D+00
 Coeff-Com: -0.709D-06 0.842D-06-0.196D-05-0.537D-05-0.192D-04-0.363D-04
 Coeff-Com: -0.995D-04-0.425D-03-0.577D-03-0.210D-02 0.122D-01 0.142D+00
 Coeff-Com:  0.288D+00 0.560D+00
 Coeff:     -0.709D-06 0.842D-06-0.196D-05-0.537D-05-0.192D-04-0.363D-04
 Coeff:     -0.995D-04-0.425D-03-0.577D-03-0.210D-02 0.122D-01 0.142D+00
 Coeff:      0.288D+00 0.560D+00
 Gap=     0.172 Goal=   None    Shift=    0.000
 RMSDP=4.49D-09 MaxDP=3.74D-07 DE=-1.73D-11 OVMax= 2.38D-07

 SCF Done:  E(RB3LYP) =  -916.463067126     A.U. after   14 cycles
            NFock= 14  Conv=0.45D-08     -V/T= 2.0030
 KE= 9.137556591830D+02 PE=-3.879873321668D+03 EE= 1.188619844446D+03
 Leave Link  502 at Wed Oct 11 12:02:32 2023, MaxMem=  6710886400 cpu:            1020.0 elap:              42.7
 (Enter /data0/home/software/g16/l601.exe)
 Copying SCF densities to generalized density rwf, IOpCl= 0 IROHF=0.

 **********************************************************************

            Population analysis using the SCF density.

 **********************************************************************

 Orbital symmetries:
       Occupied  (A) (A) (A) (A) (A) (A) (A) (A) (A) (A) (A) (A)
                 (A) (A) (A) (A) (A) (A) (A) (A) (A) (A) (A) (A)
                 (A) (A) (A) (A) (A) (A) (A) (A) (A) (A) (A) (A)
                 (A) (A) (A) (A) (A) (A) (A) (A) (A) (A) (A) (A)
                 (A)
       Virtual   (A) (A) (A) (A) (A) (A) (A) (A) (A) (A) (A) (A)
                 (A) (A) (A) (A) (A) (A) (A) (A) (A) (A) (A) (A)
                 (A) (A) (A) (A) (A) (A) (A) (A) (A) (A) (A) (A)
                 (A) (A) (A) (A) (A) (A) (A) (A) (A) (A) (A) (A)
                 (A) (A) (A) (A) (A) (A) (A) (A) (A) (A) (A) (A)
                 (A) (A) (A) (A) (A) (A) (A) (A) (A) (A) (A) (A)
                 (A) (A) (A) (A) (A) (A) (A) (A) (A) (A) (A) (A)
                 (A) (A) (A) (A) (A) (A) (A) (A) (A) (A) (A) (A)
                 (A) (A) (A) (A) (A) (A) (A) (A) (A) (A) (A) (A)
                 (A) (A) (A) (A) (A) (A) (A) (A) (A) (A) (A) (A)
                 (A) (A) (A) (A) (A) (A) (A) (A) (A) (A) (A) (A)
                 (A) (A) (A) (A) (A) (A) (A) (A) (A) (A) (A) (A)
                 (A) (A) (A) (A) (A) (A) (A) (A) (A) (A) (A) (A)
                 (A) (A) (A) (A) (A) (A) (A) (A) (A) (A) (A) (A)
                 (A) (A) (A) (A) (A) (A) (A) (A) (A) (A) (A) (A)
                 (A) (A) (A) (A) (A) (A) (A) (A) (A) (A) (A) (A)
                 (A) (A) (A) (A) (A) (A) (A) (A) (A) (A) (A) (A)
                 (A) (A) (A) (A) (A) (A) (A) (A) (A) (A) (A) (A)
                 (A) (A) (A) (A) (A) (A) (A) (A) (A) (A) (A) (A)
                 (A) (A) (A) (A) (A) (A) (A) (A) (A) (A) (A) (A)
                 (A) (A) (A) (A) (A) (A) (A) (A) (A) (A) (A) (A)
                 (A) (A) (A) (A) (A) (A) (A) (A) (A) (A) (A) (A)
                 (A) (A) (A) (A) (A) (A) (A) (A) (A) (A) (A) (A)
                 (A) (A) (A) (A) (A) (A) (A) (A) (A) (A) (A) (A)
                 (A) (A) (A) (A) (A) (A) (A) (A) (A) (A) (A) (A)
                 (A) (A) (A) (A) (A) (A) (A) (A) (A) (A) (A) (A)
                 (A) (A) (A) (A) (A) (A) (A) (A) (A) (A) (A) (A)
                 (A) (A) (A) (A) (A) (A) (A) (A) (A) (A) (A) (A)
                 (A) (A) (A) (A) (A) (A) (A) (A) (A) (A)
 The electronic state is 1-A.
 Alpha  occ. eigenvalues --  -88.98857 -19.05036 -19.04747 -19.04452 -14.48298
 Alpha  occ. eigenvalues --  -10.27267 -10.27077 -10.25159 -10.23423 -10.20136
 Alpha  occ. eigenvalues --  -10.17562  -8.04414  -6.00708  -6.00696  -6.00662
 Alpha  occ. eigenvalues --   -1.06687  -1.05757  -0.93413  -0.92913  -0.82705
 Alpha  occ. eigenvalues --   -0.80207  -0.78135  -0.74825  -0.67800  -0.63182
 Alpha  occ. eigenvalues --   -0.57188  -0.56572  -0.55409  -0.53053  -0.50451
 Alpha  occ. eigenvalues --   -0.49042  -0.46822  -0.46507  -0.45681  -0.44377
 Alpha  occ. eigenvalues --   -0.44088  -0.43727  -0.43211  -0.41029  -0.39918
 Alpha  occ. eigenvalues --   -0.39543  -0.37622  -0.36760  -0.29414  -0.29008
 Alpha  occ. eigenvalues --   -0.25596  -0.25509  -0.24594  -0.21347
 Alpha virt. eigenvalues --   -0.04143  -0.01609  -0.01319  -0.00651   0.00367
 Alpha virt. eigenvalues --    0.01591   0.02214   0.02658   0.02808   0.03850
 Alpha virt. eigenvalues --    0.05051   0.06056   0.06409   0.07234   0.07481
 Alpha virt. eigenvalues --    0.08392   0.09111   0.09735   0.09942   0.10284
 Alpha virt. eigenvalues --    0.10937   0.11184   0.11541   0.11661   0.12535
 Alpha virt. eigenvalues --    0.12837   0.13173   0.13565   0.13825   0.14433
 Alpha virt. eigenvalues --    0.15554   0.15809   0.16443   0.16574   0.17339
 Alpha virt. eigenvalues --    0.17720   0.18225   0.18313   0.19060   0.19907
 Alpha virt. eigenvalues --    0.20093   0.20727   0.20854   0.21953   0.22575
 Alpha virt. eigenvalues --    0.23416   0.23892   0.24354   0.25102   0.25249
 Alpha virt. eigenvalues --    0.25888   0.27785   0.28317   0.28907   0.29862
 Alpha virt. eigenvalues --    0.30486   0.31135   0.31826   0.32266   0.33072
 Alpha virt. eigenvalues --    0.34052   0.34800   0.35449   0.35524   0.36007
 Alpha virt. eigenvalues --    0.36560   0.37160   0.38048   0.38576   0.40551
 Alpha virt. eigenvalues --    0.40925   0.41812   0.42596   0.43627   0.44228
 Alpha virt. eigenvalues --    0.45282   0.46117   0.46801   0.47528   0.48508
 Alpha virt. eigenvalues --    0.49085   0.50488   0.51044   0.53377   0.53753
 Alpha virt. eigenvalues --    0.54155   0.54531   0.55401   0.56125   0.57060
 Alpha virt. eigenvalues --    0.58316   0.59131   0.59629   0.61011   0.61784
 Alpha virt. eigenvalues --    0.62884   0.63759   0.63919   0.65139   0.66870
 Alpha virt. eigenvalues --    0.67616   0.67719   0.69008   0.69344   0.70507
 Alpha virt. eigenvalues --    0.71509   0.72620   0.73780   0.74566   0.75121
 Alpha virt. eigenvalues --    0.78329   0.80231   0.81092   0.83392   0.84568
 Alpha virt. eigenvalues --    0.85789   0.86825   0.87426   0.88760   0.91002
 Alpha virt. eigenvalues --    0.91846   0.92843   0.93434   0.94680   0.98031
 Alpha virt. eigenvalues --    1.00021   1.01919   1.04749   1.06765   1.07479
 Alpha virt. eigenvalues --    1.08549   1.09337   1.11653   1.12666   1.13680
 Alpha virt. eigenvalues --    1.14537   1.16540   1.17946   1.18524   1.19221
 Alpha virt. eigenvalues --    1.19866   1.20875   1.21666   1.23301   1.24267
 Alpha virt. eigenvalues --    1.25212   1.26191   1.27190   1.28089   1.29444
 Alpha virt. eigenvalues --    1.30593   1.32623   1.33707   1.35913   1.37309
 Alpha virt. eigenvalues --    1.38485   1.38913   1.39347   1.42514   1.43513
 Alpha virt. eigenvalues --    1.45904   1.49879   1.52348   1.53366   1.54679
 Alpha virt. eigenvalues --    1.56752   1.57873   1.59997   1.61041   1.61777
 Alpha virt. eigenvalues --    1.63708   1.65298   1.65938   1.66908   1.68410
 Alpha virt. eigenvalues --    1.70311   1.71117   1.73994   1.75246   1.76047
 Alpha virt. eigenvalues --    1.79467   1.80231   1.83106   1.83978   1.84707
 Alpha virt. eigenvalues --    1.85162   1.86640   1.86994   1.88610   1.89630
 Alpha virt. eigenvalues --    1.92187   1.93417   1.93768   1.95441   1.98626
 Alpha virt. eigenvalues --    1.99524   2.01010   2.02364   2.07718   2.10383
 Alpha virt. eigenvalues --    2.12108   2.13994   2.15064   2.17541   2.18885
 Alpha virt. eigenvalues --    2.19546   2.21897   2.23182   2.25949   2.26214
 Alpha virt. eigenvalues --    2.27236   2.28333   2.30496   2.32632   2.32972
 Alpha virt. eigenvalues --    2.33199   2.34241   2.35194   2.35650   2.36014
 Alpha virt. eigenvalues --    2.36803   2.38403   2.39819   2.40922   2.42553
 Alpha virt. eigenvalues --    2.43456   2.44088   2.49262   2.50286   2.53692
 Alpha virt. eigenvalues --    2.56748   2.61356   2.63426   2.67320   2.70763
 Alpha virt. eigenvalues --    2.72356   2.72845   2.74221   2.76546   2.78575
 Alpha virt. eigenvalues --    2.80923   2.83849   2.86925   2.87060   2.92124
 Alpha virt. eigenvalues --    2.93726   2.95141   2.99057   3.00524   3.06007
 Alpha virt. eigenvalues --    3.07953   3.10321   3.10696   3.13761   3.14878
 Alpha virt. eigenvalues --    3.17709   3.24891   3.26010   3.29390   3.30543
 Alpha virt. eigenvalues --    3.31833   3.32877   3.33974   3.35683   3.38862
 Alpha virt. eigenvalues --    3.43359   3.45735   3.48444   3.51712   3.54716
 Alpha virt. eigenvalues --    3.54994   3.56649   3.58309   3.58907   3.61113
 Alpha virt. eigenvalues --    3.61928   3.64452   3.66031   3.69455   3.70668
 Alpha virt. eigenvalues --    3.70905   3.76847   3.79038   3.82177   3.83007
 Alpha virt. eigenvalues --    3.87598   3.93642   3.97938   4.15125   4.16601
 Alpha virt. eigenvalues --    4.17387   4.17928   4.19774   4.21764   4.23089
 Alpha virt. eigenvalues --    4.24045   4.28061   4.40318   4.50896   4.72556
 Alpha virt. eigenvalues --    4.73947   4.75863   5.08698   5.10926   5.12224
 Alpha virt. eigenvalues --    5.14459   5.16276   5.20947   5.24077   5.25501
 Alpha virt. eigenvalues --    5.27493   5.40817   5.44308   5.48308   5.52797
 Alpha virt. eigenvalues --    5.55912   6.81601   6.82631   6.85629   6.88741
 Alpha virt. eigenvalues --    6.90155   6.91996   6.92847   6.99644   7.01012
 Alpha virt. eigenvalues --    7.08027   7.23542   7.24158   7.31927   7.44066
 Alpha virt. eigenvalues --    7.46060   8.46974  17.59407  17.60805  17.69376
 Alpha virt. eigenvalues --   23.86617  23.90699  23.98641  23.99444  24.03093
 Alpha virt. eigenvalues --   24.05402  35.39995  49.98077  50.00989  50.09193
 Alpha virt. eigenvalues --  189.62199
          Condensed to atoms (all electrons):
               1          2          3          4          5          6
     1  C    5.268381   0.397870   0.396977   0.431870  -0.227749  -0.005650
     2  H    0.397870   0.505648  -0.025583  -0.021382  -0.022787   0.001379
     3  H    0.396977  -0.025583   0.502759  -0.019724   0.028618   0.000309
     4  H    0.431870  -0.021382  -0.019724   0.457504  -0.003458  -0.000187
     5  C   -0.227749  -0.022787   0.028618  -0.003458   6.792644   0.357891
     6  H   -0.005650   0.001379   0.000309  -0.000187   0.357891   0.561615
     7  H    0.002563  -0.000414   0.000084   0.001299   0.496436  -0.027291
     8  C   -0.125008   0.021944  -0.023236  -0.015177  -0.274097   0.023760
     9  H    0.022015  -0.000226   0.000236   0.000085  -0.013728  -0.000007
    10  H   -0.023335   0.000346  -0.001207  -0.000444   0.049097  -0.000128
    11  H   -0.012183   0.000008  -0.000286   0.000891  -0.042886   0.000243
    12  C   -0.138407  -0.013667  -0.014555   0.009323  -0.172609  -0.026816
    13  H   -0.017241  -0.000004   0.000939   0.000107   0.027449   0.000202
    14  H    0.012999   0.000219   0.000102  -0.000280  -0.034557  -0.000314
    15  H   -0.012519   0.001561   0.000088   0.000097  -0.010187  -0.001209
    16  C   -0.038502  -0.003749   0.003437  -0.005492  -0.617295  -0.045867
    17  H    0.007754   0.000072   0.000015   0.000047  -0.108830   0.004474
    18  H   -0.002583  -0.000063   0.000001  -0.000038   0.030214  -0.017558
    19  C    0.022320   0.000676  -0.000793  -0.002188   0.056720   0.025922
    20  H    0.000264   0.000001  -0.000001   0.000001   0.030205  -0.000150
    21  H    0.000469   0.000002   0.000002   0.000001  -0.012327  -0.000080
    22  N    0.272071  -0.005981  -0.014206  -0.031671  -0.152752   0.014779
    23  S   -0.007642   0.000046   0.000547   0.000021  -0.077029  -0.004572
    24  O    0.005045   0.000003  -0.000062  -0.000051   0.098124  -0.000471
    25  O   -0.010074  -0.000089  -0.000010  -0.000389   0.003559   0.003848
    26  O   -0.001150   0.000006  -0.000000  -0.000001   0.000170  -0.000007
               7          8          9         10         11         12
     1  C    0.002563  -0.125008   0.022015  -0.023335  -0.012183  -0.138407
     2  H   -0.000414   0.021944  -0.000226   0.000346   0.000008  -0.013667
     3  H    0.000084  -0.023236   0.000236  -0.001207  -0.000286  -0.014555
     4  H    0.001299  -0.015177   0.000085  -0.000444   0.000891   0.009323
     5  C    0.496436  -0.274097  -0.013728   0.049097  -0.042886  -0.172609
     6  H   -0.027291   0.023760  -0.000007  -0.000128   0.000243  -0.026816
     7  H    0.424147  -0.018310   0.000217   0.000057  -0.002462   0.004466
     8  C   -0.018310   5.485169   0.411586   0.353781   0.411422  -0.164492
     9  H    0.000217   0.411586   0.434386  -0.020365  -0.013700  -0.014522
    10  H    0.000057   0.353781  -0.020365   0.527642  -0.019385  -0.017010
    11  H   -0.002462   0.411422  -0.013700  -0.019385   0.400244   0.012455
    12  C    0.004466  -0.164492  -0.014522  -0.017010   0.012455   5.278659
    13  H   -0.000220  -0.019307  -0.000182  -0.000353   0.000225   0.398245
    14  H    0.000201  -0.008568   0.001233  -0.000527   0.000181   0.407625
    15  H    0.000415   0.014894  -0.000018   0.000287  -0.000176   0.408046
    16  C   -0.069294  -0.137417  -0.029988   0.001306   0.012595  -0.003435
    17  H    0.002094   0.001777   0.000520  -0.000025   0.000010  -0.017162
    18  H    0.003569   0.002784   0.000314   0.000003  -0.000090  -0.001213
    19  C   -0.020550   0.156030   0.018424  -0.006553   0.006668  -0.058731
    20  H    0.000548  -0.001233   0.000225   0.000006  -0.000130  -0.000289
    21  H    0.000674   0.001825  -0.000140   0.000007   0.000085   0.000152
    22  N   -0.035005   0.330847  -0.012141  -0.003729   0.003116   0.311372
    23  S    0.008957  -0.058696  -0.007237   0.002418  -0.003799  -0.001240
    24  O    0.001994  -0.042038   0.013725   0.004247  -0.004907   0.001869
    25  O    0.005685  -0.031192  -0.006507   0.002511   0.008202   0.013771
    26  O   -0.001822   0.001809   0.000245  -0.000006  -0.000884  -0.000345
              13         14         15         16         17         18
     1  C   -0.017241   0.012999  -0.012519  -0.038502   0.007754  -0.002583
     2  H   -0.000004   0.000219   0.001561  -0.003749   0.000072  -0.000063
     3  H    0.000939   0.000102   0.000088   0.003437   0.000015   0.000001
     4  H    0.000107  -0.000280   0.000097  -0.005492   0.000047  -0.000038
     5  C    0.027449  -0.034557  -0.010187  -0.617295  -0.108830   0.030214
     6  H    0.000202  -0.000314  -0.001209  -0.045867   0.004474  -0.017558
     7  H   -0.000220   0.000201   0.000415  -0.069294   0.002094   0.003569
     8  C   -0.019307  -0.008568   0.014894  -0.137417   0.001777   0.002784
     9  H   -0.000182   0.001233  -0.000018  -0.029988   0.000520   0.000314
    10  H   -0.000353  -0.000527   0.000287   0.001306  -0.000025   0.000003
    11  H    0.000225   0.000181  -0.000176   0.012595   0.000010  -0.000090
    12  C    0.398245   0.407625   0.408046  -0.003435  -0.017162  -0.001213
    13  H    0.500762  -0.020904  -0.025043   0.003572  -0.000331  -0.000008
    14  H   -0.020904   0.482725  -0.021730   0.015943   0.001257  -0.000192
    15  H   -0.025043  -0.021730   0.495715  -0.008393   0.000091   0.000464
    16  C    0.003572   0.015943  -0.008393   7.030446   0.471213   0.330802
    17  H   -0.000331   0.001257   0.000091   0.471213   0.536034  -0.040619
    18  H   -0.000008  -0.000192   0.000464   0.330802  -0.040619   0.603699
    19  C    0.001801   0.003573  -0.002764  -1.053425  -0.051818   0.009286
    20  H   -0.000001   0.000027   0.000006  -0.082215  -0.004196  -0.005253
    21  H   -0.000002  -0.000017   0.000003  -0.044534   0.007248  -0.004954
    22  N   -0.015417  -0.018451  -0.007719   0.152529   0.045748  -0.020824
    23  S   -0.000269   0.000751   0.000370   0.223905  -0.006158  -0.001507
    24  O    0.000003  -0.000708   0.000026  -0.033162   0.004015   0.001031
    25  O   -0.000029  -0.000121  -0.000035  -0.052289   0.003745  -0.001072
    26  O    0.000001   0.000007   0.000003   0.050710  -0.000842  -0.000470
              19         20         21         22         23         24
     1  C    0.022320   0.000264   0.000469   0.272071  -0.007642   0.005045
     2  H    0.000676   0.000001   0.000002  -0.005981   0.000046   0.000003
     3  H   -0.000793  -0.000001   0.000002  -0.014206   0.000547  -0.000062
     4  H   -0.002188   0.000001   0.000001  -0.031671   0.000021  -0.000051
     5  C    0.056720   0.030205  -0.012327  -0.152752  -0.077029   0.098124
     6  H    0.025922  -0.000150  -0.000080   0.014779  -0.004572  -0.000471
     7  H   -0.020550   0.000548   0.000674  -0.035005   0.008957   0.001994
     8  C    0.156030  -0.001233   0.001825   0.330847  -0.058696  -0.042038
     9  H    0.018424   0.000225  -0.000140  -0.012141  -0.007237   0.013725
    10  H   -0.006553   0.000006   0.000007  -0.003729   0.002418   0.004247
    11  H    0.006668  -0.000130   0.000085   0.003116  -0.003799  -0.004907
    12  C   -0.058731  -0.000289   0.000152   0.311372  -0.001240   0.001869
    13  H    0.001801  -0.000001  -0.000002  -0.015417  -0.000269   0.000003
    14  H    0.003573   0.000027  -0.000017  -0.018451   0.000751  -0.000708
    15  H   -0.002764   0.000006   0.000003  -0.007719   0.000370   0.000026
    16  C   -1.053425  -0.082215  -0.044534   0.152529   0.223905  -0.033162
    17  H   -0.051818  -0.004196   0.007248   0.045748  -0.006158   0.004015
    18  H    0.009286  -0.005253  -0.004954  -0.020824  -0.001507   0.001031
    19  C    6.786708   0.444267   0.442730  -0.010107   0.079950  -0.065170
    20  H    0.444267   0.528267  -0.034139  -0.002490  -0.046252   0.003713
    21  H    0.442730  -0.034139   0.536489   0.003246  -0.054308  -0.003477
    22  N   -0.010107  -0.002490   0.003246   6.502425   0.007921  -0.039586
    23  S    0.079950  -0.046252  -0.054308   0.007921  13.519556   0.327924
    24  O   -0.065170   0.003713  -0.003477  -0.039586   0.327924   8.520191
    25  O   -0.050026  -0.002309   0.007507   0.031840   0.302852  -0.013770
    26  O   -0.156994   0.010893   0.004566  -0.001734   0.494959  -0.053533
              25         26
     1  C   -0.010074  -0.001150
     2  H   -0.000089   0.000006
     3  H   -0.000010  -0.000000
     4  H   -0.000389  -0.000001
     5  C    0.003559   0.000170
     6  H    0.003848  -0.000007
     7  H    0.005685  -0.001822
     8  C   -0.031192   0.001809
     9  H   -0.006507   0.000245
    10  H    0.002511  -0.000006
    11  H    0.008202  -0.000884
    12  C    0.013771  -0.000345
    13  H   -0.000029   0.000001
    14  H   -0.000121   0.000007
    15  H   -0.000035   0.000003
    16  C   -0.052289   0.050710
    17  H    0.003745  -0.000842
    18  H   -0.001072  -0.000470
    19  C   -0.050026  -0.156994
    20  H   -0.002309   0.010893
    21  H    0.007507   0.004566
    22  N    0.031840  -0.001734
    23  S    0.302852   0.494959
    24  O   -0.013770  -0.053533
    25  O    8.594800  -0.049569
    26  O   -0.049569   8.224384
 Mulliken charges:
               1
     1  C   -0.218554
     2  H    0.164164
     3  H    0.165549
     4  H    0.199236
     5  C   -0.200835
     6  H    0.135885
     7  H    0.221962
     8  C   -0.298855
     9  H    0.215549
    10  H    0.151359
    11  H    0.244545
    12  C   -0.201490
    13  H    0.166004
    14  H    0.179527
    15  H    0.167724
    16  C   -0.071402
    17  H    0.143865
    18  H    0.114276
    19  C   -0.575956
    20  H    0.160235
    21  H    0.148972
    22  N   -0.304080
    23  S    1.298532
    24  O   -0.724976
    25  O   -0.760839
    26  O   -0.520395
 Sum of Mulliken charges =  -0.00000
 Mulliken charges with hydrogens summed into heavy atoms:
               1
     1  C    0.310394
     5  C    0.157012
     8  C    0.312597
    12  C    0.311765
    16  C    0.186739
    19  C   -0.266749
    22  N   -0.304080
    23  S    1.298532
    24  O   -0.724976
    25  O   -0.760839
    26  O   -0.520395
 Electronic spatial extent (au):  <R**2>=           2223.9099
 Charge=              0.0000 electrons
 Dipole moment (field-independent basis, Debye):
    X=            -15.2971    Y=              3.3182    Z=             -0.6928  Tot=             15.6682
 Quadrupole moment (field-independent basis, Debye-Ang):
   XX=            -78.9545   YY=            -72.6232   ZZ=            -77.9210
   XY=              7.6452   XZ=             -0.6944   YZ=             -0.9986
 Traceless Quadrupole moment (field-independent basis, Debye-Ang):
   XX=             -2.4549   YY=              3.8764   ZZ=             -1.4215
   XY=              7.6452   XZ=             -0.6944   YZ=             -0.9986
 Octapole moment (field-independent basis, Debye-Ang**2):
  XXX=           -127.6121  YYY=             -1.4610  ZZZ=             -6.1483  XYY=             -8.2545
  XXY=              4.8281  XXZ=              1.3215  XZZ=            -18.8632  YZZ=              3.1518
  YYZ=              2.9016  XYZ=             -2.7079
 Hexadecapole moment (field-independent basis, Debye-Ang**3):
 XXXX=          -2088.7301 YYYY=           -510.1606 ZZZZ=           -380.1966 XXXY=             28.5984
 XXXZ=             14.9853 YYYX=              8.9817 YYYZ=             -1.3595 ZZZX=             -9.6773
 ZZZY=              3.4655 XXYY=           -391.4868 XXZZ=           -387.3768 YYZZ=           -145.6350
 XXYZ=              2.5629 YYXZ=              5.6422 ZZXY=              9.6326
 N-N= 8.610347509130D+02 E-N=-3.879873308190D+03  KE= 9.137556591830D+02
 No NMR shielding tensors so no spin-rotation constants.
 Leave Link  601 at Wed Oct 11 12:02:32 2023, MaxMem=  6710886400 cpu:               3.9 elap:               0.2
 (Enter /data0/home/software/g16/l701.exe)
 ... and contract with generalized density number  0.
 Compute integral first derivatives.
 R6Disp: Adding Grimme-D3(BJ) dispersion energy 1st derivatives to the gradient.
 Leave Link  701 at Wed Oct 11 12:02:32 2023, MaxMem=  6710886400 cpu:               4.3 elap:               0.2
 (Enter /data0/home/software/g16/l702.exe)
 L702 exits ... SP integral derivatives will be done elsewhere.
 Leave Link  702 at Wed Oct 11 12:02:32 2023, MaxMem=  6710886400 cpu:               0.4 elap:               0.0
 (Enter /data0/home/software/g16/l703.exe)
 Integral derivatives from FoFJK, PRISM(SPDF).
 Compute integral first derivatives, UseDBF=F ICtDFT=           0.
 Calling FoFJK, ICntrl=      2127 FMM=F ISym2X=0 I1Cent= 0 IOpClX= 0 NMat=1 NMatS=1 NMatT=0.
 FoFJK:  IHMeth= 1 ICntrl=    2127 DoSepK=F KAlg= 0 I1Cent=           0 FoldK=F
 IRaf=         0 NMat=       1 IRICut=       1 DoRegI=T DoRafI=F ISym2E= 0 IDoP0=0 IntGTp=1.
 FoFCou: FMM=F IPFlag=           0 FMFlag=      100000 FMFlg1=         800
         NFxFlg=           0 DoJE=F BraDBF=F KetDBF=F FulRan=T
         wScrn=  0.000000 ICntrl=      2127 IOpCl=  0 I1Cent=           0 NGrid=           0
         NMat0=    1 NMatS0=      1 NMatT0=    0 NMatD0=    1 NMtDS0=    0 NMtDT0=    0
 Symmetry not used in FoFCou.
 Leave Link  703 at Wed Oct 11 12:02:41 2023, MaxMem=  6710886400 cpu:             208.8 elap:               8.8
 (Enter /data0/home/software/g16/l716.exe)
 Dipole        =-6.01835838D+00 1.30549634D+00-2.72572210D-01
 ***** Axes restored to original set *****
 -------------------------------------------------------------------
 Center     Atomic                   Forces (Hartrees/Bohr)
 Number     Number              X              Y              Z
 -------------------------------------------------------------------
      1        6           0.000582787    0.000527038    0.000588404
      2        1           0.000380790    0.000134303    0.000373426
      3        1           0.000382749    0.000306266    0.000223016
      4        1           0.000149686    0.000367052    0.000393083
      5        6           0.000149610   -0.000407235    0.000606158
      6        1          -0.000144060   -0.000349799    0.000460626
      7        1           0.000287165   -0.000308302    0.000613826
      8        6          -0.000348684    0.000722279   -0.000559459
      9        1           0.000070592    0.000244065   -0.000251886
     10        1          -0.000122843    0.000398159   -0.000368311
     11        1          -0.000012189    0.000416942   -0.000404673
     12        6           0.000574867   -0.000431570   -0.000536750
     13        1           0.000367290   -0.000120963   -0.000319808
     14        1           0.000238976   -0.000252356   -0.000342890
     15        1           0.000325202   -0.000332633   -0.000118021
     16        6          -0.000178341   -0.000931803   -0.000138284
     17        1          -0.000116643   -0.000273957   -0.000290705
     18        1           0.000052467   -0.000256377   -0.000113605
     19        6          -0.000218779   -0.001170095    0.000259844
     20        1          -0.000278823   -0.000071684   -0.000103022
     21        1          -0.000092348   -0.000001570    0.000246601
     22        7           0.000181181    0.000117190    0.000062283
     23       16          -0.001509265    0.001310801   -0.000309323
     24        8           0.000163575    0.000042647   -0.000758317
     25        8          -0.000086158    0.000518696    0.000591890
     26        8          -0.000798805   -0.000197096    0.000195894
 -------------------------------------------------------------------
 Cartesian Forces:  Max     0.001509265 RMS     0.000445759
 Leave Link  716 at Wed Oct 11 12:02:41 2023, MaxMem=  6710886400 cpu:               0.5 elap:               0.0
 (Enter /data0/home/software/g16/l103.exe)

 GradGradGradGradGradGradGradGradGradGradGradGradGradGradGradGradGradGrad
 Berny optimization.
 FormGI is forming the generalized inverse of G from B-inverse, IUseBI=4.
 Internal  Forces:  Max     0.004151796 RMS     0.000899419
 Search for a local minimum.
 Step number   1 out of a maximum of  146
 All quantities printed in internal units (Hartrees-Bohrs-Radians)
 RMS Force = .89942D-03 SwitMx=.10000D-02 MixMth= 2
 Mixed Optimization -- En-DIIS/RFO-DIIS
 Second derivative matrix not updated -- first step.
 ITU=  0
     Eigenvalues ---    0.00230   0.00230   0.00230   0.00279   0.00358
     Eigenvalues ---    0.00375   0.00425   0.03320   0.03518   0.03633
     Eigenvalues ---    0.04350   0.04696   0.04791   0.04809   0.05014
     Eigenvalues ---    0.05063   0.05806   0.05863   0.05902   0.05930
     Eigenvalues ---    0.05932   0.05961   0.08127   0.08277   0.08687
     Eigenvalues ---    0.10171   0.10559   0.12010   0.12156   0.12408
     Eigenvalues ---    0.14159   0.14665   0.16000   0.16000   0.16000
     Eigenvalues ---    0.16000   0.16000   0.16000   0.16000   0.16000
     Eigenvalues ---    0.16000   0.21897   0.21970   0.22105   0.23612
     Eigenvalues ---    0.25000   0.25000   0.25000   0.28801   0.29025
     Eigenvalues ---    0.29349   0.30974   0.32423   0.32822   0.34463
     Eigenvalues ---    0.34672   0.34687   0.34723   0.34886   0.34934
     Eigenvalues ---    0.34940   0.34985   0.34992   0.35001   0.35046
     Eigenvalues ---    0.35089   0.35102   0.35260   0.35377   0.80346
     Eigenvalues ---    0.84546   0.93280
 RFO step:  Lambda=-8.54733822D-04 EMin= 2.30000000D-03
 Linear search not attempted -- first point.
 Iteration  1 RMS(Cart)=  0.08959045 RMS(Int)=  0.00153187
 Iteration  2 RMS(Cart)=  0.00285768 RMS(Int)=  0.00003593
 Iteration  3 RMS(Cart)=  0.00000374 RMS(Int)=  0.00003583
 Iteration  4 RMS(Cart)=  0.00000000 RMS(Int)=  0.00003583
 ITry= 1 IFail=0 DXMaxC= 4.13D-01 DCOld= 1.00D+10 DXMaxT= 3.00D-01 DXLimC= 3.00D+00 Rises=F
 Variable       Old X    -DE/DX   Delta X   Delta X   Delta X     New X
                                 (Linear)    (Quad)   (Total)
    R1        2.05700  -0.00032   0.00000  -0.00090  -0.00090   2.05609
    R2        2.05673  -0.00032   0.00000  -0.00092  -0.00092   2.05581
    R3        2.05510  -0.00033   0.00000  -0.00094  -0.00094   2.05416
    R4        2.83377  -0.00255   0.00000  -0.00783  -0.00783   2.82594
    R5        2.06127  -0.00038   0.00000  -0.00108  -0.00108   2.06018
    R6        2.05601  -0.00001   0.00000  -0.00002  -0.00002   2.05598
    R7        2.90421  -0.00271   0.00000  -0.00938  -0.00938   2.89483
    R8        2.89951  -0.00362   0.00000  -0.01244  -0.01244   2.88708
    R9        2.05067  -0.00002   0.00000  -0.00004  -0.00004   2.05063
   R10        2.05783  -0.00031   0.00000  -0.00088  -0.00088   2.05695
   R11        2.05531   0.00001   0.00000   0.00003   0.00003   2.05535
   R12        2.86062  -0.00229   0.00000  -0.00736  -0.00736   2.85325
   R13        2.05687  -0.00032   0.00000  -0.00090  -0.00090   2.05597
   R14        2.05254  -0.00022   0.00000  -0.00064  -0.00064   2.05191
   R15        2.05773  -0.00031   0.00000  -0.00087  -0.00087   2.05685
   R16        2.82665  -0.00229   0.00000  -0.00697  -0.00697   2.81968
   R17        2.06186  -0.00021   0.00000  -0.00060  -0.00060   2.06126
   R18        2.06556  -0.00025   0.00000  -0.00073  -0.00073   2.06482
   R19        2.89280  -0.00278   0.00000  -0.00943  -0.00943   2.88337
   R20        2.05860  -0.00026   0.00000  -0.00075  -0.00075   2.05786
   R21        2.06210  -0.00025   0.00000  -0.00073  -0.00073   2.06137
   R22        3.46575  -0.00235   0.00000  -0.00990  -0.00990   3.45585
   R23        2.79253  -0.00077   0.00000  -0.00091  -0.00091   2.79162
   R24        2.81429  -0.00062   0.00000  -0.00077  -0.00077   2.81352
   R25        2.75157  -0.00083   0.00000  -0.00089  -0.00089   2.75069
    A1        1.91970   0.00048   0.00000   0.00327   0.00326   1.92296
    A2        1.92196   0.00043   0.00000   0.00238   0.00237   1.92433
    A3        1.90822  -0.00047   0.00000  -0.00292  -0.00293   1.90529
    A4        1.91933   0.00045   0.00000   0.00282   0.00282   1.92215
    A5        1.90358  -0.00043   0.00000  -0.00253  -0.00254   1.90104
    A6        1.89068  -0.00049   0.00000  -0.00320  -0.00320   1.88748
    A7        1.92079  -0.00002   0.00000   0.00703   0.00704   1.92783
    A8        1.94712   0.00075   0.00000   0.00879   0.00882   1.95594
    A9        1.82721   0.00076   0.00000   0.00657   0.00662   1.83383
   A10        1.91587   0.00036   0.00000  -0.00358  -0.00372   1.91215
   A11        1.82857   0.00020   0.00000  -0.00733  -0.00744   1.82114
   A12        2.01858  -0.00205   0.00000  -0.01132  -0.01137   2.00722
   A13        1.94477   0.00046   0.00000   0.00388   0.00388   1.94865
   A14        1.86392   0.00030   0.00000   0.00075   0.00075   1.86466
   A15        1.92009  -0.00022   0.00000  -0.00139  -0.00139   1.91870
   A16        1.96726   0.00056   0.00000   0.00355   0.00354   1.97080
   A17        1.87654  -0.00045   0.00000  -0.00222  -0.00222   1.87431
   A18        1.89081  -0.00070   0.00000  -0.00488  -0.00489   1.88592
   A19        1.91342   0.00043   0.00000   0.00277   0.00277   1.91619
   A20        1.92107   0.00039   0.00000   0.00253   0.00253   1.92360
   A21        1.90267  -0.00039   0.00000  -0.00237  -0.00237   1.90030
   A22        1.91849   0.00040   0.00000   0.00229   0.00229   1.92078
   A23        1.90324  -0.00047   0.00000  -0.00300  -0.00301   1.90023
   A24        1.90475  -0.00037   0.00000  -0.00234  -0.00234   1.90240
   A25        1.94533   0.00047   0.00000  -0.00603  -0.00620   1.93913
   A26        1.90751   0.00116   0.00000   0.01067   0.01074   1.91826
   A27        1.96205  -0.00321   0.00000  -0.01653  -0.01661   1.94545
   A28        1.86224  -0.00038   0.00000   0.00490   0.00492   1.86716
   A29        1.86350   0.00077   0.00000  -0.00417  -0.00435   1.85914
   A30        1.92032   0.00133   0.00000   0.01214   0.01220   1.93252
   A31        1.92589   0.00107   0.00000   0.00754   0.00760   1.93349
   A32        1.96551   0.00098   0.00000  -0.00001  -0.00012   1.96539
   A33        1.95125  -0.00415   0.00000  -0.02089  -0.02092   1.93033
   A34        1.89854  -0.00061   0.00000   0.00396   0.00393   1.90247
   A35        1.84799   0.00157   0.00000   0.01005   0.01010   1.85808
   A36        1.86975   0.00122   0.00000   0.00023   0.00012   1.86988
   A37        1.87211   0.00012   0.00000  -0.00006  -0.00006   1.87205
   A38        1.88602   0.00015   0.00000   0.00117   0.00116   1.88718
   A39        1.91019  -0.00009   0.00000   0.00266   0.00265   1.91285
   A40        1.95604  -0.00061   0.00000  -0.00741  -0.00740   1.94864
   A41        1.92410   0.00015   0.00000   0.00096   0.00096   1.92506
   A42        1.91416   0.00028   0.00000   0.00281   0.00281   1.91697
   A43        1.80161   0.00004   0.00000  -0.00014  -0.00014   1.80147
   A44        1.81216  -0.00063   0.00000  -0.00271  -0.00271   1.80945
   A45        1.83641   0.00053   0.00000   0.00267   0.00267   1.83909
   A46        1.95709  -0.00010   0.00000  -0.00190  -0.00190   1.95519
   A47        2.02533  -0.00009   0.00000   0.00023   0.00023   2.02555
   A48        2.00017   0.00022   0.00000   0.00165   0.00166   2.00182
    D1       -1.02793  -0.00023   0.00000  -0.00363  -0.00363  -1.03156
    D2       -3.14003   0.00034   0.00000   0.00457   0.00457  -3.13547
    D3        1.05951  -0.00003   0.00000  -0.00104  -0.00104   1.05847
    D4       -3.12764  -0.00027   0.00000  -0.00430  -0.00431  -3.13194
    D5        1.04344   0.00030   0.00000   0.00389   0.00390   1.04734
    D6       -1.04020  -0.00007   0.00000  -0.00171  -0.00171  -1.04191
    D7        1.06674  -0.00028   0.00000  -0.00437  -0.00437   1.06238
    D8       -1.04536   0.00030   0.00000   0.00383   0.00383  -1.04152
    D9       -3.12900  -0.00008   0.00000  -0.00177  -0.00177  -3.13077
   D10        2.22161  -0.00000   0.00000  -0.06658  -0.06663   2.15498
   D11        0.16751  -0.00055   0.00000  -0.07568  -0.07569   0.09182
   D12       -1.97004  -0.00089   0.00000  -0.08757  -0.08753  -2.05757
[...]
 304,0.00013397,-0.00020564,0.00003317,-0.00030330,0.00094532,0.0013453
 9,0.00141290,0.00005860,-0.00019324,-0.00003429,0.00007385,-0.00005137
 ,0.00014663,-0.00003759,0.00003605,0.00003532,0.00036622,-0.00001561,-
 0.00011551,0.00031059,0.00010271,-0.00041290,0.00002109,0.00010859,0.0
 0010744,-0.00007726,-0.00006528,0.00024333,-0.00004869,0.00000107,0.00
 001670,-0.16295019,0.01242050,0.02901456,-0.00633195,-0.00002564,0.005
 35556,-0.01147818,0.00223735,0.00424611,0.46201053,-0.00041844,-0.0004
 6781,0.00075749,-0.00001605,0.00002346,0.00003551,-0.00015588,-0.00030
 047,-0.00027271,0.00007132,-0.00002827,-0.00000545,-0.01846944,0.00237
 904,0.00712407,-0.00099954,-0.00026115,-0.00095416,-0.00054693,-0.0001
 1403,0.00062813,-0.00026493,0.00026929,-0.00029717,-0.00002969,-0.0000
 6912,0.00010996,-0.00002151,0.00001732,0.00010021,0.00041168,-0.000101
 23,-0.00019539,0.00032560,-0.00050695,-0.00058779,-0.00004750,0.000134
 95,0.00010388,0.00005014,-0.00017512,0.00015803,-0.00020187,-0.0000540
 9,-0.00008548,0.00591435,-0.07821652,-0.00469734,-0.00735389,0.0017944
 0,0.00162148,0.03229582,-0.00211183,-0.01133477,0.08082663,0.40407836,
 -0.00046713,-0.00050641,0.00078109,0.00008023,0.00002375,0.00010942,-0
 .00020435,-0.00034578,-0.00017581,0.00007780,0.00002317,0.00003451,-0.
 01708467,0.00267881,0.00503568,-0.00143010,-0.00086372,-0.00156342,-0.
 00114674,-0.00133323,0.00183269,-0.00031694,0.00048810,-0.00032756,-0.
 00047458,-0.00026807,0.00000732,0.00004988,0.00000228,0.00015697,0.000
 39860,0.00000649,-0.00029962,0.00062957,-0.00042865,-0.00100270,0.0000
 4620,0.00013651,0.00027334,-0.00016718,0.00026362,0.00035066,0.0001288
 5,0.00007492,0.00010946,0.03007545,-0.00430797,-0.08666009,0.03389210,
 -0.00323915,-0.01157095,-0.00404775,0.00020251,0.00123164,0.01532215,0
 .04395873,0.58435504,-0.00019943,-0.00017968,0.00045220,0.00003825,0.0
 0000387,0.00002945,-0.00009727,-0.00014457,-0.00010239,-0.00000245,0.0
 0002326,-0.00000900,-0.00392597,0.00144133,0.00292979,-0.00044432,-0.0
 0023391,-0.00045854,-0.00022403,0.00018659,0.00050164,-0.00012948,0.00
 027673,-0.00020363,-0.00007172,-0.00002800,-0.00001126,0.00004491,-0.0
 0006423,0.00002583,-0.00018372,0.00000250,0.00009058,0.00015651,-0.000
 23166,-0.00018415,-0.00004397,0.00001816,0.00004840,0.00001504,0.00000
 806,-0.00001389,0.00001982,-0.00000739,-0.00000079,-0.01878116,-0.0192
 1446,-0.01542481,0.00105630,-0.00030387,0.00003604,0.00103234,0.000370
 06,-0.00066498,-0.13459785,-0.09856326,-0.08089109,0.14959907,0.000089
 52,0.00004502,-0.00017840,-0.00000913,0.00001035,-0.00000015,0.0000395
 7,0.00005569,0.00004027,0.00003002,0.00000160,0.00002149,0.00118690,0.
 00064327,-0.00072739,-0.00009075,-0.00007654,0.00017093,0.00064877,-0.
 00033685,0.00002975,0.00003410,-0.00013264,0.00003846,-0.00002075,0.00
 001006,-0.00002663,-0.00005603,0.00005944,0.00003060,0.00032519,0.0000
 3294,-0.00017820,-0.00006348,0.00003126,0.00001752,0.00002018,-0.00000
 689,-0.00000818,-0.00001686,-0.00000243,-0.00000115,-0.00000267,0.0000
 0955,0.00000263,0.00423117,0.00315399,0.00332498,-0.00041375,0.0000864
 9,-0.00005694,-0.00044531,0.00073056,0.00048373,-0.10201817,-0.1510925
 2,-0.09087095,0.10580091,0.16101741,0.00011357,0.00010469,-0.00008211,
 -0.00000867,-0.00000059,-0.00002206,0.00003560,0.00005496,0.00003271,-
 0.00000143,0.00000484,-0.00000905,0.00222802,-0.00073515,-0.00019780,0
 .00024407,0.00018404,0.00020747,0.00013740,0.00034141,0.00004394,0.000
 02455,-0.00003816,0.00002439,-0.00000034,0.00001199,0.00000818,-0.0000
 0892,0.00000269,-0.00000172,0.00001204,0.00000057,-0.00000297,-0.00007
 759,-0.00001974,0.00008798,-0.00001405,0.00000722,0.00000157,0.0000078
 3,-0.00000760,-0.00000638,-0.00000942,-0.00000140,-0.00000613,0.006846
 62,0.00673766,0.00476286,-0.00043497,0.00036684,0.00065482,-0.00061254
 ,0.00009772,0.00040110,-0.08207541,-0.08997825,-0.12219946,0.08738906,
 0.09748542,0.12774954,-0.00000124,-0.00003939,0.00000621,-0.00001682,0
 .00000206,0.00000967,0.00000445,0.00001551,-0.00002614,-0.00001581,-0.
 00002901,-0.00000762,0.00147413,0.00069334,0.00131910,-0.00016741,0.00
 000152,0.00004375,-0.00002675,-0.00045433,-0.00045844,0.00012856,0.000
 00003,0.00003140,-0.00017495,0.00015688,-0.00007478,-0.00001446,0.0000
 0664,-0.00003875,-0.00008194,-0.00005077,-0.00002374,-0.00009187,0.000
 16237,0.00029810,-0.00003706,-0.00009683,-0.00013216,0.00009453,-0.000
 05572,-0.00021328,-0.00001239,-0.00001624,-0.00002823,-0.00569398,-0.0
 0629059,0.03108440,-0.00611368,0.00086891,0.00177220,0.00118658,0.0001
 6435,-0.00062298,-0.05186084,-0.00636770,0.03237749,0.00293049,0.00436
 848,-0.01736041,0.05712193,-0.00002981,0.00003728,-0.00004999,-0.00002
 614,0.00000014,-0.00001306,0.00003206,0.00001182,-0.00001263,-0.000006
 69,-0.00002924,0.00001592,-0.00042406,0.00013785,0.00068913,0.00005887
 ,0.00000233,0.00003663,-0.00051705,-0.00025547,0.00023182,0.00006025,-
 0.00009567,0.00009898,0.00031236,-0.00000600,0.00000576,-0.00002986,-0
 .00000673,-0.00004913,-0.00000044,0.00005015,0.00008802,0.00002361,0.0
 0006069,-0.00007366,0.00003729,0.00000535,-0.00000507,-0.00001665,-0.0
 0001225,0.00004314,-0.00001351,0.00001317,0.00000895,0.00065977,0.0003
 9966,-0.00563282,0.00143774,0.00018112,0.00046292,-0.00044790,0.000149
 27,-0.00016884,-0.00742923,-0.04984265,0.04184941,0.00352245,0.0043300
 9,-0.01987497,0.00590403,0.05170926,0.00001106,-0.00000323,-0.00004049
 ,0.00000981,0.00000004,0.00000130,0.00000070,0.00000909,0.00001188,0.0
 0000402,0.00001024,-0.00000720,-0.00027247,-0.00074494,0.00037560,0.00
 024650,0.00022296,0.00008700,0.00033066,0.00047276,0.00024027,-0.00007
 074,-0.00000998,-0.00004313,-0.00013253,-0.00003698,0.00001963,0.00001
 554,-0.00000232,0.00002281,0.00004299,-0.00000915,-0.00004020,-0.00011
 287,-0.00009179,-0.00002320,-0.00003540,0.00001806,0.00002492,-0.00002
 008,0.00000294,0.00003239,0.00000667,0.00000276,0.00001112,0.00071087,
 0.00108908,-0.00515352,0.00087543,-0.00046894,0.00089369,0.00045894,-0
 .00035748,0.00003012,0.03403259,0.04008383,-0.30172503,0.00215191,0.00
 339426,-0.01439343,-0.03891513,-0.04371350,0.32420693,-0.10938130,-0.0
 1683303,-0.02240051,-0.01301869,-0.01130718,-0.01372617,-0.01601623,-0
 .01306863,-0.01948289,0.01092003,0.00913412,0.01262046,-0.09196339,-0.
 00590328,0.01406122,0.00747988,0.00849745,-0.00775928,-0.01673261,-0.0
 1753732,0.01628520,-0.10286892,0.01855406,-0.01558697,-0.01015350,0.01
 856316,-0.01002802,0.00970921,-0.01418858,0.01196427,-0.01158818,0.016
 37964,-0.01776904,-0.11621107,0.02082475,0.02144421,-0.01783418,0.0166
 3277,0.01580357,0.01206165,-0.00918043,-0.00902906,-0.01474513,0.01139
 652,0.01301354,-0.01701033,-0.00961631,0.00949494,0.00094125,-0.000063
 37,0.00093330,-0.00107343,-0.00063081,0.00008024,-0.00057522,-0.003842
 42,-0.00300963,-0.00126412,0.00066502,0.00013608,0.00045218,0.00012234
 ,0.00005665,0.49909874,-0.01880012,-0.10516412,-0.02297666,0.01123724,
 0.01031691,0.01382136,-0.01241691,-0.01372569,-0.01735891,-0.01384096,
 -0.01301708,-0.01546225,-0.00150510,-0.09038903,0.00984734,-0.01814678
 ,-0.01771036,0.01766614,0.00876026,0.01102182,-0.00899979,0.01144925,-
 0.10813251,0.01414266,-0.00414297,0.01107317,-0.00671795,0.01429890,-0
 .01967151,0.01500279,0.00949976,-0.01779361,0.01563037,0.02538776,-0.1
 1334326,-0.02428620,-0.01107903,0.01040630,0.01070106,0.01424928,-0.01
 287358,-0.01153568,0.01601002,-0.01623471,-0.01651670,-0.01162570,-0.0
 1308789,0.00704401,0.00062987,0.00109713,0.00106081,-0.00247911,-0.000
 94435,-0.00071051,0.00080801,-0.00224386,-0.00155230,-0.00060054,0.000
 45815,0.00036467,-0.00000528,-0.00003509,0.00022705,-0.01725901,0.5002
 7034,-0.02624029,-0.02420899,-0.11908904,-0.01247657,-0.01307782,-0.01
 781475,0.00721554,0.00658147,0.00839850,-0.01446447,-0.01193763,-0.017
 87524,0.00307724,0.00406281,-0.09742110,0.01632394,0.01412847,-0.01659
 101,0.01475559,0.01628133,-0.01609384,-0.00992672,0.01554896,-0.103827
 26,-0.00983080,0.02099447,-0.01556444,-0.01115819,0.01391962,-0.014319
 22,0.00609280,-0.01162059,0.01154955,0.02561004,-0.02263892,-0.1135627
 1,0.01216549,-0.01221834,-0.01372878,0.01797016,-0.01479917,-0.0170650
 4,-0.01084495,0.00962588,0.01017100,-0.00662853,-0.00827782,0.01587417
 ,0.00047178,0.00083079,-0.00004626,-0.00152752,-0.00153045,-0.00148437
 ,-0.00152653,-0.00167099,-0.00198084,-0.00090198,0.00022182,0.00036071
 ,-0.00017453,-0.00012936,0.00014772,0.00272523,0.01995638,0.51935478,-
 0.00058001,-0.00043904,-0.00056491,0.00008465,-0.00010573,0.00008651,0
 .00011454,0.00006962,-0.00010726,-0.00024755,-0.00020515,-0.00026812,-
 0.00154462,0.00092690,-0.00035464,0.00157066,-0.00072928,-0.00032800,-
 0.00612457,0.00210007,-0.00258793,-0.00198950,0.00037827,0.00005533,-0
 .00158654,-0.00022808,0.00185380,0.00131715,-0.00039604,-0.00035962,-0
 .00560326,-0.00232720,0.00093007,-0.00022249,0.00075468,0.00084248,0.0
 0011382,-0.00002302,-0.00017815,-0.00013569,0.00013113,0.00006783,0.00
 014486,-0.00017322,0.00004340,-0.01614429,0.02869790,-0.00249743,-0.00
 046003,0.00137956,0.00006914,-0.00385286,-0.00031298,0.00186729,-0.065
 32017,0.01917622,-0.00500719,0.00480128,-0.01852629,0.00230998,0.00123
 955,-0.00501709,0.00205363,0.00003956,-0.00052440,-0.00057734,0.886478
 02,-0.00069404,-0.00026099,0.00143240,0.00030491,-0.00017235,0.0001142
 0,-0.00035697,-0.00034871,-0.00029407,-0.00052277,0.00002619,-0.000355
 49,0.00668899,0.00088263,0.00231172,0.00075433,-0.00170737,-0.00144012
 ,-0.00646222,0.00502184,-0.00094754,0.00009601,0.00311596,-0.00130595,
 -0.00115649,0.00048148,0.00014747,0.00143412,-0.00095123,-0.00051612,-
 0.00654135,-0.00177844,0.00195076,0.00000327,0.00011309,0.00115439,-0.
 00032572,-0.00022304,-0.00020915,0.00037422,0.00025345,-0.00073094,0.0
 0040235,-0.00018374,-0.00000417,0.01316331,0.00251690,-0.00412686,-0.0
 0125073,-0.00062337,0.00158135,-0.00658226,0.00175301,0.00193935,0.018
 58450,-0.11306174,0.01247173,0.00417044,-0.01587719,0.00361547,-0.0018
 1222,-0.00137109,-0.00207274,-0.00210430,-0.00204816,-0.00100373,0.089
 72490,0.52105273,-0.00057583,0.00148681,0.00003513,-0.00033310,-0.0001
 9588,-0.00047164,0.00033910,0.00006474,-0.00014668,-0.00057363,-0.0002
 8204,-0.00007511,0.00021210,-0.00079952,0.00296262,0.00130524,-0.00121
 685,-0.00125041,-0.00773083,0.00344328,-0.00183185,0.00149146,0.000606
 97,0.00089420,0.00934140,0.00003117,-0.00105347,-0.00028384,-0.0014000
 3,-0.00197450,-0.00513655,-0.00029379,0.00537294,0.00037940,0.00079232
 ,0.00001040,0.00031295,-0.00003958,-0.00017533,0.00020126,-0.00038557,
 0.00014680,-0.00028074,0.00001174,-0.00010573,-0.00054499,-0.00630964,
 0.00289990,0.00506781,-0.00353937,-0.00188269,0.00308402,0.00031032,-0
 .00265997,-0.00587668,0.01360087,-0.05848335,0.00485302,-0.01721842,0.
 00125837,-0.00923515,0.02730304,-0.00926238,-0.00119058,-0.00118709,-0
 .00160254,-0.06376635,0.04583131,0.78757306,-0.00004428,0.00089594,0.0
 0002216,-0.00019036,-0.00003077,-0.00030118,0.00014158,0.00004000,0.00
 003775,-0.00001627,-0.00002348,0.00011384,-0.00001894,-0.00046611,0.00
 086628,-0.00007541,-0.00000527,-0.00019861,-0.00033131,0.00007457,-0.0
 0000093,-0.00422705,-0.00049263,0.00237958,-0.00004414,-0.00114394,-0.
 00276346,-0.00145503,-0.00067254,-0.00115502,0.00003435,0.00081788,0.0
 0094081,0.00035747,-0.00009645,-0.00048065,0.00010876,-0.00003735,-0.0
 0001384,0.00010805,-0.00019146,-0.00000718,-0.00016589,0.00011936,-0.0
 0005293,-0.00024646,-0.00044074,0.00043771,0.00093426,-0.00044841,-0.0
 0180708,0.00095454,0.00039206,-0.00146965,0.00616484,0.00381874,-0.002
 07566,-0.00040970,0.00173341,-0.00036964,0.00070654,0.00094800,-0.0006
 0818,-0.00083102,-0.00057968,-0.00061619,-0.10909129,-0.01038609,0.079
 89049,0.09975147,0.00010018,0.00028278,-0.00042455,-0.00014477,0.00002
 348,-0.00012252,0.00016324,0.00010125,0.00006239,0.00008020,-0.0000634
 1,0.00011191,-0.00164169,-0.00143536,0.00013526,0.00016796,0.00046222,
 0.00023229,0.00112033,-0.00071799,0.00009929,-0.00044056,-0.00032972,0
 .00001738,0.00024125,-0.00121087,-0.00040146,-0.00036819,0.00013527,0.
 00002642,0.00109693,0.00042104,0.00049956,-0.00001268,0.00000861,-0.00
 045523,0.00015037,0.00007082,0.00003734,-0.00017448,-0.00010489,0.0002
 3095,-0.00015363,0.00009723,0.00003099,-0.00046480,-0.00127121,0.00094
 258,-0.00079306,-0.00037252,0.00095796,0.00070904,-0.00022524,0.000577
 92,-0.00369080,0.00005035,0.02730108,-0.00029859,0.00221671,-0.0001971
 7,0.00316497,-0.00696010,0.00240001,-0.00032569,0.00054201,-0.00012698
 ,-0.01057504,-0.09739349,0.05646567,0.01772071,0.07171257,0.00026217,-
 0.00092353,0.00020325,0.00025834,0.00008886,0.00028970,-0.00023492,-0.
 00008800,0.00002423,0.00024432,0.00016271,-0.00004451,0.00078180,0.000
 60604,-0.00057195,-0.00043673,0.00029155,0.00041061,0.00232221,-0.0011
 3531,0.00045245,0.00054523,0.00002394,-0.00050396,-0.00526104,-0.00000
 527,-0.00083931,0.00020426,0.00047332,0.00067626,0.00216979,0.00032528
 ,-0.00180022,-0.00023658,-0.00042816,0.00008094,-0.00024134,-0.0000125
 9,0.00004914,-0.00004997,0.00026649,-0.00022917,0.00019998,-0.00003764
 ,0.00007923,0.00221091,0.00017711,-0.00148503,-0.00264964,0.00113871,0
 .00063668,-0.00127477,-0.00010521,0.00114686,0.00746090,-0.00085079,-0
 .01717833,0.00001694,0.00264582,-0.00030189,-0.00176595,0.00539817,0.0
 0084688,0.00053253,0.00052192,0.00113632,0.08677074,0.05376812,-0.4183
 7114,-0.09655269,-0.06088549,0.47354181,0.00079246,0.00013677,0.000008
 73,-0.00004289,0.00015714,0.00000042,-0.00002517,0.00003872,0.00019161
 ,0.00038369,0.00023797,0.00032510,-0.00661801,0.00417511,-0.00443853,-
 0.00204998,0.00191455,0.00175725,0.00076412,0.00109032,0.00212482,-0.0
 0425270,-0.00384915,0.00268511,-0.00120492,-0.00020050,-0.00022129,-0.
 00168430,0.00141231,0.00137395,0.00066981,0.00194504,0.00049749,0.0000
 2907,-0.00068878,-0.00078108,-0.00001431,0.00004905,0.00023329,-0.0000
 7775,-0.00005480,0.00011654,-0.00006002,0.00016773,-0.00002223,-0.0001
 5192,-0.00538859,-0.00044129,-0.00018362,0.00051765,0.00002216,0.00183
 640,-0.00003271,-0.00015586,0.00484627,0.00198770,-0.00331049,0.001170
 51,0.00051714,0.00040434,-0.00008146,0.00003872,0.00045620,0.00102379,
 0.00093002,0.00062267,-0.17129850,-0.09411370,-0.09588626,0.01522318,-
 0.00333075,-0.00068222,0.18389010,0.00039558,-0.00022879,-0.00089032,-
 0.00022915,0.00016064,0.00000237,0.00024983,0.00018051,0.00015268,0.00
 043399,-0.00015526,0.00024731,0.00134041,-0.00227894,0.00176520,0.0008
 5233,-0.00011141,-0.00042144,0.00335463,-0.00499650,-0.00108591,-0.001
 86539,-0.00156910,0.00182710,-0.00098988,-0.00010529,0.00012564,-0.000
 79693,0.00082992,0.00057420,0.00434101,0.00010405,-0.00211773,0.000107
 21,0.00042337,-0.00082746,0.00027040,0.00006028,-0.00009368,-0.0001871
 6,-0.00010037,0.00029015,-0.00031444,0.00022990,0.00002850,-0.00179302
 ,-0.00052139,0.00089715,0.00025436,0.00014054,-0.00041807,0.00157191,0
 .00015066,0.00006828,-0.02026297,-0.01366667,-0.02174684,0.00422156,-0
 .00846684,0.00154494,-0.00036313,0.00094797,-0.00021666,0.00054090,0.0
 0072878,0.00089162,-0.10454639,-0.21204345,-0.12000668,-0.00315936,0.0
 1616236,-0.00342283,0.12307220,0.21178877,0.00038494,-0.00067423,-0.00
 051272,0.00015783,0.00010303,0.00017681,-0.00015994,0.00007154,0.00017
 489,0.00047887,0.00020505,-0.00001634,-0.00323296,0.00179359,-0.001468
 16,-0.00065595,0.00076379,0.00087596,0.00426611,-0.00266748,0.00017512
 ,0.00150042,0.00164405,-0.00050342,-0.00251000,0.00018144,0.00036691,0
 .00061577,-0.00029225,0.00004145,0.00206654,-0.00081191,-0.00408014,-0
 .00011621,-0.00070893,0.00016385,-0.00021255,0.00007936,0.00021322,-0.
 00011371,0.00012345,0.00006886,0.00013048,-0.00014415,0.00000251,-0.00
 088881,-0.00092056,-0.00010389,-0.00076159,0.00104400,0.00022513,0.000
 73902,-0.00009081,0.00037704,-0.00468603,0.00102344,0.00174645,0.00066
 173,-0.00021977,0.00196663,0.00080409,-0.00342674,0.00214653,0.0005195
 8,0.00114083,0.00070370,-0.10294800,-0.11694719,-0.20332865,-0.0180262
 0,-0.02808162,-0.03190433,0.12005211,0.14989960,0.22092520,0.00024481,
 0.00024263,0.00038309,-0.00002902,0.00005709,-0.00004900,-0.00008013,-
 0.00005670,0.00004387,0.00018925,0.00011224,0.00013656,0.00106670,0.00
 099486,-0.00002738,-0.00052015,0.00024398,0.00013615,0.00134757,-0.001
 00198,0.00060791,-0.00035590,-0.00025349,0.00061516,0.00086463,0.00003
 798,-0.00033228,-0.00055782,0.00009484,0.00009756,0.00150521,0.0006722
 2,-0.00077722,0.00022627,-0.00032687,-0.00027936,-0.00006290,-0.000080
 75,0.00004453,0.00014153,-0.00003152,-0.00016952,0.00001507,0.00008852
 ,-0.00003809,0.00027199,0.00685821,-0.00209520,0.00067128,-0.00048439,
 -0.00020452,-0.00276003,0.00031582,0.00037768,-0.01573721,-0.00757917,
 0.00655517,-0.00048933,0.00197283,0.00108422,-0.00094828,0.00080093,-0
 .00129677,-0.00045899,-0.00025477,-0.00013589,-0.51170271,-0.00339248,
 0.08493626,-0.00733793,-0.00230045,0.00540570,-0.02288388,-0.00649852,
 0.00193445,0.55737998,0.00013537,0.00004471,-0.00038747,-0.00007119,0.
 00003458,-0.00002653,0.00008892,0.00008473,0.00007361,0.00012355,-0.00
 001438,0.00008475,-0.00156285,-0.00040684,-0.00081602,-0.00019523,0.00
 040239,0.00034511,0.00122244,-0.00082888,0.00042450,-0.00001508,-0.000
 66737,0.00038256,0.00039377,0.00000259,0.00009152,-0.00025948,0.000185
 27,0.00008192,0.00094516,0.00029605,-0.00049841,-0.00000219,-0.0000297
 1,-0.00024705,0.00008056,0.00005565,0.00005452,-0.00008115,-0.00007470
 ,0.00019083,-0.00009970,0.00002860,-0.00000967,0.00065748,-0.00623588,
 0.00233679,0.00011245,0.00014620,-0.00033181,0.00241255,-0.00021184,-0
 .00083501,0.02422549,0.00356687,-0.00401806,-0.00017575,0.00309934,-0.
 00007208,0.00007213,0.00057815,-0.00020537,0.00054961,0.00050021,0.000
 19718,0.00078971,-0.08717292,0.00292621,-0.00838638,0.01779809,0.00200
 679,-0.03072916,0.01233628,-0.00308755,0.00976895,0.05648280,0.0000695
 1,-0.00033821,-0.00004962,0.00007531,0.00003176,0.00009869,-0.00005132
 ,-0.00000804,0.00001665,0.00008625,0.00003436,-0.00001208,0.00020632,0
 .00013902,-0.00038877,-0.00009491,0.00011608,0.00016514,0.00067950,-0.
 00040156,0.00008015,-0.00000662,-0.00019195,-0.00027918,-0.00181491,0.
 00008220,0.00017101,0.00010565,0.00028957,0.00038545,0.00072338,0.0001
 1120,-0.00079691,-0.00009498,-0.00007276,0.00003222,-0.00005212,0.0000
 0355,0.00000394,-0.00004517,0.00008137,-0.00002876,0.00005223,-0.00000
 669,0.00002434,0.00003889,0.00092655,0.00060340,-0.00085807,0.00054434
 ,0.00035490,-0.00027086,-0.00011186,0.00048385,-0.00258957,0.00162466,
 0.00714289,-0.00032006,0.00157849,-0.00033727,0.00133087,-0.00308212,0
 .00158980,0.00031114,0.00017663,0.00036998,0.08259474,0.00363580,-0.09
 847796,0.04181048,0.00056603,-0.00634451,-0.02493256,-0.00706716,0.011
 56741,-0.09695310,0.00133873,0.08362525\\0.00000596,0.00000627,0.00000
 543,0.00000261,0.00000631,-0.00000198,-0.00000063,0.00000641,0.0000078
 7,0.00000807,0.00000095,0.00000335,0.00000190,-0.00002398,-0.00000025,
 -0.00000612,-0.00000561,0.00000123,0.00000756,-0.00000723,-0.00000613,
 0.00001604,0.00001894,-0.00001181,-0.00003335,-0.00000334,0.00000255,-
 0.00000062,-0.00000242,0.00001190,-0.00000661,-0.00000992,-0.00001710,
 0.00000389,-0.00001016,-0.00000685,-0.00000048,0.00000064,0.00000154,0
 .00000619,0.00000464,-0.00000462,-0.00000240,0.00000143,-0.00000588,-0
 .00004366,0.00001919,0.00000240,0.00000171,-0.00000015,0.00000590,0.00
 000539,-0.00000306,-0.00000122,0.00001477,-0.00000819,0.00000493,0.000
 00434,-0.00000447,-0.00000695,0.00001646,-0.00000069,-0.00000328,-0.00
 000759,0.00001512,0.00001377,0.00003061,-0.00010571,0.00008160,0.00000
 715,0.00005089,-0.00003756,-0.00002961,0.00001819,-0.00002434,-0.00000
 157,0.00003593,-0.00001449\\\@


 ONLY A FOOL KNOWS EVERYTHING.

               -- THE CHEMIST ANALYST, SEPTEMBER 1946
 Job cpu time:       0 days  2 hours 22 minutes 38.2 seconds.
 Elapsed time:       0 days  0 hours  5 minutes 59.8 seconds.
 File lengths (MBytes):  RWF=    360 Int=      0 D2E=      0 Chk=     14 Scr=      1
 Normal termination of Gaussian 16 at Wed Oct 11 12:14:43 2023.
