          32
 Energy =  -1253.33545240 a.u.  #Cluster:    1
C           9.54909800     11.94159200     11.40795800
C           9.94576200     10.57099800     11.57160500
C          11.25803800     10.26035800     11.94457100
C          12.13145900     11.31325200     12.14934900
C          11.73071300     12.65917900     11.98990900
C          10.44275000     12.99570800     11.61504900
H          11.56274300      9.22186800     12.05753000
H          13.16078400     11.11029700     12.44314900
H          12.46331500     13.44570800     12.16967600
H          10.12339400     14.02710100     11.47977600
H           7.66445500     12.73157900     10.76455900
C           7.83993400     10.56747100     10.94119800
H           6.85648000     10.24461600     10.62577500
N           8.20656800     11.91167800     11.02453500
N           8.85117800      9.75210200     11.27836300
P           9.41381300      8.81612700      8.09069100
O           8.60824600     10.04554700      8.06453200
O           9.10923700      7.77639300      9.24323000
H           9.07446300      8.30175500     10.16682000
O           9.16512800      7.94790000      6.78003800
H           9.73589300      7.08973400      6.86635400
O          10.99585400      8.96347400      8.12532800
H          11.27348300      9.94603700      8.31307800
O          11.80003600     11.64312400      8.70156000
H          11.77757100     11.74231600      9.65856900
H          11.05075800     12.16126800      8.37782600
O           9.37141300     12.77951100      7.69817400
H           9.41234800     12.89963500      6.74985400
H           9.05899500     11.85917400      7.81793100
O           8.03245300     14.18574900      9.75806000
H           8.53968500     13.77879700      9.03609500
H           7.47396800     14.83997200      9.34887300
          32
 Energy =  -1253.32725360 a.u.  #Cluster:    2
C           9.95133300     12.10004000     11.43258600
C          10.67742900     10.86493900     11.51799500
C          10.45333500      9.98821800     12.58454600
C           9.51965400     10.36165000     13.53447300
C           8.81295700     11.58107200     13.44607000
C           9.01350500     12.46644100     12.40175600
H          10.99894100      9.04829800     12.64358900
H           9.31793000      9.70487700     14.38006400
H           8.09279100     11.82404200     14.22744400
H           8.47131400     13.40401000     12.32801700
H           9.93615500     13.52894300      9.83926000
C          11.32731000     11.86912500      9.67265800
H          11.82016600     12.09844400      8.73222700
N          10.39615500     12.72905200     10.26566200
N          11.52218900     10.76508600     10.40703900
P           9.91621400      8.91299500      7.93206600
O           8.55062700      9.35785900      8.20185200
O          10.76670700      8.34235200      9.13973400
H          11.34723400      9.12519200      9.55586900
O           9.91408100      7.70388500      6.90083800
H          10.88969900      7.38665000      6.78627900
O          10.90981200      9.97692900      7.27252500
H          10.46804400     10.90217300      7.21111600
O           9.88852200     12.67672200      7.19078100
H           9.40499500     12.72387200      6.36699800
H           9.24647400     12.91611200      7.87639800
O           7.25761700     11.10613600     10.22143100
H           7.71057300     10.83689800     11.02900400
H           7.56694700     10.47251300      9.55388000
O           8.17476100     13.46972200      9.30333900
H           7.82181700     12.61508200      9.66455600
H           7.42472000     14.05069200      9.22996100
          32
 Energy =  -1253.32713120 a.u.  #Cluster:    3
C           9.57639100     11.60853700     11.70791500
C          10.39341900     10.42931700     11.76367000
C          10.00384200      9.33965500     12.54813800
C           8.82065400      9.45133600     13.25748100
C           8.02762500     10.61759700     13.20466900
C           8.38776300     11.71043100     12.43464300
H          10.61952100      8.44290800     12.58369200
H           8.48524300      8.62250200     13.88016100
H           7.11034100     10.65184400     13.79251300
H           7.78222700     12.61005900     12.39290200
H           9.80283300     13.32816900     10.45385500
C          11.38346100     11.83732000     10.39514600
H          12.08134600     12.29106500      9.69984600
N          10.23394900     12.49501900     10.84826800
N          11.50647000     10.61666300     10.93570300
P          10.56688300      9.45430800      7.79668500
O           9.11496000      9.42299900      7.96032100
O          11.46490000      8.65482700      8.82628700
H          11.69090400      9.28608100      9.64917500
O          10.96925500      8.81141800      6.39930200
H          11.99654700      8.74428700      6.36234200
O          11.25446500     10.89563400      7.82920200
H          10.63198300     11.61728100      7.43350800
O           9.51044700     12.98223400      7.02571100
H           9.06991900     13.18064200      7.86569500
H           8.83267900     12.58669300      6.47557800
O           7.24305600     10.87848100      9.73702800
H           7.44136700     10.46610300     10.58587200
H           7.76882700     10.36724400      9.10017900
O           8.21825200     13.39185100      9.54510300
H           7.84912700     12.47694200      9.64630900
H           7.47136100     13.98057000      9.60311400
          32
 Energy =  -1253.32589860 a.u.  #Cluster:    4
C          10.07932700     12.00459200     11.50331500
C          10.72527600     10.73077200     11.65025100
C          10.41069000      9.90168600     12.73117900
C           9.47038700     10.36021100     13.63717400
C           8.84666800     11.61783400     13.49112700
C           9.13705900     12.45793600     12.42974100
H          10.89358400      8.93189300     12.83574200
H           9.19836600      9.74121800     14.49164000
H           8.11880700     11.92924100     14.24058200
H           8.66146100     13.42670500     12.31744900
H          10.20566000     13.38040400      9.86496200
C          11.50270100     11.63915100      9.80553300
H          12.04448400     11.80808600      8.88251700
N          10.60378700     12.57216100     10.33697300
N          11.60502800     10.54866800     10.57695900
P           9.85760500      8.89382700      8.09539100
O           8.53171600      9.07548400      8.67950500
O          10.99646200      8.23341000      8.97631100
H          11.39847400      8.96914300      9.62560700
O           9.78364400      7.92056100      6.83996000
H          10.74658600      7.72363700      6.53189000
O          10.59829300     10.21654900      7.58784200
H           9.94225200     10.85952100      7.12417700
O           9.08909300     12.40056200      6.54901500
H           9.63024300     13.03977100      6.09391200
H           8.85618800     12.81553400      7.39297300
O           7.34107000     11.38645400     10.09500500
H           7.68570900     11.15022600     10.96385200
H           7.60073600     10.63564900      9.53263600
O           8.56646700     13.56245200      9.09371100
H           8.11254500     12.75372000      9.45961500
H           7.90964600     14.25295700      9.13346200
          32
 Energy =  -1253.32167310 a.u.  #Cluster:    5
C          10.03136400     11.98788000     11.14871300
C          10.42343700     10.71303200     11.68063400
C           9.63957500     10.08453600     12.65252000
C           8.49225000     10.73638800     13.07046400
C           8.11173600     11.98784600     12.53915200
C           8.86628700     12.63030300     11.57240800
H           9.93961200      9.12045100     13.05734600
H           7.86157300     10.28287300     13.83426500
H           7.19544000     12.45373000     12.90218700
H           8.56544500     13.58786000     11.15195100
H          10.92811200     13.07656600      9.53107600
C          11.95096200     11.29607800     10.21183600
H          12.83182400     11.30558800      9.58128700
N          11.02868100     12.34912500     10.23500000
N          11.61686900     10.31541900     11.06410900
P          10.22065700      9.06402900      8.00079400
O           8.77448900      9.25214700      8.02296300
O          10.87739700      8.19791400      9.15352300
H          11.25266900      8.82856400      9.90932800
O          10.66759300      8.29671200      6.68491500
H          11.68054900      8.11332900      6.75075800
O          11.12228600     10.38632500      8.01041000
H          10.55775400     11.23397800      7.89880700
O           9.87144000     13.02763700      8.04729700
H           8.95238100     12.96786000      8.39698100
H           9.80894300     13.53026500      7.24090000
O           6.97044700     10.41619300     10.05422000
H           7.47410400     10.27601500     10.86413700
H           7.45168900      9.91203400      9.38253000
O           7.33202700     12.92347500      9.05046200
H           7.21882400     12.05040100      9.49652900
H           6.58359300     12.98546600      8.46251400
          32
 Energy =  -1253.32114190 a.u.  #Cluster:    6
C          10.83002100     11.97846200     11.20118300
C          11.14906300     10.65170300     11.64444400
C          10.54490200     10.12784600     12.79092400
C           9.64288200     10.93384600     13.46386100
C           9.33384600     12.23733800     13.02031900
C           9.91712600     12.78088300     11.88830400
H          10.78018800      9.11915400     13.12153300
H           9.14913600     10.55835800     14.35900400
H           8.61222700     12.82522900     13.58742800
H           9.66977500     13.77938600     11.53738400
H          11.41277500     12.94254900      9.37770400
C          12.29103800     11.00794000      9.79941400
H          12.94100000     10.88133800      8.94361700
N          11.58953900     12.19456100     10.04426000
N          12.05769000     10.08148200     10.74087200
P           9.50721200      9.25183200      8.54769300
O           8.42268900      9.80543300      9.35727800
O          10.46941400      8.17298700      9.18699100
H          11.10898700      8.66137200      9.87889700
O           8.92542500      8.49152200      7.27847600
H           9.71214700      8.05205600      6.77759400
O          10.54928800     10.30207000      7.94124400
H          10.20929300     11.26562000      8.03409600
O           9.92234500     13.14447700      8.35022100
H           9.66975100     13.76257700      7.67302100
H           9.12397200     13.04446300      8.93339200
O           5.95524500     11.10804000      8.48473700
H           6.05235000     11.05661100      7.53385200
H           6.53899400     10.40887900      8.81833100
O           7.76107400     12.77135300      9.89204900
H           7.06195700     12.32112300      9.37949000
H           8.05866100     12.08952400     10.51240300
          32
 Energy =  -1253.31972030 a.u.  #Cluster:    7
C          10.08137800     11.48327400     12.16156800
C          10.97874800     10.37396900     12.01149100
C          10.99923600      9.34949000     12.96164300
C          10.13017500      9.45441200     14.03432300
C           9.25246100     10.54981200     14.17592500
C           9.21150900     11.57828600     13.24917300
H          11.67673700      8.50688200     12.84471800
H          10.11560900      8.67432600     14.79415700
H           8.59087100     10.57904100     15.04128600
H           8.53879800     12.42083500     13.36053400
H           9.68046900     13.05030900     10.75456800
C          11.30764100     11.70329900     10.29165400
H          11.68095600     12.13162000      9.36786400
N          10.32277100     12.32801800     11.06956500
N          11.71739700     10.54866600     10.83202000
P           9.56961100      9.50578200      8.21669000
O           8.41775000     10.08481500      8.90910700
O          10.55516400      8.57400400      9.03335900
H          11.19870300      9.18293600      9.61478200
O           9.07896700      8.55888200      7.03476700
H           9.86521300      7.95432100      6.75850800
O          10.57440800     10.57246200      7.59252900
H          10.10921700     11.11319300      6.83687900
O           9.28668600     12.14922200      5.63595400
H           8.54851600     11.66318000      5.26726400
H           8.87508200     12.86199900      6.15589300
O           8.14099500     12.84159000      9.78705400
H           7.28727800     12.83435100     10.22276700
H           8.26947000     11.91090000      9.49097800
O           8.08120500     14.09268000      7.26186300
H           8.59159900     14.89116900      7.37163500
H           8.06539400     13.67629300      8.13949400
          32
 Energy =  -1253.31950130 a.u.  #Cluster:    8
C          10.21542600     12.00283900     11.13118900
C          10.70208000     10.73735100     11.60192900
C           9.96941200     10.00636500     12.54143600
C           8.77433900     10.54740900     12.98248000
C           8.29838600     11.78884900     12.50722300
C           9.00408200     12.53422800     11.57835000
H          10.33917200      9.04811300     12.89811000
H           8.17441400     10.00783200     13.71397800
H           7.34059500     12.15712300     12.87544800
H           8.62968900     13.48238500     11.19899800
H          11.01166400     13.22810500      9.56212700
C          12.15562500     11.48006600     10.12970500
H          13.00836800     11.56511900      9.46904900
N          11.17084700     12.47096500     10.22123600
N          11.90738100     10.44649700     10.94754100
P          10.19880100      9.36581600      8.09122200
O           8.85519500      9.66013800      8.57795600
O          11.13647400      8.42148700      8.95182000
H          11.51537100      8.96723600      9.77221700
O          10.15187300      8.61135400      6.69431700
H          11.12114500      8.37386400      6.42953300
O          11.14488700     10.63190600      7.84293300
H          10.59973500     11.50311500      7.86425300
O           9.87637200     13.25441700      8.14238600
H           8.97018300     13.08507500      8.49479800
H           9.75696600     13.82892100      7.39314900
O           6.92803000     10.40227400     10.23868700
H           7.78602800     10.21344800     10.65190500
H           6.86992900      9.75464600      9.52576500
O           7.34402100     12.87853800      9.09508200
H           7.26137900     12.00923400      9.55411000
H           6.63214500     12.87530600      8.46108000
          32
 Energy =  -1253.30135640 a.u.  #Cluster:    9
C           9.89160000     12.16169100     12.20336200
C          10.37286500     11.03609700     11.45086800
C          10.29276500      9.73525300     11.98654500
C           9.75042600      9.59942300     13.25157200
C           9.28750300     10.71984500     13.99403700
C           9.34685800     12.00799100     13.49104300
H          10.63580800      8.88021100     11.40544000
H           9.66434800      8.60928100     13.70027800
H           8.87025500     10.54569100     14.98657800
H           8.98689700     12.86275700     14.05488200
H           9.81578400     14.23075000     11.59357800
C          10.65564500     12.82336600     10.17495200
H          10.87138800     13.47582900      9.33186500
N          10.08724900     13.28894500     11.37828900
N          10.84528900     11.48930200     10.20157100
P           9.52385200      9.19770200      7.90913100
O           8.56555400      9.50277200      8.99512500
O          10.94342500     10.01214400      7.97117400
H          11.20799200     10.45878500      8.90077300
O           9.93432100      7.61590400      7.82640600
H          10.32143100      7.30403800      6.96341500
O           9.11262200      9.55192700      6.39089700
H           9.49468100     10.51217700      6.01114500
O          10.24127700     11.82755100      6.19490100
H           9.71221200     12.34595800      6.87348200
H          11.03834200     11.52582600      6.68292500
O           7.41707800     11.47892900      9.75432700
H           7.06476800     10.77158300      9.16662300
H           8.05572600     10.97880800     10.31132300
O           8.85845900     13.01547400      8.20236300
H           8.38915700     12.31913700      8.79897300
H           8.15443500     13.56487100      7.87217300
          32
 Energy =  -1253.29778900 a.u.  #Cluster:   10
C          10.45657900     12.22924500     11.31106400
C          10.67359000     10.82773400     11.55212000
C           9.95744500     10.16616300     12.56919100
C           9.04978700     10.90970000     13.30201900
C           8.83311700     12.29185100     13.04758000
C           9.52379700     12.97043700     12.05879200
H          10.13161000      9.10883800     12.75876100
H           8.47286600     10.43427700     14.09558200
H           8.09337800     12.81890900     13.65125100
H           9.36065400     14.02607800     11.86369600
H          11.31940500     13.45133300      9.75368700
C          12.01322500     11.40291200      9.89410200
H          12.74188400     11.37435600      9.08841200
N          11.33662900     12.58188800     10.26881600
N          11.64043600     10.34507900     10.64568300
P           9.77771200      9.48799800      8.13848100
O           8.62028500     10.06939700      8.88350900
O          10.71769800      8.36783700      8.84683700
H          11.29881200      8.65379300      9.64447500
O           9.30752100      8.59557100      6.84881300
H           9.92892200      7.87016200      6.56161200
O          10.76005900     10.62283300      7.57304200
H          10.42199400     11.68558000      7.69322200
O           9.93437000     13.00246200      8.05112400
H           9.68844800     13.42099200      7.22459700
H           8.97656300     12.77581900      8.52405200
O           7.16449300     10.78920500     10.63054700
H           8.09190700     10.55057700     10.83043500
H           6.89420600     10.11455200      9.98035200
O           7.58690000     12.38531900      8.68788200
H           7.46954100     12.11407100      9.67117000
H           7.55617800     11.50504700      8.23910900
          32
 Energy =  -1253.29703020 a.u.  #Cluster:   11
C           9.73516300     12.20752200     11.61298900
C          10.17824800     10.91081800     11.18169500
C          11.41069000     10.39354100     11.62868400
C          12.15591800     11.17644000     12.49044200
C          11.70784800     12.45622200     12.91877200
C          10.50457000     12.99060600     12.49311400
H          11.75071100      9.41696700     11.27567600
H          13.11713500     10.81457500     12.85743400
H          12.34114900     13.02416200     13.60137000
H          10.16052300     13.96814700     12.81847500
H           7.96820200     13.29185800     10.96041200
C           8.22878400     11.29529200     10.19573000
H           7.33756500     11.19706500      9.57120000
N           8.48992200     12.42033900     10.98715600
N           9.21846600     10.36902600     10.29611300
P           9.51237600      8.86509800      8.59200800
O           8.60119600      9.84970700      7.91661300
O           9.05286900      7.83877800      9.79577400
H           8.88935300      8.19593400     10.70272100
O           9.69948800      7.61040300      7.52987000
H           9.94632200      6.73562700      7.91960600
O          11.06873200      9.23943500      8.84181900
H          11.39605700     10.21542200      8.58955300
O          11.63352800     11.78935500      8.46401300
H          11.54898700     12.11629800      9.36295700
H          10.85161100     12.16602000      7.96506400
O           9.26396100     12.31408000      7.38062000
H           9.26645000     12.35039500      6.42538700
H           8.91353800     11.35565300      7.59521000
O           7.56039600     13.77815800      8.93882300
H           8.20828800     13.42484200      8.28410700
H           6.91197000     14.26222900      8.44661200
          32
 Energy =  -1253.26665180 a.u.  #Cluster:   12
C          10.08270800     12.24551700     11.60910000
C          10.23585200     10.88206700     11.18347600
C           9.79540100      9.82680300     12.00750100
C           9.22174600     10.16067200     13.22063900
C           9.07652600     11.51253000     13.63571500
C           9.49885700     12.56868100     12.84751800
H           9.89547400      8.79268100     11.67172400
H           8.86399000      9.37351500     13.88537600
H           8.61487600     11.71016900     14.60381800
H           9.38783100     13.60260000     13.16133300
H          10.50423600     14.04210500     10.47069300
C          11.04845600     12.16625800      9.56795700
H          11.49630700     12.50343300      8.63394700
N          10.62479300     13.04043900     10.57719900
N          10.83976800     10.86647500      9.90388800
P          10.42222900      9.27762700      8.30242200
O           9.21372500      9.01923600      9.13374800
O          11.97263100      8.90225500      8.70454600
H          12.38608500      9.33162800      9.49593500
O          10.43467500      8.17944000      7.06168700
H          11.31654300      7.95486000      6.67703600
O          10.41543200     10.64747000      7.39699700
H           9.54767500     11.22222000      7.45903900
O           8.16341000     12.01228400      7.95887100
H           7.83190100     11.37456400      8.73126800
H           7.51020200     11.90025400      7.26924900
O           7.22463500     10.26728600      9.60363200
H           7.36185200      9.45069500      9.05315400
H           7.92619100     10.15741300     10.28771300
O           9.12276900     14.18498100      8.70820400
H           8.32830900     13.68356600      8.95469200
H           9.31493300     13.90030100      7.81193300
