 Entering Gaussian System, Link 0=g16
 Initial command:
 /data0/home/software/g16/l1.exe "/data0/home/software/g16/scratch/Gau-321577.inp" -scrdir="/data0/home/software/g16/scratch/"
 Default is to use a total of  22 processors:
                               22 via shared-memory
                                1 via Linda
 Entering Link 1 = /data0/home/software/g16/l1.exe PID=    321578.
  
 Copyright (c) 1988,1990,1992,1993,1995,1998,2003,2009,2016,
            Gaussian, Inc.  All Rights Reserved.
  
 This is part of the Gaussian(R) 16 program.  It is based on
 the Gaussian(R) 09 system (copyright 2009, Gaussian, Inc.),
 the Gaussian(R) 03 system (copyright 2003, Gaussian, Inc.),
 the Gaussian(R) 98 system (copyright 1998, Gaussian, Inc.),
 the Gaussian(R) 94 system (copyright 1995, Gaussian, Inc.),
 the Gaussian 92(TM) system (copyright 1992, Gaussian, Inc.),
 the Gaussian 90(TM) system (copyright 1990, Gaussian, Inc.),
 the Gaussian 88(TM) system (copyright 1988, Gaussian, Inc.),
 the Gaussian 86(TM) system (copyright 1986, Carnegie Mellon
 University), and the Gaussian 82(TM) system (copyright 1983,
 Carnegie Mellon University). Gaussian is a federally registered
 trademark of Gaussian, Inc.
  
 This software contains proprietary and confidential information,
 including trade secrets, belonging to Gaussian, Inc.
  
 This software is provided under written license and may be
 used, copied, transmitted, or stored only in accord with that
 written license.
  
 The following legend is applicable only to US Government
 contracts under FAR:
  
                    RESTRICTED RIGHTS LEGEND
  
 Use, reproduction and disclosure by the US Government is
 subject to restrictions as set forth in subparagraphs (a)
 and (c) of the Commercial Computer Software - Restricted
 Rights clause in FAR 52.227-19.
  
 Gaussian, Inc.
 340 Quinnipiac St., Bldg. 40, Wallingford CT 06492
  
  
 ---------------------------------------------------------------
 Warning -- This program may not be used in any manner that
 competes with the business of Gaussian, Inc. or will provide
 assistance to any competitor of Gaussian, Inc.  The licensee
 of this program is prohibited from giving any competitor of
 Gaussian, Inc. access to this program.  By using this program,
 the user acknowledges that Gaussian, Inc. is engaged in the
 business of creating and licensing software in the field of
 computational chemistry and represents and warrants to the
 licensee that it is not a competitor of Gaussian, Inc. and that
 it will not use this program in any manner prohibited above.
 ---------------------------------------------------------------
  

 Cite this work as:
 Gaussian 16, Revision A.03,
 M. J. Frisch, G. W. Trucks, H. B. Schlegel, G. E. Scuseria, 
 M. A. Robb, J. R. Cheeseman, G. Scalmani, V. Barone, 
 G. A. Petersson, H. Nakatsuji, X. Li, M. Caricato, A. V. Marenich, 
 J. Bloino, B. G. Janesko, R. Gomperts, B. Mennucci, H. P. Hratchian, 
 J. V. Ortiz, A. F. Izmaylov, J. L. Sonnenberg, D. Williams-Young, 
 F. Ding, F. Lipparini, F. Egidi, J. Goings, B. Peng, A. Petrone, 
 T. Henderson, D. Ranasinghe, V. G. Zakrzewski, J. Gao, N. Rega, 
 G. Zheng, W. Liang, M. Hada, M. Ehara, K. Toyota, R. Fukuda, 
 J. Hasegawa, M. Ishida, T. Nakajima, Y. Honda, O. Kitao, H. Nakai, 
 T. Vreven, K. Throssell, J. A. Montgomery, Jr., J. E. Peralta, 
 F. Ogliaro, M. J. Bearpark, J. J. Heyd, E. N. Brothers, K. N. Kudin, 
 V. N. Staroverov, T. A. Keith, R. Kobayashi, J. Normand, 
 K. Raghavachari, A. P. Rendell, J. C. Burant, S. S. Iyengar, 
 J. Tomasi, M. Cossi, J. M. Millam, M. Klene, C. Adamo, R. Cammi, 
 J. W. Ochterski, R. L. Martin, K. Morokuma, O. Farkas, 
 J. B. Foresman, and D. J. Fox, Gaussian, Inc., Wallingford CT, 2016.
 
 ******************************************
 Gaussian 16:  ES64L-G16RevA.03 25-Dec-2016
                19-Feb-2023 
 ******************************************
 %nproc=24
 Will use up to   24 processors via shared memory.
 %mem=50GB
 ---------------------------------------------------
 #p M062X/6-311+G(2d,p) nosymm em=GD3 counterpoise=2
 ---------------------------------------------------
 1/38=1,62=2,172=1/1;
 2/12=2,15=1,17=6,18=5,40=1/2;
 1/38=1,53=2,62=2,63=1/22;
 3/5=4,6=6,7=112,11=2,25=1,30=1,74=-55,124=31/1,2,3;
 4//1;
 5/5=2,38=5/2;
 6/7=2,8=2,9=2,10=2,28=1/1;
 1/53=2,62=2,63=1/22;
 3/5=7,6=11,7=112,11=2,25=1,30=1,74=-55,82=7,124=31/1,2,3;
 4//1;
 5/5=2,38=5/2;
 6/7=2,8=2,9=2,10=2,28=1/1;
 1/53=2,62=2,63=1/22(-4);
 99/5=1,9=1/99;
 Leave Link    1 at Sun Feb 19 21:30:36 2023, MaxMem=  6710886400 cpu:               0.7 elap:               0.0
 (Enter /data0/home/software/g16/l101.exe)
 -------------------
 Title Card Required
 -------------------
 Symbolic Z-matrix:
 Charge =  0 Multiplicity = 1 in supermolecule
 Charge =  0 Multiplicity = 1 in fragment      1.
 Charge =  0 Multiplicity = 1 in fragment      2.
 C                     9.97747   11.74954   8.16678    
 C                     11.11728   11.49661   7.38953    
 C                     11.54792   10.19652   7.19231    
 C                     10.80485   9.13618   7.7378     
 C                     9.67255   9.4243    8.49586    
 H                     12.46429   9.9893    6.63701    
 H                     9.63752   12.78852   8.3404     
 H                     11.67347   12.3541   6.99127    
 H                     9.08358   8.62203   8.96622    
 C                     11.24838   7.73126   7.56414    
 H                     11.47009   7.48184   6.51879    
 H                     12.17481   7.55429   8.15102    
 H                     10.52301   6.99472   7.94005    
 N                     9.28983   10.72053   8.72134    
 C                     8.11426   10.94757   9.59682    
 H                     7.20706   10.93478   8.94952    
 H                     8.02992   10.07773   10.30418    
 C                     8.14592   12.24375   10.42776    
 H                     8.46902   13.11558   9.81923    
 H                     7.09431   12.48479   10.7039    
 C                     8.97326   12.12471   11.70015    
 H                     8.97391   11.08726   12.0899    
 H                     8.52368   12.72813   12.51108    
 S                     10.68643   12.67828   11.50572    
 O                     11.40083   12.10488   12.65968    
 O                     10.62574   14.13484   11.36554    
 O                     11.14407   12.06371   10.19198    
 P                     11.49362   8.8588    11.38521    
 O                     10.03453   8.80242   11.23886    
 O                     12.1073   7.3853    11.30776    
 H                     13.10932   7.45866   11.54005    
 O                     12.25034   9.59569   10.19867    
 H                     11.90273   10.60572   10.14787    
 O                     12.07916   9.41754   12.74143    
 H                     11.86867   10.46333   12.79807    
 
 ITRead=  0  0  0  0  0  0  0  0  0  0  0  0  0  0  0  0  0  0  0  0
 ITRead=  0  0  0  0  0  0  0  0  0  0  0  0  0  0  0
 MicOpt= -1 -1 -1 -1 -1 -1 -1 -1 -1 -1 -1 -1 -1 -1 -1 -1 -1 -1 -1 -1
 MicOpt= -1 -1 -1 -1 -1 -1 -1 -1 -1 -1 -1 -1 -1 -1 -1
 NAtoms=     35 NQM=       35 NQMF=       0 NMMI=      0 NMMIF=      0
                NMic=       0 NMicF=      0.
                    Isotopes and Nuclear Properties:
 (Nuclear quadrupole moments (NQMom) in fm**2, nuclear magnetic moments (NMagM)
  in nuclear magnetons)

  Atom         1           2           3           4           5           6           7           8           9          10
 IAtWgt=          12          12          12          12          12           1           1           1           1          12
 AtmWgt=  12.0000000  12.0000000  12.0000000  12.0000000  12.0000000   1.0078250   1.0078250   1.0078250   1.0078250  12.0000000
 NucSpn=           0           0           0           0           0           1           1           1           1           0
 AtZEff=  -0.0000000  -0.0000000  -0.0000000  -0.0000000  -0.0000000  -0.0000000  -0.0000000  -0.0000000  -0.0000000  -0.0000000
 NQMom=    0.0000000   0.0000000   0.0000000   0.0000000   0.0000000   0.0000000   0.0000000   0.0000000   0.0000000   0.0000000
 NMagM=    0.0000000   0.0000000   0.0000000   0.0000000   0.0000000   2.7928460   2.7928460   2.7928460   2.7928460   0.0000000
 AtZNuc=   6.0000000   6.0000000   6.0000000   6.0000000   6.0000000   1.0000000   1.0000000   1.0000000   1.0000000   6.0000000

  Atom        11          12          13          14          15          16          17          18          19          20
 IAtWgt=           1           1           1          14          12           1           1          12           1           1
 AtmWgt=   1.0078250   1.0078250   1.0078250  14.0030740  12.0000000   1.0078250   1.0078250  12.0000000   1.0078250   1.0078250
 NucSpn=           1           1           1           2           0           1           1           0           1           1
 AtZEff=  -0.0000000  -0.0000000  -0.0000000  -0.0000000  -0.0000000  -0.0000000  -0.0000000  -0.0000000  -0.0000000  -0.0000000
 NQMom=    0.0000000   0.0000000   0.0000000   2.0440000   0.0000000   0.0000000   0.0000000   0.0000000   0.0000000   0.0000000
 NMagM=    2.7928460   2.7928460   2.7928460   0.4037610   0.0000000   2.7928460   2.7928460   0.0000000   2.7928460   2.7928460
 AtZNuc=   1.0000000   1.0000000   1.0000000   7.0000000   6.0000000   1.0000000   1.0000000   6.0000000   1.0000000   1.0000000

  Atom        21          22          23          24          25          26          27          28          29          30
 IAtWgt=          12           1           1          32          16          16          16          31          16          16
 AtmWgt=  12.0000000   1.0078250   1.0078250  31.9720718  15.9949146  15.9949146  15.9949146  30.9737634  15.9949146  15.9949146
 NucSpn=           0           1           1           0           0           0           0           1           0           0
 AtZEff=  -0.0000000  -0.0000000  -0.0000000  -0.0000000  -0.0000000  -0.0000000  -0.0000000  -0.0000000  -0.0000000  -0.0000000
 NQMom=    0.0000000   0.0000000   0.0000000   0.0000000   0.0000000   0.0000000   0.0000000   0.0000000   0.0000000   0.0000000
 NMagM=    0.0000000   2.7928460   2.7928460   0.0000000   0.0000000   0.0000000   0.0000000   1.1316000   0.0000000   0.0000000
 AtZNuc=   6.0000000   1.0000000   1.0000000  16.0000000   8.0000000   8.0000000   8.0000000  15.0000000   8.0000000   8.0000000

  Atom        31          32          33          34          35
 IAtWgt=           1          16           1          16           1
 AtmWgt=   1.0078250  15.9949146   1.0078250  15.9949146   1.0078250
 NucSpn=           1           0           1           0           1
 AtZEff=  -0.0000000  -0.0000000  -0.0000000  -0.0000000  -0.0000000
 NQMom=    0.0000000   0.0000000   0.0000000   0.0000000   0.0000000
 NMagM=    2.7928460   0.0000000   2.7928460   0.0000000   2.7928460
 AtZNuc=   1.0000000   8.0000000   1.0000000   8.0000000   1.0000000
 Leave Link  101 at Sun Feb 19 21:30:36 2023, MaxMem=  6710886400 cpu:               2.2 elap:               0.1
 (Enter /data0/home/software/g16/l202.exe)
                          Input orientation:                          
 ---------------------------------------------------------------------
 Center     Atomic      Atomic             Coordinates (Angstroms)
 Number     Number       Type             X           Y           Z
 ---------------------------------------------------------------------
      1          6           0        9.977465   11.749537    8.166783
      2          6           0       11.117282   11.496610    7.389534
      3          6           0       11.547922   10.196520    7.192314
      4          6           0       10.804848    9.136180    7.737804
      5          6           0        9.672547    9.424304    8.495859
      6          1           0       12.464286    9.989296    6.637009
      7          1           0        9.637520   12.788522    8.340403
      8          1           0       11.673474   12.354095    6.991267
      9          1           0        9.083580    8.622034    8.966220
     10          6           0       11.248377    7.731261    7.564135
     11          1           0       11.470085    7.481835    6.518789
     12          1           0       12.174807    7.554285    8.151022
     13          1           0       10.523010    6.994715    7.940054
     14          7           0        9.289825   10.720533    8.721341
     15          6           0        8.114261   10.947570    9.596817
     16          1           0        7.207059   10.934775    8.949523
     17          1           0        8.029916   10.077731   10.304178
     18          6           0        8.145921   12.243752   10.427760
     19          1           0        8.469018   13.115581    9.819231
     20          1           0        7.094307   12.484788   10.703898
     21          6           0        8.973260   12.124712   11.700145
     22          1           0        8.973910   11.087255   12.089903
     23          1           0        8.523681   12.728134   12.511081
     24         16           0       10.686427   12.678278   11.505715
     25          8           0       11.400826   12.104885   12.659682
     26          8           0       10.625744   14.134838   11.365538
     27          8           0       11.144066   12.063713   10.191980
     28         15           0       11.493624    8.858800   11.385212
     29          8           0       10.034529    8.802420   11.238856
     30          8           0       12.107304    7.385295   11.307759
     31          1           0       13.109323    7.458661   11.540046
     32          8           0       12.250340    9.595688   10.198666
     33          1           0       11.902725   10.605720   10.147873
     34          8           0       12.079160    9.417538   12.741428
     35          1           0       11.868671   10.463332   12.798073
 ---------------------------------------------------------------------
                    Distance matrix (angstroms):
                    1          2          3          4          5
     1  C    0.000000
     2  C    1.402594   0.000000
     3  C    2.414081   1.383684   0.000000
     4  C    2.774567   2.406353   1.405005   0.000000
     5  C    2.368116   2.757837   2.410929   1.392756   0.000000
     6  H    3.409243   2.157014   1.091342   2.166400   3.401227
     7  H    1.106886   2.182403   3.418511   3.881415   3.367990
     8  H    2.150296   1.096926   2.170556   3.415671   3.853723
     9  H    3.349538   3.858117   3.420341   2.176262   1.100799
    10  C    4.257340   3.771674   2.511071   1.483468   2.493541
    11  H    4.812180   4.123237   2.798072   2.159953   3.303503
    12  H    4.735895   4.152126   2.879846   2.133056   3.142800
    13  H    4.791384   4.574198   3.443997   2.169380   2.633460
    14  N    1.356183   2.390733   2.776962   2.402668   1.370229
    15  C    2.481870   3.767184   4.258608   3.738492   2.441455
    16  H    2.991934   4.247242   4.740875   4.200868   2.926767
    17  H    3.340111   4.476628   4.698316   3.895259   2.528877
    18  C    2.951410   4.314861   5.121804   4.895177   3.743276
    19  H    2.621464   3.941801   4.990116   5.062023   4.101868
    20  H    3.910262   5.305265   6.115724   5.811971   4.570484
    21  C    3.692402   4.855173   5.537811   5.290197   4.248371
    22  H    4.103244   5.182189   5.604045   5.108796   4.021275
    23  H    4.684449   5.871428   6.621509   6.394531   5.325147
    24  S    3.537464   4.304059   5.050418   5.172778   4.547036
    25  O    4.726349   5.312707   5.792720   5.778692   5.244987
    26  O    4.042519   4.796922   5.811760   6.178925   5.597568
    27  O    2.358196   2.859375   3.556333   3.835166   3.465353
    28  P    4.584036   4.802616   4.401458   3.722222   3.461860
    29  O    4.257510   4.821648   4.539645   3.600299   2.835807
    30  O    5.783472   5.765027   5.015255   4.184085   4.241743
    31  H    6.292778   6.123725   5.369974   4.752023   4.994222
    32  O    3.732770   3.576108   3.145241   2.890750   3.094179
    33  H    2.989927   3.003172   3.004773   3.028748   3.016387
    34  O    5.548218   5.821556   5.628649   5.171004   4.880234
    35  H    5.165252   5.557386   5.621263   5.338481   4.940808
                    6          7          8          9         10
     6  H    0.000000
     7  H    4.327566   0.000000
     8  H    2.518562   2.480726   0.000000
     9  H    4.327101   4.249485   4.953410   0.000000
    10  C    2.727035   5.364079   4.677551   2.728675   0.000000
    11  H    2.699958   5.902330   4.899339   3.603523   1.097322
    12  H    2.881894   5.819873   4.963320   3.370507   1.110869
    13  H    3.799210   5.874740   5.562977   2.402736   1.099987
    14  N    3.867344   2.131334   3.368006   2.122781   3.756434
    15  C    5.348034   2.699629   4.629816   2.597181   4.929414
    16  H    5.820660   3.116817   5.079183   2.978318   5.339855
    17  H    5.754962   3.713380   5.425194   2.240400   4.834485
    18  C    6.172572   2.622728   4.925981   4.016484   6.179657
    19  H    5.988519   1.912929   4.341173   4.614897   6.465384
    20  H    7.183574   3.485154   5.896565   4.679487   7.050562
    21  C    6.510193   3.488517   5.432983   4.444690   6.448655
    22  H    6.566757   4.170544   5.906659   3.980796   6.076057
    23  H    7.585138   4.317272   6.366274   5.453401   7.540887
    24  S    5.839153   3.336399   4.632450   5.046907   6.350183
    25  O    6.471418   4.715165   5.680438   5.580461   6.716876
    26  O    6.551698   3.455517   4.837668   6.206932   7.472893
    27  O    4.322500   2.494668   3.257170   4.194430   5.068194
    28  P    4.976509   5.306477   5.617489   3.422849   3.991506
    29  O    5.337545   4.944457   5.774301   2.470165   4.015518
    30  O    5.359493   6.640775   6.596157   4.019358   3.856445
    31  H    5.555174   7.120291   6.835081   4.917786   4.398329
    32  O    3.589722   4.524838   4.269542   3.534868   3.379463
    33  H    3.608531   3.628047   3.615734   3.644021   3.919998
    34  O    6.143221   6.057570   6.469335   4.884519   5.508003
    35  H    6.207912   5.500488   6.109999   5.082343   5.936589
                   11         12         13         14         15
    11  H    0.000000
    12  H    1.779344   0.000000
    13  H    1.776016   1.756718   0.000000
    14  N    4.482626   4.321286   4.001609   0.000000
    15  C    5.722511   5.485685   4.916503   1.483224   0.000000
    16  H    6.000388   6.061669   5.247726   2.106153   1.114526
    17  H    5.736080   5.308859   4.616231   2.122719   1.124319
    18  C    7.000427   6.588365   6.276275   2.557455   1.539986
    19  H    7.185987   6.887946   6.724224   2.759591   2.208074
    20  H    7.854432   7.525856   7.038163   3.444333   2.151505
    21  C    7.391677   6.613243   6.546517   3.308354   2.558814
    22  H    7.089940   6.184044   6.030741   3.403160   2.640831
    23  H    8.491909   7.688273   7.600243   4.356555   3.439617
    24  S    7.244762   6.302741   6.711448   3.679130   3.640780
    25  O    7.686869   6.452521   7.011368   4.677957   4.639184
    26  O    8.274439   7.485746   7.919965   4.520391   4.426579
    27  O    5.881516   5.055974   5.581364   2.721235   3.283247
    28  P    5.057535   3.553274   4.035594   3.926702   4.356766
    29  O    5.107230   3.958958   3.793218   3.251403   3.314421
    30  O    4.832143   3.161978   3.742189   5.074599   5.617964
    31  H    5.282108   3.516809   4.456928   5.759642   6.395254
    32  O    4.314935   2.892383   3.853577   3.494627   4.392830
    33  H    4.807919   3.656870   4.451678   2.979165   3.843564
    34  O    6.545163   4.955067   5.598649   5.063525   5.286776
    35  H    6.962586   5.491025   6.119024   4.830770   4.957633
                   16         17         18         19         20
    16  H    0.000000
    17  H    1.801862   0.000000
    18  C    2.186336   2.172643   0.000000
    19  H    2.665492   3.107494   1.111209   0.000000
    20  H    2.343733   2.613248   1.113662   1.752246   0.000000
    21  C    3.478698   2.651180   1.522374   2.184930   2.156995
    22  H    3.606522   2.258114   2.187640   3.086256   2.721583
    23  H    4.199324   3.484087   2.171993   2.720140   2.316946
    24  S    4.656170   3.906864   2.793738   2.819994   3.685604
    25  O    5.720325   4.584843   3.949072   4.205374   4.745053
    26  O    5.269245   4.932031   3.256556   2.842783   3.953667
    27  O    4.279980   3.695219   3.012786   2.898491   4.103646
    28  P    5.349476   3.827754   4.856102   5.451672   5.741600
    29  O    4.216938   2.553138   4.008426   4.803074   4.742459
    30  O    6.494035   4.988134   6.330210   6.949030   7.176323
    31  H    7.323312   5.846988   6.983526   7.516274   7.882989
    32  O    5.365463   4.249174   4.889886   5.179963   5.931849
    33  H    4.857324   3.911758   4.107927   4.265882   5.192393
    34  O    6.357509   4.772046   5.367580   5.936993   6.197444
    35  H    6.063351   4.593935   4.758902   5.240760   5.591637
                   21         22         23         24         25
    21  C    0.000000
    22  H    1.108255   0.000000
    23  H    1.106281   1.752878   0.000000
    24  S    1.810850   2.409428   2.385522   0.000000
    25  O    2.610399   2.692608   2.947624   1.473359   0.000000
    26  O    2.623599   3.541331   2.776644   1.464547   2.529085
    27  O    2.643990   3.043872   3.561756   1.520863   2.481365
    28  P    4.137342   3.436795   5.005985   3.905701   3.488546
    29  O    3.518054   2.658884   4.394593   3.939348   3.846010
    30  O    5.695461   4.912679   6.544942   5.483954   4.959973
    31  H    6.237362   5.529076   7.052543   5.754651   5.075426
    32  O    4.403369   4.066515   5.389570   3.695479   3.615846
    33  H    3.646731   3.547015   4.637600   2.760183   2.967926
    34  O    4.249668   3.585389   4.863593   3.754879   2.772842
    35  H    3.514119   3.044737   4.049772   2.823805   1.712521
                   26         27         28         29         30
    26  O    0.000000
    27  O    2.436279   0.000000
    28  P    5.346979   3.437653   0.000000
    29  O    5.366588   3.600424   1.467500   0.000000
    30  O    6.910477   4.905139   1.598067   2.511849   0.000000
    31  H    7.125304   5.185173   2.143559   3.369089   1.031204
    32  O    4.960321   2.704632   1.588557   2.573147   2.477173
    33  H    3.945638   1.644157   2.179473   2.816432   3.429041
    34  O    5.124296   3.791613   1.579355   2.610864   2.487209
    35  H    4.132430   3.142927   2.170567   2.924699   3.428162
                   31         32         33         34         35
    31  H    0.000000
    32  O    2.665340   0.000000
    33  H    3.646643   1.069383   0.000000
    34  O    2.518284   2.554737   2.858222   0.000000
    35  H    3.485670   2.766838   2.654241   1.068269   0.000000
 Symmetry turned off by external request.
 Stoichiometry    C9H16NO7PS
 Framework group  C1[X(C9H16NO7PS)]
 Deg. of freedom    99
 Full point group                 C1      NOp   1
 Rotational constants (GHZ):           0.4122132           0.3281653           0.2370140
 Leave Link  202 at Sun Feb 19 21:30:36 2023, MaxMem=  6710886400 cpu:               0.1 elap:               0.0
 (Enter /data0/home/software/g16/l122.exe)
 Counterpoise: doing full-system calculation.
 Leave Link  122 at Sun Feb 19 21:30:36 2023, MaxMem=  6710886400 cpu:               0.0 elap:               0.0
 (Enter /data0/home/software/g16/l301.exe)
 Standard basis: 6-311+G(2d,p) (5D, 7F)
 Ernie: Thresh=  0.10000D-02 Tol=  0.10000D-05 Strict=F.
   625 basis functions,   954 primitive gaussians,   663 cartesian basis functions
    82 alpha electrons       82 beta electrons
       nuclear repulsion energy      2087.4993482568 Hartrees.
 IExCor= 4336 DFT=T Ex+Corr=M062X ExCW=0 ScaHFX=  0.540000
 ScaDFX=  1.000000  1.000000  1.000000  1.000000 ScalE2=  1.000000  1.000000
 IRadAn=      5 IRanWt=     -1 IRanGd=            0 ICorTp=0 IEmpDi=131
 NAtoms=   35 NActive=   35 NUniq=   35 SFac= 1.00D+00 NAtFMM=   60 NAOKFM=F Big=F
 Integral buffers will be    131072 words long.
 Raffenetti 2 integral format.
 Two-electron integral symmetry is turned off.
 R6Disp:  Grimme-D3 Dispersion energy=       -0.0027784699 Hartrees.
 Nuclear repulsion after empirical dispersion term =     2087.4965697869 Hartrees.
 Leave Link  301 at Sun Feb 19 21:30:36 2023, MaxMem=  6710886400 cpu:               1.1 elap:               0.1
 (Enter /data0/home/software/g16/l302.exe)
 NPDir=0 NMtPBC=     1 NCelOv=     1 NCel=       1 NClECP=     1 NCelD=      1
         NCelK=      1 NCelE2=     1 NClLst=     1 CellRange=     0.0.
 One-electron integrals computed using PRISM.
 NBasis=   625 RedAO= T EigKep=  1.99D-06  NBF=   625
 NBsUse=   625 1.00D-06 EigRej= -1.00D+00 NBFU=   625
 Precomputing XC quadrature grid using
 IXCGrd= 4 IRadAn=           5 IRanWt=          -1 IRanGd=           0 AccXCQ= 0.00D+00.
 Generated NRdTot=       0 NPtTot=           0 NUsed=           0 NTot=          32
 NSgBfM=   663   663   663   663   663 MxSgAt=    35 MxSgA2=    35.
 Leave Link  302 at Sun Feb 19 21:30:37 2023, MaxMem=  6710886400 cpu:              17.9 elap:               0.8
 (Enter /data0/home/software/g16/l303.exe)
 DipDrv:  MaxL=1.
 Leave Link  303 at Sun Feb 19 21:30:37 2023, MaxMem=  6710886400 cpu:               1.6 elap:               0.1
 (Enter /data0/home/software/g16/l401.exe)
 ExpMin= 3.48D-02 ExpMax= 9.34D+04 ExpMxC= 3.17D+03 IAcc=3 IRadAn=         5 AccDes= 0.00D+00
 Harris functional with IExCor= 1009 and IRadAn=       5 diagonalized for initial guess.
 HarFok:  IExCor= 1009 AccDes= 0.00D+00 IRadAn=         5 IDoV= 1 UseB2=F ITyADJ=14
 ICtDFT=  3500011 ScaDFX=  1.000000  1.000000  1.000000  1.000000
 FoFCou: FMM=F IPFlag=           0 FMFlag=      100000 FMFlg1=           0
         NFxFlg=           0 DoJE=T BraDBF=F KetDBF=T FulRan=T
         wScrn=  0.000000 ICntrl=       500 IOpCl=  0 I1Cent=   200000004 NGrid=           0
         NMat0=    1 NMatS0=      1 NMatT0=    0 NMatD0=    1 NMtDS0=    0 NMtDT0=    0
 Symmetry not used in FoFCou.
 Harris En= -1672.83171773266    
 JPrj=0 DoOrth=F DoCkMO=F.
 Leave Link  401 at Sun Feb 19 21:30:40 2023, MaxMem=  6710886400 cpu:              66.9 elap:               2.8
 (Enter /data0/home/software/g16/l502.exe)
 Two-electron integral symmetry not used.
 Closed shell SCF:
 Using DIIS extrapolation, IDIIS=  1040.
 NGot=  6710886400 LenX=  6709986778 LenY=  6709546546
 Requested convergence on RMS density matrix=1.00D-08 within 128 cycles.
 Requested convergence on MAX density matrix=1.00D-06.
 Requested convergence on             energy=1.00D-06.
 No special actions if energy rises.
 Fock matrices will be formed incrementally for  20 cycles.

 Cycle   1  Pass 1  IDiag  1:
 FoFJK:  IHMeth= 1 ICntrl=       0 DoSepK=F KAlg= 0 I1Cent=           0 FoldK=F
 IRaf= 860000000 NMat=       1 IRICut=       1 DoRegI=T DoRafI=F ISym2E= 0 IDoP0=0 IntGTp=1.
 FoFCou: FMM=F IPFlag=           0 FMFlag=      100000 FMFlg1=           0
         NFxFlg=           0 DoJE=F BraDBF=F KetDBF=F FulRan=T
         wScrn=  0.000000 ICntrl=         0 IOpCl=  0 I1Cent=           0 NGrid=           0
         NMat0=    1 NMatS0=      1 NMatT0=    0 NMatD0=    1 NMtDS0=    0 NMtDT0=    0
 Symmetry not used in FoFCou.
 E= -1672.72730134967    
 DIIS: error= 2.88D-02 at cycle   1 NSaved=   1.
 NSaved= 1 IEnMin= 1 EnMin= -1672.72730134967     IErMin= 1 ErrMin= 2.88D-02
 ErrMax= 2.88D-02  0.00D+00 EMaxC= 1.00D-01 BMatC= 1.24D+00 BMatP= 1.24D+00
 IDIUse=3 WtCom= 7.12D-01 WtEn= 2.88D-01
 Coeff-Com:  0.100D+01
 Coeff-En:   0.100D+01
 Coeff:      0.100D+01
 Gap=     0.240 Goal=   None    Shift=    0.000
 GapD=    0.240 DampG=1.000 DampE=0.500 DampFc=0.5000 IDamp=-1.
 Damping current iteration by 5.00D-01
 RMSDP=9.27D-03 MaxDP=9.51D-01              OVMax= 2.25D-01

 Cycle   2  Pass 1  IDiag  1:
 RMSU=  4.59D-03    CP:  9.74D-01
 E= -1673.05107925141     Delta-E=       -0.323777901744 Rises=F Damp=T
 DIIS: error= 4.93D-03 at cycle   2 NSaved=   2.
 NSaved= 2 IEnMin= 2 EnMin= -1673.05107925141     IErMin= 2 ErrMin= 4.93D-03
 ErrMax= 4.93D-03  0.00D+00 EMaxC= 1.00D-01 BMatC= 7.82D-02 BMatP= 1.24D+00
 IDIUse=3 WtCom= 9.51D-01 WtEn= 4.93D-02
 Coeff-Com:  0.408D-01 0.959D+00
 Coeff-En:   0.141D+00 0.859D+00
 Coeff:      0.457D-01 0.954D+00
 Gap=     0.309 Goal=   None    Shift=    0.000
 RMSDP=4.34D-03 MaxDP=9.33D-01 DE=-3.24D-01 OVMax= 1.38D-01

 Cycle   3  Pass 1  IDiag  1:
 RMSU=  2.99D-03    CP:  8.49D-01  8.15D-01
 E= -1673.45354760991     Delta-E=       -0.402468358496 Rises=F Damp=F
 DIIS: error= 3.66D-03 at cycle   3 NSaved=   3.
 NSaved= 3 IEnMin= 3 EnMin= -1673.45354760991     IErMin= 3 ErrMin= 3.66D-03
 ErrMax= 3.66D-03  0.00D+00 EMaxC= 1.00D-01 BMatC= 3.29D-02 BMatP= 7.82D-02
 IDIUse=3 WtCom= 9.63D-01 WtEn= 3.66D-02
 Coeff-Com: -0.466D-01 0.366D+00 0.681D+00
 Coeff-En:   0.000D+00 0.000D+00 0.100D+01
 Coeff:     -0.449D-01 0.352D+00 0.693D+00
 Gap=     0.259 Goal=   None    Shift=    0.000
 RMSDP=1.03D-03 MaxDP=1.14D-01 DE=-4.02D-01 OVMax= 3.58D-02

 Cycle   4  Pass 1  IDiag  1:
 RMSU=  8.09D-04    CP:  8.36D-01  9.22D-01  9.13D-01
 E= -1673.47368645773     Delta-E=       -0.020138847819 Rises=F Damp=F
 DIIS: error= 1.75D-03 at cycle   4 NSaved=   4.
 NSaved= 4 IEnMin= 4 EnMin= -1673.47368645773     IErMin= 4 ErrMin= 1.75D-03
 ErrMax= 1.75D-03  0.00D+00 EMaxC= 1.00D-01 BMatC= 7.62D-03 BMatP= 3.29D-02
 IDIUse=3 WtCom= 9.83D-01 WtEn= 1.75D-02
 Coeff-Com: -0.279D-01 0.837D-01 0.370D+00 0.575D+00
 Coeff-En:   0.000D+00 0.000D+00 0.174D+00 0.826D+00
 Coeff:     -0.274D-01 0.822D-01 0.366D+00 0.579D+00
 Gap=     0.260 Goal=   None    Shift=    0.000
 RMSDP=4.56D-04 MaxDP=7.20D-02 DE=-2.01D-02 OVMax= 1.51D-02

 Cycle   5  Pass 1  IDiag  1:
 RMSU=  2.97D-04    CP:  8.30D-01  8.86D-01  9.46D-01  6.93D-01
 E= -1673.47967943053     Delta-E=       -0.005992972803 Rises=F Damp=F
 DIIS: error= 4.20D-04 at cycle   5 NSaved=   5.
 NSaved= 5 IEnMin= 5 EnMin= -1673.47967943053     IErMin= 5 ErrMin= 4.20D-04
 ErrMax= 4.20D-04  0.00D+00 EMaxC= 1.00D-01 BMatC= 3.10D-04 BMatP= 7.62D-03
 IDIUse=3 WtCom= 9.96D-01 WtEn= 4.20D-03
 Coeff-Com: -0.914D-02 0.193D-01 0.127D+00 0.261D+00 0.602D+00
 Coeff-En:   0.000D+00 0.000D+00 0.000D+00 0.000D+00 0.100D+01
 Coeff:     -0.910D-02 0.192D-01 0.127D+00 0.260D+00 0.604D+00
 Gap=     0.258 Goal=   None    Shift=    0.000
 RMSDP=9.36D-05 MaxDP=1.12D-02 DE=-5.99D-03 OVMax= 3.84D-03

 Cycle   6  Pass 1  IDiag  1:
 RMSU=  6.04D-05    CP:  8.30D-01  8.92D-01  9.47D-01  7.19D-01  7.93D-01
 E= -1673.47991026653     Delta-E=       -0.000230836001 Rises=F Damp=F
 DIIS: error= 1.30D-04 at cycle   6 NSaved=   6.
 NSaved= 6 IEnMin= 6 EnMin= -1673.47991026653     IErMin= 6 ErrMin= 1.30D-04
 ErrMax= 1.30D-04  0.00D+00 EMaxC= 1.00D-01 BMatC= 3.59D-05 BMatP= 3.10D-04
 IDIUse=3 WtCom= 9.99D-01 WtEn= 1.30D-03
 Coeff-Com: -0.189D-02 0.168D-02 0.288D-01 0.757D-01 0.304D+00 0.592D+00
 Coeff-En:   0.000D+00 0.000D+00 0.000D+00 0.000D+00 0.000D+00 0.100D+01
 Coeff:     -0.189D-02 0.168D-02 0.287D-01 0.756D-01 0.303D+00 0.593D+00
 Gap=     0.258 Goal=   None    Shift=    0.000
 RMSDP=2.99D-05 MaxDP=4.61D-03 DE=-2.31D-04 OVMax= 1.00D-03

 Cycle   7  Pass 1  IDiag  1:
 RMSU=  2.60D-05    CP:  8.31D-01  8.92D-01  9.48D-01  7.23D-01  7.82D-01
                    CP:  7.81D-01
 E= -1673.47993666500     Delta-E=       -0.000026398464 Rises=F Damp=F
 DIIS: error= 3.15D-05 at cycle   7 NSaved=   7.
 NSaved= 7 IEnMin= 7 EnMin= -1673.47993666500     IErMin= 7 ErrMin= 3.15D-05
 ErrMax= 3.15D-05  0.00D+00 EMaxC= 1.00D-01 BMatC= 2.83D-06 BMatP= 3.59D-05
 IDIUse=1 WtCom= 1.00D+00 WtEn= 0.00D+00
 Coeff-Com:  0.126D-03-0.122D-02-0.849D-03 0.580D-02 0.783D-01 0.259D+00
 Coeff-Com:  0.659D+00
 Coeff:      0.126D-03-0.122D-02-0.849D-03 0.580D-02 0.783D-01 0.259D+00
 Coeff:      0.659D+00
 Gap=     0.258 Goal=   None    Shift=    0.000
 RMSDP=1.03D-05 MaxDP=8.92D-04 DE=-2.64D-05 OVMax= 3.13D-04

 Cycle   8  Pass 1  IDiag  1:
 RMSU=  8.45D-06    CP:  8.30D-01  8.92D-01  9.48D-01  7.25D-01  7.79D-01
                    CP:  8.57D-01  9.50D-01
 E= -1673.47993885930     Delta-E=       -0.000002194305 Rises=F Damp=F
 DIIS: error= 1.11D-05 at cycle   8 NSaved=   8.
 NSaved= 8 IEnMin= 8 EnMin= -1673.47993885930     IErMin= 8 ErrMin= 1.11D-05
 ErrMax= 1.11D-05  0.00D+00 EMaxC= 1.00D-01 BMatC= 3.13D-07 BMatP= 2.83D-06
 IDIUse=1 WtCom= 1.00D+00 WtEn= 0.00D+00
 Coeff-Com:  0.323D-03-0.697D-03-0.484D-02-0.947D-02-0.124D-01 0.455D-02
 Coeff-Com:  0.253D+00 0.770D+00
 Coeff:      0.323D-03-0.697D-03-0.484D-02-0.947D-02-0.124D-01 0.455D-02
 Coeff:      0.253D+00 0.770D+00
 Gap=     0.258 Goal=   None    Shift=    0.000
 RMSDP=4.42D-06 MaxDP=6.67D-04 DE=-2.19D-06 OVMax= 1.69D-04

 Cycle   9  Pass 1  IDiag  1:
 RMSU=  2.66D-06    CP:  8.30D-01  8.92D-01  9.48D-01  7.25D-01  7.88D-01
                    CP:  8.54D-01  9.74D-01  8.74D-01
 E= -1673.47993915094     Delta-E=       -0.000000291635 Rises=F Damp=F
 DIIS: error= 5.23D-06 at cycle   9 NSaved=   9.
 NSaved= 9 IEnMin= 9 EnMin= -1673.47993915094     IErMin= 9 ErrMin= 5.23D-06
 ErrMax= 5.23D-06  0.00D+00 EMaxC= 1.00D-01 BMatC= 4.86D-08 BMatP= 3.13D-07
 IDIUse=1 WtCom= 1.00D+00 WtEn= 0.00D+00
 Coeff-Com:  0.141D-03-0.244D-03-0.234D-02-0.516D-02-0.117D-01-0.181D-01
 Coeff-Com:  0.722D-01 0.372D+00 0.593D+00
 Coeff:      0.141D-03-0.244D-03-0.234D-02-0.516D-02-0.117D-01-0.181D-01
 Coeff:      0.722D-01 0.372D+00 0.593D+00
 Gap=     0.258 Goal=   None    Shift=    0.000
 RMSDP=1.66D-06 MaxDP=2.18D-04 DE=-2.92D-07 OVMax= 5.20D-05

 Cycle  10  Pass 1  IDiag  1:
 RMSU=  1.20D-06    CP:  8.30D-01  8.92D-01  9.48D-01  7.25D-01  7.87D-01
                    CP:  8.58D-01  9.85D-01  9.37D-01  8.76D-01
 E= -1673.47993919457     Delta-E=       -0.000000043634 Rises=F Damp=F
 DIIS: error= 2.14D-06 at cycle  10 NSaved=  10.
 NSaved=10 IEnMin=10 EnMin= -1673.47993919457     IErMin=10 ErrMin= 2.14D-06
 ErrMax= 2.14D-06  0.00D+00 EMaxC= 1.00D-01 BMatC= 4.24D-09 BMatP= 4.86D-08
 IDIUse=1 WtCom= 1.00D+00 WtEn= 0.00D+00
 Coeff-Com:  0.586D-05 0.749D-05-0.204D-03-0.636D-03-0.260D-02-0.778D-02
 Coeff-Com: -0.753D-02 0.329D-01 0.221D+00 0.765D+00
 Coeff:      0.586D-05 0.749D-05-0.204D-03-0.636D-03-0.260D-02-0.778D-02
 Coeff:     -0.753D-02 0.329D-01 0.221D+00 0.765D+00
 Gap=     0.258 Goal=   None    Shift=    0.000
 RMSDP=5.21D-07 MaxDP=7.79D-05 DE=-4.36D-08 OVMax= 3.57D-05

 Cycle  11  Pass 1  IDiag  1:
 RMSU=  3.66D-07    CP:  8.30D-01  8.92D-01  9.48D-01  7.25D-01  7.86D-01
                    CP:  8.57D-01  9.88D-01  9.55D-01  9.42D-01  9.50D-01
 E= -1673.47993920052     Delta-E=       -0.000000005951 Rises=F Damp=F
 DIIS: error= 6.99D-07 at cycle  11 NSaved=  11.
 NSaved=11 IEnMin=11 EnMin= -1673.47993920052     IErMin=11 ErrMin= 6.99D-07
 ErrMax= 6.99D-07  0.00D+00 EMaxC= 1.00D-01 BMatC= 1.01D-09 BMatP= 4.24D-09
 IDIUse=1 WtCom= 1.00D+00 WtEn= 0.00D+00
 Coeff-Com: -0.178D-04 0.385D-04 0.267D-03 0.488D-03 0.565D-03-0.793D-03
 Coeff-Com: -0.146D-01-0.448D-01-0.400D-02 0.351D+00 0.711D+00
 Coeff:     -0.178D-04 0.385D-04 0.267D-03 0.488D-03 0.565D-03-0.793D-03
 Coeff:     -0.146D-01-0.448D-01-0.400D-02 0.351D+00 0.711D+00
 Gap=     0.258 Goal=   None    Shift=    0.000
 RMSDP=2.83D-07 MaxDP=3.67D-05 DE=-5.95D-09 OVMax= 1.40D-05

 Cycle  12  Pass 1  IDiag  1:
 RMSU=  1.55D-07    CP:  8.30D-01  8.92D-01  9.48D-01  7.25D-01  7.86D-01
                    CP:  8.57D-01  9.86D-01  9.60D-01  9.75D-01  1.08D+00
                    CP:  9.44D-01
 E= -1673.47993920193     Delta-E=       -0.000000001405 Rises=F Damp=F
 DIIS: error= 2.63D-07 at cycle  12 NSaved=  12.
 NSaved=12 IEnMin=12 EnMin= -1673.47993920193     IErMin=12 ErrMin= 2.63D-07
 ErrMax= 2.63D-07  0.00D+00 EMaxC= 1.00D-01 BMatC= 1.15D-10 BMatP= 1.01D-09
 IDIUse=1 WtCom= 1.00D+00 WtEn= 0.00D+00
 Coeff-Com: -0.668D-05 0.126D-04 0.130D-03 0.263D-03 0.536D-03 0.753D-03
 Coeff-Com: -0.465D-02-0.216D-01-0.351D-01 0.365D-01 0.269D+00 0.754D+00
 Coeff:     -0.668D-05 0.126D-04 0.130D-03 0.263D-03 0.536D-03 0.753D-03
 Coeff:     -0.465D-02-0.216D-01-0.351D-01 0.365D-01 0.269D+00 0.754D+00
 Gap=     0.258 Goal=   None    Shift=    0.000
 RMSDP=7.39D-08 MaxDP=7.55D-06 DE=-1.41D-09 OVMax= 8.21D-06

 Cycle  13  Pass 1  IDiag  1:
 RMSU=  5.13D-08    CP:  8.30D-01  8.92D-01  9.48D-01  7.25D-01  7.86D-01
                    CP:  8.57D-01  9.86D-01  9.61D-01  9.83D-01  1.11D+00
                    CP:  1.02D+00  1.06D+00
 E= -1673.47993920207     Delta-E=       -0.000000000141 Rises=F Damp=F
 DIIS: error= 1.16D-07 at cycle  13 NSaved=  13.
 NSaved=13 IEnMin=13 EnMin= -1673.47993920207     IErMin=13 ErrMin= 1.16D-07
 ErrMax= 1.16D-07  0.00D+00 EMaxC= 1.00D-01 BMatC= 3.03D-11 BMatP= 1.15D-10
 IDIUse=1 WtCom= 1.00D+00 WtEn= 0.00D+00
 Coeff-Com:  0.229D-06-0.138D-05 0.165D-04 0.413D-04 0.181D-03 0.589D-03
 Coeff-Com:  0.399D-03-0.196D-02-0.168D-01-0.450D-01-0.114D-01 0.368D+00
 Coeff-Com:  0.706D+00
 Coeff:      0.229D-06-0.138D-05 0.165D-04 0.413D-04 0.181D-03 0.589D-03
 Coeff:      0.399D-03-0.196D-02-0.168D-01-0.450D-01-0.114D-01 0.368D+00
 Coeff:      0.706D+00
 Gap=     0.258 Goal=   None    Shift=    0.000
 RMSDP=4.78D-08 MaxDP=5.07D-06 DE=-1.41D-10 OVMax= 3.18D-06

 Cycle  14  Pass 1  IDiag  1:
 RMSU=  2.28D-08    CP:  8.30D-01  8.92D-01  9.48D-01  7.25D-01  7.86D-01
                    CP:  8.57D-01  9.86D-01  9.63D-01  9.84D-01  1.12D+00
                    CP:  1.06D+00  1.22D+00  1.00D+00
 E= -1673.47993920201     Delta-E=        0.000000000063 Rises=F Damp=F
 DIIS: error= 4.54D-08 at cycle  14 NSaved=  14.
 NSaved=14 IEnMin=13 EnMin= -1673.47993920207     IErMin=14 ErrMin= 4.54D-08
 ErrMax= 4.54D-08  0.00D+00 EMaxC= 1.00D-01 BMatC= 3.17D-12 BMatP= 3.03D-11
 IDIUse=1 WtCom= 1.00D+00 WtEn= 0.00D+00
 Coeff-Com:  0.110D-05-0.241D-05-0.140D-04-0.266D-04-0.235D-04 0.819D-04
 Coeff-Com:  0.795D-03 0.284D-02-0.443D-03-0.221D-01-0.544D-01 0.222D-01
 Coeff-Com:  0.272D+00 0.779D+00
 Coeff:      0.110D-05-0.241D-05-0.140D-04-0.266D-04-0.235D-04 0.819D-04
 Coeff:      0.795D-03 0.284D-02-0.443D-03-0.221D-01-0.544D-01 0.222D-01
 Coeff:      0.272D+00 0.779D+00
 Gap=     0.258 Goal=   None    Shift=    0.000
 RMSDP=1.52D-08 MaxDP=1.40D-06 DE= 6.28D-11 OVMax= 1.50D-06

 Cycle  15  Pass 1  IDiag  1:
 RMSU=  7.60D-09    CP:  8.30D-01  8.92D-01  9.48D-01  7.25D-01  7.86D-01
                    CP:  8.57D-01  9.86D-01  9.63D-01  9.83D-01  1.13D+00
                    CP:  1.06D+00  1.26D+00  1.13D+00  1.07D+00
 E= -1673.47993920212     Delta-E=       -0.000000000114 Rises=F Damp=F
 DIIS: error= 2.10D-08 at cycle  15 NSaved=  15.
 NSaved=15 IEnMin=15 EnMin= -1673.47993920212     IErMin=15 ErrMin= 2.10D-08
 ErrMax= 2.10D-08  0.00D+00 EMaxC= 1.00D-01 BMatC= 3.57D-13 BMatP= 3.17D-12
 IDIUse=1 WtCom= 1.00D+00 WtEn= 0.00D+00
 Coeff-Com:  0.259D-06-0.518D-06-0.610D-05-0.121D-04-0.252D-04-0.368D-04
 Coeff-Com:  0.211D-03 0.113D-02 0.188D-02-0.149D-02-0.173D-01-0.383D-01
 Coeff-Com: -0.488D-02 0.274D+00 0.785D+00
 Coeff:      0.259D-06-0.518D-06-0.610D-05-0.121D-04-0.252D-04-0.368D-04
 Coeff:      0.211D-03 0.113D-02 0.188D-02-0.149D-02-0.173D-01-0.383D-01
 Coeff:     -0.488D-02 0.274D+00 0.785D+00
 Gap=     0.258 Goal=   None    Shift=    0.000
 RMSDP=6.60D-09 MaxDP=1.11D-06 DE=-1.14D-10 OVMax= 3.89D-07

 Cycle  16  Pass 1  IDiag  1:
 RMSU=  3.14D-09    CP:  8.30D-01  8.92D-01  9.48D-01  7.25D-01  7.86D-01
                    CP:  8.57D-01  9.86D-01  9.63D-01  9.84D-01  1.13D+00
                    CP:  1.06D+00  1.28D+00  1.16D+00  1.12D+00  1.22D+00
 E= -1673.47993920203     Delta-E=        0.000000000094 Rises=F Damp=F
 DIIS: error= 4.32D-09 at cycle  16 NSaved=  16.
 NSaved=16 IEnMin=15 EnMin= -1673.47993920212     IErMin=16 ErrMin= 4.32D-09
 ErrMax= 4.32D-09  0.00D+00 EMaxC= 1.00D-01 BMatC= 2.58D-14 BMatP= 3.57D-13
 IDIUse=1 WtCom= 1.00D+00 WtEn= 0.00D+00
 Coeff-Com: -0.681D-07 0.145D-06-0.166D-06-0.360D-06-0.435D-05-0.185D-04
 Coeff-Com: -0.280D-04-0.194D-05 0.627D-03 0.222D-02 0.116D-02-0.129D-01
 Coeff-Com: -0.320D-01 0.406D-02 0.209D+00 0.828D+00
 Coeff:     -0.681D-07 0.145D-06-0.166D-06-0.360D-06-0.435D-05-0.185D-04
 Coeff:     -0.280D-04-0.194D-05 0.627D-03 0.222D-02 0.116D-02-0.129D-01
 Coeff:     -0.320D-01 0.406D-02 0.209D+00 0.828D+00
 Gap=     0.258 Goal=   None    Shift=    0.000
 RMSDP=2.21D-09 MaxDP=5.35D-07 DE= 9.41D-11 OVMax= 1.16D-07

 SCF Done:  E(RM062X) =  -1673.47993920     A.U. after   16 cycles
            NFock= 16  Conv=0.22D-08     -V/T= 2.0030
 KE= 1.668412332709D+03 PE=-8.122214859371D+03 EE= 2.692826017673D+03
 Leave Link  502 at Sun Feb 19 21:33:55 2023, MaxMem=  6710886400 cpu:            4666.7 elap:             195.1
 (Enter /data0/home/software/g16/l601.exe)
 Copying SCF densities to generalized density rwf, IOpCl= 0 IROHF=0.

 **********************************************************************

            Population analysis using the SCF density.

 **********************************************************************

 Alpha  occ. eigenvalues --  -90.08541 -78.14007 -19.65297 -19.63231 -19.62824
 Alpha  occ. eigenvalues --  -19.60151 -19.59854 -19.58529 -19.57374 -14.88780
 Alpha  occ. eigenvalues --  -10.65400 -10.64185 -10.62933 -10.60795 -10.60466
 Alpha  occ. eigenvalues --  -10.59957 -10.58268 -10.56654 -10.56450  -8.41998
 Alpha  occ. eigenvalues --   -6.94728  -6.34305  -6.34231  -6.34192  -5.06674
 Alpha  occ. eigenvalues --   -5.06584  -5.06448  -1.22928  -1.20455  -1.16183
 Alpha  occ. eigenvalues --   -1.12977  -1.11956  -1.09799  -1.08323  -1.07560
 Alpha  occ. eigenvalues --   -0.98601  -0.93325  -0.92278  -0.84414  -0.83933
 Alpha  occ. eigenvalues --   -0.77540  -0.76074  -0.71477  -0.69337  -0.66059
 Alpha  occ. eigenvalues --   -0.65584  -0.62831  -0.61769  -0.60699  -0.60076
 Alpha  occ. eigenvalues --   -0.59421  -0.57722  -0.56320  -0.55775  -0.54735
 Alpha  occ. eigenvalues --   -0.53994  -0.53237  -0.52431  -0.50193  -0.49757
 Alpha  occ. eigenvalues --   -0.49027  -0.48903  -0.48295  -0.47815  -0.47274
 Alpha  occ. eigenvalues --   -0.47136  -0.45769  -0.45066  -0.44377  -0.43474
 Alpha  occ. eigenvalues --   -0.42586  -0.41230  -0.40931  -0.40613  -0.39050
 Alpha  occ. eigenvalues --   -0.37805  -0.37268  -0.36449  -0.35394  -0.34840
 Alpha  occ. eigenvalues --   -0.33860  -0.32680
 Alpha virt. eigenvalues --   -0.06907  -0.02897  -0.01079  -0.00060   0.00546
 Alpha virt. eigenvalues --    0.01339   0.01908   0.02399   0.02819   0.03484
 Alpha virt. eigenvalues --    0.04581   0.04900   0.05099   0.05600   0.06099
 Alpha virt. eigenvalues --    0.06955   0.07874   0.07997   0.08195   0.08537
 Alpha virt. eigenvalues --    0.08654   0.09349   0.09971   0.10371   0.10581
 Alpha virt. eigenvalues --    0.11555   0.11760   0.12014   0.12441   0.12770
 Alpha virt. eigenvalues --    0.13328   0.13818   0.14059   0.14319   0.14535
 Alpha virt. eigenvalues --    0.14965   0.15024   0.15138   0.15515   0.16133
 Alpha virt. eigenvalues --    0.16419   0.16665   0.17366   0.17706   0.17754
 Alpha virt. eigenvalues --    0.18033   0.18570   0.18726   0.19397   0.19725
 Alpha virt. eigenvalues --    0.19846   0.20021   0.20570   0.20702   0.20877
 Alpha virt. eigenvalues --    0.21445   0.22067   0.22430   0.23046   0.23293
 Alpha virt. eigenvalues --    0.23664   0.24005   0.24647   0.24768   0.24991
 Alpha virt. eigenvalues --    0.25337   0.25616   0.25888   0.26124   0.26729
 Alpha virt. eigenvalues --    0.27552   0.27801   0.27884   0.28440   0.28643
 Alpha virt. eigenvalues --    0.29193   0.29579   0.30038   0.30276   0.30889
 Alpha virt. eigenvalues --    0.31145   0.31482   0.31974   0.32216   0.33085
 Alpha virt. eigenvalues --    0.33469   0.33714   0.34362   0.34523   0.34753
 Alpha virt. eigenvalues --    0.35185   0.35475   0.35773   0.36272   0.36645
 Alpha virt. eigenvalues --    0.37143   0.37579   0.38130   0.38656   0.38981
 Alpha virt. eigenvalues --    0.40018   0.40045   0.40582   0.41146   0.41906
 Alpha virt. eigenvalues --    0.42711   0.42903   0.43506   0.43922   0.44626
 Alpha virt. eigenvalues --    0.45075   0.46480   0.46659   0.47389   0.47582
 Alpha virt. eigenvalues --    0.48638   0.49990   0.50583   0.51135   0.51515
 Alpha virt. eigenvalues --    0.52294   0.52629   0.53268   0.54183   0.54482
 Alpha virt. eigenvalues --    0.55205   0.55695   0.56041   0.56759   0.57352
 Alpha virt. eigenvalues --    0.57777   0.58639   0.59380   0.60042   0.60333
 Alpha virt. eigenvalues --    0.61255   0.62428   0.63835   0.64163   0.64793
 Alpha virt. eigenvalues --    0.65082   0.65463   0.66034   0.66832   0.67146
 Alpha virt. eigenvalues --    0.67265   0.68341   0.68961   0.69510   0.70153
 Alpha virt. eigenvalues --    0.70825   0.71193   0.71297   0.72652   0.73077
 Alpha virt. eigenvalues --    0.74870   0.75636   0.76692   0.76829   0.77359
 Alpha virt. eigenvalues --    0.78649   0.79287   0.79806   0.80736   0.81221
 Alpha virt. eigenvalues --    0.82309   0.82879   0.83200   0.83883   0.84339
 Alpha virt. eigenvalues --    0.84764   0.85636   0.86135   0.86702   0.87848
 Alpha virt. eigenvalues --    0.88120   0.89655   0.89905   0.90485   0.91447
 Alpha virt. eigenvalues --    0.92345   0.92639   0.94144   0.95685   0.95874
 Alpha virt. eigenvalues --    0.96465   0.98409   1.00076   1.00452   1.01040
 Alpha virt. eigenvalues --    1.02847   1.03836   1.05466   1.06464   1.07305
 Alpha virt. eigenvalues --    1.08133   1.09443   1.10654   1.11415   1.12825
 Alpha virt. eigenvalues --    1.13176   1.13923   1.14366   1.15117   1.16382
 Alpha virt. eigenvalues --    1.17867   1.19009   1.19372   1.20797   1.21235
 Alpha virt. eigenvalues --    1.21954   1.22551   1.23225   1.23595   1.24609
 Alpha virt. eigenvalues --    1.25776   1.26195   1.27205   1.28127   1.28824
 Alpha virt. eigenvalues --    1.29079   1.29484   1.30113   1.30815   1.31400
 Alpha virt. eigenvalues --    1.32308   1.33071   1.33698   1.34347   1.34650
 Alpha virt. eigenvalues --    1.35665   1.36061   1.37216   1.37644   1.38088
 Alpha virt. eigenvalues --    1.38222   1.38752   1.39396   1.39947   1.41541
 Alpha virt. eigenvalues --    1.42482   1.42765   1.43844   1.44624   1.45792
 Alpha virt. eigenvalues --    1.45934   1.46414   1.47089   1.48325   1.48600
 Alpha virt. eigenvalues --    1.49911   1.51446   1.52101   1.52742   1.54547
 Alpha virt. eigenvalues --    1.55319   1.56653   1.56924   1.57477   1.59301
 Alpha virt. eigenvalues --    1.60399   1.60991   1.61663   1.62222   1.62662
 Alpha virt. eigenvalues --    1.63797   1.65572   1.65686   1.66329   1.68374
 Alpha virt. eigenvalues --    1.69202   1.69732   1.70866   1.72545   1.73443
 Alpha virt. eigenvalues --    1.74270   1.75279   1.76349   1.77435   1.78517
 Alpha virt. eigenvalues --    1.78751   1.80684   1.81327   1.82589   1.82978
 Alpha virt. eigenvalues --    1.85062   1.86042   1.86689   1.88193   1.88844
 Alpha virt. eigenvalues --    1.89211   1.90323   1.91735   1.93014   1.93840
 Alpha virt. eigenvalues --    1.94446   1.96481   1.97244   1.97762   2.00510
 Alpha virt. eigenvalues --    2.01150   2.01773   2.02057   2.03773   2.04701
 Alpha virt. eigenvalues --    2.05574   2.08508   2.08847   2.09277   2.10926
 Alpha virt. eigenvalues --    2.11655   2.12587   2.14588   2.15209   2.16472
 Alpha virt. eigenvalues --    2.17831   2.19119   2.19611   2.20305   2.20755
 Alpha virt. eigenvalues --    2.21975   2.23504   2.25761   2.27514   2.28138
 Alpha virt. eigenvalues --    2.29331   2.30394   2.31159   2.31948   2.32520
 Alpha virt. eigenvalues --    2.33074   2.34816   2.35542   2.36524   2.38160
 Alpha virt. eigenvalues --    2.39148   2.39817   2.41687   2.42628   2.44232
 Alpha virt. eigenvalues --    2.46378   2.46783   2.47266   2.48316   2.50847
 Alpha virt. eigenvalues --    2.52165   2.55493   2.55952   2.58449   2.59917
 Alpha virt. eigenvalues --    2.63547   2.65919   2.67526   2.70413   2.71731
 Alpha virt. eigenvalues --    2.72876   2.75189   2.76677   2.78389   2.79010
 Alpha virt. eigenvalues --    2.79844   2.80666   2.81665   2.83500   2.85062
 Alpha virt. eigenvalues --    2.85411   2.87097   2.88565   2.89982   2.90540
 Alpha virt. eigenvalues --    2.91099   2.92035   2.93786   2.94198   2.94482
 Alpha virt. eigenvalues --    2.95449   2.97947   2.98832   3.01993   3.02738
 Alpha virt. eigenvalues --    3.04583   3.08221   3.08782   3.11036   3.12607
 Alpha virt. eigenvalues --    3.14191   3.15750   3.18394   3.19416   3.20706
 Alpha virt. eigenvalues --    3.22263   3.25987   3.28126   3.29903   3.30767
 Alpha virt. eigenvalues --    3.33071   3.34073   3.36743   3.38373   3.40015
 Alpha virt. eigenvalues --    3.40859   3.42136   3.43767   3.44779   3.47040
 Alpha virt. eigenvalues --    3.48344   3.49107   3.49761   3.51046   3.51608
 Alpha virt. eigenvalues --    3.54141   3.55205   3.57455   3.57945   3.60013
 Alpha virt. eigenvalues --    3.61315   3.61997   3.62280   3.63175   3.64644
 Alpha virt. eigenvalues --    3.66190   3.67050   3.70195   3.71588   3.72470
 Alpha virt. eigenvalues --    3.74090   3.74469   3.76855   3.80060   3.82320
 Alpha virt. eigenvalues --    3.83770   3.85451   3.86268   3.89758   3.91888
 Alpha virt. eigenvalues --    3.95157   4.00143   4.04008   4.05762   4.08450
 Alpha virt. eigenvalues --    4.13909   4.15604   4.17084   4.19338   4.20264
 Alpha virt. eigenvalues --    4.24725   4.30856   4.39671   4.48683   4.50720
 Alpha virt. eigenvalues --    4.63254   4.71603   4.97869   5.02537   5.06851
 Alpha virt. eigenvalues --    5.11417   5.12383   5.14243   5.15176   5.20319
 Alpha virt. eigenvalues --    5.21840   5.23812   5.24274   5.25854   5.26098
 Alpha virt. eigenvalues --    5.30362   5.31268   5.32189   5.34863   5.40420
 Alpha virt. eigenvalues --    5.41325   5.41717   5.45520   5.45986   5.51978
 Alpha virt. eigenvalues --    5.56128   5.56855   5.58401   5.61645   5.67600
 Alpha virt. eigenvalues --    5.76558   6.76264   6.78185   6.78541   6.80818
 Alpha virt. eigenvalues --    6.81095   6.82357   6.83197   6.85164   6.85883
 Alpha virt. eigenvalues --    6.87437   6.88155   6.89725   6.91702   6.93449
 Alpha virt. eigenvalues --    6.95242   6.97347   6.97952   7.00018   7.02301
 Alpha virt. eigenvalues --    7.03681   7.05298   7.06028   7.06957   7.07945
 Alpha virt. eigenvalues --    7.21083   7.22340   7.25439   7.28848   7.29583
 Alpha virt. eigenvalues --    7.32452   7.37267   7.39471   7.40715   7.44607
 Alpha virt. eigenvalues --    7.46436   7.74060   8.60584  14.31700  14.35959
 Alpha virt. eigenvalues --   14.43753  17.77136  17.80799  17.83492  23.83845
 Alpha virt. eigenvalues --   23.93319  23.98736  24.00530  24.04884  24.06998
 Alpha virt. eigenvalues --   24.11065  24.11799  24.24580  35.70272  50.05177
 Alpha virt. eigenvalues --   50.06927  50.10844  50.12171  50.14157  50.15067
 Alpha virt. eigenvalues --   50.20151 163.99537 189.91511
          Condensed to atoms (all electrons):
               1          2          3          4          5          6
     1  C    9.387186  -2.698417   1.665634  -0.556050  -1.253008  -0.009191
     2  C   -2.698417   8.693797  -2.147743   1.417338  -0.020128   0.021260
     3  C    1.665634  -2.147743  11.060407  -2.248589  -1.288304   0.267132
     4  C   -0.556050   1.417338  -2.248589  14.100168  -6.692350   0.040282
     5  C   -1.253008  -0.020128  -1.288304  -6.692350  15.321044   0.022664
     6  H   -0.009191   0.021260   0.267132   0.040282   0.022664   0.502353
     7  H    0.365919   0.004814  -0.015956   0.019813  -0.006180  -0.000220
     8  H    0.005291   0.331890   0.010292  -0.010089  -0.000404  -0.004554
     9  H    0.012312  -0.009836   0.001616   0.037500   0.361417  -0.000150
    10  C   -0.111312  -0.063684  -0.650087  -0.998154   1.279508   0.002787
    11  H   -0.004659   0.004896  -0.015421  -0.074617   0.065712   0.000687
    12  H    0.005100  -0.003241   0.037121   0.087560  -0.142256   0.000449
    13  H    0.004243  -0.009227  -0.046280  -0.253544   0.193060   0.000054
    14  N   -0.221598   0.378849  -0.209790   0.451668  -0.639477   0.000004
    15  C   -0.246209   0.069630  -0.048361  -0.154239  -0.257796   0.000675
    16  H    0.000684   0.004860   0.001115  -0.019811   0.022041  -0.000001
    17  H   -0.046763   0.011994  -0.016166   0.014709   0.042171  -0.000002
    18  C   -0.226325   0.036834  -0.081080  -0.152596   0.230939  -0.000173
    19  H   -0.059244   0.026298  -0.005011  -0.000616   0.005003   0.000000
    20  H    0.014227  -0.006832   0.000572   0.002789   0.000046   0.000000
    21  C    0.213408   0.012264  -0.004052   0.000123  -0.070059   0.000157
    22  H    0.011822  -0.001596   0.000495  -0.002633  -0.004849  -0.000000
    23  H   -0.003750   0.001137   0.000114  -0.000877  -0.000664  -0.000000
    24  S    0.008046  -0.126978   0.044532   0.108194  -0.236893  -0.000528
    25  O    0.047162  -0.023432   0.009914  -0.002113   0.006682  -0.000004
    26  O   -0.030355  -0.001570   0.001792  -0.006526   0.003871   0.000001
    27  O    0.034145  -0.002466  -0.012038  -0.087010   0.168751   0.000265
    28  P   -0.037393   0.034676  -0.094799   0.171681  -0.155256  -0.000603
    29  O   -0.014288   0.026597  -0.048366  -0.034386   0.210972   0.000008
    30  O   -0.008210   0.001552   0.044241   0.010452  -0.026869   0.000009
    31  H    0.000356  -0.000836  -0.004951  -0.001192   0.006267   0.000005
    32  O    0.092647  -0.111103   0.232346  -0.210141  -0.081390   0.000166
    33  H   -0.065836   0.054575   0.052828   0.066325  -0.047420  -0.000923
    34  O    0.014513  -0.004846  -0.004970   0.013785  -0.006075   0.000015
    35  H   -0.002853   0.000737  -0.000437   0.000116  -0.000865  -0.000000
               7          8          9         10         11         12
     1  C    0.365919   0.005291   0.012312  -0.111312  -0.004659   0.005100
     2  C    0.004814   0.331890  -0.009836  -0.063684   0.004896  -0.003241
     3  C   -0.015956   0.010292   0.001616  -0.650087  -0.015421   0.037121
     4  C    0.019813  -0.010089   0.037500  -0.998154  -0.074617   0.087560
     5  C   -0.006180  -0.000404   0.361417   1.279508   0.065712  -0.142256
     6  H   -0.000220  -0.004554  -0.000150   0.002787   0.000687   0.000449
     7  H    0.481682  -0.003248  -0.000134   0.001608  -0.000002  -0.000002
     8  H   -0.003248   0.501016   0.000032   0.000605   0.000005   0.000002
     9  H   -0.000134   0.000032   0.456267  -0.018189  -0.000239   0.000165
    10  C    0.001608   0.000605  -0.018189   6.243036   0.382977   0.381503
    11  H   -0.000002   0.000005  -0.000239   0.382977   0.506022  -0.028990
    12  H   -0.000002   0.000002   0.000165   0.381503  -0.028990   0.458562
    13  H   -0.000003   0.000012   0.004697   0.462496  -0.019518  -0.020831
    14  N   -0.037820   0.009543  -0.045345  -0.121332  -0.001394   0.001386
    15  C    0.020144   0.001827   0.004036   0.006954   0.000000  -0.000699
    16  H    0.000566  -0.000008   0.000538  -0.002620  -0.000003   0.000003
    17  H   -0.000097   0.000015   0.005011   0.005183  -0.000003  -0.000016
    18  C   -0.005728   0.000985  -0.000565   0.009338  -0.000114  -0.000598
    19  H    0.008668   0.000057   0.000042   0.000398   0.000000   0.000000
    20  H   -0.000640  -0.000001  -0.000032  -0.000080   0.000000   0.000000
    21  C    0.005850  -0.000790  -0.002550   0.003664  -0.000016   0.000193
    22  H   -0.000134   0.000000   0.000049  -0.000251   0.000000  -0.000001
    23  H    0.000051   0.000001   0.000006   0.000033   0.000000   0.000000
    24  S   -0.005935   0.001265   0.002100  -0.012316  -0.000085   0.000230
    25  O   -0.000613   0.000003   0.000020  -0.001385   0.000000  -0.000015
    26  O    0.001156   0.000181  -0.000001   0.000038   0.000000   0.000001
    27  O   -0.017992  -0.001170  -0.000534   0.016320   0.000026  -0.000046
    28  P    0.000872   0.000016   0.005842  -0.021619   0.001357  -0.004324
    29  O   -0.000001  -0.000009  -0.020056   0.021069  -0.000260  -0.000326
    30  O    0.000008   0.000001  -0.000259  -0.013081   0.000229   0.000797
    31  H    0.000000  -0.000000   0.000052  -0.001328  -0.000016  -0.000063
    32  O   -0.000306   0.000280  -0.001042  -0.023340   0.000492   0.006536
    33  H    0.000475  -0.000180   0.000039  -0.028602   0.000000  -0.000610
    34  O   -0.000043  -0.000004   0.000044   0.001281  -0.000006  -0.000179
    35  H    0.000005   0.000001  -0.000019   0.000643  -0.000000   0.000001
              13         14         15         16         17         18
     1  C    0.004243  -0.221598  -0.246209   0.000684  -0.046763  -0.226325
     2  C   -0.009227   0.378849   0.069630   0.004860   0.011994   0.036834
     3  C   -0.046280  -0.209790  -0.048361   0.001115  -0.016166  -0.081080
     4  C   -0.253544   0.451668  -0.154239  -0.019811   0.014709  -0.152596
     5  C    0.193060  -0.639477  -0.257796   0.022041   0.042171   0.230939
     6  H    0.000054   0.000004   0.000675  -0.000001  -0.000002  -0.000173
     7  H   -0.000003  -0.037820   0.020144   0.000566  -0.000097  -0.005728
     8  H    0.000012   0.009543   0.001827  -0.000008   0.000015   0.000985
     9  H    0.004697  -0.045345   0.004036   0.000538   0.005011  -0.000565
    10  C    0.462496  -0.121332   0.006954  -0.002620   0.005183   0.009338
    11  H   -0.019518  -0.001394   0.000000  -0.000003  -0.000003  -0.000114
    12  H   -0.020831   0.001386  -0.000699   0.000003  -0.000016  -0.000598
    13  H    0.495319   0.004981   0.008948   0.000002  -0.000011  -0.000057
    14  N    0.004981   6.746145   0.187669  -0.056051  -0.061222   0.040291
    15  C    0.008948   0.187669   6.836051   0.431101   0.424813  -0.701159
    16  H    0.000002  -0.056051   0.431101   0.503581  -0.026441  -0.058938
    17  H   -0.000011  -0.061222   0.424813  -0.026441   0.437027  -0.016335
    18  C   -0.000057   0.040291  -0.701159  -0.058938  -0.016335   7.131044
    19  H    0.000000   0.002741  -0.059147  -0.001193   0.003791   0.464549
    20  H    0.000000   0.002328   0.001243  -0.007192  -0.001934   0.386380
    21  C    0.000088  -0.022580  -0.187679   0.017824  -0.017067  -0.686149
    22  H    0.000000   0.002946  -0.034680   0.000282   0.002328  -0.037822
    23  H    0.000000  -0.000482   0.017381  -0.000170   0.000196  -0.011264
    24  S    0.000082   0.087099   0.096128   0.000371   0.010529  -0.163445
    25  O   -0.000003  -0.016987  -0.021851  -0.000035  -0.000052   0.018286
    26  O    0.000001   0.006352   0.042906   0.000042  -0.000041  -0.069979
    27  O    0.000029  -0.143273  -0.016029  -0.000065  -0.002288   0.022300
    28  P   -0.002568   0.035363   0.009421  -0.000331  -0.004502   0.045880
    29  O   -0.000964  -0.021869  -0.098594   0.001192   0.011168  -0.038631
    30  O    0.000231  -0.001589   0.001520  -0.000007  -0.000119   0.001494
    31  H    0.000077   0.000229   0.000362  -0.000000  -0.000009   0.000357
    32  O    0.000692  -0.012015   0.051183   0.000076  -0.001225  -0.051445
    33  H   -0.000101   0.036974  -0.006275  -0.000071   0.000366   0.031273
    34  O   -0.000047  -0.000305  -0.002226   0.000002   0.000114  -0.004637
    35  H    0.000000   0.001345  -0.001829   0.000000   0.000024   0.000685
              19         20         21         22         23         24
     1  C   -0.059244   0.014227   0.213408   0.011822  -0.003750   0.008046
     2  C    0.026298  -0.006832   0.012264  -0.001596   0.001137  -0.126978
     3  C   -0.005011   0.000572  -0.004052   0.000495   0.000114   0.044532
     4  C   -0.000616   0.002789   0.000123  -0.002633  -0.000877   0.108194
     5  C    0.005003   0.000046  -0.070059  -0.004849  -0.000664  -0.236893
     6  H    0.000000   0.000000   0.000157  -0.000000  -0.000000  -0.000528
     7  H    0.008668  -0.000640   0.005850  -0.000134   0.000051  -0.005935
     8  H    0.000057  -0.000001  -0.000790   0.000000   0.000001   0.001265
     9  H    0.000042  -0.000032  -0.002550   0.000049   0.000006   0.002100
    10  C    0.000398  -0.000080   0.003664  -0.000251   0.000033  -0.012316
    11  H    0.000000   0.000000  -0.000016   0.000000   0.000000  -0.000085
    12  H    0.000000   0.000000   0.000193  -0.000001   0.000000   0.000230
    13  H    0.000000   0.000000   0.000088   0.000000   0.000000   0.000082
    14  N    0.002741   0.002328  -0.022580   0.002946  -0.000482   0.087099
    15  C   -0.059147   0.001243  -0.187679  -0.034680   0.017381   0.096128
    16  H   -0.001193  -0.007192   0.017824   0.000282  -0.000170   0.000371
    17  H    0.003791  -0.001934  -0.017067   0.002328   0.000196   0.010529
    18  C    0.464549   0.386380  -0.686149  -0.037822  -0.011264  -0.163445
    19  H    0.487271  -0.029408  -0.024717   0.002400  -0.000182   0.001121
    20  H   -0.029408   0.507489  -0.048718  -0.000066  -0.008221   0.013357
    21  C   -0.024717  -0.048718   6.840459   0.445183   0.376341  -0.310249
    22  H    0.002400  -0.000066   0.445183   0.436831  -0.027937  -0.028131
    23  H   -0.000182  -0.008221   0.376341  -0.027937   0.481635  -0.036269
    24  S    0.001121   0.013357  -0.310249  -0.028131  -0.036269  15.022491
    25  O   -0.000218  -0.000223  -0.080892   0.008423   0.005122   0.250264
    26  O    0.004267  -0.001198   0.024747  -0.005184   0.002681   0.354865
    27  O   -0.005067   0.000007   0.012964  -0.004011  -0.000684  -0.070144
    28  P   -0.000260  -0.000535   0.045052   0.005554   0.001122  -0.111358
    29  O   -0.000230   0.000311   0.006082  -0.003091   0.000524   0.092006
    30  O    0.000001  -0.000004   0.005391  -0.000026   0.000011  -0.016391
    31  H   -0.000000   0.000000  -0.000378   0.000007  -0.000000  -0.001028
    32  O    0.000142   0.000038   0.016125  -0.000366   0.000069  -0.008458
    33  H   -0.000012  -0.000058  -0.028020   0.000174  -0.000070   0.034458
    34  O   -0.000002   0.000022  -0.032485   0.001387  -0.000129   0.049246
    35  H   -0.000020   0.000005   0.005324  -0.001045   0.000126   0.020086
              25         26         27         28         29         30
     1  C    0.047162  -0.030355   0.034145  -0.037393  -0.014288  -0.008210
     2  C   -0.023432  -0.001570  -0.002466   0.034676   0.026597   0.001552
     3  C    0.009914   0.001792  -0.012038  -0.094799  -0.048366   0.044241
     4  C   -0.002113  -0.006526  -0.087010   0.171681  -0.034386   0.010452
     5  C    0.006682   0.003871   0.168751  -0.155256   0.210972  -0.026869
     6  H   -0.000004   0.000001   0.000265  -0.000603   0.000008   0.000009
     7  H   -0.000613   0.001156  -0.017992   0.000872  -0.000001   0.000008
     8  H    0.000003   0.000181  -0.001170   0.000016  -0.000009   0.000001
     9  H    0.000020  -0.000001  -0.000534   0.005842  -0.020056  -0.000259
    10  C   -0.001385   0.000038   0.016320  -0.021619   0.021069  -0.013081
    11  H    0.000000   0.000000   0.000026   0.001357  -0.000260   0.000229
    12  H   -0.000015   0.000001  -0.000046  -0.004324  -0.000326   0.000797
    13  H   -0.000003   0.000001   0.000029  -0.002568  -0.000964   0.000231
    14  N   -0.016987   0.006352  -0.143273   0.035363  -0.021869  -0.001589
    15  C   -0.021851   0.042906  -0.016029   0.009421  -0.098594   0.001520
    16  H   -0.000035   0.000042  -0.000065  -0.000331   0.001192  -0.000007
    17  H   -0.000052  -0.000041  -0.002288  -0.004502   0.011168  -0.000119
    18  C    0.018286  -0.069979   0.022300   0.045880  -0.038631   0.001494
    19  H   -0.000218   0.004267  -0.005067  -0.000260  -0.000230   0.000001
    20  H   -0.000223  -0.001198   0.000007  -0.000535   0.000311  -0.000004
    21  C   -0.080892   0.024747   0.012964   0.045052   0.006082   0.005391
    22  H    0.008423  -0.005184  -0.004011   0.005554  -0.003091  -0.000026
    23  H    0.005122   0.002681  -0.000684   0.001122   0.000524   0.000011
    24  S    0.250264   0.354865  -0.070144  -0.111358   0.092006  -0.016391
    25  O    8.429373  -0.160331   0.002640   0.064153  -0.039106   0.003706
    26  O   -0.160331   8.408085  -0.078663   0.000864   0.002988  -0.000044
    27  O    0.002640  -0.078663   8.702702   0.036515  -0.012018   0.002217
    28  P    0.064153   0.000864   0.036515  12.655807   0.384487   0.234033
    29  O   -0.039106   0.002988  -0.012018   0.384487   8.400537  -0.018533
    30  O    0.003706  -0.000044   0.002217   0.234033  -0.018533   7.975418
    31  H    0.000863  -0.000018   0.000391  -0.018457  -0.013536   0.251931
    32  O   -0.008293   0.001114   0.016266   0.273420  -0.054160   0.013852
    33  H    0.016965  -0.002005   0.019762   0.016788  -0.024737   0.004430
    34  O   -0.042175   0.000530  -0.012961   0.198675  -0.004135  -0.047734
    35  H    0.055033   0.002971  -0.000105   0.030939   0.009155   0.004299
              31         32         33         34         35
     1  C    0.000356   0.092647  -0.065836   0.014513  -0.002853
     2  C   -0.000836  -0.111103   0.054575  -0.004846   0.000737
     3  C   -0.004951   0.232346   0.052828  -0.004970  -0.000437
     4  C   -0.001192  -0.210141   0.066325   0.013785   0.000116
     5  C    0.006267  -0.081390  -0.047420  -0.006075  -0.000865
     6  H    0.000005   0.000166  -0.000923   0.000015  -0.000000
     7  H    0.000000  -0.000306   0.000475  -0.000043   0.000005
     8  H   -0.000000   0.000280  -0.000180  -0.000004   0.000001
     9  H    0.000052  -0.001042   0.000039   0.000044  -0.000019
    10  C   -0.001328  -0.023340  -0.028602   0.001281   0.000643
    11  H   -0.000016   0.000492   0.000000  -0.000006  -0.000000
    12  H   -0.000063   0.006536  -0.000610  -0.000179   0.000001
    13  H    0.000077   0.000692  -0.000101  -0.000047   0.000000
    14  N    0.000229  -0.012015   0.036974  -0.000305   0.001345
    15  C    0.000362   0.051183  -0.006275  -0.002226  -0.001829
    16  H   -0.000000   0.000076  -0.000071   0.000002   0.000000
    17  H   -0.000009  -0.001225   0.000366   0.000114   0.000024
    18  C    0.000357  -0.051445   0.031273  -0.004637   0.000685
    19  H   -0.000000   0.000142  -0.000012  -0.000002  -0.000020
    20  H    0.000000   0.000038  -0.000058   0.000022   0.000005
    21  C   -0.000378   0.016125  -0.028020  -0.032485   0.005324
    22  H    0.000007  -0.000366   0.000174   0.001387  -0.001045
    23  H   -0.000000   0.000069  -0.000070  -0.000129   0.000126
    24  S   -0.001028  -0.008458   0.034458   0.049246   0.020086
    25  O    0.000863  -0.008293   0.016965  -0.042175   0.055033
    26  O   -0.000018   0.001114  -0.002005   0.000530   0.002971
    27  O    0.000391   0.016266   0.019762  -0.012961  -0.000105
    28  P   -0.018457   0.273420   0.016788   0.198675   0.030939
    29  O   -0.013536  -0.054160  -0.024737  -0.004135   0.009155
    30  O    0.251931   0.013852   0.004430  -0.047734   0.004299
    31  H    0.466011  -0.001490   0.002167   0.003779  -0.000272
    32  O   -0.001490   8.271037   0.132979   0.030814  -0.007729
    33  H    0.002167   0.132979   0.400167  -0.007089   0.002787
    34  O    0.003779   0.030814  -0.007089   8.135113   0.229693
    35  H   -0.000272  -0.007729   0.002787   0.229693   0.251800
 Mulliken charges:
               1
     1  C   -0.287237
     2  C    0.097939
     3  C   -0.487751
     4  C    0.963030
     5  C   -1.009905
     6  H    0.157376
     7  H    0.183421
     8  H    0.157139
     9  H    0.207162
    10  C   -0.752061
    11  H    0.182937
    12  H    0.222589
    13  H    0.178141
    14  N    0.617215
    15  C   -0.375219
    16  H    0.188659
    17  H    0.224850
    18  C   -0.113599
    19  H    0.178577
    20  H    0.176326
    21  C   -0.514839
    22  H    0.233941
    23  H    0.204146
    24  S    0.931740
    25  O   -0.520879
    26  O   -0.503538
    27  O   -0.568737
    28  P    1.199486
    29  O   -0.719802
    30  O   -0.422960
    31  H    0.310717
    32  O   -0.567772
    33  H    0.338476
    34  O   -0.508966
    35  H    0.399396
 Sum of Mulliken charges =  -0.00000
 Mulliken charges with hydrogens summed into heavy atoms:
               1
     1  C   -0.103815
     2  C    0.255077
     3  C   -0.330375
     4  C    0.963030
     5  C   -0.802743
    10  C   -0.168393
    14  N    0.617215
    15  C    0.038290
    18  C    0.241304
    21  C   -0.076752
    24  S    0.931740
    25  O   -0.520879
    26  O   -0.503538
    27  O   -0.568737
    28  P    1.199486
    29  O   -0.719802
    30  O   -0.112243
    32  O   -0.229296
    34  O   -0.109570
         Mulliken charges condensed to fragments:
      1     -0.028576
      2      0.028576
 Electronic spatial extent (au):  <R**2>=         198169.9400
 Charge=             -0.0000 electrons
 Dipole moment (field-independent basis, Debye):
    X=             -3.7395    Y=             -2.8806    Z=             -8.8309  Tot=             10.0134
 Quadrupole moment (field-independent basis, Debye-Ang):
   XX=           -189.2910   YY=           -203.4903   ZZ=           -301.7998
   XY=            -82.4712   XZ=           -137.0348   YZ=           -125.2478
 Traceless Quadrupole moment (field-independent basis, Debye-Ang):
   XX=             42.2360   YY=             28.0367   ZZ=            -70.2728
   XY=            -82.4712   XZ=           -137.0348   YZ=           -125.2478
 Octapole moment (field-independent basis, Debye-Ang**2):
  XXX=          -4773.9937  YYY=          -5559.6803  ZZZ=          -6509.2721  XYY=          -2835.2871
  XXY=          -2596.2730  XXZ=          -3030.6842  XZZ=          -3687.0543  YZZ=          -3548.4855
  YYZ=          -3162.7069  XYZ=          -1927.6306
 Hexadecapole moment (field-independent basis, Debye-Ang**3):
 XXXX=         -93799.5950 YYYY=        -115221.7638 ZZZZ=        -117169.4879 XXXY=         -58107.9006
 XXXZ=         -60929.0752 YYYX=         -67184.6205 YYYZ=         -69793.9579 ZZZX=         -74551.5914
 ZZZY=         -73112.4427 XXYY=         -50293.1942 XXZZ=         -56205.2591 YYZZ=         -57936.2444
 XXYZ=         -38794.4415 YYXZ=         -41362.1590 ZZXY=         -44280.0729
 N-N= 2.087496569787D+03 E-N=-8.122214860870D+03  KE= 1.668412332709D+03
 No NMR shielding tensors so no spin-rotation constants.
 Leave Link  601 at Sun Feb 19 21:33:55 2023, MaxMem=  6710886400 cpu:               4.4 elap:               0.2
 (Enter /data0/home/software/g16/l122.exe)
 CPIOFr:  IOpCl= 0 IRwI=-1 IRwCP=  731 ICalc= -1 LCPTot=      598137 Len1MO=     1575263 IndFrg=      598137
 CPIOFr:  IOpCl= 0 IRwI=-1 IRwCP=  731 ICalc=  0 LCPTot=      598137 Len1MO=     1575263 IndFrg=     2173400
 Counterpoise: doing calculation for fragment   1 using the basis set of the full-system, NewBq=T
 Leave Link  122 at Sun Feb 19 21:33:55 2023, MaxMem=  6710886400 cpu:               0.6 elap:               0.0
 (Enter /data0/home/software/g16/l301.exe)
 Basis read from rwf:  (5D, 7F)
 No pseudopotential information found on rwf file.
   625 basis functions,   954 primitive gaussians,   663 cartesian basis functions
    57 alpha electrons       57 beta electrons
       nuclear repulsion energy      1086.1484321433 Hartrees.
 IExCor= 4336 DFT=T Ex+Corr=M062X ExCW=0 ScaHFX=  0.540000
 ScaDFX=  1.000000  1.000000  1.000000  1.000000 ScalE2=  1.000000  1.000000
 IRadAn=      5 IRanWt=     -1 IRanGd=            0 ICorTp=0 IEmpDi=131
 NAtoms=   35 NActive=   35 NUniq=   35 SFac= 1.00D+00 NAtFMM=   60 NAOKFM=F Big=F
 Integral buffers will be    131072 words long.
 Raffenetti 2 integral format.
 Two-electron integral symmetry is turned off.
 R6Disp:  Grimme-D3 Dispersion energy=       -0.0014144947 Hartrees.
 Nuclear repulsion after empirical dispersion term =     1086.1470176486 Hartrees.
 No density basis found on file   718.
 Leave Link  301 at Sun Feb 19 21:33:55 2023, MaxMem=  6710886400 cpu:               1.3 elap:               0.1
 (Enter /data0/home/software/g16/l302.exe)
 NPDir=0 NMtPBC=     1 NCelOv=     1 NCel=       1 NClECP=     1 NCelD=      1
         NCelK=      1 NCelE2=     1 NClLst=     1 CellRange=     0.0.
 One-electron integrals computed using PRISM.
 NBasis=   625 RedAO= T EigKep=  1.99D-06  NBF=   625
 NBsUse=   625 1.00D-06 EigRej= -1.00D+00 NBFU=   625
 Precomputing XC quadrature grid using
 IXCGrd= 4 IRadAn=           5 IRanWt=          -1 IRanGd=           0 AccXCQ= 0.00D+00.
 Generated NRdTot=       0 NPtTot=           0 NUsed=           0 NTot=          32
 NSgBfM=   663   663   663   663   663 MxSgAt=    35 MxSgA2=    35.
 Leave Link  302 at Sun Feb 19 21:33:56 2023, MaxMem=  6710886400 cpu:              17.9 elap:               0.8
 (Enter /data0/home/software/g16/l303.exe)
 DipDrv:  MaxL=1.
 Leave Link  303 at Sun Feb 19 21:33:56 2023, MaxMem=  6710886400 cpu:               1.6 elap:               0.1
 (Enter /data0/home/software/g16/l401.exe)
 ExpMin= 3.48D-02 ExpMax= 9.34D+04 ExpMxC= 3.17D+03 IAcc=3 IRadAn=         5 AccDes= 0.00D+00
 Harris functional with IExCor= 1009 and IRadAn=       5 diagonalized for initial guess.
 HarFok:  IExCor= 1009 AccDes= 0.00D+00 IRadAn=         5 IDoV= 1 UseB2=F ITyADJ=14
 ICtDFT=  3500011 ScaDFX=  1.000000  1.000000  1.000000  1.000000
 FoFCou: FMM=F IPFlag=           0 FMFlag=      100000 FMFlg1=           0
         NFxFlg=           0 DoJE=T BraDBF=F KetDBF=T FulRan=T
         wScrn=  0.000000 ICntrl=       500 IOpCl=  0 I1Cent=   200000004 NGrid=           0
         NMat0=    1 NMatS0=      1 NMatT0=    0 NMatD0=    1 NMtDS0=    0 NMtDT0=    0
 Symmetry not used in FoFCou.
 Harris En= -1028.88558260919    
 JPrj=0 DoOrth=F DoCkMO=F.
 Leave Link  401 at Sun Feb 19 21:33:59 2023, MaxMem=  6710886400 cpu:              72.4 elap:               3.1
 (Enter /data0/home/software/g16/l502.exe)
 Two-electron integral symmetry not used.
 Closed shell SCF:
 Using DIIS extrapolation, IDIIS=  1040.
 NGot=  6710886400 LenX=  6709986778 LenY=  6709546546
 Requested convergence on RMS density matrix=1.00D-08 within 128 cycles.
 Requested convergence on MAX density matrix=1.00D-06.
 Requested convergence on             energy=1.00D-06.
 No special actions if energy rises.
 Fock matrices will be formed incrementally for  20 cycles.

 Cycle   1  Pass 1  IDiag  1:
 FoFJK:  IHMeth= 1 ICntrl=       0 DoSepK=F KAlg= 0 I1Cent=           0 FoldK=F
 IRaf= 860000000 NMat=       1 IRICut=       1 DoRegI=T DoRafI=F ISym2E= 0 IDoP0=0 IntGTp=1.
 FoFCou: FMM=F IPFlag=           0 FMFlag=      100000 FMFlg1=           0
         NFxFlg=           0 DoJE=F BraDBF=F KetDBF=F FulRan=T
         wScrn=  0.000000 ICntrl=         0 IOpCl=  0 I1Cent=           0 NGrid=           0
         NMat0=    1 NMatS0=      1 NMatT0=    0 NMatD0=    1 NMtDS0=    0 NMtDT0=    0
 Symmetry not used in FoFCou.
 E= -1028.73791644217    
 DIIS: error= 1.52D-02 at cycle   1 NSaved=   1.
 NSaved= 1 IEnMin= 1 EnMin= -1028.73791644217     IErMin= 1 ErrMin= 1.52D-02
 ErrMax= 1.52D-02  0.00D+00 EMaxC= 1.00D-01 BMatC= 7.85D-01 BMatP= 7.85D-01
 IDIUse=3 WtCom= 8.48D-01 WtEn= 1.52D-01
 Coeff-Com:  0.100D+01
 Coeff-En:   0.100D+01
 Coeff:      0.100D+01
 Gap=     0.208 Goal=   None    Shift=    0.000
 GapD=    0.208 DampG=1.000 DampE=0.500 DampFc=0.5000 IDamp=-1.
 Damping current iteration by 5.00D-01
 RMSDP=9.02D-03 MaxDP=8.64D-01              OVMax= 2.05D-01

 Cycle   2  Pass 1  IDiag  1:
 RMSU=  4.51D-03    CP:  9.97D-01
 E= -1028.95366918847     Delta-E=       -0.215752746309 Rises=F Damp=T
 DIIS: error= 4.28D-03 at cycle   2 NSaved=   2.
 NSaved= 2 IEnMin= 2 EnMin= -1028.95366918847     IErMin= 2 ErrMin= 4.28D-03
 ErrMax= 4.28D-03  0.00D+00 EMaxC= 1.00D-01 BMatC= 5.97D-02 BMatP= 7.85D-01
 IDIUse=3 WtCom= 9.57D-01 WtEn= 4.28D-02
 Coeff-Com:  0.554D-01 0.945D+00
 Coeff-En:   0.153D+00 0.847D+00
 Coeff:      0.596D-01 0.940D+00
 Gap=     0.223 Goal=   None    Shift=    0.000
 RMSDP=3.81D-03 MaxDP=8.28D-01 DE=-2.16D-01 OVMax= 1.58D-01

 Cycle   3  Pass 1  IDiag  1:
 RMSU=  2.53D-03    CP:  8.50D-01  9.35D-01
 E= -1029.23057223553     Delta-E=       -0.276903047059 Rises=F Damp=F
 DIIS: error= 3.54D-03 at cycle   3 NSaved=   3.
 NSaved= 3 IEnMin= 3 EnMin= -1029.23057223553     IErMin= 3 ErrMin= 3.54D-03
 ErrMax= 3.54D-03  0.00D+00 EMaxC= 1.00D-01 BMatC= 2.90D-02 BMatP= 5.97D-02
 IDIUse=3 WtCom= 9.65D-01 WtEn= 3.54D-02
 Coeff-Com: -0.523D-01 0.393D+00 0.660D+00
 Coeff-En:   0.000D+00 0.000D+00 0.100D+01
 Coeff:     -0.504D-01 0.379D+00 0.672D+00
 Gap=     0.194 Goal=   None    Shift=    0.000
 RMSDP=8.55D-04 MaxDP=8.08D-02 DE=-2.77D-01 OVMax= 3.75D-02

 Cycle   4  Pass 1  IDiag  1:
 RMSU=  7.74D-04    CP:  8.51D-01  9.97D-01  9.11D-01
 E= -1029.25093637756     Delta-E=       -0.020364142032 Rises=F Damp=F
 DIIS: error= 1.32D-03 at cycle   4 NSaved=   4.
 NSaved= 4 IEnMin= 4 EnMin= -1029.25093637756     IErMin= 4 ErrMin= 1.32D-03
 ErrMax= 1.32D-03  0.00D+00 EMaxC= 1.00D-01 BMatC= 3.95D-03 BMatP= 2.90D-02
 IDIUse=3 WtCom= 9.87D-01 WtEn= 1.32D-02
 Coeff-Com: -0.285D-01 0.848D-01 0.322D+00 0.622D+00
 Coeff-En:   0.000D+00 0.000D+00 0.848D-01 0.915D+00
 Coeff:     -0.281D-01 0.837D-01 0.318D+00 0.626D+00
 Gap=     0.199 Goal=   None    Shift=    0.000
 RMSDP=3.04D-04 MaxDP=4.26D-02 DE=-2.04D-02 OVMax= 1.49D-02

 Cycle   5  Pass 1  IDiag  1:
 RMSU=  1.90D-04    CP:  8.46D-01  9.92D-01  9.42D-01  7.45D-01
 E= -1029.25448673671     Delta-E=       -0.003550359149 Rises=F Damp=F
 DIIS: error= 3.71D-04 at cycle   5 NSaved=   5.
 NSaved= 5 IEnMin= 5 EnMin= -1029.25448673671     IErMin= 5 ErrMin= 3.71D-04
 ErrMax= 3.71D-04  0.00D+00 EMaxC= 1.00D-01 BMatC= 2.14D-04 BMatP= 3.95D-03
 IDIUse=3 WtCom= 9.96D-01 WtEn= 3.71D-03
 Coeff-Com: -0.950D-02 0.202D-01 0.108D+00 0.282D+00 0.599D+00
 Coeff-En:   0.000D+00 0.000D+00 0.000D+00 0.000D+00 0.100D+01
 Coeff:     -0.947D-02 0.202D-01 0.108D+00 0.281D+00 0.600D+00
 Gap=     0.200 Goal=   None    Shift=    0.000
 RMSDP=7.95D-05 MaxDP=1.20D-02 DE=-3.55D-03 OVMax= 4.77D-03

 Cycle   6  Pass 1  IDiag  1:
 RMSU=  5.66D-05    CP:  8.48D-01  9.95D-01  9.39D-01  7.86D-01  8.59D-01
 E= -1029.25466073083     Delta-E=       -0.000173994119 Rises=F Damp=F
 DIIS: error= 1.13D-04 at cycle   6 NSaved=   6.
 NSaved= 6 IEnMin= 6 EnMin= -1029.25466073083     IErMin= 6 ErrMin= 1.13D-04
 ErrMax= 1.13D-04  0.00D+00 EMaxC= 1.00D-01 BMatC= 2.74D-05 BMatP= 2.14D-04
 IDIUse=3 WtCom= 9.99D-01 WtEn= 1.13D-03
 Coeff-Com: -0.132D-02-0.984D-04 0.156D-01 0.658D-01 0.300D+00 0.620D+00
 Coeff-En:   0.000D+00 0.000D+00 0.000D+00 0.000D+00 0.590D-02 0.994D+00
 Coeff:     -0.132D-02-0.982D-04 0.155D-01 0.657D-01 0.300D+00 0.620D+00
 Gap=     0.200 Goal=   None    Shift=    0.000
 RMSDP=2.89D-05 MaxDP=4.66D-03 DE=-1.74D-04 OVMax= 1.17D-03

 Cycle   7  Pass 1  IDiag  1:
 RMSU=  2.29D-05    CP:  8.48D-01  9.96D-01  9.40D-01  7.99D-01  9.18D-01
                    CP:  9.51D-01
 E= -1029.25468448443     Delta-E=       -0.000023753596 Rises=F Damp=F
 DIIS: error= 2.46D-05 at cycle   7 NSaved=   7.
 NSaved= 7 IEnMin= 7 EnMin= -1029.25468448443     IErMin= 7 ErrMin= 2.46D-05
 ErrMax= 2.46D-05  0.00D+00 EMaxC= 1.00D-01 BMatC= 1.33D-06 BMatP= 2.74D-05
 IDIUse=1 WtCom= 1.00D+00 WtEn= 0.00D+00
 Coeff-Com:  0.562D-03-0.207D-02-0.628D-02-0.719D-02 0.476D-01 0.200D+00
 Coeff-Com:  0.768D+00
 Coeff:      0.562D-03-0.207D-02-0.628D-02-0.719D-02 0.476D-01 0.200D+00
 Coeff:      0.768D+00
 Gap=     0.200 Goal=   None    Shift=    0.000
 RMSDP=9.54D-06 MaxDP=1.04D-03 DE=-2.38D-05 OVMax= 5.79D-04

 Cycle   8  Pass 1  IDiag  1:
 RMSU=  6.88D-06    CP:  8.48D-01  9.95D-01  9.41D-01  8.01D-01  9.34D-01
                    CP:  1.01D+00  9.72D-01
 E= -1029.25468615522     Delta-E=       -0.000001670795 Rises=F Damp=F
 DIIS: error= 8.87D-06 at cycle   8 NSaved=   8.
 NSaved= 8 IEnMin= 8 EnMin= -1029.25468615522     IErMin= 8 ErrMin= 8.87D-06
 ErrMax= 8.87D-06  0.00D+00 EMaxC= 1.00D-01 BMatC= 1.85D-07 BMatP= 1.33D-06
 IDIUse=1 WtCom= 1.00D+00 WtEn= 0.00D+00
 Coeff-Com:  0.335D-03-0.639D-03-0.433D-02-0.113D-01-0.187D-01-0.163D-01
 Coeff-Com:  0.268D+00 0.783D+00
[...]
 FoFCou: FMM=F IPFlag=           0 FMFlag=      100000 FMFlg1=           0
         NFxFlg=           0 DoJE=T BraDBF=F KetDBF=T FulRan=T
         wScrn=  0.000000 ICntrl=       500 IOpCl=  0 I1Cent=   200000004 NGrid=           0
         NMat0=    1 NMatS0=      1 NMatT0=    0 NMatD0=    1 NMtDS0=    0 NMtDT0=    0
 Symmetry not used in FoFCou.
 Harris En= -643.937712048750    
 JPrj=0 DoOrth=F DoCkMO=F.
 Leave Link  401 at Sun Feb 19 21:40:45 2023, MaxMem=  6710886400 cpu:               5.9 elap:               0.3
 (Enter /data0/home/software/g16/l502.exe)
 Keep R1 ints in memory in canonical form, NReq=108966875.
 FoFCou: FMM=F IPFlag=           0 FMFlag=           0 FMFlg1=           0
         NFxFlg=           0 DoJE=F BraDBF=F KetDBF=F FulRan=T
         wScrn=  0.000000 ICntrl=       600 IOpCl=  0 I1Cent=           0 NGrid=           0
         NMat0=    1 NMatS0=  13041 NMatT0=    0 NMatD0=    1 NMtDS0=    0 NMtDT0=    0
 Symmetry not used in FoFCou.
 Two-electron integral symmetry not used.
 Closed shell SCF:
 Using DIIS extrapolation, IDIIS=  1040.
 NGot=  6710886400 LenX=  6625781341 LenY=  6625751659
 Requested convergence on RMS density matrix=1.00D-08 within 128 cycles.
 Requested convergence on MAX density matrix=1.00D-06.
 Requested convergence on             energy=1.00D-06.
 No special actions if energy rises.

 Cycle   1  Pass 1  IDiag  1:
 E= -643.843478960183    
 DIIS: error= 4.82D-02 at cycle   1 NSaved=   1.
 NSaved= 1 IEnMin= 1 EnMin= -643.843478960183     IErMin= 1 ErrMin= 4.82D-02
 ErrMax= 4.82D-02  0.00D+00 EMaxC= 1.00D-01 BMatC= 5.11D-01 BMatP= 5.11D-01
 IDIUse=3 WtCom= 5.18D-01 WtEn= 4.82D-01
 Coeff-Com:  0.100D+01
 Coeff-En:   0.100D+01
 Coeff:      0.100D+01
 Gap=     0.243 Goal=   None    Shift=    0.000
 GapD=    0.243 DampG=1.000 DampE=0.500 DampFc=0.5000 IDamp=-1.
 Damping current iteration by 5.00D-01
 RMSDP=7.89D-03 MaxDP=2.19D-01              OVMax= 2.78D-01

 Cycle   2  Pass 1  IDiag  1:
 E= -643.959679250185     Delta-E=       -0.116200290003 Rises=F Damp=T
 DIIS: error= 8.91D-03 at cycle   2 NSaved=   2.
 NSaved= 2 IEnMin= 2 EnMin= -643.959679250185     IErMin= 2 ErrMin= 8.91D-03
 ErrMax= 8.91D-03  0.00D+00 EMaxC= 1.00D-01 BMatC= 2.82D-02 BMatP= 5.11D-01
 IDIUse=3 WtCom= 9.11D-01 WtEn= 8.91D-02
 Coeff-Com:  0.789D-01 0.921D+00
 Coeff-En:   0.215D+00 0.785D+00
 Coeff:      0.911D-01 0.909D+00
 Gap=     0.340 Goal=   None    Shift=    0.000
 RMSDP=1.90D-03 MaxDP=7.49D-02 DE=-1.16D-01 OVMax= 1.84D-01

 Cycle   3  Pass 1  IDiag  1:
 E= -644.130454405746     Delta-E=       -0.170775155561 Rises=F Damp=F
 DIIS: error= 7.04D-03 at cycle   3 NSaved=   3.
 NSaved= 3 IEnMin= 3 EnMin= -644.130454405746     IErMin= 3 ErrMin= 7.04D-03
 ErrMax= 7.04D-03  0.00D+00 EMaxC= 1.00D-01 BMatC= 1.06D-02 BMatP= 2.82D-02
 IDIUse=3 WtCom= 9.30D-01 WtEn= 7.04D-02
 Coeff-Com: -0.134D-01 0.340D+00 0.674D+00
 Coeff-En:   0.000D+00 0.000D+00 0.100D+01
 Coeff:     -0.125D-01 0.316D+00 0.696D+00
 Gap=     0.329 Goal=   None    Shift=    0.000
 RMSDP=6.81D-04 MaxDP=1.53D-02 DE=-1.71D-01 OVMax= 3.63D-02

 Cycle   4  Pass 1  IDiag  1:
 E= -644.135217612285     Delta-E=       -0.004763206539 Rises=F Damp=F
 DIIS: error= 4.24D-03 at cycle   4 NSaved=   4.
 NSaved= 4 IEnMin= 4 EnMin= -644.135217612285     IErMin= 4 ErrMin= 4.24D-03
 ErrMax= 4.24D-03  0.00D+00 EMaxC= 1.00D-01 BMatC= 4.09D-03 BMatP= 1.06D-02
 IDIUse=3 WtCom= 9.58D-01 WtEn= 4.24D-02
 Coeff-Com: -0.215D-01 0.488D-01 0.405D+00 0.567D+00
 Coeff-En:   0.000D+00 0.000D+00 0.278D+00 0.722D+00
 Coeff:     -0.206D-01 0.467D-01 0.400D+00 0.574D+00
 Gap=     0.335 Goal=   None    Shift=    0.000
 RMSDP=2.70D-04 MaxDP=6.33D-03 DE=-4.76D-03 OVMax= 1.18D-02

 Cycle   5  Pass 1  IDiag  1:
 E= -644.137935105164     Delta-E=       -0.002717492880 Rises=F Damp=F
 DIIS: error= 2.29D-04 at cycle   5 NSaved=   5.
 NSaved= 5 IEnMin= 5 EnMin= -644.137935105164     IErMin= 5 ErrMin= 2.29D-04
 ErrMax= 2.29D-04  0.00D+00 EMaxC= 1.00D-01 BMatC= 1.79D-05 BMatP= 4.09D-03
 IDIUse=3 WtCom= 9.98D-01 WtEn= 2.29D-03
 Coeff-Com: -0.237D-02-0.116D-03 0.575D-01 0.119D+00 0.826D+00
 Coeff-En:   0.000D+00 0.000D+00 0.000D+00 0.000D+00 0.100D+01
 Coeff:     -0.236D-02-0.116D-03 0.574D-01 0.118D+00 0.827D+00
 Gap=     0.334 Goal=   None    Shift=    0.000
 RMSDP=3.03D-05 MaxDP=7.44D-04 DE=-2.72D-03 OVMax= 7.52D-04

 Cycle   6  Pass 1  IDiag  1:
 E= -644.137946887603     Delta-E=       -0.000011782439 Rises=F Damp=F
 DIIS: error= 8.10D-05 at cycle   6 NSaved=   6.
 NSaved= 6 IEnMin= 6 EnMin= -644.137946887603     IErMin= 6 ErrMin= 8.10D-05
 ErrMax= 8.10D-05  0.00D+00 EMaxC= 1.00D-01 BMatC= 1.79D-06 BMatP= 1.79D-05
 IDIUse=1 WtCom= 1.00D+00 WtEn= 0.00D+00
 Coeff-Com: -0.337D-04-0.175D-02 0.404D-02 0.169D-01 0.269D+00 0.712D+00
 Coeff:     -0.337D-04-0.175D-02 0.404D-02 0.169D-01 0.269D+00 0.712D+00
 Gap=     0.334 Goal=   None    Shift=    0.000
 RMSDP=1.09D-05 MaxDP=2.64D-04 DE=-1.18D-05 OVMax= 3.09D-04

 Cycle   7  Pass 1  IDiag  1:
 E= -644.137948054675     Delta-E=       -0.000001167072 Rises=F Damp=F
 DIIS: error= 4.05D-05 at cycle   7 NSaved=   7.
 NSaved= 7 IEnMin= 7 EnMin= -644.137948054675     IErMin= 7 ErrMin= 4.05D-05
 ErrMax= 4.05D-05  0.00D+00 EMaxC= 1.00D-01 BMatC= 4.06D-07 BMatP= 1.79D-06
 IDIUse=1 WtCom= 1.00D+00 WtEn= 0.00D+00
 Coeff-Com:  0.409D-03-0.714D-03-0.917D-02-0.146D-01-0.243D-01 0.319D+00
 Coeff-Com:  0.730D+00
 Coeff:      0.409D-03-0.714D-03-0.917D-02-0.146D-01-0.243D-01 0.319D+00
 Coeff:      0.730D+00
 Gap=     0.334 Goal=   None    Shift=    0.000
 RMSDP=4.89D-06 MaxDP=9.52D-05 DE=-1.17D-06 OVMax= 1.24D-04

 Cycle   8  Pass 1  IDiag  1:
 E= -644.137948338305     Delta-E=       -0.000000283630 Rises=F Damp=F
 DIIS: error= 1.02D-05 at cycle   8 NSaved=   8.
 NSaved= 8 IEnMin= 8 EnMin= -644.137948338305     IErMin= 8 ErrMin= 1.02D-05
 ErrMax= 1.02D-05  0.00D+00 EMaxC= 1.00D-01 BMatC= 3.09D-08 BMatP= 4.06D-07
 IDIUse=1 WtCom= 1.00D+00 WtEn= 0.00D+00
 Coeff-Com:  0.151D-03-0.190D-03-0.385D-02-0.617D-02-0.180D-01 0.895D-01
 Coeff-Com:  0.302D+00 0.636D+00
 Coeff:      0.151D-03-0.190D-03-0.385D-02-0.617D-02-0.180D-01 0.895D-01
 Coeff:      0.302D+00 0.636D+00
 Gap=     0.334 Goal=   None    Shift=    0.000
 RMSDP=8.92D-07 MaxDP=2.87D-05 DE=-2.84D-07 OVMax= 3.51D-05

 Cycle   9  Pass 1  IDiag  1:
 E= -644.137948362450     Delta-E=       -0.000000024145 Rises=F Damp=F
 DIIS: error= 1.58D-06 at cycle   9 NSaved=   9.
 NSaved= 9 IEnMin= 9 EnMin= -644.137948362450     IErMin= 9 ErrMin= 1.58D-06
 ErrMax= 1.58D-06  0.00D+00 EMaxC= 1.00D-01 BMatC= 9.71D-10 BMatP= 3.09D-08
 IDIUse=1 WtCom= 1.00D+00 WtEn= 0.00D+00
 Coeff-Com: -0.266D-04 0.531D-04 0.251D-03 0.553D-03-0.829D-03-0.181D-01
 Coeff-Com: -0.272D-01 0.768D-01 0.968D+00
 Coeff:     -0.266D-04 0.531D-04 0.251D-03 0.553D-03-0.829D-03-0.181D-01
 Coeff:     -0.272D-01 0.768D-01 0.968D+00
 Gap=     0.334 Goal=   None    Shift=    0.000
 RMSDP=3.87D-07 MaxDP=9.36D-06 DE=-2.41D-08 OVMax= 1.32D-05

 Cycle  10  Pass 1  IDiag  1:
 E= -644.137948363661     Delta-E=       -0.000000001211 Rises=F Damp=F
 DIIS: error= 6.08D-07 at cycle  10 NSaved=  10.
 NSaved=10 IEnMin=10 EnMin= -644.137948363661     IErMin=10 ErrMin= 6.08D-07
 ErrMax= 6.08D-07  0.00D+00 EMaxC= 1.00D-01 BMatC= 7.11D-11 BMatP= 9.71D-10
 IDIUse=1 WtCom= 1.00D+00 WtEn= 0.00D+00
 Coeff-Com: -0.108D-04 0.198D-04 0.182D-03 0.330D-03 0.299D-03-0.818D-02
 Coeff-Com: -0.189D-01-0.107D-02 0.265D+00 0.763D+00
 Coeff:     -0.108D-04 0.198D-04 0.182D-03 0.330D-03 0.299D-03-0.818D-02
 Coeff:     -0.189D-01-0.107D-02 0.265D+00 0.763D+00
 Gap=     0.334 Goal=   None    Shift=    0.000
 RMSDP=8.10D-08 MaxDP=1.49D-06 DE=-1.21D-09 OVMax= 3.00D-06

 Cycle  11  Pass 1  IDiag  1:
 E= -644.137948363712     Delta-E=       -0.000000000051 Rises=F Damp=F
 DIIS: error= 4.73D-07 at cycle  11 NSaved=  11.
 NSaved=11 IEnMin=11 EnMin= -644.137948363712     IErMin=11 ErrMin= 4.73D-07
 ErrMax= 4.73D-07  0.00D+00 EMaxC= 1.00D-01 BMatC= 3.13D-11 BMatP= 7.11D-11
 IDIUse=1 WtCom= 1.00D+00 WtEn= 0.00D+00
 Coeff-Com: -0.867D-08-0.467D-06 0.435D-04 0.605D-04 0.306D-03-0.890D-03
 Coeff-Com: -0.490D-02-0.143D-01-0.452D-01 0.416D+00 0.648D+00
 Coeff:     -0.867D-08-0.467D-06 0.435D-04 0.605D-04 0.306D-03-0.890D-03
 Coeff:     -0.490D-02-0.143D-01-0.452D-01 0.416D+00 0.648D+00
 Gap=     0.334 Goal=   None    Shift=    0.000
 RMSDP=3.35D-08 MaxDP=7.89D-07 DE=-5.12D-11 OVMax= 1.33D-06

 Cycle  12  Pass 1  IDiag  1:
 E= -644.137948363737     Delta-E=       -0.000000000025 Rises=F Damp=F
 DIIS: error= 3.25D-08 at cycle  12 NSaved=  12.
 NSaved=12 IEnMin=12 EnMin= -644.137948363737     IErMin=12 ErrMin= 3.25D-08
 ErrMax= 3.25D-08  0.00D+00 EMaxC= 1.00D-01 BMatC= 3.85D-13 BMatP= 3.13D-11
 IDIUse=1 WtCom= 1.00D+00 WtEn= 0.00D+00
 Coeff-Com:  0.803D-06-0.147D-05-0.676D-05-0.141D-04 0.106D-04 0.471D-03
 Coeff-Com:  0.983D-03-0.972D-03-0.249D-01-0.708D-02 0.672D-01 0.964D+00
 Coeff:      0.803D-06-0.147D-05-0.676D-05-0.141D-04 0.106D-04 0.471D-03
 Coeff:      0.983D-03-0.972D-03-0.249D-01-0.708D-02 0.672D-01 0.964D+00
 Gap=     0.334 Goal=   None    Shift=    0.000
 RMSDP=1.00D-08 MaxDP=2.15D-07 DE=-2.49D-11 OVMax= 4.48D-07

 Cycle  13  Pass 1  IDiag  1:
 E= -644.137948363736     Delta-E=        0.000000000001 Rises=F Damp=F
 DIIS: error= 1.00D-08 at cycle  13 NSaved=  13.
 NSaved=13 IEnMin=12 EnMin= -644.137948363737     IErMin=13 ErrMin= 1.00D-08
 ErrMax= 1.00D-08  0.00D+00 EMaxC= 1.00D-01 BMatC= 2.32D-14 BMatP= 3.85D-13
 IDIUse=1 WtCom= 1.00D+00 WtEn= 0.00D+00
 Coeff-Com:  0.264D-07-0.640D-07-0.291D-05-0.368D-05-0.143D-04 0.102D-03
 Coeff-Com:  0.398D-03 0.716D-03 0.545D-03-0.258D-01-0.331D-01 0.117D+00
 Coeff-Com:  0.940D+00
 Coeff:      0.264D-07-0.640D-07-0.291D-05-0.368D-05-0.143D-04 0.102D-03
 Coeff:      0.398D-03 0.716D-03 0.545D-03-0.258D-01-0.331D-01 0.117D+00
 Coeff:      0.940D+00
 Gap=     0.334 Goal=   None    Shift=    0.000
 RMSDP=2.53D-09 MaxDP=4.65D-08 DE= 1.14D-12 OVMax= 9.72D-08

 SCF Done:  E(RM062X) =  -644.137948364     A.U. after   13 cycles
            NFock= 13  Conv=0.25D-08     -V/T= 2.0026
 KE= 6.424933032209D+02 PE=-2.087315320065D+03 EE= 5.208507978410D+02
 Leave Link  502 at Sun Feb 19 21:40:51 2023, MaxMem=  6710886400 cpu:             106.5 elap:               5.8
 (Enter /data0/home/software/g16/l601.exe)
 Copying SCF densities to generalized density rwf, IOpCl= 0 IROHF=0.

 **********************************************************************

            Population analysis using the SCF density.

 **********************************************************************

 Alpha  occ. eigenvalues --  -78.16779 -19.69719 -19.68908 -19.67662 -19.58249
 Alpha  occ. eigenvalues --   -6.97572  -5.09489  -5.09466  -5.09239  -1.24483
 Alpha  occ. eigenvalues --   -1.17368  -1.16313  -1.08542  -0.72674  -0.65609
 Alpha  occ. eigenvalues --   -0.63485  -0.58798  -0.52620  -0.52339  -0.49947
 Alpha  occ. eigenvalues --   -0.46407  -0.45400  -0.44491  -0.38142  -0.37100
 Alpha virt. eigenvalues --   -0.03685   0.01108   0.02565   0.04625   0.08084
 Alpha virt. eigenvalues --    0.09641   0.10673   0.12115   0.15775   0.16978
 Alpha virt. eigenvalues --    0.17872   0.18421   0.19702   0.20093   0.21470
 Alpha virt. eigenvalues --    0.22885   0.24141   0.25498   0.26034   0.27698
 Alpha virt. eigenvalues --    0.28056   0.28941   0.30086   0.31983   0.34016
 Alpha virt. eigenvalues --    0.35008   0.36745   0.38556   0.40443   0.41833
 Alpha virt. eigenvalues --    0.44032   0.45844   0.51697   0.56447   0.57470
 Alpha virt. eigenvalues --    0.73813   0.76294   0.77035   0.85896   0.97221
 Alpha virt. eigenvalues --    0.99851   1.01034   1.05521   1.06222   1.11510
 Alpha virt. eigenvalues --    1.13066   1.15037   1.18289   1.19659   1.20159
 Alpha virt. eigenvalues --    1.22366   1.22606   1.25708   1.27182   1.32811
 Alpha virt. eigenvalues --    1.33502   1.41283   1.43704   1.50397   1.52706
 Alpha virt. eigenvalues --    1.53268   1.55076   1.58033   1.59822   1.64508
 Alpha virt. eigenvalues --    1.65286   1.66477   1.70002   1.73449   1.82150
 Alpha virt. eigenvalues --    1.84016   1.85236   1.87096   1.90997   1.96308
 Alpha virt. eigenvalues --    1.98103   2.04532   2.10126   2.12331   2.13415
 Alpha virt. eigenvalues --    2.17090   2.22028   2.26079   2.37243   2.42511
 Alpha virt. eigenvalues --    2.46184   2.55096   2.60811   2.61846   2.71515
 Alpha virt. eigenvalues --    2.73062   2.79492   2.86078   2.91652   2.95370
 Alpha virt. eigenvalues --    5.00788   5.04191   5.06307   5.06899   5.10851
 Alpha virt. eigenvalues --    5.13192   5.17169   5.23828   5.35142   5.42939
 Alpha virt. eigenvalues --    5.45474   5.52580   6.71718   6.74323   6.74905
 Alpha virt. eigenvalues --    6.77090   6.78098   6.80494   6.82072   6.85768
 Alpha virt. eigenvalues --    6.91829   6.92999   6.95510   6.98773   6.99685
 Alpha virt. eigenvalues --    7.01216   7.10740   7.25038   7.25710   7.27329
 Alpha virt. eigenvalues --    7.31417   7.40289   7.64588  14.22904  14.24372
 Alpha virt. eigenvalues --   14.34435  49.97613  49.99190  50.00922  50.09916
 Alpha virt. eigenvalues --  163.85605
          Condensed to atoms (all electrons):
              28         29         30         31         32         33
    28  P   12.467471   0.540126   0.192034   0.043434   0.250871  -0.001472
    29  O    0.540126   8.165255  -0.039454   0.002095  -0.017099  -0.016069
    30  O    0.192034  -0.039454   8.089863   0.225910   0.009072   0.001276
    31  H    0.043434   0.002095   0.225910   0.449847  -0.011273   0.001504
    32  O    0.250871  -0.017099   0.009072  -0.011273   8.031645   0.258001
    33  H   -0.001472  -0.016069   0.001276   0.001504   0.258001   0.447680
    34  O    0.226003  -0.004090   0.007668  -0.014635   0.040659  -0.005578
    35  H    0.003898  -0.012736   0.002201   0.001365  -0.001199  -0.004015
              34         35
    28  P    0.226003   0.003898
    29  O   -0.004090  -0.012736
    30  O    0.007668   0.002201
    31  H   -0.014635   0.001365
    32  O    0.040659  -0.001199
    33  H   -0.005578  -0.004015
    34  O    8.049233   0.250524
    35  H    0.250524   0.440965
 Mulliken charges:
               1
     1  C    0.000000
     2  C    0.000000
     3  C    0.000000
     4  C    0.000000
     5  C    0.000000
     6  H    0.000000
     7  H    0.000000
     8  H    0.000000
     9  H    0.000000
    10  C    0.000000
    11  H    0.000000
    12  H    0.000000
    13  H    0.000000
    14  N    0.000000
    15  C    0.000000
    16  H    0.000000
    17  H    0.000000
    18  C    0.000000
    19  H    0.000000
    20  H    0.000000
    21  C    0.000000
    22  H    0.000000
    23  H    0.000000
    24  S    0.000000
    25  O    0.000000
    26  O    0.000000
    27  O    0.000000
    28  P    1.277636
    29  O   -0.618030
    30  O   -0.488570
    31  H    0.301754
    32  O   -0.560677
    33  H    0.318674
    34  O   -0.549784
    35  H    0.318998
 Sum of Mulliken charges =  -0.00000
 Mulliken charges with hydrogens summed into heavy atoms:
               1
     1  C    0.000000
     2  C    0.000000
     3  C    0.000000
     4  C    0.000000
     5  C    0.000000
    10  C    0.000000
    14  N    0.000000
    15  C    0.000000
    18  C    0.000000
    21  C    0.000000
    24  S    0.000000
    25  O    0.000000
    26  O    0.000000
    27  O    0.000000
    28  P    1.277636
    29  O   -0.618030
    30  O   -0.186816
    32  O   -0.242003
    34  O   -0.230786
         Mulliken charges condensed to fragments:
      1      0.000000
      2     -0.000000
 Electronic spatial extent (au):  <R**2>=          61540.6169
 Charge=             -0.0000 electrons
 Dipole moment (field-independent basis, Debye):
    X=              3.7831    Y=              3.7681    Z=              0.8253  Tot=              5.4029
 Quadrupole moment (field-independent basis, Debye-Ang):
   XX=             47.9557   YY=             39.5610   ZZ=            -17.7190
   XY=             74.6100   XZ=             52.9980   YZ=             50.1326
 Traceless Quadrupole moment (field-independent basis, Debye-Ang):
   XX=             24.6898   YY=             16.2951   ZZ=            -40.9849
   XY=             74.6100   XZ=             52.9980   YZ=             50.1326
 Octapole moment (field-independent basis, Debye-Ang**2):
  XXX=            158.1917  YYY=            186.9037  ZZZ=           -925.6441  XYY=            714.2297
  XXY=            864.2434  XXZ=            667.5840  XZZ=            290.5239  YZZ=            336.5022
  YYZ=            515.4069  XYZ=            936.0038
 Hexadecapole moment (field-independent basis, Debye-Ang**3):
 XXXX=          -7923.9696 YYYY=          -1653.6419 ZZZZ=         -23661.1208 XXXY=           5973.1940
 XXXZ=           3312.9087 YYYX=           4309.0112 YYYZ=           2724.7259 ZZZX=          -5098.7685
 ZZZY=          -2433.7261 XXYY=           7952.5958 XXZZ=           3961.4355 YYZZ=           3829.1829
 XXYZ=          10894.6707 YYXZ=           8906.2664 ZZXY=           7949.2071
 N-N= 2.798332706390D+02 E-N=-2.087315320193D+03  KE= 6.424933032209D+02
 No NMR shielding tensors so no spin-rotation constants.
 Leave Link  601 at Sun Feb 19 21:40:51 2023, MaxMem=  6710886400 cpu:               2.0 elap:               0.1
 (Enter /data0/home/software/g16/l122.exe)
 CPIOFr:  IOpCl= 0 IRwI=-1 IRwCP=  731 ICalc=  4 LCPTot=      598137 Len1MO=     1575263 IndFrg=     8474452
 Restoring MOs from calculation   1 to rwf.
 CPIOFr:  IOpCl= 0 IRwI=-2 IRwCP=  731 ICalc=  0 LCPTot=      598137 Len1MO=     1575263 IndFrg=     2173400
 Counterpoise corrected energy =   -1673.475903847746
                   BSSE energy =       0.004035354279
              sum of fragments =   -1673.391304355971
           complexation energy =     -55.62 kcal/mole (raw)
           complexation energy =     -53.09 kcal/mole (corrected)
 Leave Link  122 at Sun Feb 19 21:40:51 2023, MaxMem=  6710886400 cpu:               0.6 elap:               0.0
 (Enter /data0/home/software/g16/l9999.exe)
 1\1\GINC-LOCALHOST\SP\RM062X\6-311+G(2d,p)\C9H16N1O7P1S1\WUHANYU\19-Fe
 b-2023\0\\#p M062X/6-311+G(2d,p) nosymm em=GD3 counterpoise=2\\Title C
 ard Required\\0,1\C,0,9.977465,11.749537,8.166783\C,0,11.117282,11.496
 61,7.389534\C,0,11.547922,10.19652,7.192314\C,0,10.804848,9.13618,7.73
 7804\C,0,9.672547,9.424304,8.495859\H,0,12.464286,9.989296,6.637009\H,
 0,9.63752,12.788522,8.340403\H,0,11.673474,12.354095,6.991267\H,0,9.08
 358,8.622034,8.96622\C,0,11.248377,7.731261,7.564135\H,0,11.470085,7.4
 81835,6.518789\H,0,12.174807,7.554285,8.151022\H,0,10.52301,6.994715,7
 .940054\N,0,9.289825,10.720533,8.721341\C,0,8.114261,10.94757,9.596817
 \H,0,7.207059,10.934775,8.949523\H,0,8.029916,10.077731,10.304178\C,0,
 8.145921,12.243752,10.42776\H,0,8.469018,13.115581,9.819231\H,0,7.0943
 07,12.484788,10.703898\C,0,8.97326,12.124712,11.700145\H,0,8.97391,11.
 087255,12.089903\H,0,8.523681,12.728134,12.511081\S,0,10.686427,12.678
 278,11.505715\O,0,11.400826,12.104885,12.659682\O,0,10.625744,14.13483
 8,11.365538\O,0,11.144066,12.063713,10.19198\P,0,11.493624,8.8588,11.3
 85212\O,0,10.034529,8.80242,11.238856\O,0,12.107304,7.385295,11.307759
 \H,0,13.109323,7.458661,11.540046\O,0,12.25034,9.595688,10.198666\H,0,
 11.902725,10.60572,10.147873\O,0,12.07916,9.417538,12.741428\H,0,11.86
 8671,10.463332,12.798073\\Version=ES64L-G16RevA.03\HF=-644.1379484\RMS
 D=2.532e-09\Dipole=-1.486472,-1.1082295,-3.4770051\Quadrupole=30.71011
 11,21.7261121,-52.4362232,-61.105384,-102.2618391,-92.6420683\PG=C01 [
 X(C9H16N1O7P1S1)]\\@


 The number of Unix installations has grown to 10,
  with more expected.
                  -- The Unix Programmer's Manual,
                     2nd Edition, June, 1972.
 Job cpu time:       0 days  4 hours  4 minutes 14.5 seconds.
 Elapsed time:       0 days  0 hours 10 minutes 14.8 seconds.
 File lengths (MBytes):  RWF=    293 Int=      0 D2E=      0 Chk=     87 Scr=      1
 Normal termination of Gaussian 16 at Sun Feb 19 21:40:51 2023.
