          35
 Energy =     -0.40109300 a.u.  #Cluster:    1
C          14.73509600      5.49631700      8.03934100
C          15.74401600      5.87824000      7.16331300
C          15.64221500      7.08810100      6.47206800
C          14.49270600      7.85914300      6.62084200
C          13.45460200      7.39576400      7.44964000
H          16.47109200      7.43879000      5.85545000
H          14.83497900      4.60527800      8.67286900
H          16.64399700      5.26632300      7.08098700
H          12.53029300      7.99957100      7.56604600
C          14.33824200      9.19677700      5.99897700
H          14.15145500      9.95650100      6.79599400
H          15.23241600      9.52817900      5.45669900
H          13.48610000      9.25085800      5.30909500
N          13.59830800      6.25541700      8.16452100
C          12.58064200      5.78612300      9.13975300
H          12.04368500      4.93015800      8.66932300
H          13.12956200      5.38695300     10.03635900
C          11.56079600      6.83288300      9.62561800
H          11.22387900      7.48920800      8.79649700
H          10.63727000      6.28433200      9.91934100
C          12.05243600      7.64179600     10.81920500
H          12.91226800      7.15494400     11.31771700
H          11.27001900      7.70024800     11.59706500
S          12.53401600      9.35409400     10.41782400
O          13.53327500      9.69460700     11.46012300
O          11.29722000     10.12066200     10.39254600
O          13.19699100      9.22440700      9.06330200
P          16.13523800      7.79693400     10.18835900
O          15.41837200      6.51295300     10.23615100
O          17.69994700      7.51501800     10.01896700
H          18.18122300      8.42540600     10.07104400
O          15.80657500      8.68553000      8.91566800
H          14.77747700      9.00525600      8.96503900
O          16.06284600      8.72163400     11.46131000
H          15.07076700      9.15160000     11.52296100
          35
 Energy =     -0.39889500 a.u.  #Cluster:    2
C          13.80842300      5.54305100      8.39559000
C          14.75193800      5.59621200      7.37844900
C          14.79937500      6.70813600      6.53243100
C          13.83050700      7.69854600      6.65493900
C          12.83949900      7.57315100      7.64749000
H          15.60622400      6.80529300      5.80426200
H          13.80114300      4.72558400      9.13079200
H          15.49996600      4.80464600      7.29674500
H          12.02130700      8.30901100      7.71814800
C          13.84141300      8.93352800      5.83389700
H          14.62126500      8.93671100      5.06285900
H          12.88203100      9.13152100      5.33979000
H          14.04424500      9.80732400      6.49955000
N          12.87626300      6.54143400      8.52790100
C          11.94494000      6.46539200      9.68022500
H          11.07983000      5.83393200      9.37467500
H          12.47461800      5.93143800     10.51596800
C          11.44360200      7.81877100     10.21905200
H          11.10057500      8.48500800      9.40073800
H          10.51779200      7.61723200     10.80463300
C          12.45151100      8.51969900     11.11840600
H          13.16616900      7.80386400     11.56785700
H          11.94233800      8.98772100     11.98074300
S          13.39932500      9.83572900     10.29036900
O          14.56094600     10.05292400     11.18219700
O          12.45779600     10.93259300     10.10402200
O          13.83530600      9.21305800      8.97929700
P          16.21329800      7.13626000     10.24033000
O          15.07704000      6.25855400     10.55885900
O          17.54243700      6.25867400     10.10544300
H          18.32619000      6.91316800      9.96197200
O          16.12089600      7.85037900      8.82733500
H          15.23834400      8.47342300      8.82049500
O          16.60925700      8.23103100     11.30581400
H          15.85421800      8.99701100     11.30873500
