          35
 G =       -0.401080 Gcorr = 0.198287 a.u. Nimag =   0 Frame:     1 Step:     1 Geom:     1
C          15.86660200      5.93228800      8.05099000
C          16.85509000      6.73560000      7.49519700
C          16.50950800      7.95411500      6.90561100
C          15.16615300      8.31006300      6.82241100
C          14.18784000      7.42901900      7.31824100
H          17.28732700      8.63215800      6.55140200
H          16.11754500      5.02227900      8.61156900
H          17.90220000      6.44358000      7.59252900
H          13.11375900      7.70050400      7.24682900
C          14.71534500      9.62193400      6.29748500
H          15.54378700     10.28807000      6.02671600
H          14.05793800      9.52890400      5.42326500
H          14.12585500     10.15258500      7.08376800
N          14.54399300      6.28451200      7.94705300
C          13.55506000      5.38021600      8.58822700
H          13.44407000      4.49073900      7.92574600
H          14.00035000      5.02402400      9.55746000
C          12.16824900      5.98003900      8.88634200
H          11.81848500      6.62999900      8.05751600
H          11.43732200      5.13986700      8.88869800
C          12.09905800      6.69516300     10.22962500
H          12.94449200      6.41521700     10.88665300
H          11.19474300      6.38932100     10.78584700
S          12.06127400      8.51430000     10.11001900
O          12.64589100      8.96599600     11.39659200
O          10.67598700      8.86726300      9.83729000
O          13.00189400      8.81086600      8.96189300
P          15.93562800      8.16840400     10.67099700
O          15.69094400      6.73843200     10.42575100
O          17.50354900      8.40104600     10.88091400
H          17.63388300      9.39297500     11.13045500
O          15.61084000      9.11144500      9.43707000
H          14.54853200      9.09453400      9.24996900
O          15.29215600      8.80870300     11.95802600
H          14.22466900      8.90584900     11.80185500
          35
 G =       -0.398834 Gcorr = 0.199641 a.u. Nimag =   0 Frame:     2 Step:     2 Geom:     2
C          15.79205500      6.15801800      8.15648300
C          16.65986600      7.09010900      7.60355000
C          16.14726900      8.19471900      6.91693500
C          14.77567600      8.28865100      6.70607900
C          13.93062100      7.28287700      7.21332000
H          16.81852600      8.98477800      6.57654200
H          16.15952000      5.32689700      8.77544300
H          17.73388900      6.99418700      7.77700200
H          12.84907400      7.29917200      6.99885100
C          14.14776500      9.45320200      6.03607700
H          13.47767400      9.16886300      5.21511600
H          13.52441400     10.00473400      6.78089000
H          14.87530900     10.17182200      5.63983100
N          14.43773200      6.27697000      7.96955600
C          13.55994600      5.29322000      8.64976100
H          13.47250100      4.40269700      7.98651300
H          14.07782100      4.96358800      9.59167700
C          12.15756800      5.80584500      9.02905200
H          11.67355300      6.34000700      8.18551700
H          11.51150600      4.91201300      9.18477600
C          12.14656800      6.64760600     10.29685500
H          13.01198900      6.41837600     10.94775600
H          11.26013900      6.40948800     10.91289500
S          12.11144800      8.44361400      9.99798900
O          12.53818300      9.02800500     11.28967500
O          10.76394500      8.73106800      9.52269100
O          13.16512300      8.66469000      8.93151000
P          15.89672400      8.20026000     10.90291100
O          15.63273100      6.76979900     10.68630100
O          17.44223600      8.40963800     11.25283000
H          17.57250500      9.40922400     11.47034500
O          15.70291900      9.10991400      9.61812000
H          14.67493500      9.02790100      9.29792300
O          15.15489500      8.90413900     12.10475200
H          14.11339500      9.00391900     11.85448600
          35
 G =       -0.398783 Gcorr = 0.199691 a.u. Nimag =   0 Frame:     3 Step:     3 Geom:     3
C          15.56026900      5.96162100      8.14664800
C          16.51581200      6.77317300      7.55005800
C          16.11754300      7.91606300      6.85037700
C          14.76113300      8.16684500      6.67198200
C          13.81825100      7.27845100      7.22407200
H          16.86718700      8.61410200      6.47432800
H          15.84478000      5.10609400      8.77599700
H          17.57555300      6.55477800      7.69859600
H          12.74057500      7.41794000      7.03671900
C          14.25592700      9.38335100      5.99065300
H          13.72248800     10.01970800      6.73773300
H          15.05153600     10.00303600      5.55961400
H          13.53459000      9.16339500      5.19377300
N          14.22466800      6.23549100      7.99090300
C          13.25658900      5.37595100      8.71550500
H          13.04620800      4.48931700      8.07500900
H          13.75827800      5.00574600      9.65104800
C          11.93573200      6.05838400      9.11893500
H          11.49388800      6.62863100      8.27585300
H          11.19375600      5.25063000      9.31271100
C          12.06007100      6.92145900     10.36625900
H          12.91148700      6.60565500     10.99913000
H          11.17040600      6.80166900     11.01113400
S          12.22630500      8.70256100     10.02534000
O          12.75322400      9.26006400     11.29150600
O          10.90904900      9.13550200      9.57622000
O          13.26909900      8.77624400      8.92803700
P          15.98051200      8.03402700     10.83998800
O          15.54416700      6.64063300     10.66399900
O          17.54899800      8.06627400     11.14603300
H          17.80235300      9.04792500     11.33434600
O          15.85883500      8.93425700      9.53989800
H          14.81959900      8.96512700      9.24675900
O          15.36024000      8.84516800     12.04324600
H          14.33091100      9.06074300     11.81760000
          35
 G =       -0.401089 Gcorr = 0.198278 a.u. Nimag =   0 Frame:     4 Step:     4 Geom:     4
C          15.33145100      5.67283500      8.09631700
C          16.41668600      6.27491600      7.47082200
C          16.26416700      7.52562300      6.86740300
C          15.00406800      8.11704000      6.84236800
C          13.91169600      7.43570100      7.40940600
H          17.13072700      8.04586500      6.45675500
H          15.44489800      4.74194000      8.66721800
H          17.39805600      5.80021100      7.52348500
H          12.90144700      7.89535600      7.38465600
C          14.76841500      9.47970500      6.30624100
H          15.68771100      9.98198400      5.98057300
H          14.06200600      9.49152300      5.46608900
H          14.32355900     10.12040500      7.10554200
N          14.08998600      6.25638600      8.04950600
C          12.99084600      5.55664000      8.76303200
H          12.68655500      4.69061600      8.13082200
H          13.41661500      5.14270300      9.71801200
C          11.75219100      6.40193200      9.11404300
H          11.48083400      7.09053100      8.28697500
H          10.88352700      5.70775200      9.17454800
C          11.88453400      7.14002900     10.44000300
H          12.69973900      6.72284600     11.06140200
H          10.97094800      7.01216200     11.04807200
S          12.16810800      8.93375700     10.27486900
O          12.89258500      9.29383200     11.51843000
O          10.85630200      9.52690100     10.06214000
O          13.08375500      9.03569200      9.07397500
P          15.94205400      7.90286600     10.65033200
O          15.43203500      6.53668400     10.45475500
O          17.53525300      7.85188700     10.77542200
H          17.85487100      8.80780000     10.99281400
O          15.72575800      8.86887900      9.41045700
H          14.66914600      9.04067800      9.27689900
O          15.49422900      8.66979200     11.95108700
H          14.45526500      8.95653900     11.84554000
          35
 G =       -0.398842 Gcorr = 0.199633 a.u. Nimag =   0 Frame:     5 Step:     5 Geom:     5
C          15.20209100      5.81606200      8.07147000
C          16.25901000      6.48384800      7.46774300
C          16.04278100      7.72804100      6.86799400
C          14.74844600      8.23145700      6.79222800
C          13.68747600      7.48926200      7.34602300
H          16.88798000      8.30531600      6.48977700
H          15.35586300      4.87947500      8.62651600
H          17.26664200      6.06792100      7.53479500
H          12.64575200      7.83384800      7.23633700
C          14.44159600      9.56575200      6.22226100
H          15.31485300     10.06244900      5.78243600
H          13.65339300      9.53814200      5.45951500
H          14.07176800     10.23076700      7.03994400
N          13.93343300      6.33670600      8.01829400
C          12.86200700      5.61479000      8.74753600
H          12.46055600      4.82904800      8.06778800
H          13.33383900      5.09366600      9.62499100
C          11.71061200      6.49208100      9.27467400
H          11.33952900      7.19268500      8.49838500
H          10.84354500      5.81874800      9.46290700
C          12.05313700      7.22482900     10.56377700
H          12.86170100      6.71490000     11.12183400
H          11.18929500      7.22079000     11.25344500
S          12.52799900      8.96674700     10.32664900
O          13.21242100      9.32458000     11.58975700
O          11.29240600      9.66286200      9.99054200
O          13.50942900      8.93168800      9.17238500
P          16.13165500      7.57505200     10.85823100
O          15.43817700      6.29965700     10.62298400
O          17.69286600      7.30203700     11.06564400
H          18.13084800      8.20464000     11.30400800
O          16.11217200      8.57509500      9.62743000
H          15.08312600      8.81557300      9.40387900
O          15.73287700      8.39379000     12.14706600
H          14.75073700      8.80770300     12.00077000
          35
 G =       -0.401079 Gcorr = 0.198288 a.u. Nimag =   0 Frame:     6 Step:     6 Geom:     6
C          15.32333600      5.63794500      8.00192200
C          16.38357600      6.22599200      7.32258700
C          16.20912000      7.46612500      6.70338600
C          14.95009600      8.06009900      6.71834300
C          13.88024800      7.39189400      7.34127900
H          17.05943600      7.97673300      6.24900600
H          15.45791300      4.71700500      8.58426900
H          17.36545700      5.74989400      7.34422800
H          12.87069300      7.85371700      7.34906100
C          14.69548700      9.41354600      6.16774200
H          14.28943500     10.07086700      6.97422900
H          15.60077900      9.90552400      5.79126600
H          13.95148700      9.41303800      5.36056200
N          14.08205700      6.22383900      7.99484600
C          13.01146100      5.53992100      8.76491300
H          12.67952600      4.66388800      8.16099400
H          13.47492100      5.14147500      9.70883600
C          11.79024500      6.39519600      9.15107500
H          11.48661200      7.06942200      8.32342900
H          10.92321500      5.70490500      9.26004000
C          11.97891400      7.15696500     10.45672900
H          12.81837600      6.74895400     11.05137400
H          11.09116600      7.04261300     11.10438800
S          12.25885800      8.94661500     10.24714700
O          13.03315400      9.32810300     11.45345700
O          10.94057100      9.53876500     10.07562100
O          13.12587100      9.02382000      9.00861100
P          16.04266300      7.91096600     10.48854800
O          15.52149700      6.54322300     10.33877500
O          17.63942400      7.85726900     10.55006100
H          17.96983700      8.81616000     10.73630900
O          15.77820200      8.85540500      9.24160500
H          14.71701400      9.02756300      9.14783700
O          15.65020000      8.70227400     11.79283300
H          14.60917100      8.99029100     11.72470400
          35
 G =       -0.398815 Gcorr = 0.199660 a.u. Nimag =   0 Frame:     7 Step:     7 Geom:     7
C          14.89160700      5.73925300      8.13953600
C          15.89873600      6.30818600      7.37172100
C          15.65597500      7.49787700      6.67879600
C          14.37479100      8.03919700      6.68369300
C          13.35652700      7.39179900      7.40974900
H          16.47327900      8.00574500      6.16426300
H          15.07600800      4.85365800      8.76453300
H          16.89625600      5.86352800      7.37809600
H          12.31882100      7.76280100      7.37154900
C          14.04743700      9.32457800      6.02036500
H          14.88311700      9.74384500      5.44718800
H          13.18274600      9.25543300      5.34853000
H          13.78458700     10.07721800      6.80271300
N          13.63883300      6.29903300      8.16278300
C          12.62876200      5.68869700      9.06175500
H          12.13838500      4.85801500      8.50490200
H          13.17390400      5.23513700      9.93421100
C          11.56188600      6.65344400      9.61335600
H          11.13218000      7.29130400      8.81356400
H          10.70075100      6.03315900      9.95152000
C          12.05481300      7.49078100     10.78461000
H          12.90210500      7.00585900     11.30625400
H          11.26651200      7.58360700     11.55400200
S          12.55030900      9.18393500     10.33326300
O          13.36981400      9.63332600     11.48143300
O          11.30630000      9.89059000     10.05508500
O          13.40723200      9.00419900      9.09622500
P          16.14997000      7.71552300     10.63660200
O          15.40146600      6.45023200     10.59597800
O          17.71613900      7.40557300     10.71370400
H          18.20074700      8.30989300     10.81738000
O          16.03191100      8.59622000      9.32288900
H          14.99227200      8.85261400      9.18053100
O          15.90785800      8.66553200     11.87332200
H          14.92799000      9.10022200     11.78591200
          35
 G =       -0.401085 Gcorr = 0.198282 a.u. Nimag =   0 Frame:     8 Step:     8 Geom:     8
C          14.92431300      5.57279400      8.11781900
C          15.98525000      6.02711200      7.34355000
C          15.88267100      7.24869600      6.67353500
C          14.68664200      7.95844300      6.73729900
C          13.60514000      7.42274700      7.46003900
H          16.74320600      7.65612900      6.14088500
H          15.01388300      4.67096800      8.73747000
H          16.91893400      5.46220000      7.32761300
H          12.64469400      7.97757000      7.50817100
C          14.51930800      9.30343000      6.13494600
H          13.72540300      9.33616000      5.37748900
H          14.23013400     10.03192000      6.93058000
H          15.43792700      9.69052900      5.67712300
N          13.74368400      6.27167600      8.15866800
C          12.66972800      5.72689100      9.02861600
H          12.22079900      4.85855700      8.49311200
H          13.15759200      5.33116800      9.96133000
C          11.55891700      6.70903600      9.44501200
H          11.26324600      7.37037100      8.60419900
H          10.64220300      6.10837500      9.64251200
C          11.90153800      7.50829200     10.69575400
H          12.73851200      7.05128000     11.25740700
H          11.05197700      7.50649100     11.40211200
S          12.32699600      9.25278000     10.37821000
O          13.21218500      9.61362400     11.51254500
O          11.05910700      9.95742400     10.26058700
O          13.11199300      9.19325000      9.08525000
P          16.01017000      7.88131500     10.43349200
O          15.35984700      6.56227600     10.38768900
O          17.59624400      7.68267000     10.39703800
H          18.02296800      8.61428900     10.51208000
O          15.74787500      8.78770600      9.15808900
H          14.70283800      9.05442800      9.12332500
O          15.77882000      8.76472100     11.71688600
H          14.76528100      9.14469300     11.69958400
          35
 G =       -0.398813 Gcorr = 0.199662 a.u. Nimag =   0 Frame:     9 Step:     9 Geom:     9
C          14.82285500      5.70979900      8.06875300
C          15.87883600      6.21717000      7.32368000
C          15.74461300      7.45020900      6.67874800
C          14.51644400      8.10247600      6.70589300
C          13.44262400      7.51969000      7.40609600
H          16.60523300      7.90357400      6.18432300
H          14.92614600      4.78714300      8.65778400
H          16.83299500      5.68587400      7.31202500
H          12.44204400      7.98258900      7.38334000
C          14.30635400      9.43707300      6.09426500
H          14.10666000     10.17817900      6.90571700
H          15.17855300      9.80395200      5.53979300
H          13.44248100      9.47079300      5.41870000
N          13.62462400      6.37713600      8.11490100
C          12.56153600      5.82348300      8.98908100
H          12.00110900      5.06262100      8.39949700
H          13.06145200      5.28875200      9.84243500
C          11.58279800      6.85635200      9.57943700
H          11.21377900      7.56119700      8.80599300
H          10.66906000      6.30193100      9.89304300
C          12.14463700      7.59920200     10.78289300
H          12.94421400      7.02058900     11.28409000
H          11.36559500      7.73065400     11.55605800
S          12.78961600      9.25844200     10.39962300
O          13.64262800      9.58668500     11.56443500
O          11.61398100     10.08347500     10.15155000
O          13.63048200      9.05322800      9.15580600
P          16.24389400      7.46617300     10.64151500
O          15.38587300      6.27515600     10.55061500
O          17.77599100      7.01495500     10.70509200
H          18.33877200      7.86710900     10.84800400
O          16.20868900      8.40522700      9.36382000
H          15.19656000      8.75831600      9.23227600
O          16.08341300      8.38408600     11.91504300
H          15.14548200      8.90671800     11.84569100
          35
 G =       -0.401081 Gcorr = 0.198286 a.u. Nimag =   0 Frame:    10 Step:    10 Geom:    10
C          14.89096700      5.52489000      8.11424600
C          15.91395000      5.96352000      7.28203600
C          15.77809200      7.17047100      6.59173300
C          14.58504800      7.88040300      6.69595400
C          13.53918500      7.35926200      7.47930200
H          16.61215800      7.56708100      6.01098300
H          15.01084900      4.63641900      8.74796300
H          16.84701000      5.39929200      7.23483500
H          12.58090400      7.91394000      7.55995000
C          14.38751600      9.21214600      6.07367400
H          13.55968900      9.22799000      5.35287200
H          14.13358900      9.95699200      6.86617500
H          15.28341100      9.59042000      5.56615500
N          13.71221500      6.22348600      8.19507800
C          12.68071600      5.69634700      9.12514100
H          12.20784600      4.81751500      8.62880100
H          13.21206800      5.31944900     10.04172800
C          11.58976400      6.68680100      9.57337400
H          11.25360200      7.33028200      8.73395000
H          10.68432400      6.09007700      9.82689900
C          11.99055400      7.51221900     10.78937800
H          12.85381000      7.06728200     11.31998400
H          11.17552200      7.52518700     11.53522400
S          12.39812200      9.24968000     10.41501500
O          13.33490600      9.63543900     11.49857900
O          11.12500200      9.95092600     10.34177200
O          13.12173500      9.16268500      9.08823200
P          16.08116700      7.88148200     10.32730500
O          15.43021800      6.56202100     10.33944700
O          17.66394000      7.68150500     10.22101500
H          18.09506500      8.61509000     10.29683700
O          15.75913900      8.76128800      9.04698400
H          14.71302500      9.02590800      9.05458500
O          15.90933100      8.79153600     11.60138900
H          14.89558600      9.17097900     11.62341700
          35
 G =       -0.398832 Gcorr = 0.199642 a.u. Nimag =   0 Frame:    11 Step:    11 Geom:    11
C          14.82816800      5.66011100      8.17990500
C          15.88659300      6.15099000      7.42724300
C          15.72718800      7.32727400      6.68880600
C          14.47625500      7.93289900      6.63497700
C          13.40413900      7.36314100      7.34838900
H          16.58498400      7.77522400      6.18466900
H          14.94704500      4.78725700      8.83782800
H          16.85913500      5.65677100      7.48058900
H          12.38880300      7.78526800      7.26503900
C          14.23643000      9.21011200      5.92048200
H          13.98994100     10.00109400      6.66965700
H          15.10948000      9.56653500      5.36067800
H          13.38982700      9.16253500      5.22422700
N          13.60624800      6.28370400      8.14519800
C          12.53880100      5.75619300      9.03021300
H          12.02373200      4.93282900      8.48478800
H          13.03275300      5.30554100      9.93406700
C          11.50657100      6.79168900      9.51539100
H          11.13502500      7.42288600      8.68184600
H          10.60469800      6.22735900      9.84539200
C          12.00503000      7.64262500     10.67442700
H          12.80846700      7.13293900     11.24008300
H          11.19812300      7.80258300     11.41291200
S          12.60398800      9.29160400     10.18608800
O          13.41087600      9.73477700     11.34586300
O          11.40887400     10.05382800      9.84691700
O          13.48705200      9.02603300      8.98396000
P          16.11124400      7.65036600     10.65288900
O          15.29894200      6.42465100     10.62908500
O          17.65591400      7.26307400     10.79080100
H          18.18396900      8.14416000     10.88125500
O          16.08057800      8.48934800      9.30708800
H          15.06213900      8.79696200      9.12429500
O          15.88137900      8.65376000     11.84873400
H          14.92763500      9.13389100     11.71623200
          35
 G =       -0.401093 Gcorr = 0.198274 a.u. Nimag =   0 Frame:    12 Step:    12 Geom:    12
C          14.73509600      5.49631700      8.03934100
C          15.74401600      5.87824000      7.16331300
C          15.64221500      7.08810100      6.47206800
C          14.49270600      7.85914300      6.62084200
C          13.45460200      7.39576400      7.44964000
H          16.47109200      7.43879000      5.85545000
H          14.83497900      4.60527800      8.67286900
H          16.64399700      5.26632300      7.08098700
H          12.53029300      7.99957100      7.56604600
C          14.33824200      9.19677700      5.99897700
H          14.15145500      9.95650100      6.79599400
H          15.23241600      9.52817900      5.45669900
H          13.48610000      9.25085800      5.30909500
N          13.59830800      6.25541700      8.16452100
C          12.58064200      5.78612300      9.13975300
H          12.04368500      4.93015800      8.66932300
H          13.12956200      5.38695300     10.03635900
C          11.56079600      6.83288300      9.62561800
H          11.22387900      7.48920800      8.79649700
H          10.63727000      6.28433200      9.91934100
C          12.05243600      7.64179600     10.81920500
H          12.91226800      7.15494400     11.31771700
H          11.27001900      7.70024800     11.59706500
S          12.53401600      9.35409400     10.41782400
O          13.53327500      9.69460700     11.46012300
O          11.29722000     10.12066200     10.39254600
O          13.19699100      9.22440700      9.06330200
P          16.13523800      7.79693400     10.18835900
O          15.41837200      6.51295300     10.23615100
O          17.69994700      7.51501800     10.01896700
H          18.18122300      8.42540600     10.07104400
O          15.80657500      8.68553000      8.91566800
H          14.77747700      9.00525600      8.96503900
O          16.06284600      8.72163400     11.46131000
H          15.07076700      9.15160000     11.52296100
          35
 G =       -0.398824 Gcorr = 0.199651 a.u. Nimag =   0 Frame:    13 Step:    13 Geom:    13
C          14.31356700      5.63805300      8.10628200
C          15.36505600      5.95669700      7.25757100
C          15.36676700      7.18129600      6.58314100
C          14.26183300      8.01914700      6.69064100
C          13.17704900      7.62790500      7.49897000
H          16.23993600      7.48269700      6.00229200
H          14.32448400      4.72367000      8.71676400
H          16.22053900      5.28173900      7.18415700
H          12.26218800      8.24184900      7.54419800
C          14.20765500      9.35672200      6.05241300
H          14.19905700     10.13726800      6.85134200
H          15.07287700      9.56925600      5.41293400
H          13.30238800      9.51203900      5.45225800
N          13.24200300      6.48653300      8.22967300
C          12.18795200      6.12616000      9.20946700
H          11.46625400      5.45038700      8.69651800
H          12.67288300      5.53798500     10.03590200
C          11.43733900      7.31267200      9.84351600
H          11.11464600      8.04994800      9.07968400
H          10.48030500      6.91582900     10.25247300
C          12.21207100      7.98381700     10.96844200
H          12.95291600      7.29736400     11.42119700
H          11.53421800      8.25394200     11.79883200
S          13.07049200      9.51152300     10.47318000
O          14.06404100      9.72694000     11.54944500
O          12.01973200     10.50583000     10.29528500
O          13.75574900      9.14881800      9.17107200
P          16.21217600      7.20176600     10.48868800
O          15.17529700      6.15912800     10.51255800
O          17.65552000      6.51665900     10.43970000
H          18.35378500      7.27295100     10.50129300
O          16.21020100      8.10652200      9.18596600
H          15.25755500      8.61184100      9.12729600
O          16.30935500      8.16123000     11.73786200
H          15.46213600      8.82383200     11.72900000
          35
 G =       -0.401079 Gcorr = 0.198288 a.u. Nimag =   0 Frame:    14 Step:    14 Geom:    14
C          14.31877400      5.49388100      8.12452300
C          15.33248200      5.74512000      7.20761900
C          15.39165600      6.98126600      6.55941700
C          14.38814600      7.91765500      6.79258000
C          13.33044600      7.59242000      7.66122500
H          16.23516100      7.22028300      5.91010700
H          14.30579900      4.57470400      8.72476700
H          16.11842500      5.00254400      7.05910100
H          12.52076200      8.32937900      7.84497900
C          14.41937000      9.28569600      6.22049600
H          15.32696300      9.49185900      5.63984700
H          13.55366900      9.50065400      5.58065400
H          14.39647200     10.03415200      7.04913900
N          13.32475200      6.41719400      8.33284200
C          12.29295400      6.07728600      9.34614300
H          11.60423500      5.33574800      8.87908600
H          12.81327400      5.56214900     10.19960200
C          11.47785100      7.25265600      9.91732800
H          11.21080100      7.98535200      9.12768500
H          10.49365000      6.84604500     10.24318600
C          12.14891500      7.92730600     11.10694600
H          12.94326700      7.29226500     11.54344300
H          11.42412200      8.07812400     11.92706600
S          12.87697900      9.55661900     10.73246500
O          13.96673700      9.69537200     11.72934500
O          11.77820900     10.50871100     10.79662400
O          13.44484100      9.37607400      9.34091300
P          16.16870000      7.46160700     10.26323100
O          15.25953400      6.30572000     10.30959100
O          17.65853300      6.94351700     10.00149800
H          18.28083900      7.76380900     10.05721800
O          15.92536800      8.44044000      9.03858900
H          14.96305400      8.91512600      9.15193100
O          16.30562100      8.33492500     11.56687300
H          15.39966100      8.91435400     11.69395600
          35
 G =       -0.401074 Gcorr = 0.198293 a.u. Nimag =   0 Frame:    15 Step:    15 Geom:    15
C          14.07519200      5.43186100      8.21579400
C          15.04108600      5.56813900      7.22584100
C          15.11470700      6.75073500      6.48578600
C          14.16929200      7.74858500      6.70665000
C          13.15340300      7.53730400      7.65655400
H          15.92668400      6.90215100      5.77303600
H          14.05883000      4.55953700      8.88221200
H          15.78317000      4.77987300      7.08752200
H          12.38965400      8.32367800      7.83189200
C          14.22569300      9.06939100      6.03428400
H          15.10369500      9.18926500      5.38767200
H          13.33230500      9.28052900      5.43237900
H          14.28759400      9.87496600      6.80541000
N          13.13714300      6.41437600      8.41228900
C          12.15527100      6.19759100      9.50581800
H          11.40731100      5.45889800      9.13540300
H          12.70356100      5.71978000     10.36349900
C          11.42938100      7.44870700     10.03482300
H          11.14701200      8.13549400      9.21003500
H          10.44997300      7.11451500     10.44628500
C          12.20133300      8.17280700     11.13046500
H          12.99256500      7.53283900     11.56541800
H          11.53575500      8.41591500     11.97816300
S          12.97537700      9.73467100     10.59537800
O          14.12872700      9.89191700     11.51491400
O          11.92488000     10.74025500     10.65181700