          45
 Energy =  -1430.86642900 a.u.  #Cluster:    1
C          10.39885200      9.66390500     11.86697100
H          11.34178000      9.46478100     11.30901200
H          10.66203600      9.95254300     12.89287500
H           9.83913500      8.70759100     11.90626400
C           8.39508900     11.06435900     12.01839700
H           7.75911400     11.81658600     11.52087900
H           7.77300200     10.15930600     12.18524300
H           8.68963900     11.45921000     13.00246100
C          10.44873500     11.95349800     11.01435000
H           9.84029600     12.84391500     10.75392300
H          11.00896800     12.18757800     11.93021100
H          11.18556000     11.81252000     10.19174000
C           9.15337300     10.18993500      9.83403700
H           8.43244000      9.35684100     10.00128900
H          10.05557600      9.72373700      9.36050100
C           8.54133100     11.21878300      8.88043800
H           9.27196900     12.01955200      8.63006700
H           7.67039700     11.72811700      9.32820600
C           8.12389700     10.50702300      7.58848100
H           7.82076900     11.24030200      6.81914400
H           7.25396300      9.84419400      7.75449700
N           9.59320200     10.73425800     11.17915000
C           9.31658700      9.69260700      7.07606800
O          10.21489100     10.28656400      6.45850000
O           9.34362400      8.47628000      7.38501000
P          12.74805100      8.79265000      8.23733100
O          12.56457800      9.92172700      9.16070900
O          14.17187100      8.12023800      8.45264400
H          14.24093000      7.33644900      7.77940200
O          11.72711800      7.59615300      8.46561300
H          10.82158300      7.82883500      7.97303900
O          12.70254800      9.14064900      6.69383200
H          11.73977200      9.55435100      6.47837800
O           7.45827700      7.41433600      8.90019200
H           8.15869400      7.84122100      8.31746700
H           7.38358900      6.53230400      8.55684800
O           7.60697400      7.81189600     11.64656500
H           7.05606200      7.13165900     12.01807800
H           7.56938500      7.66199400     10.67788500
O          10.21534300     14.22796900      9.24931000
H          10.69570700     13.63467400      8.63384800
H          10.26290400     15.08871000      8.84871400
O          11.50995200     12.46849100      7.61863200
H          12.16919400     11.91049800      8.04322200
H          10.99325900     11.83122900      7.08058900
          45
 Energy =  -1430.86485160 a.u.  #Cluster:    2
C          10.60767300     10.04114100     11.83274400
H          11.56640900      9.87709400     11.29281000
H          10.83513200     10.39238100     12.84726200
H          10.11371900      9.04994300     11.90888600
C           8.48405600     11.26121000     11.87573000
H           7.82196600     11.97802400     11.36316800
H           7.91066100     10.31385500     12.00400000
H           8.70854300     11.65293100     12.87869900
C          10.48211900     12.30732000     10.92150300
H           9.82751300     13.10456000     10.51308600
H          10.89591000     12.66812800     11.87281400
H          11.32107200     12.18610000     10.20186400
C           9.41590700     10.40721200      9.73949900
H           8.89220500      9.43371600      9.90831600
H          10.39519200     10.16109800      9.24997700
C           8.60251200     11.29226600      8.79109300
H           9.21004000     12.16036600      8.45081200
H           7.70765200     11.71345200      9.28085700
C           8.17872400     10.46192700      7.57216000
H           7.94183600     11.11830600      6.71534200
H           7.26139800      9.88028800      7.78688900
N           9.73582700     11.01879700     11.08917900
C           9.31638800      9.51041200      7.18610500
O          10.25933600      9.95181700      6.51090400
O           9.25486400      8.34527200      7.65042000
P          12.71322600      8.30320200      8.33327900
O          12.74960800      9.53050300      9.14119000
O          14.04783100      7.46358900      8.53539500
H          13.96453600      6.61698500      7.94526100
O          11.56235400      7.28206700      8.72846700
H          10.66606700      7.59551900      8.26436600
O          12.61347700      8.50827500      6.76472900
H          11.70698200      9.02743200      6.55578700
O           7.25430800      7.65032500      9.20101300
H           8.00407200      7.93876600      8.59073000
H           7.09374000      6.74769900      8.95310600
O           7.82630300      8.24574300     11.80306300
H           7.40839600      7.56512000     12.31738900
H           7.61724000      8.01918900     10.86792100
O          10.53241400     14.25561000      8.85310700
H          10.96379600     13.50541400      8.40081200
H          10.67308800     15.00342000      8.28208300
O          11.65801500     12.01918200      7.70290300
H          11.12625000     11.41975800      7.13774700
H          12.31166300     11.43460600      8.09755200
          45
 Energy =  -1430.86419790 a.u.  #Cluster:    3
C          10.04732800     10.34590400     11.97594300
H          10.45436500      9.35850600     11.65801100
H          10.82121600     10.85660700     12.56642000
H           9.18045000     10.13308400     12.62583100
C           8.92467000     12.39144500     11.24192800
H           8.68753000     13.05887500     10.38380100
H           7.98153800     12.13050200     11.74573900
H           9.54517800     12.98332800     11.93333900
C          10.89208700     11.55350400     10.02946600
H          10.71046000     11.64653300      8.93822100
H          11.29146600     12.52062400     10.37302900
H          11.68757600     10.78978700     10.14480500
C           8.72194500     10.31690800      9.91838700
H           7.87945200      9.95268600     10.55648900
H           9.29210200      9.39911000      9.61730700
C           8.16461600     11.05010500      8.69292300
H           8.80288800     11.91433600      8.40501500
H           7.17441900     11.48889000      8.91987200
C           8.04902400     10.09993700      7.50058500
H           7.69464300     10.64073800      6.60256700
H           7.31242200      9.29771400      7.69206900
N           9.64803800     11.16310000     10.77555000
C           9.41982800      9.49189500      7.19934700
O          10.35793000     10.28191100      6.94073600
O           9.53728800      8.25770600      7.28302500
P          12.63009900      8.21787200      8.69735000
O          11.89876800      8.14618800      9.96881900
O          14.13829200      7.75382200      8.88803300
H          14.60172700      7.84281400      7.96695500
O          12.08516400      7.32003800      7.51454500
H          11.08133400      7.63384200      7.30592500
O          12.76417000      9.69618200      8.12110800
H          11.89671100      9.91845600      7.56253000
O           9.11331700      6.89368500      9.71481100
H           9.08494700      7.26312900      8.80875200
H          10.05824600      6.90978300      9.92131600
O           7.98987200      8.22355200     11.78368500
H           7.42011000      7.59621000     12.21509200
H           8.38251500      7.72350400     11.03050600
O           9.94664800     14.12458000      9.03266900
H          10.05470000     13.69330500      8.15618400
H           9.87350700     15.05249700      8.83467300
O          10.18018000     12.88383800      6.60653700
H          10.17142000     11.88345400      6.69370900
H          10.91983000     13.05953200      6.03641300
          45
 Energy =  -1430.86417250 a.u.  #Cluster:    4
C          10.15259800     10.16101100     12.21185800
H          10.83179000      9.34638100     11.87618700
H          10.69952800     10.76840300     12.94594500
H           9.30198900      9.66039500     12.71012200
C           8.90326200     12.15138400     11.57826900
H           8.54500200     12.80630100     10.75931200
H           8.02604900     11.80056100     12.14375100
H           9.51865000     12.78978900     12.23361500
C          10.90760900     11.48726600     10.30443600
H          10.68552000     11.68482300      9.23427700
H          11.30098500     12.42108400     10.73465600
H          11.71812800     10.72964600     10.30703100
C           8.82318600     10.14158700     10.13652200
H           8.05147700      9.62010200     10.74851300
H           9.46557100      9.31790700      9.72663600
C           8.16332000     10.95210200      9.01248100
H           8.75270400     11.86477700      8.76787300
H           7.16972400     11.32026100      9.33237000
C           8.01220400     10.11598600      7.74210300
H           7.63398500     10.73739000      6.90822800
H           7.27004000      9.30467000      7.88341600
N           9.69635000     10.99391500     11.04462200
C           9.36842000      9.53261700      7.34677100
O          10.31998800     10.32479500      7.17372300
O           9.45879300      8.29053400      7.28128500
P          12.53320100      8.04881500      8.80563400
O          11.86930500      8.08459900     10.11307900
O          14.01130300      7.47977600      8.95489800
H          14.43668300      7.48772400      8.01191200
O          11.88757900      7.14419700      7.68197500
H          10.93318500      7.55650600      7.43455300
O          12.75720800      9.49220500      8.17130200
H          11.87242800      9.79802800      7.69240400
O           7.83330300      7.10991200      9.10488500
H           8.41604200      7.50555400      8.41093200
H           7.74126000      6.19778600      8.84659100
O           9.21589800      7.51887200     11.48442600
H          10.10945300      7.39886900     11.15068300
H           8.65429800      7.28185600     10.72784400
O          10.04877600     14.12520500      9.43703200
H          10.07273800     13.72315400      8.54336700
H          10.02290900     15.06287200      9.27859700
O          10.06881800     12.94277200      6.96097900
H          10.10486600     11.94314300      7.01561300
H          10.73388900     13.16448400      6.31930700
          45
 Energy =  -1430.86388190 a.u.  #Cluster:    5
C           9.97047700     10.18281500     12.07691900
H          10.62845900      9.35116100     11.74047200
H          10.48426400     10.70249000     12.89713500
H           9.05130700      9.70556700     12.46371100
C           8.90374000     12.29132100     11.48312500
H           8.73202000     13.05757700     10.69545500
H           7.92660100     11.97670100     11.87889300
H           9.46593900     12.80147200     12.28176600
C          10.96688000     11.58332800     10.34044700
H          10.85108000     11.86034600      9.27128400
H          11.36975000     12.46297100     10.86534700
H          11.73096600     10.77943600     10.36233600
C           8.82946300     10.38730100      9.90364200
H           7.98635500      9.86570300     10.41294700
H           9.46029300      9.56178700      9.48022500
C           8.30084400     11.31412100      8.80061000
H           8.95235400     12.20717700      8.67224100
H           7.30589000     11.71394300      9.07504200
C           8.20696600     10.58427200      7.46124600
H           7.92467700     11.28513300      6.65294900
H           7.41731600      9.80644500      7.48434000
N           9.66838800     11.12023900     10.93941800
C           9.55931300      9.95843500      7.12167100
O          10.56010500     10.70660300      7.08192100
O           9.59233600      8.72166100      6.96472000
P          12.51372100      8.19604300      8.70089900
O          11.74976000      8.18905200      9.95316900
O          13.94166300      7.53123700      8.92391000
H          14.44132800      7.57389500      8.01897700
O          11.91150000      7.40467600      7.47263400
H          11.00579400      7.89067800      7.17961600
O          12.86628900      9.66054700      8.18432900
H          12.03717500     10.05139400      7.66874900
O           7.77313200      7.49877000      8.56448400
H           8.42719600      7.91319800      7.94966000
H           7.65875100      6.61463700      8.22943000
O           8.97107400      7.65368100     11.07217800
H           9.88228600      7.51018000     10.80151000
H           8.46354400      7.50517500     10.25715300
O          10.13659400     14.28624800      9.67207000
H          10.29671900     13.97035500      8.75652200
H          10.09987500     15.23429600      9.59595600
O          10.51553900     13.34396800      7.12582300
H          11.28577100     13.56932700      6.61681000
H          10.46652600     12.34465800      7.06827600
          45
 Energy =  -1430.86345030 a.u.  #Cluster:    6
C           9.91950800     10.26392300     12.01538600
H          10.42803100      9.33614200     11.66715600
H          10.60571900     10.79558600     12.68859500
H           9.03228400      9.93235300     12.58735800
C           8.74385000     12.30071000     11.34234100
H           8.50200100     12.99560500     10.50788200
H           7.79998500     11.98043300     11.80932300
H           9.32213800     12.88494200     12.07561100
C          10.77831400     11.59338200     10.15607400
H          10.62920700     11.72304000      9.06362200
H          11.12606700     12.56069700     10.55132700
H          11.60080100     10.85823500     10.26840100
C           8.66054200     10.28597900      9.91823100
H           7.81124200      9.86438200     10.50982500
H           9.27412700      9.40355600      9.59819600
C           8.11682400     11.05250200      8.70721000
H           8.73358400     11.94887400      8.47667400
H           7.10565000     11.44841400      8.91960400
C           8.07180000     10.15037900      7.47338800
H           7.73423600     10.71818600      6.58576400
H           7.35345000      9.32010700      7.60432100
N           9.52749500     11.12344400     10.84299700
C           9.47093100      9.59535500      7.20091700
O          10.38957100     10.42258000      6.99483800
O           9.62702100      8.36379200      7.25788100
P          12.68958100      8.37686900      8.74058100
O          11.93901700      8.22300900      9.99330600
O          14.21076900      7.96201800      8.94198400
H          14.68774400      8.10861000      8.03544300
O          12.20184000      7.51092400      7.51012700
H          11.19088200      7.79581800      7.29333400
O          12.77727800      9.88300100      8.23125300
H          11.91941600     10.09310800      7.65400700
O           9.19720200      6.91665900      9.65325500
H           9.17514700      7.30770500      8.75643600
H          10.13849900      6.94711700      9.87508200
O           8.00962400      8.14359900     11.75883900
H           7.45951300      7.48299600     12.16611300
H           8.42680300      7.68135600     10.99459000
O           9.75997900     14.16584700      9.23740400
H           9.92245600     13.77521300      8.35064100
H           9.65360800     15.09700100      9.07224800
O          10.14502300     13.03191200      6.77566700
H          10.16276100     12.02885100      6.81492800
H          10.89849500     13.25581600      6.24185400
          45
 Energy =  -1430.86184610 a.u.  #Cluster:    7
C          10.09565400     10.10460700     12.07856800
H          11.02341000      9.67021800     11.64747200
H          10.36393500     10.62624200     13.00669000
H           9.42973900      9.25458900     12.33599300
C           8.21812200     11.63252500     11.74381400
H           7.67400900     12.28026400     11.03517700
H           7.52040000     10.83575100     12.07602500
H           8.48983800     12.23595900     12.62300500
C          10.39117600     12.12101700     10.72509300
H           9.87283500     12.96957400     10.23378100
H          10.92519700     12.51174500     11.60189800
H          11.15592500     11.75926900     10.00222100
C           9.01057500     10.21738800      9.88617600
H           8.14984800      9.56939100     10.17827700
H           9.85056700      9.51798900      9.63452100
C           8.63375600     11.04606200      8.65614700
H           9.49534900     11.65772200      8.30267500
H           7.82271300     11.76175300      8.87560900
C           8.21204700     10.09664700      7.53070500
H           7.85566300     10.66546300      6.65207800
H           7.38108800      9.43562600      7.83691900
N           9.43230700     11.03130900     11.09582500
C           9.43923400      9.26938300      7.13739900
O          10.26690100      9.78519900      6.36878200
O           9.56427400      8.14092200      7.67006100
P          12.86294900      8.87377700      8.56992400
O          12.38440200      9.71386400      9.66986700
O          14.38620800      8.47495500      8.79867400
H          14.67664500      7.90305700      7.98705500
O          12.13580200      7.47898900      8.37691500
H          11.14056900      7.65847600      8.05076600
O          12.88075100      9.57857000      7.14383900
H          11.90392900      9.54998400      6.73727900
O           7.80246000      7.26552900      9.42825300
H           8.46231300      7.62840500      8.76053100
H           7.85557000      6.32486100      9.31199400
O           7.49951500      8.36664800     11.94940400
H           6.87078800      7.81646300     12.40416200
H           7.61834100      7.94049700     11.07172400
O          10.32870600     13.97028600      8.49416900
H          10.72312600     13.35664000      7.83485300
H          10.32509300     14.81609500      8.06037200
O          11.37290800     12.27588400      6.63040300
H          10.83990100     11.47336400      6.43014800
H          12.23547600     11.90706100      6.84478000
          45
 Energy =  -1430.86160700 a.u.  #Cluster:    8
C          10.18511800     10.04964100     12.02352800
H          11.11576400      9.67680000     11.53831400
H          10.46910500     10.55716300     12.95445700
H           9.57774900      9.15819700     12.28284300
C           8.22781700     11.49994200     11.82279200
H           7.60990400     12.12115200     11.15250900
H           7.59517300     10.66422100     12.18920400
H           8.51741900     12.11108800     12.69091400
C          10.32500600     12.10944700     10.71603300
H           9.75127000     12.93842000     10.25500000
H          10.86780000     12.51217500     11.58219300
H          11.08512800     11.79457800      9.96633300
C           8.97907100     10.16835400      9.89190100
H           8.10253200      9.54570800     10.18634000
H           9.79621800      9.44437500      9.63428000
C           8.61524200     11.00339700      8.66206700
H           9.48141500     11.61188900      8.31422100
H           7.80682800     11.72255000      8.87955900
C           8.19798200     10.05760300      7.53154300
H           7.83374100     10.62907400      6.65792300
H           7.37474600      9.38662100      7.83600300
N           9.43294300     10.96882000     11.09985600
C           9.43208300      9.24484300      7.12862800
O          10.25563200      9.77812300      6.36675200
O           9.56734700      8.11093700      7.64638400
P          12.83220700      8.91128300      8.59846800
O          12.30701400      9.72903900      9.69530100
O          14.36030200      8.55310900      8.85821500
H          14.68492100      7.99828200      8.04731800
O          12.14575000      7.50002900      8.38023600
H          11.14982800      7.65754700      8.04307000
O          12.85936200      9.62810500      7.17906200
H          11.88902300      9.57949500      6.75599500
O           7.87201400      7.23443500      9.47864200
H           8.50615100      7.59411200      8.78672900
H           7.84700200      6.30244500      9.29977700
O           7.67029900      8.17309400     12.10750600
H           7.17907100      7.51449200     12.58702400
H           7.75060800      7.81672000     11.19828600
O          10.26896800     13.94869500      8.52345700
H          10.66256100     13.34639600      7.85355100
H          10.25570600     14.79964200      8.09973600
O          11.31536400     12.28577100      6.63214500
H          10.79061000     11.47871900      6.42703400
H          12.18023400     11.92349400      6.84889000
          45
 Energy =  -1430.86004270 a.u.  #Cluster:    9
C          10.67711600     10.23995800     11.82117900
H          11.65996700     10.40001700     11.33349700
H          10.77532800     10.45309400     12.89272300
H          10.44279900      9.15713900     11.70438000
C           8.37510900     11.06396300     12.01616400
H           7.57119300     11.66658900     11.56456200
H           7.99327600     10.02000100     12.11182800
H           8.56478500     11.44235000     13.03108300
C          10.12290400     12.50238000     11.08293600
H           9.32819800     13.20106300     10.76146300
H          10.51877900     12.85818700     12.04378400
H          10.93446800     12.57582000     10.32219700
C           9.34168800     10.53126700      9.79633100
H           8.93034600      9.49676100      9.90478400
H          10.33621800     10.42015200      9.28502200
C           8.42181900     11.39151400      8.92522200
H           8.94733200     12.31941600      8.60600200
H           7.52192300     11.72194300      9.47245900
C           8.00602200     10.59754700      7.68283700
H           7.67749500     11.27762800      6.87532300
H           7.14850800      9.93380700      7.90053400
N           9.61619200     11.09441200     11.17760300
C           9.18403200      9.76322900      7.17179000
O          10.20619900     10.36538500      6.78131000
O           9.06537000      8.52467400      7.22076300
P          12.31419300      8.06728500      8.42082200
O          12.00491500      8.64622700      9.72886700
O          13.65412200      7.21292100      8.48438400
H          13.81126100      6.82223200      7.53912400
O          11.23879200      7.03538800      7.86724900
H          10.41845100      7.58118100      7.46875800
O          12.58874200      9.09882200      7.24515600
H          11.67035000      9.54661000      6.95847100
O           8.46646200      6.94945700      9.35583600
H           8.46846400      7.54967700      8.57507300
H           9.31014700      6.49163500      9.26053700
O           8.29337000      8.02956100     11.82920900
H           7.97332900      7.30503600     12.35501700
H           8.35678000      7.65861900     10.91653500
O          10.06160300     14.56045800      8.92035900
H          10.61001100     13.83181300      8.58708800
H          10.08507700     15.22306300      8.23728200
O          11.48829700     12.29068500      8.13864600
H          12.39361600     12.04108200      7.96895900
H          10.95497600     11.65997100      7.58687400
          45
 Energy =  -1430.85636330 a.u.  #Cluster:   10
C          10.02964200      9.94373700     12.14932900
H          10.66397500      9.13742600     11.71641400
H          10.61425500     10.46263100     12.92078900
H           9.16918800      9.44115700     12.63287800
C           8.60241900     11.86913500     11.65738100
H           8.33458100     12.64665500     10.91118300
H           7.67687200     11.36139200     11.97497200
H           9.03146700     12.38699100     12.52947300
C          10.77668800     11.62979300     10.53933200
H          10.77047600     12.69462600     10.82530900
H          11.72785600     11.18230500     10.88953800
H          10.82088400     11.58903100      9.43111700
C           8.89093900     10.07183500      9.99152000
H           8.07235600      9.47357400     10.45945100
H           9.63421800      9.32061000      9.61294700
C           8.32219200     10.90769300      8.84114000
H           9.02774600     11.70926300      8.52963600
H           7.39805200     11.43072000      9.14913800
C           8.03485000     10.00631600      7.63947500
H           7.55649000     10.58029700      6.82433200
H           7.33582900      9.18940600      7.90035100
N           9.57858500     10.89111000     11.07057600
C           9.36150100      9.43386800      7.13464500
O          10.14767800     10.20197800      6.55295200
O           9.59409300      8.22931300      7.38553500
P          12.78181500      8.88899100      8.48121400
O          12.19148700      9.36559700      9.73536000
O          14.32971500      8.57500700      8.67543900
H          14.69274600      8.25830200      7.75988300
O          12.19011800      7.55109800      7.87661500
H          11.17411300      7.73976000      7.60822000
O          12.77072200      9.95670800      7.29970600
H          11.79878400      9.98362100      6.88380900
O           8.23288900      7.02113800      9.31214500
H           8.71124100      7.51025800      8.58034200
H           8.50809400      6.11843100      9.19037300
O           8.00853100      7.81986100     11.93494800
H           7.37790600      7.21047500     12.30268900
H           8.14427000      7.51520300     11.01252200
O           9.63666400     13.97638400      9.32016800
H          10.11546800     13.55153900      8.57845000
H           9.46170500     14.86174700      9.01634400
O          10.95645100     12.68509400      7.24392500
H          10.52392600     11.86818700      6.89359200
H          11.88054500     12.43176500      7.29486000
          45
 Energy =  -1430.83627820 a.u.  #Cluster:   11
C          10.17434400      9.84997600     12.03970500
H          10.82415200      9.09995500     11.52600800
H          10.73752800     10.25044300     12.89203900
H           9.29186000      9.28934800     12.42020200
C           8.98180300     12.00563600     11.78996300
H           8.81611400     12.88876100     11.12797400
H           7.99714000     11.63149900     12.11372500
H           9.51851900     12.37337700     12.67824100
C          11.01558000     11.53833000     10.47267400
H          10.77878100     12.17472000      9.58768200
H          11.56534800     12.15380600     11.19671800
H          11.69857100     10.73354400     10.11101500
C           8.90486400     10.29065400      9.98024700
H           8.04420600      9.76165800     10.46838300
H           9.52409000      9.47114100      9.51423000
C           8.38969300     11.25843400      8.91367500
H           9.12408300     12.08182500      8.72769700
H           7.46554000     11.76350100      9.25567600
C           8.11723100     10.52184500      7.59876600
H           7.68811700     11.21705500      6.84994500
H           7.36578200      9.71817200      7.73473600
N           9.76520700     10.93573700     11.06575600
C           9.41273600      9.93172000      7.06447000
O          10.28571800     10.72343100      6.59935000
O           9.59032200      8.68885500      7.16324000
P          12.45601100      8.73274900      8.20839500
O          11.68642000      8.75850200      9.48839000
O          14.01062100      8.27921300      8.42334200
H          14.55316100      8.15704100      7.59527400
O          11.93400200      7.74021100      7.04637100
H          10.91257000      7.88805300      6.73795100
O          12.57420700     10.18316000      7.48519100
H          11.79746300     10.38722200      6.74998200
O           9.34090900      7.20498900      9.50563600
H           9.11310500      7.51862200      8.60736700
H          10.27219700      7.47988400      9.65018500
O           7.86783400      8.05064900     11.56572600
H           7.21990600      7.43240400     11.87639700
H           8.36144500      7.58682000     10.82920200
O           9.58409900     14.10162200      9.59107100
H          10.29663800     13.78723700      8.98067000
H           9.27265900     14.92263500      9.22608400
O          11.00832000     12.88851600      7.60706800
H          11.75923600     12.27384800      7.62208200
H          10.37189600     12.47321900      6.97152200
          45
 Energy =  -1430.83451760 a.u.  #Cluster:   12
C           9.83897400     10.04902100     12.19873600
H          10.58074700      9.28726600     11.84448400
H          10.23214100     10.51067600     13.11182700
H           8.93222200      9.45894900     12.43902200
C           8.72609800     12.18752700     11.64785300
H           8.67509000     13.03322900     10.92085200
H           7.69830100     11.84965300     11.85184200
H           9.14252300     12.60224700     12.57936600
C          10.90996200     11.61687100     10.65024000
H          10.80064600     12.22156100      9.72012300
H          11.38188500     12.24791000     11.41466100
H          11.60953900     10.78231100     10.40615600
C           8.87134400     10.35818700      9.94765000
H           7.99572800      9.78917900     10.34099800
H           9.57008900      9.55226300      9.57850400
C           8.45142200     11.29412300      8.81236600
H           9.21769200     12.09245000      8.64896700
H           7.51709800     11.83023900      9.06987800
C           8.24823400     10.52105500      7.50706000
H           7.88592800     11.20010100      6.70994000
H           7.46189400      9.74343000      7.62547300
N           9.57983100     11.06460600     11.10586300
C           9.55183800      9.87314300      7.07090700
O          10.52869100     10.59819500      6.74405700
O           9.61554700      8.60777100      7.10590000
P          12.38120300      8.55183900      8.66764700
O          11.52118100      8.76038700      9.86390000
O          13.86401200      7.97978700      9.04755000
H          14.44849700      7.72587900      8.28030200
O          11.88483500      7.53086100      7.52242200
H          10.94238300      7.77240600      7.04588200
O          12.69834300      9.93565500      7.86066300
H          12.04902900     10.14378100      7.04030100
O           7.76740000      7.42263000      8.70335400
H           8.45454500      7.80218900      8.09099700
H           7.48263900      6.61099700      8.30061600
O           9.06465300      7.66679700     11.04452300