 Entering Gaussian System, Link 0=g16
 Initial command:
 /data0/home/software/g16/l1.exe "/data0/home/software/g16/scratch/Gau-2479727.inp" -scrdir="/data0/home/software/g16/scratch/"
 Default is to use a total of  22 processors:
                               22 via shared-memory
                                1 via Linda
 Entering Link 1 = /data0/home/software/g16/l1.exe PID=   2479728.
  
 Copyright (c) 1988,1990,1992,1993,1995,1998,2003,2009,2016,
            Gaussian, Inc.  All Rights Reserved.
  
 This is part of the Gaussian(R) 16 program.  It is based on
 the Gaussian(R) 09 system (copyright 2009, Gaussian, Inc.),
 the Gaussian(R) 03 system (copyright 2003, Gaussian, Inc.),
 the Gaussian(R) 98 system (copyright 1998, Gaussian, Inc.),
 the Gaussian(R) 94 system (copyright 1995, Gaussian, Inc.),
 the Gaussian 92(TM) system (copyright 1992, Gaussian, Inc.),
 the Gaussian 90(TM) system (copyright 1990, Gaussian, Inc.),
 the Gaussian 88(TM) system (copyright 1988, Gaussian, Inc.),
 the Gaussian 86(TM) system (copyright 1986, Carnegie Mellon
 University), and the Gaussian 82(TM) system (copyright 1983,
 Carnegie Mellon University). Gaussian is a federally registered
 trademark of Gaussian, Inc.
  
 This software contains proprietary and confidential information,
 including trade secrets, belonging to Gaussian, Inc.
  
 This software is provided under written license and may be
 used, copied, transmitted, or stored only in accord with that
 written license.
  
 The following legend is applicable only to US Government
 contracts under FAR:
  
                    RESTRICTED RIGHTS LEGEND
  
 Use, reproduction and disclosure by the US Government is
 subject to restrictions as set forth in subparagraphs (a)
 and (c) of the Commercial Computer Software - Restricted
 Rights clause in FAR 52.227-19.
  
 Gaussian, Inc.
 340 Quinnipiac St., Bldg. 40, Wallingford CT 06492
  
  
 ---------------------------------------------------------------
 Warning -- This program may not be used in any manner that
 competes with the business of Gaussian, Inc. or will provide
 assistance to any competitor of Gaussian, Inc.  The licensee
 of this program is prohibited from giving any competitor of
 Gaussian, Inc. access to this program.  By using this program,
 the user acknowledges that Gaussian, Inc. is engaged in the
 business of creating and licensing software in the field of
 computational chemistry and represents and warrants to the
 licensee that it is not a competitor of Gaussian, Inc. and that
 it will not use this program in any manner prohibited above.
 ---------------------------------------------------------------
  

 Cite this work as:
 Gaussian 16, Revision A.03,
 M. J. Frisch, G. W. Trucks, H. B. Schlegel, G. E. Scuseria, 
 M. A. Robb, J. R. Cheeseman, G. Scalmani, V. Barone, 
 G. A. Petersson, H. Nakatsuji, X. Li, M. Caricato, A. V. Marenich, 
 J. Bloino, B. G. Janesko, R. Gomperts, B. Mennucci, H. P. Hratchian, 
 J. V. Ortiz, A. F. Izmaylov, J. L. Sonnenberg, D. Williams-Young, 
 F. Ding, F. Lipparini, F. Egidi, J. Goings, B. Peng, A. Petrone, 
 T. Henderson, D. Ranasinghe, V. G. Zakrzewski, J. Gao, N. Rega, 
 G. Zheng, W. Liang, M. Hada, M. Ehara, K. Toyota, R. Fukuda, 
 J. Hasegawa, M. Ishida, T. Nakajima, Y. Honda, O. Kitao, H. Nakai, 
 T. Vreven, K. Throssell, J. A. Montgomery, Jr., J. E. Peralta, 
 F. Ogliaro, M. J. Bearpark, J. J. Heyd, E. N. Brothers, K. N. Kudin, 
 V. N. Staroverov, T. A. Keith, R. Kobayashi, J. Normand, 
 K. Raghavachari, A. P. Rendell, J. C. Burant, S. S. Iyengar, 
 J. Tomasi, M. Cossi, J. M. Millam, M. Klene, C. Adamo, R. Cammi, 
 J. W. Ochterski, R. L. Martin, K. Morokuma, O. Farkas, 
 J. B. Foresman, and D. J. Fox, Gaussian, Inc., Wallingford CT, 2016.
 
 ******************************************
 Gaussian 16:  ES64L-G16RevA.03 25-Dec-2016
                11-Oct-2023 
 ******************************************
 %nprocshared=24
 Will use up to   24 processors via shared memory.
 %mem=50GB
 ----------------------------------------
 #p opt freq b3lyp/6-311+g(2d,p) em=gd3bj
 ----------------------------------------
 1/18=20,19=15,26=3,38=1/1,3;
 2/9=110,12=2,17=6,18=5,40=1/2;
 3/5=4,6=6,7=112,11=2,25=1,30=1,71=1,74=-5,124=41/1,2,3;
 4//1;
 5/5=2,38=5/2;
 6/7=2,8=2,9=2,10=2,28=1/1;
 7//1,2,3,16;
 1/18=20,19=15,26=3/3(2);
 2/9=110/2;
 99//99;
 2/9=110/2;
 3/5=4,6=6,7=112,11=2,25=1,30=1,71=1,74=-5,124=41/1,2,3;
 4/5=5,16=3,69=1/1;
 5/5=2,38=5/2;
 7//1,2,3,16;
 1/18=20,19=15,26=3/3(-5);
 2/9=110/2;
 6/7=2,8=2,9=2,10=2,19=2,28=1/1;
 99/9=1/99;
 Leave Link    1 at Wed Oct 11 11:36:43 2023, MaxMem=  6710886400 cpu:               0.7 elap:               0.0
 (Enter /data0/home/software/g16/l101.exe)
 -------------------
 Title Card Required
 -------------------
 Symbolic Z-matrix:
 Charge =  0 Multiplicity = 1
 C                     0.25743   0.68759   0.00003 
 C                     0.26387  -0.72369   0.00001 
 C                    -0.94334  -1.42422  -0.00006 
 C                    -2.11982  -0.69189  -0.00009 
 C                    -2.10807   0.7142   -0.00007 
 C                    -0.91952   1.42994   0. 
 H                    -0.94503  -2.50694   0. 
 H                    -3.07145  -1.20918  -0.0001 
 H                    -3.04895   1.25094  -0.0001 
 H                    -0.91473   2.51325  -0.00001 
 H                     1.9706    1.97505   0.00005 
 C                     2.31511  -0.12818  -0.00012 
 H                     3.39513  -0.12152  -0.00015 
 N                     1.59362   1.04209  -0.00001 
 N                     1.5693   -1.19696   0.00031 
 
 ITRead=  0  0  0  0  0  0  0  0  0  0  0  0  0  0  0
 MicOpt= -1 -1 -1 -1 -1 -1 -1 -1 -1 -1 -1 -1 -1 -1 -1
 NAtoms=     15 NQM=       15 NQMF=       0 NMMI=      0 NMMIF=      0
                NMic=       0 NMicF=      0.
                    Isotopes and Nuclear Properties:
 (Nuclear quadrupole moments (NQMom) in fm**2, nuclear magnetic moments (NMagM)
  in nuclear magnetons)

  Atom         1           2           3           4           5           6           7           8           9          10
 IAtWgt=          12          12          12          12          12          12           1           1           1           1
 AtmWgt=  12.0000000  12.0000000  12.0000000  12.0000000  12.0000000  12.0000000   1.0078250   1.0078250   1.0078250   1.0078250
 NucSpn=           0           0           0           0           0           0           1           1           1           1
 AtZEff=  -0.0000000  -0.0000000  -0.0000000  -0.0000000  -0.0000000  -0.0000000  -0.0000000  -0.0000000  -0.0000000  -0.0000000
 NQMom=    0.0000000   0.0000000   0.0000000   0.0000000   0.0000000   0.0000000   0.0000000   0.0000000   0.0000000   0.0000000
 NMagM=    0.0000000   0.0000000   0.0000000   0.0000000   0.0000000   0.0000000   2.7928460   2.7928460   2.7928460   2.7928460
 AtZNuc=   6.0000000   6.0000000   6.0000000   6.0000000   6.0000000   6.0000000   1.0000000   1.0000000   1.0000000   1.0000000

  Atom        11          12          13          14          15
 IAtWgt=           1          12           1          14          14
 AtmWgt=   1.0078250  12.0000000   1.0078250  14.0030740  14.0030740
 NucSpn=           1           0           1           2           2
 AtZEff=  -0.0000000  -0.0000000  -0.0000000  -0.0000000  -0.0000000
 NQMom=    0.0000000   0.0000000   0.0000000   2.0440000   2.0440000
 NMagM=    2.7928460   0.0000000   2.7928460   0.4037610   0.4037610
 AtZNuc=   1.0000000   6.0000000   1.0000000   7.0000000   7.0000000
 Leave Link  101 at Wed Oct 11 11:36:43 2023, MaxMem=  6710886400 cpu:               7.8 elap:               0.3
 (Enter /data0/home/software/g16/l103.exe)

 GradGradGradGradGradGradGradGradGradGradGradGradGradGradGradGradGradGrad
 Berny optimization.
 Initialization pass.
                           ----------------------------
                           !    Initial Parameters    !
                           ! (Angstroms and Degrees)  !
 --------------------------                            --------------------------
 ! Name  Definition              Value          Derivative Info.                !
 --------------------------------------------------------------------------------
 ! R1    R(1,2)                  1.4113         estimate D2E/DX2                !
 ! R2    R(1,6)                  1.3915         estimate D2E/DX2                !
 ! R3    R(1,14)                 1.3824         estimate D2E/DX2                !
 ! R4    R(2,3)                  1.3957         estimate D2E/DX2                !
 ! R5    R(2,15)                 1.3886         estimate D2E/DX2                !
 ! R6    R(3,4)                  1.3858         estimate D2E/DX2                !
 ! R7    R(3,7)                  1.0827         estimate D2E/DX2                !
 ! R8    R(4,5)                  1.4061         estimate D2E/DX2                !
 ! R9    R(4,8)                  1.0831         estimate D2E/DX2                !
 ! R10   R(5,6)                  1.3874         estimate D2E/DX2                !
 ! R11   R(5,9)                  1.0832         estimate D2E/DX2                !
 ! R12   R(6,10)                 1.0833         estimate D2E/DX2                !
 ! R13   R(11,14)                1.0062         estimate D2E/DX2                !
 ! R14   R(12,13)                1.08           estimate D2E/DX2                !
 ! R15   R(12,14)                1.3748         estimate D2E/DX2                !
 ! R16   R(12,15)                1.3033         estimate D2E/DX2                !
 ! A1    A(2,1,6)              122.5027         estimate D2E/DX2                !
 ! A2    A(2,1,14)             104.5977         estimate D2E/DX2                !
 ! A3    A(6,1,14)             132.8996         estimate D2E/DX2                !
 ! A4    A(1,2,3)              119.865          estimate D2E/DX2                !
 ! A5    A(1,2,15)             110.1888         estimate D2E/DX2                !
 ! A6    A(3,2,15)             129.9461         estimate D2E/DX2                !
 ! A7    A(2,3,4)              117.9725         estimate D2E/DX2                !
 ! A8    A(2,3,7)              120.216          estimate D2E/DX2                !
 ! A9    A(4,3,7)              121.8115         estimate D2E/DX2                !
 ! A10   A(3,4,5)              121.4224         estimate D2E/DX2                !
 ! A11   A(3,4,8)              119.5709         estimate D2E/DX2                !
 ! A12   A(5,4,8)              119.0067         estimate D2E/DX2                !
 ! A13   A(4,5,6)              121.5346         estimate D2E/DX2                !
 ! A14   A(4,5,9)              119.2241         estimate D2E/DX2                !
 ! A15   A(6,5,9)              119.2413         estimate D2E/DX2                !
 ! A16   A(1,6,5)              116.7027         estimate D2E/DX2                !
 ! A17   A(1,6,10)             121.9884         estimate D2E/DX2                !
 ! A18   A(5,6,10)             121.3089         estimate D2E/DX2                !
 ! A19   A(13,12,14)           121.3015         estimate D2E/DX2                !
 ! A20   A(13,12,15)           125.2608         estimate D2E/DX2                !
 ! A21   A(14,12,15)           113.4376         estimate D2E/DX2                !
 ! A22   A(1,14,11)            126.8612         estimate D2E/DX2                !
 ! A23   A(1,14,12)            106.7956         estimate D2E/DX2                !
 ! A24   A(11,14,12)           126.3432         estimate D2E/DX2                !
 ! A25   A(2,15,12)            104.9802         estimate D2E/DX2                !
 ! D1    D(6,1,2,3)              0.0005         estimate D2E/DX2                !
 ! D2    D(6,1,2,15)          -179.9883         estimate D2E/DX2                !
 ! D3    D(14,1,2,3)          -179.9958         estimate D2E/DX2                !
 ! D4    D(14,1,2,15)            0.0153         estimate D2E/DX2                !
 ! D5    D(2,1,6,5)             -0.001          estimate D2E/DX2                !
 ! D6    D(2,1,6,10)          -179.9985         estimate D2E/DX2                !
 ! D7    D(14,1,6,5)           179.9942         estimate D2E/DX2                !
 ! D8    D(14,1,6,10)           -0.0033         estimate D2E/DX2                !
 ! D9    D(2,1,14,11)         -179.9959         estimate D2E/DX2                !
 ! D10   D(2,1,14,12)            0.0031         estimate D2E/DX2                !
 ! D11   D(6,1,14,11)            0.0083         estimate D2E/DX2                !
 ! D12   D(6,1,14,12)         -179.9927         estimate D2E/DX2                !
 ! D13   D(1,2,3,4)             -0.0001         estimate D2E/DX2                !
 ! D14   D(1,2,3,7)           -179.9954         estimate D2E/DX2                !
 ! D15   D(15,2,3,4)           179.9863         estimate D2E/DX2                !
 ! D16   D(15,2,3,7)            -0.009          estimate D2E/DX2                !
 ! D17   D(1,2,15,12)           -0.0282         estimate D2E/DX2                !
 ! D18   D(3,2,15,12)          179.9844         estimate D2E/DX2                !
 ! D19   D(2,3,4,5)              0.0002         estimate D2E/DX2                !
 ! D20   D(2,3,4,8)           -179.9977         estimate D2E/DX2                !
 ! D21   D(7,3,4,5)            179.9954         estimate D2E/DX2                !
 ! D22   D(7,3,4,8)             -0.0025         estimate D2E/DX2                !
 ! D23   D(3,4,5,6)             -0.0007         estimate D2E/DX2                !
 ! D24   D(3,4,5,9)            179.9999         estimate D2E/DX2                !
 ! D25   D(8,4,5,6)            179.9972         estimate D2E/DX2                !
 ! D26   D(8,4,5,9)             -0.0022         estimate D2E/DX2                !
 ! D27   D(4,5,6,1)              0.0011         estimate D2E/DX2                !
 ! D28   D(4,5,6,10)           179.9986         estimate D2E/DX2                !
 ! D29   D(9,5,6,1)           -179.9995         estimate D2E/DX2                !
 ! D30   D(9,5,6,10)            -0.002          estimate D2E/DX2                !
 ! D31   D(13,12,14,1)        -179.9989         estimate D2E/DX2                !
 ! D32   D(13,12,14,11)          0.0001         estimate D2E/DX2                !
 ! D33   D(15,12,14,1)          -0.0223         estimate D2E/DX2                !
 ! D34   D(15,12,14,11)        179.9767         estimate D2E/DX2                !
 ! D35   D(13,12,15,2)        -179.9934         estimate D2E/DX2                !
 ! D36   D(14,12,15,2)           0.031          estimate D2E/DX2                !
 --------------------------------------------------------------------------------
 Trust Radius=3.00D-01 FncErr=1.00D-07 GrdErr=1.00D-06 EigMax=2.50D+02 EigMin=1.00D-04
 Number of steps in this run=     87 maximum allowed number of steps=    100.
 GradGradGradGradGradGradGradGradGradGradGradGradGradGradGradGradGradGrad

 Leave Link  103 at Wed Oct 11 11:36:43 2023, MaxMem=  6710886400 cpu:               0.2 elap:               0.0
 (Enter /data0/home/software/g16/l202.exe)
                          Input orientation:                          
 ---------------------------------------------------------------------
 Center     Atomic      Atomic             Coordinates (Angstroms)
 Number     Number       Type             X           Y           Z
 ---------------------------------------------------------------------
      1          6           0        0.257431    0.687586    0.000028
      2          6           0        0.263866   -0.723691    0.000007
      3          6           0       -0.943335   -1.424221   -0.000055
      4          6           0       -2.119823   -0.691888   -0.000092
      5          6           0       -2.108074    0.714204   -0.000072
      6          6           0       -0.919517    1.429939    0.000000
      7          1           0       -0.945030   -2.506944    0.000004
      8          1           0       -3.071455   -1.209183   -0.000102
      9          1           0       -3.048954    1.250935   -0.000104
     10          1           0       -0.914733    2.513254   -0.000008
     11          1           0        1.970602    1.975045    0.000053
     12          6           0        2.315114   -0.128177   -0.000117
     13          1           0        3.395126   -0.121523   -0.000146
     14          7           0        1.593622    1.042094   -0.000007
     15          7           0        1.569302   -1.196963    0.000309
 ---------------------------------------------------------------------
                    Distance matrix (angstroms):
                    1          2          3          4          5
     1  C    0.000000
     2  C    1.411292   0.000000
     3  C    2.429314   1.395735   0.000000
     4  C    2.748506   2.383901   1.385798   0.000000
     5  C    2.365655   2.773741   2.435052   1.406141   0.000000
     6  C    1.391508   2.457340   2.854259   2.437803   1.387424
     7  H    3.413347   2.154396   1.082724   2.162075   3.424685
     8  H    3.831346   3.370470   2.138957   1.083142   2.151167
     9  H    3.354034   3.856673   3.404422   2.153566   1.083206
    10  H    2.169570   3.444838   3.937579   3.424205   2.158852
    11  H    2.143013   3.193137   4.477280   4.883043   4.269112
    12  C    2.213488   2.135944   3.506739   4.470619   4.502688
    13  H    3.240338   3.188635   4.529820   5.544365   5.566296
    14  N    1.382419   2.210486   3.538200   4.098337   3.716190
    15  N    2.296199   1.388578   2.522893   3.723539   4.144352
                    6          7          8          9         10
     6  C    0.000000
     7  H    3.936966   0.000000
     8  H    3.405261   2.491158   0.000000
     9  H    2.136947   4.306756   2.460221   0.000000
    10  H    1.083326   5.020289   4.302091   2.479586   0.000000
    11  H    2.941076   5.346881   5.963359   5.071516   2.935103
    12  C    3.590343   4.035724   5.493969   5.538517   4.172418
    13  H    4.585104   4.952493   6.557414   6.588612   5.051429
    14  N    2.542890   4.363534   5.179883   4.647271   2.907947
    15  N    3.618679   2.835122   4.640773   5.226901   4.464991
                   11         12         13         14         15
    11  H    0.000000
    12  C    2.131251   0.000000
    13  H    2.534732   1.080032   0.000000
    14  N    1.006236   1.374804   2.144626   0.000000
    15  N    3.197292   1.303280   2.119010   2.239189   0.000000
 Stoichiometry    C7H6N2
 Framework group  C1[X(C7H6N2)]
 Deg. of freedom    39
 Full point group                 C1      NOp   1
 Largest Abelian subgroup         C1      NOp   1
 Largest concise Abelian subgroup C1      NOp   1
                         Standard orientation:                         
 ---------------------------------------------------------------------
 Center     Atomic      Atomic             Coordinates (Angstroms)
 Number     Number       Type             X           Y           Z
 ---------------------------------------------------------------------
      1          6           0       -0.257431    0.687586   -0.000028
      2          6           0       -0.263866   -0.723691   -0.000007
      3          6           0        0.943335   -1.424221    0.000055
      4          6           0        2.119823   -0.691888    0.000092
      5          6           0        2.108074    0.714204    0.000072
      6          6           0        0.919517    1.429939    0.000000
      7          1           0        0.945030   -2.506944   -0.000004
      8          1           0        3.071455   -1.209183    0.000102
      9          1           0        3.048954    1.250935    0.000104
     10          1           0        0.914733    2.513254    0.000008
     11          1           0       -1.970602    1.975045   -0.000053
     12          6           0       -2.315114   -0.128177    0.000117
     13          1           0       -3.395126   -0.121523    0.000146
     14          7           0       -1.593622    1.042094    0.000007
     15          7           0       -1.569302   -1.196963   -0.000309
 ---------------------------------------------------------------------
 Rotational constants (GHZ):           3.9554500           1.6832969           1.1807937
 Leave Link  202 at Wed Oct 11 11:36:43 2023, MaxMem=  6710886400 cpu:               0.1 elap:               0.0
 (Enter /data0/home/software/g16/l301.exe)
 Standard basis: 6-311+G(2d,p) (5D, 7F)
 Ernie: Thresh=  0.10000D-02 Tol=  0.10000D-05 Strict=F.
 There are   297 symmetry adapted cartesian basis functions of A   symmetry.
 There are   279 symmetry adapted basis functions of A   symmetry.
   279 basis functions,   426 primitive gaussians,   297 cartesian basis functions
    31 alpha electrons       31 beta electrons
       nuclear repulsion energy       404.8807299925 Hartrees.
 IExCor=  402 DFT=T Ex+Corr=B3LYP ExCW=0 ScaHFX=  0.200000
 ScaDFX=  0.800000  0.720000  1.000000  0.810000 ScalE2=  1.000000  1.000000
 IRadAn=      5 IRanWt=     -1 IRanGd=            0 ICorTp=0 IEmpDi=141
 NAtoms=   15 NActive=   15 NUniq=   15 SFac= 1.00D+00 NAtFMM=   60 NAOKFM=F Big=F
 Integral buffers will be    131072 words long.
 Raffenetti 2 integral format.
 Two-electron integral symmetry is turned on.
 R6Disp:  Grimme-D3(BJ) Dispersion energy=       -0.0276378249 Hartrees.
 Nuclear repulsion after empirical dispersion term =      404.8530921675 Hartrees.
 Leave Link  301 at Wed Oct 11 11:36:43 2023, MaxMem=  6710886400 cpu:               1.1 elap:               0.1
 (Enter /data0/home/software/g16/l302.exe)
 NPDir=0 NMtPBC=     1 NCelOv=     1 NCel=       1 NClECP=     1 NCelD=      1
         NCelK=      1 NCelE2=     1 NClLst=     1 CellRange=     0.0.
 One-electron integrals computed using PRISM.
 One-electron integral symmetry used in STVInt
 NBasis=   279 RedAO= T EigKep=  1.37D-06  NBF=   279
 NBsUse=   279 1.00D-06 EigRej= -1.00D+00 NBFU=   279
 Precomputing XC quadrature grid using
 IXCGrd= 4 IRadAn=           5 IRanWt=          -1 IRanGd=           0 AccXCQ= 0.00D+00.
 Generated NRdTot=       0 NPtTot=           0 NUsed=           0 NTot=          32
 NSgBfM=   297   297   297   297   297 MxSgAt=    15 MxSgA2=    15.
 Leave Link  302 at Wed Oct 11 11:36:44 2023, MaxMem=  6710886400 cpu:               4.3 elap:               0.2
 (Enter /data0/home/software/g16/l303.exe)
 DipDrv:  MaxL=1.
 Leave Link  303 at Wed Oct 11 11:36:44 2023, MaxMem=  6710886400 cpu:               0.6 elap:               0.0
 (Enter /data0/home/software/g16/l401.exe)
 ExpMin= 4.38D-02 ExpMax= 6.29D+03 ExpMxC= 9.49D+02 IAcc=3 IRadAn=         5 AccDes= 0.00D+00
 Harris functional with IExCor=  402 and IRadAn=       5 diagonalized for initial guess.
 HarFok:  IExCor=  402 AccDes= 0.00D+00 IRadAn=         5 IDoV= 1 UseB2=F ITyADJ=14
 ICtDFT=  3500011 ScaDFX=  1.000000  1.000000  1.000000  1.000000
 FoFCou: FMM=F IPFlag=           0 FMFlag=      100000 FMFlg1=           0
         NFxFlg=           0 DoJE=T BraDBF=F KetDBF=T FulRan=T
         wScrn=  0.000000 ICntrl=       500 IOpCl=  0 I1Cent=   200000004 NGrid=           0
         NMat0=    1 NMatS0=      1 NMatT0=    0 NMatD0=    1 NMtDS0=    0 NMtDT0=    0
 Petite list used in FoFCou.
 Harris En= -380.006032030035    
 JPrj=0 DoOrth=F DoCkMO=F.
 Leave Link  401 at Wed Oct 11 11:36:44 2023, MaxMem=  6710886400 cpu:              14.2 elap:               0.6
 (Enter /data0/home/software/g16/l502.exe)
 Integral symmetry usage will be decided dynamically.
 Closed shell SCF:
 Using DIIS extrapolation, IDIIS=  1040.
 NGot=  6710886400 LenX=  6710700099 LenY=  6710611449
 Requested convergence on RMS density matrix=1.00D-08 within 128 cycles.
 Requested convergence on MAX density matrix=1.00D-06.
 Requested convergence on             energy=1.00D-06.
 No special actions if energy rises.
 Fock matrices will be formed incrementally for  20 cycles.

 Cycle   1  Pass 1  IDiag  1:
 FoFJK:  IHMeth= 1 ICntrl=       0 DoSepK=F KAlg= 0 I1Cent=           0 FoldK=F
 IRaf= 960000000 NMat=       1 IRICut=       1 DoRegI=T DoRafI=F ISym2E= 0 IDoP0=0 IntGTp=1.
 FoFCou: FMM=F IPFlag=           0 FMFlag=      100000 FMFlg1=           0
         NFxFlg=           0 DoJE=F BraDBF=F KetDBF=F FulRan=T
         wScrn=  0.000000 ICntrl=         0 IOpCl=  0 I1Cent=           0 NGrid=           0
         NMat0=    1 NMatS0=      1 NMatT0=    0 NMatD0=    1 NMtDS0=    0 NMtDT0=    0
 Symmetry not used in FoFCou.
 E= -379.791597016911    
 DIIS: error= 3.30D-02 at cycle   1 NSaved=   1.
 NSaved= 1 IEnMin= 1 EnMin= -379.791597016911     IErMin= 1 ErrMin= 3.30D-02
 ErrMax= 3.30D-02  0.00D+00 EMaxC= 1.00D-01 BMatC= 2.25D-01 BMatP= 2.25D-01
 IDIUse=3 WtCom= 6.70D-01 WtEn= 3.30D-01
 Coeff-Com:  0.100D+01
 Coeff-En:   0.100D+01
 Coeff:      0.100D+01
 Gap=     0.236 Goal=   None    Shift=    0.000
 GapD=    0.236 DampG=1.000 DampE=0.500 DampFc=0.5000 IDamp=-1.
 Damping current iteration by 5.00D-01
 RMSDP=2.31D-02 MaxDP=2.61D+00              OVMax= 2.70D-01

 Cycle   2  Pass 1  IDiag  1:
 RMSU=  1.10D-02    CP:  1.18D+00
 E= -379.863752864002     Delta-E=       -0.072155847091 Rises=F Damp=T
 DIIS: error= 7.31D-03 at cycle   2 NSaved=   2.
 NSaved= 2 IEnMin= 2 EnMin= -379.863752864002     IErMin= 2 ErrMin= 7.31D-03
 ErrMax= 7.31D-03  0.00D+00 EMaxC= 1.00D-01 BMatC= 2.57D-02 BMatP= 2.25D-01
 IDIUse=3 WtCom= 9.27D-01 WtEn= 7.31D-02
 Coeff-Com:  0.114D+00 0.886D+00
 Coeff-En:   0.267D+00 0.733D+00
 Coeff:      0.125D+00 0.875D+00
 Gap=     0.242 Goal=   None    Shift=    0.000
 RMSDP=6.01D-03 MaxDP=6.74D-01 DE=-7.22D-02 OVMax= 2.79D-01

 Cycle   3  Pass 1  IDiag  1:
 RMSU=  3.04D-03    CP:  1.07D+00  5.72D-01
 E= -379.973396602170     Delta-E=       -0.109643738169 Rises=F Damp=F
 DIIS: error= 1.10D-02 at cycle   3 NSaved=   3.
 NSaved= 3 IEnMin= 3 EnMin= -379.973396602170     IErMin= 2 ErrMin= 7.31D-03
 ErrMax= 1.10D-02  0.00D+00 EMaxC= 1.00D-01 BMatC= 3.21D-02 BMatP= 2.57D-02
 IDIUse=2 WtCom= 0.00D+00 WtEn= 1.00D+00
 Coeff-En:   0.000D+00 0.000D+00 0.100D+01
 Coeff:      0.000D+00 0.000D+00 0.100D+01
 Gap=     0.224 Goal=   None    Shift=    0.000
 RMSDP=3.22D-03 MaxDP=2.28D-01 DE=-1.10D-01 OVMax= 1.88D-01

 Cycle   4  Pass 1  IDiag  1:
 RMSU=  2.36D-03    CP:  1.09D+00  7.35D-01  6.09D-01
 E= -379.849424502915     Delta-E=        0.123972099255 Rises=F Damp=F
 DIIS: error= 2.62D-02 at cycle   4 NSaved=   4.
 NSaved= 4 IEnMin= 3 EnMin= -379.973396602170     IErMin= 2 ErrMin= 7.31D-03
 ErrMax= 2.62D-02  0.00D+00 EMaxC= 1.00D-01 BMatC= 1.63D-01 BMatP= 2.57D-02
 IDIUse=2 WtCom= 0.00D+00 WtEn= 1.00D+00
 Coeff-En:   0.000D+00 0.000D+00 0.778D+00 0.222D+00
 Coeff:      0.000D+00 0.000D+00 0.778D+00 0.222D+00
 Gap=     0.203 Goal=   None    Shift=    0.000
 RMSDP=2.18D-03 MaxDP=2.09D-01 DE= 1.24D-01 OVMax= 1.18D-01

 Cycle   5  Pass 1  IDiag  1:
 RMSU=  3.52D-04    CP:  1.06D+00  5.93D-01  7.68D-01  4.69D-01
 E= -379.993635218350     Delta-E=       -0.144210715436 Rises=F Damp=F
 DIIS: error= 6.55D-03 at cycle   5 NSaved=   5.
 NSaved= 5 IEnMin= 5 EnMin= -379.993635218350     IErMin= 5 ErrMin= 6.55D-03
 ErrMax= 6.55D-03  0.00D+00 EMaxC= 1.00D-01 BMatC= 1.14D-02 BMatP= 2.57D-02
 IDIUse=3 WtCom= 9.34D-01 WtEn= 6.55D-02
 Coeff-Com:  0.486D-02 0.305D-02 0.309D+00-0.586D-01 0.742D+00
 Coeff-En:   0.000D+00 0.000D+00 0.310D+00 0.000D+00 0.690D+00
 Coeff:      0.454D-02 0.285D-02 0.309D+00-0.547D-01 0.738D+00
 Gap=     0.206 Goal=   None    Shift=    0.000
 RMSDP=6.53D-04 MaxDP=3.19D-02 DE=-1.44D-01 OVMax= 4.62D-02

 Cycle   6  Pass 1  IDiag  1:
 RMSU=  2.26D-04    CP:  1.05D+00  5.64D-01  8.20D-01  2.80D-01  1.02D+00
 E= -380.004483847035     Delta-E=       -0.010848628685 Rises=F Damp=F
 DIIS: error= 9.41D-04 at cycle   6 NSaved=   6.
 NSaved= 6 IEnMin= 6 EnMin= -380.004483847035     IErMin= 6 ErrMin= 9.41D-04
 ErrMax= 9.41D-04  0.00D+00 EMaxC= 1.00D-01 BMatC= 1.06D-04 BMatP= 1.14D-02
 IDIUse=3 WtCom= 9.91D-01 WtEn= 9.41D-03
 Coeff-Com:  0.178D-02-0.107D-02 0.136D+00-0.659D-01 0.484D+00 0.445D+00
 Coeff-En:   0.000D+00 0.000D+00 0.000D+00 0.000D+00 0.000D+00 0.100D+01
 Coeff:      0.176D-02-0.106D-02 0.134D+00-0.653D-01 0.480D+00 0.451D+00
 Gap=     0.205 Goal=   None    Shift=    0.000
 RMSDP=8.28D-05 MaxDP=5.25D-03 DE=-1.08D-02 OVMax= 4.86D-03

 Cycle   7  Pass 1  IDiag  1:
 RMSU=  4.12D-05    CP:  1.05D+00  5.63D-01  8.31D-01  2.86D-01  1.03D+00
                    CP:  7.34D-01
 E= -380.004596361706     Delta-E=       -0.000112514671 Rises=F Damp=F
 DIIS: error= 1.59D-04 at cycle   7 NSaved=   7.
 NSaved= 7 IEnMin= 7 EnMin= -380.004596361706     IErMin= 7 ErrMin= 1.59D-04
 ErrMax= 1.59D-04  0.00D+00 EMaxC= 1.00D-01 BMatC= 2.62D-06 BMatP= 1.06D-04
 IDIUse=3 WtCom= 9.98D-01 WtEn= 1.59D-03
 Coeff-Com:  0.101D-02-0.167D-02 0.520D-01-0.282D-01 0.195D+00 0.207D+00
 Coeff-Com:  0.575D+00
 Coeff-En:   0.000D+00 0.000D+00 0.000D+00 0.000D+00 0.000D+00 0.000D+00
 Coeff-En:   0.100D+01
 Coeff:      0.101D-02-0.167D-02 0.519D-01-0.281D-01 0.195D+00 0.207D+00
 Coeff:      0.575D+00
 Gap=     0.205 Goal=   None    Shift=    0.000
 RMSDP=1.32D-05 MaxDP=9.96D-04 DE=-1.13D-04 OVMax= 8.01D-04

 Cycle   8  Pass 1  IDiag  1:
 RMSU=  9.99D-06    CP:  1.05D+00  5.62D-01  8.31D-01  2.86D-01  1.04D+00
                    CP:  7.29D-01  9.12D-01
 E= -380.004598502389     Delta-E=       -0.000002140683 Rises=F Damp=F
 DIIS: error= 7.30D-05 at cycle   8 NSaved=   8.
 NSaved= 8 IEnMin= 8 EnMin= -380.004598502389     IErMin= 8 ErrMin= 7.30D-05
 ErrMax= 7.30D-05  0.00D+00 EMaxC= 1.00D-01 BMatC= 6.60D-07 BMatP= 2.62D-06
 IDIUse=1 WtCom= 1.00D+00 WtEn= 0.00D+00
 Coeff-Com:  0.448D-03-0.117D-02 0.644D-02-0.387D-02 0.242D-01 0.366D-01
 Coeff-Com:  0.364D+00 0.573D+00
 Coeff:      0.448D-03-0.117D-02 0.644D-02-0.387D-02 0.242D-01 0.366D-01
 Coeff:      0.364D+00 0.573D+00
 Gap=     0.205 Goal=   None    Shift=    0.000
 RMSDP=8.17D-06 MaxDP=6.01D-04 DE=-2.14D-06 OVMax= 3.02D-04

 Cycle   9  Pass 1  IDiag  1:
 RMSU=  4.95D-06    CP:  1.05D+00  5.62D-01  8.32D-01  2.86D-01  1.04D+00
                    CP:  7.39D-01  9.98D-01  7.67D-01
 E= -380.004599182636     Delta-E=       -0.000000680247 Rises=F Damp=F
 DIIS: error= 8.08D-06 at cycle   9 NSaved=   9.
 NSaved= 9 IEnMin= 9 EnMin= -380.004599182636     IErMin= 9 ErrMin= 8.08D-06
 ErrMax= 8.08D-06  0.00D+00 EMaxC= 1.00D-01 BMatC= 9.72D-09 BMatP= 6.60D-07
 IDIUse=1 WtCom= 1.00D+00 WtEn= 0.00D+00
 Coeff-Com:  0.122D-03-0.336D-03-0.236D-03 0.104D-03-0.113D-02 0.212D-02
 Coeff-Com:  0.906D-01 0.199D+00 0.709D+00
 Coeff:      0.122D-03-0.336D-03-0.236D-03 0.104D-03-0.113D-02 0.212D-02
 Coeff:      0.906D-01 0.199D+00 0.709D+00
 Gap=     0.205 Goal=   None    Shift=    0.000
 RMSDP=1.19D-06 MaxDP=7.77D-05 DE=-6.80D-07 OVMax= 3.80D-05

 Cycle  10  Pass 1  IDiag  1:
 RMSU=  7.07D-07    CP:  1.05D+00  5.62D-01  8.32D-01  2.86D-01  1.04D+00
                    CP:  7.40D-01  1.00D+00  7.71D-01  8.44D-01
 E= -380.004599190064     Delta-E=       -0.000000007428 Rises=F Damp=F
 DIIS: error= 3.62D-06 at cycle  10 NSaved=  10.
 NSaved=10 IEnMin=10 EnMin= -380.004599190064     IErMin=10 ErrMin= 3.62D-06
 ErrMax= 3.62D-06  0.00D+00 EMaxC= 1.00D-01 BMatC= 2.40D-09 BMatP= 9.72D-09
 IDIUse=1 WtCom= 1.00D+00 WtEn= 0.00D+00
 Coeff-Com:  0.391D-04-0.119D-03-0.493D-03 0.255D-03-0.186D-02-0.539D-03
 Coeff-Com:  0.273D-01 0.784D-01 0.400D+00 0.497D+00
 Coeff:      0.391D-04-0.119D-03-0.493D-03 0.255D-03-0.186D-02-0.539D-03
 Coeff:      0.273D-01 0.784D-01 0.400D+00 0.497D+00
 Gap=     0.205 Goal=   None    Shift=    0.000
 RMSDP=3.52D-07 MaxDP=2.40D-05 DE=-7.43D-09 OVMax= 1.48D-05

 Cycle  11  Pass 1  IDiag  1:
 RMSU=  1.83D-07    CP:  1.05D+00  5.62D-01  8.32D-01  2.86D-01  1.04D+00
                    CP:  7.41D-01  1.00D+00  7.73D-01  8.42D-01  9.31D-01
 E= -380.004599192326     Delta-E=       -0.000000002262 Rises=F Damp=F
 DIIS: error= 1.01D-06 at cycle  11 NSaved=  11.
 NSaved=11 IEnMin=11 EnMin= -380.004599192326     IErMin=11 ErrMin= 1.01D-06
 ErrMax= 1.01D-06  0.00D+00 EMaxC= 1.00D-01 BMatC= 1.15D-10 BMatP= 2.40D-09
 IDIUse=1 WtCom= 1.00D+00 WtEn= 0.00D+00
 Coeff-Com: -0.347D-05 0.495D-05-0.178D-03 0.838D-04-0.586D-03-0.349D-03
 Coeff-Com: -0.229D-02 0.582D-02 0.618D-01 0.187D+00 0.748D+00
 Coeff:     -0.347D-05 0.495D-05-0.178D-03 0.838D-04-0.586D-03-0.349D-03
 Coeff:     -0.229D-02 0.582D-02 0.618D-01 0.187D+00 0.748D+00
 Gap=     0.205 Goal=   None    Shift=    0.000
 RMSDP=2.40D-07 MaxDP=2.29D-05 DE=-2.26D-09 OVMax= 6.49D-06

 Cycle  12  Pass 1  IDiag  1:
 RMSU=  1.22D-07    CP:  1.05D+00  5.62D-01  8.32D-01  2.86D-01  1.04D+00
                    CP:  7.41D-01  1.00D+00  7.77D-01  8.59D-01  8.95D-01
                    CP:  9.87D-01
 E= -380.004599192423     Delta-E=       -0.000000000098 Rises=F Damp=F
 DIIS: error= 3.50D-07 at cycle  12 NSaved=  12.
 NSaved=12 IEnMin=12 EnMin= -380.004599192423     IErMin=12 ErrMin= 3.50D-07
 ErrMax= 3.50D-07  0.00D+00 EMaxC= 1.00D-01 BMatC= 1.77D-11 BMatP= 1.15D-10
 IDIUse=1 WtCom= 1.00D+00 WtEn= 0.00D+00
 Coeff-Com: -0.434D-05 0.945D-05-0.857D-04 0.397D-04-0.269D-03-0.214D-03
 Coeff-Com: -0.271D-02-0.803D-03 0.114D-01 0.720D-01 0.392D+00 0.528D+00
 Coeff:     -0.434D-05 0.945D-05-0.857D-04 0.397D-04-0.269D-03-0.214D-03
 Coeff:     -0.271D-02-0.803D-03 0.114D-01 0.720D-01 0.392D+00 0.528D+00
 Gap=     0.205 Goal=   None    Shift=    0.000
 RMSDP=3.12D-08 MaxDP=1.65D-06 DE=-9.79D-11 OVMax= 2.69D-06

 Cycle  13  Pass 1  IDiag  1:
 RMSU=  2.40D-08    CP:  1.05D+00  5.62D-01  8.32D-01  2.86D-01  1.04D+00
                    CP:  7.41D-01  1.00D+00  7.77D-01  8.61D-01  8.93D-01
                    CP:  1.00D+00  1.00D+00
 E= -380.004599192441     Delta-E=       -0.000000000017 Rises=F Damp=F
 DIIS: error= 1.11D-07 at cycle  13 NSaved=  13.
 NSaved=13 IEnMin=13 EnMin= -380.004599192441     IErMin=13 ErrMin= 1.11D-07
 ErrMax= 1.11D-07  0.00D+00 EMaxC= 1.00D-01 BMatC= 3.29D-12 BMatP= 1.77D-11
 IDIUse=1 WtCom= 1.00D+00 WtEn= 0.00D+00
 Coeff-Com: -0.203D-05 0.523D-05-0.385D-06-0.151D-05 0.157D-04-0.225D-04
 Coeff-Com: -0.115D-02-0.238D-02-0.125D-01-0.812D-02 0.410D-01 0.310D+00
 Coeff-Com:  0.673D+00
 Coeff:     -0.203D-05 0.523D-05-0.385D-06-0.151D-05 0.157D-04-0.225D-04
 Coeff:     -0.115D-02-0.238D-02-0.125D-01-0.812D-02 0.410D-01 0.310D+00
 Coeff:      0.673D+00
 Gap=     0.205 Goal=   None    Shift=    0.000
 RMSDP=2.04D-08 MaxDP=1.17D-06 DE=-1.74D-11 OVMax= 1.01D-06

 Cycle  14  Pass 1  IDiag  1:
 RMSU=  1.17D-08    CP:  1.05D+00  5.62D-01  8.32D-01  2.86D-01  1.04D+00
                    CP:  7.41D-01  1.00D+00  7.77D-01  8.61D-01  8.96D-01
                    CP:  1.02D+00  1.03D+00  9.72D-01
 E= -380.004599192447     Delta-E=       -0.000000000007 Rises=F Damp=F
 DIIS: error= 3.48D-08 at cycle  14 NSaved=  14.
 NSaved=14 IEnMin=14 EnMin= -380.004599192447     IErMin=14 ErrMin= 3.48D-08
 ErrMax= 3.48D-08  0.00D+00 EMaxC= 1.00D-01 BMatC= 8.72D-14 BMatP= 3.29D-12
 IDIUse=1 WtCom= 1.00D+00 WtEn= 0.00D+00
 Coeff-Com: -0.334D-06 0.862D-06 0.114D-05-0.565D-06 0.706D-05 0.301D-06
 Coeff-Com: -0.193D-03-0.490D-03-0.349D-02-0.346D-02 0.168D-02 0.740D-01
 Coeff-Com:  0.228D+00 0.704D+00
 Coeff:     -0.334D-06 0.862D-06 0.114D-05-0.565D-06 0.706D-05 0.301D-06
 Coeff:     -0.193D-03-0.490D-03-0.349D-02-0.346D-02 0.168D-02 0.740D-01
 Coeff:      0.228D+00 0.704D+00
 Gap=     0.205 Goal=   None    Shift=    0.000
 RMSDP=3.39D-09 MaxDP=2.15D-07 DE=-6.59D-12 OVMax= 1.61D-07

 SCF Done:  E(RB3LYP) =  -380.004599192     A.U. after   14 cycles
            NFock= 14  Conv=0.34D-08     -V/T= 2.0042
 KE= 3.784209642400D+02 PE=-1.693269210210D+03 EE= 5.299905546104D+02
 Leave Link  502 at Wed Oct 11 11:36:59 2023, MaxMem=  6710886400 cpu:             363.4 elap:              15.2
 (Enter /data0/home/software/g16/l601.exe)
 Copying SCF densities to generalized density rwf, IOpCl= 0 IROHF=0.

 **********************************************************************

            Population analysis using the SCF density.

 **********************************************************************

 Orbital symmetries:
       Occupied  (A) (A) (A) (A) (A) (A) (A) (A) (A) (A) (A) (A)
                 (A) (A) (A) (A) (A) (A) (A) (A) (A) (A) (A) (A)
                 (A) (A) (A) (A) (A) (A) (A)
       Virtual   (A) (A) (A) (A) (A) (A) (A) (A) (A) (A) (A) (A)
                 (A) (A) (A) (A) (A) (A) (A) (A) (A) (A) (A) (A)
                 (A) (A) (A) (A) (A) (A) (A) (A) (A) (A) (A) (A)
                 (A) (A) (A) (A) (A) (A) (A) (A) (A) (A) (A) (A)
                 (A) (A) (A) (A) (A) (A) (A) (A) (A) (A) (A) (A)
                 (A) (A) (A) (A) (A) (A) (A) (A) (A) (A) (A) (A)
                 (A) (A) (A) (A) (A) (A) (A) (A) (A) (A) (A) (A)
                 (A) (A) (A) (A) (A) (A) (A) (A) (A) (A) (A) (A)
                 (A) (A) (A) (A) (A) (A) (A) (A) (A) (A) (A) (A)
                 (A) (A) (A) (A) (A) (A) (A) (A) (A) (A) (A) (A)
                 (A) (A) (A) (A) (A) (A) (A) (A) (A) (A) (A) (A)
                 (A) (A) (A) (A) (A) (A) (A) (A) (A) (A) (A) (A)
                 (A) (A) (A) (A) (A) (A) (A) (A) (A) (A) (A) (A)
                 (A) (A) (A) (A) (A) (A) (A) (A) (A) (A) (A) (A)
                 (A) (A) (A) (A) (A) (A) (A) (A) (A) (A) (A) (A)
                 (A) (A) (A) (A) (A) (A) (A) (A) (A) (A) (A) (A)
                 (A) (A) (A) (A) (A) (A) (A) (A) (A) (A) (A) (A)
                 (A) (A) (A) (A) (A) (A) (A) (A) (A) (A) (A) (A)
                 (A) (A) (A) (A) (A) (A) (A) (A) (A) (A) (A) (A)
                 (A) (A) (A) (A) (A) (A) (A) (A) (A) (A) (A) (A)
                 (A) (A) (A) (A) (A) (A) (A) (A)
 The electronic state is 1-A.
 Alpha  occ. eigenvalues --  -14.37666 -14.30298 -10.24347 -10.21513 -10.19706
 Alpha  occ. eigenvalues --  -10.18342 -10.17660 -10.17408 -10.17178  -1.02735
 Alpha  occ. eigenvalues --   -0.88934  -0.85266  -0.75216  -0.74508  -0.64137
 Alpha  occ. eigenvalues --   -0.62994  -0.60712  -0.55594  -0.50828  -0.49067
 Alpha  occ. eigenvalues --   -0.45217  -0.45185  -0.44333  -0.42476  -0.37442
 Alpha  occ. eigenvalues --   -0.36472  -0.35147  -0.31683  -0.28392  -0.24037
 Alpha  occ. eigenvalues --   -0.23649
 Alpha virt. eigenvalues --   -0.03147  -0.00955   0.00454   0.00998   0.02317
 Alpha virt. eigenvalues --    0.02981   0.03374   0.04171   0.05100   0.05242
 Alpha virt. eigenvalues --    0.06710   0.07867   0.07900   0.08809   0.09704
 Alpha virt. eigenvalues --    0.10976   0.11775   0.12691   0.12840   0.13689
 Alpha virt. eigenvalues --    0.15051   0.15537   0.15654   0.16676   0.16791
 Alpha virt. eigenvalues --    0.17562   0.18008   0.18510   0.18899   0.19054
 Alpha virt. eigenvalues --    0.19307   0.20789   0.21737   0.21814   0.22044
 Alpha virt. eigenvalues --    0.22948   0.23485   0.23905   0.25282   0.25564
 Alpha virt. eigenvalues --    0.25769   0.26237   0.26881   0.26970   0.28184
 Alpha virt. eigenvalues --    0.30215   0.31440   0.33265   0.33811   0.35029
 Alpha virt. eigenvalues --    0.38125   0.40841   0.42416   0.43894   0.46217
 Alpha virt. eigenvalues --    0.48581   0.50489   0.51162   0.51908   0.52609
 Alpha virt. eigenvalues --    0.52774   0.53604   0.53907   0.55396   0.55985
 Alpha virt. eigenvalues --    0.57884   0.57890   0.61501   0.61857   0.62041
 Alpha virt. eigenvalues --    0.63514   0.63755   0.65950   0.67496   0.67963
 Alpha virt. eigenvalues --    0.68687   0.69859   0.70692   0.71533   0.73429
 Alpha virt. eigenvalues --    0.74412   0.75268   0.77748   0.78830   0.79174
 Alpha virt. eigenvalues --    0.80639   0.81404   0.81650   0.82048   0.83231
 Alpha virt. eigenvalues --    0.83846   0.84244   0.84870   0.86493   0.89021
 Alpha virt. eigenvalues --    0.90048   0.91018   0.92469   0.92934   0.96472
 Alpha virt. eigenvalues --    0.99290   0.99407   1.05258   1.07651   1.10779
 Alpha virt. eigenvalues --    1.13914   1.14424   1.17015   1.20027   1.20053
 Alpha virt. eigenvalues --    1.23529   1.23566   1.30003   1.30614   1.31288
 Alpha virt. eigenvalues --    1.32059   1.33151   1.34014   1.38667   1.39923
 Alpha virt. eigenvalues --    1.41185   1.41871   1.43196   1.46577   1.50066
 Alpha virt. eigenvalues --    1.51084   1.53113   1.54708   1.57510   1.58813
 Alpha virt. eigenvalues --    1.61419   1.62791   1.65875   1.66560   1.71118
 Alpha virt. eigenvalues --    1.73522   1.74798   1.81280   1.81852   1.87274
 Alpha virt. eigenvalues --    1.90421   1.94141   1.96238   1.96586   2.04545
 Alpha virt. eigenvalues --    2.06338   2.07932   2.10371   2.18519   2.27233
 Alpha virt. eigenvalues --    2.28531   2.34455   2.45160   2.49441   2.58412
 Alpha virt. eigenvalues --    2.62570   2.63332   2.64637   2.65651   2.70785
 Alpha virt. eigenvalues --    2.75187   2.75306   2.77380   2.79221   2.80125
 Alpha virt. eigenvalues --    2.80564   2.83998   2.85343   2.87550   2.89910
 Alpha virt. eigenvalues --    2.94812   3.04767   3.06436   3.07792   3.10863
 Alpha virt. eigenvalues --    3.13092   3.14220   3.21083   3.26968   3.27343
 Alpha virt. eigenvalues --    3.27931   3.28651   3.29796   3.32921   3.35748
 Alpha virt. eigenvalues --    3.36498   3.37188   3.37842   3.40977   3.41159
 Alpha virt. eigenvalues --    3.44261   3.46453   3.46807   3.50644   3.51824
 Alpha virt. eigenvalues --    3.56416   3.58329   3.58616   3.59439   3.59645
 Alpha virt. eigenvalues --    3.63094   3.66698   3.66838   3.70382   3.75319
 Alpha virt. eigenvalues --    3.76104   3.76847   3.78458   3.87537   3.90759
 Alpha virt. eigenvalues --    3.91163   3.93629   3.94707   3.95937   3.98607
 Alpha virt. eigenvalues --    4.01066   4.01519   4.04814   4.10983   4.27726
 Alpha virt. eigenvalues --    4.46007   4.60013   4.62394   4.72352   4.76995
 Alpha virt. eigenvalues --    4.91316   4.98739   4.99816   5.04195   5.07178
 Alpha virt. eigenvalues --    5.12348   5.18159   5.26364   5.33269   5.34555
 Alpha virt. eigenvalues --    5.42387   5.51316   5.64769   5.74765  23.70623
 Alpha virt. eigenvalues --   23.98630  24.01957  24.06094  24.11217  24.18671
 Alpha virt. eigenvalues --   24.22497  35.66206  35.75337
          Condensed to atoms (all electrons):
               1          2          3          4          5          6
     1  C    8.272492  -1.791589  -1.220166  -0.351150   0.017240   0.281888
     2  C   -1.791589   8.712551  -1.209817   0.256055  -0.678918  -0.343691
     3  C   -1.220166  -1.209817   9.273009   0.049739   0.725499  -0.728713
     4  C   -0.351150   0.256055   0.049739   5.214053   0.244645   0.339120
     5  C    0.017240  -0.678918   0.725499   0.244645   5.207017   0.287384
     6  C    0.281888  -0.343691  -0.728713   0.339120   0.287384   6.531566
     7  H    0.013361  -0.098368   0.488124  -0.077317   0.033239  -0.021982
     8  H   -0.017470   0.058158  -0.107109   0.443798  -0.080422   0.039101
     9  H    0.047534  -0.009267   0.028935  -0.066879   0.432033  -0.096918
    10  H   -0.128682  -0.036912  -0.026303   0.039493  -0.016602   0.501253
    11  H   -0.137234   0.155137   0.023720  -0.000907  -0.008456  -0.062064
    12  C   -0.527300   0.196566   0.036429   0.006032  -0.007173  -0.074898
    13  H   -0.054336   0.064753   0.032152  -0.000617   0.001804  -0.016810
    14  N    0.376234  -0.055998  -0.073885   0.006979  -0.007581  -0.136634
    15  N    0.652435   0.291063  -0.854909  -0.014022  -0.022792   0.077200
               7          8          9         10         11         12
     1  C    0.013361  -0.017470   0.047534  -0.128682  -0.137234  -0.527300
     2  C   -0.098368   0.058158  -0.009267  -0.036912   0.155137   0.196566
     3  C    0.488124  -0.107109   0.028935  -0.026303   0.023720   0.036429
     4  C   -0.077317   0.443798  -0.066879   0.039493  -0.000907   0.006032
     5  C    0.033239  -0.080422   0.432033  -0.016602  -0.008456  -0.007173
     6  C   -0.021982   0.039101  -0.096918   0.501253  -0.062064  -0.074898
     7  H    0.564367  -0.005864  -0.000388   0.000122   0.000029  -0.000138
     8  H   -0.005864   0.593782  -0.005667  -0.000451  -0.000001   0.000438
     9  H   -0.000388  -0.005667   0.595897  -0.006006  -0.000022   0.000045
    10  H    0.000122  -0.000451  -0.006006   0.589769   0.002516   0.002531
    11  H    0.000029  -0.000001  -0.000022   0.002516   0.430937  -0.030156
    12  C   -0.000138   0.000438   0.000045   0.002531  -0.030156   4.985577
    13  H   -0.000040  -0.000001  -0.000001  -0.000025  -0.000362   0.431698
    14  N   -0.000883   0.000759  -0.000766  -0.004526   0.383729   0.394692
    15  N    0.007264  -0.000847   0.000485   0.000307  -0.010555   0.359616
              13         14         15
     1  C   -0.054336   0.376234   0.652435
     2  C    0.064753  -0.055998   0.291063
     3  C    0.032152  -0.073885  -0.854909
     4  C   -0.000617   0.006979  -0.014022
     5  C    0.001804  -0.007581  -0.022792
     6  C   -0.016810  -0.136634   0.077200
     7  H   -0.000040  -0.000883   0.007264
     8  H   -0.000001   0.000759  -0.000847
     9  H   -0.000001  -0.000766   0.000485
    10  H   -0.000025  -0.004526   0.000307
    11  H   -0.000362   0.383729  -0.010555
    12  C    0.431698   0.394692   0.359616
    13  H    0.546911  -0.051236  -0.067912
    14  N   -0.051236   6.503968   0.027435
    15  N   -0.067912   0.027435   6.960029
 Mulliken charges:
               1
     1  C    0.566742
     2  C    0.490276
     3  C   -0.436704
     4  C   -0.089025
     5  C   -0.126917
     6  C   -0.575803
     7  H    0.098472
     8  H    0.081795
     9  H    0.080984
    10  H    0.083514
    11  H    0.253690
    12  C    0.226040
    13  H    0.114021
    14  N   -0.362287
    15  N   -0.404800
 Sum of Mulliken charges =  -0.00000
 Mulliken charges with hydrogens summed into heavy atoms:
               1
     1  C    0.566742
     2  C    0.490276
     3  C   -0.338231
     4  C   -0.007230
     5  C   -0.045932
     6  C   -0.492289
    12  C    0.340061
    14  N   -0.108597
    15  N   -0.404800
 Electronic spatial extent (au):  <R**2>=            973.3073
 Charge=             -0.0000 electrons
 Dipole moment (field-independent basis, Debye):
    X=             -0.7516    Y=              3.4287    Z=              0.0004  Tot=              3.5101
 Quadrupole moment (field-independent basis, Debye-Ang):
   XX=            -44.0748   YY=            -48.5537   ZZ=            -56.4237
   XY=             -7.6812   XZ=             -0.0011   YZ=             -0.0009
 Traceless Quadrupole moment (field-independent basis, Debye-Ang):
   XX=              5.6092   YY=              1.1304   ZZ=             -6.7396
   XY=             -7.6812   XZ=             -0.0011   YZ=             -0.0009
 Octapole moment (field-independent basis, Debye-Ang**2):
  XXX=            -19.7473  YYY=             19.6629  ZZZ=             -0.0009  XYY=              2.5020
  XXY=             15.2356  XXZ=              0.0031  XZZ=             -4.9404  YZZ=              0.6208
  YYZ=              0.0001  XYZ=              0.0022
 Hexadecapole moment (field-independent basis, Debye-Ang**3):
 XXXX=           -752.2233 YYYY=           -376.4565 ZZZZ=            -65.4899 XXXY=            -32.0973
 XXXZ=             -0.0169 YYYX=            -43.7738 YYYZ=             -0.0072 ZZZX=             -0.0124
 ZZZY=             -0.0046 XXYY=           -204.7804 XXZZ=           -173.5586 YYZZ=            -87.7026
 XXYZ=             -0.0044 YYXZ=             -0.0047 ZZXY=             -2.3068
 N-N= 4.048530921675D+02 E-N=-1.693269210695D+03  KE= 3.784209642400D+02
 No NMR shielding tensors so no spin-rotation constants.
 Leave Link  601 at Wed Oct 11 11:37:00 2023, MaxMem=  6710886400 cpu:               2.6 elap:               0.1
 (Enter /data0/home/software/g16/l701.exe)
 ... and contract with generalized density number  0.
 Compute integral first derivatives.
 R6Disp: Adding Grimme-D3(BJ) dispersion energy 1st derivatives to the gradient.
 Leave Link  701 at Wed Oct 11 11:37:00 2023, MaxMem=  6710886400 cpu:               2.9 elap:               0.1
 (Enter /data0/home/software/g16/l702.exe)
 L702 exits ... SP integral derivatives will be done elsewhere.
 Leave Link  702 at Wed Oct 11 11:37:00 2023, MaxMem=  6710886400 cpu:               0.4 elap:               0.0
 (Enter /data0/home/software/g16/l703.exe)
 Integral derivatives from FoFJK, PRISM(SPDF).
 Compute integral first derivatives, UseDBF=F ICtDFT=           0.
 Calling FoFJK, ICntrl=      2127 FMM=F ISym2X=0 I1Cent= 0 IOpClX= 0 NMat=1 NMatS=1 NMatT=0.
 FoFJK:  IHMeth= 1 ICntrl=    2127 DoSepK=F KAlg= 0 I1Cent=           0 FoldK=F
 IRaf=         0 NMat=       1 IRICut=       1 DoRegI=T DoRafI=F ISym2E= 0 IDoP0=0 IntGTp=1.
 FoFCou: FMM=F IPFlag=           0 FMFlag=      100000 FMFlg1=         800
         NFxFlg=           0 DoJE=F BraDBF=F KetDBF=F FulRan=T
         wScrn=  0.000000 ICntrl=      2127 IOpCl=  0 I1Cent=           0 NGrid=           0
         NMat0=    1 NMatS0=      1 NMatT0=    0 NMatD0=    1 NMtDS0=    0 NMtDT0=    0
 Symmetry not used in FoFCou.
 Leave Link  703 at Wed Oct 11 11:37:03 2023, MaxMem=  6710886400 cpu:              86.8 elap:               3.6
 (Enter /data0/home/software/g16/l716.exe)
 Dipole        =-2.95685813D-01 1.34893607D+00 1.66828885D-04
 ***** Axes restored to original set *****
 -------------------------------------------------------------------
 Center     Atomic                   Forces (Hartrees/Bohr)
 Number     Number              X              Y              Z
 -------------------------------------------------------------------
      1        6          -0.001244101    0.000598824   -0.000009732
      2        6          -0.002154990   -0.000775442    0.000042576
      3        6           0.000364116    0.000188964    0.000009628
      4        6          -0.000001756    0.000304313   -0.000001512
      5        6          -0.000140990   -0.000146504    0.000002216
      6        6           0.000092053   -0.000358454   -0.000003759
      7        1          -0.000182802    0.000236417   -0.000001540
      8        1           0.000173392    0.000124895   -0.000002184
      9        1           0.000188915   -0.000140652    0.000000045
     10        1          -0.000130370   -0.000177289    0.000000694
     11        1           0.000036338   -0.000184281   -0.000006254
     12        6           0.002523734    0.000372988    0.000065976
     13        1          -0.000110646   -0.000067268    0.000000948
     14        7           0.000280214    0.000021146   -0.000022198
     15        7           0.000306894    0.000002342   -0.000074905
 -------------------------------------------------------------------
 Cartesian Forces:  Max     0.002523734 RMS     0.000569128
 Leave Link  716 at Wed Oct 11 11:37:03 2023, MaxMem=  6710886400 cpu:               0.5 elap:               0.0
 (Enter /data0/home/software/g16/l103.exe)

 GradGradGradGradGradGradGradGradGradGradGradGradGradGradGradGradGradGrad
 Berny optimization.
 FormGI is forming the generalized inverse of G from B-inverse, IUseBI=4.
 Internal  Forces:  Max     0.001425412 RMS     0.000353225
 Search for a local minimum.
 Step number   1 out of a maximum of   87
 All quantities printed in internal units (Hartrees-Bohrs-Radians)
 RMS Force = .35323D-03 SwitMx=.10000D-02 MixMth= 2
 Mixed Optimization -- En-DIIS/RFO-DIIS
 Second derivative matrix not updated -- first step.
 ITU=  0
     Eigenvalues ---    0.01971   0.01995   0.02015   0.02043   0.02100
     Eigenvalues ---    0.02147   0.02151   0.02215   0.02224   0.02229
     Eigenvalues ---    0.02253   0.02420   0.16000   0.16000   0.16000
     Eigenvalues ---    0.16000   0.16000   0.16000   0.22000   0.22494
     Eigenvalues ---    0.22797   0.24457   0.24812   0.35595   0.35610
     Eigenvalues ---    0.35617   0.35667   0.35990   0.37717   0.42785
     Eigenvalues ---    0.43227   0.44083   0.46224   0.46608   0.47286
     Eigenvalues ---    0.47666   0.47748   0.48786   0.63153
 RFO step:  Lambda=-2.83986879D-05 EMin= 1.97128131D-02
 Linear search not attempted -- first point.
 Iteration  1 RMS(Cart)=  0.00155553 RMS(Int)=  0.00000145
 Iteration  2 RMS(Cart)=  0.00000135 RMS(Int)=  0.00000043
 Iteration  3 RMS(Cart)=  0.00000000 RMS(Int)=  0.00000043
 ITry= 1 IFail=0 DXMaxC= 7.22D-03 DCOld= 1.00D+10 DXMaxT= 3.00D-01 DXLimC= 3.00D+00 Rises=F
 Variable       Old X    -DE/DX   Delta X   Delta X   Delta X     New X
                                 (Linear)    (Quad)   (Total)
    R1        2.66695   0.00025   0.00000   0.00053   0.00053   2.66748
    R2        2.62957  -0.00022   0.00000  -0.00045  -0.00045   2.62912
    R3        2.61239   0.00138   0.00000   0.00276   0.00276   2.61516
    R4        2.63756  -0.00041   0.00000  -0.00086  -0.00086   2.63670
    R5        2.62403   0.00143   0.00000   0.00303   0.00303   2.62706
    R6        2.61878  -0.00015   0.00000  -0.00032  -0.00032   2.61846
    R7        2.04605  -0.00024   0.00000  -0.00066  -0.00066   2.04539
    R8        2.65722  -0.00054   0.00000  -0.00123  -0.00123   2.65599
    R9        2.04684  -0.00021   0.00000  -0.00060  -0.00060   2.04625
   R10        2.62185  -0.00023   0.00000  -0.00049  -0.00049   2.62136
   R11        2.04696  -0.00023   0.00000  -0.00066  -0.00066   2.04631
   R12        2.04719  -0.00018   0.00000  -0.00050  -0.00050   2.04669
   R13        1.90151  -0.00016   0.00000  -0.00034  -0.00034   1.90117
   R14        2.04097  -0.00011   0.00000  -0.00031  -0.00031   2.04066
   R15        2.59800   0.00050   0.00000   0.00103   0.00103   2.59904
   R16        2.46284   0.00090   0.00000   0.00143   0.00143   2.46427
    A1        2.13808  -0.00023   0.00000  -0.00072  -0.00072   2.13735
    A2        1.82557  -0.00000   0.00000  -0.00031  -0.00031   1.82527
    A3        2.31954   0.00023   0.00000   0.00103   0.00103   2.32057
    A4        2.09204   0.00000   0.00000   0.00009   0.00009   2.09213
    A5        1.92316  -0.00052   0.00000  -0.00217  -0.00217   1.92098
    A6        2.26799   0.00052   0.00000   0.00209   0.00209   2.27007
    A7        2.05901   0.00001   0.00000   0.00001   0.00001   2.05902
    A8        2.09816   0.00018   0.00000   0.00116   0.00116   2.09933
    A9        2.12601  -0.00019   0.00000  -0.00118  -0.00118   2.12484
   A10        2.11922   0.00009   0.00000   0.00028   0.00028   2.11950
   A11        2.08691  -0.00002   0.00000   0.00003   0.00003   2.08694
   A12        2.07706  -0.00007   0.00000  -0.00031  -0.00031   2.07675
   A13        2.12118  -0.00002   0.00000  -0.00024  -0.00024   2.12094
   A14        2.08085  -0.00002   0.00000  -0.00006  -0.00006   2.08079
   A15        2.08115   0.00004   0.00000   0.00030   0.00030   2.08146
   A16        2.03685   0.00014   0.00000   0.00058   0.00058   2.03743
   A17        2.12910   0.00006   0.00000   0.00054   0.00054   2.12964
   A18        2.11724  -0.00020   0.00000  -0.00112  -0.00112   2.11612
   A19        2.11711   0.00057   0.00000   0.00257   0.00257   2.11968
   A20        2.18621   0.00043   0.00000   0.00172   0.00172   2.18793
   A21        1.97986  -0.00100   0.00000  -0.00428  -0.00428   1.97558
   A22        2.21415  -0.00023   0.00000  -0.00083  -0.00083   2.21332
   A23        1.86393   0.00065   0.00000   0.00287   0.00287   1.86681
   A24        2.20510  -0.00042   0.00000  -0.00205  -0.00205   2.20306
   A25        1.83225   0.00088   0.00000   0.00389   0.00389   1.83614
    D1        0.00001   0.00000   0.00000  -0.00001  -0.00001  -0.00000
    D2       -3.14139  -0.00001   0.00000  -0.00042  -0.00042   3.14138
    D3       -3.14152  -0.00000   0.00000  -0.00009  -0.00009   3.14157
    D4        0.00027  -0.00001   0.00000  -0.00050  -0.00050  -0.00023
    D5       -0.00002   0.00000   0.00000   0.00004   0.00004   0.00002
    D6       -3.14157  -0.00000   0.00000  -0.00003  -0.00003   3.14159
    D7        3.14149   0.00000   0.00000   0.00014   0.00014  -3.14155
    D8       -0.00006   0.00000   0.00000   0.00007   0.00007   0.00001
    D9       -3.14152   0.00000   0.00000   0.00003   0.00003  -3.14149
   D10        0.00005  -0.00001   0.00000  -0.00027  -0.00027  -0.00022
   D11        0.00014  -0.00000   0.00000  -0.00006  -0.00006   0.00008
   D12       -3.14147  -0.00001   0.00000  -0.00036  -0.00036   3.14136
   D13       -0.00000  -0.00000   0.00000  -0.00001  -0.00001  -0.00001
   D14       -3.14151  -0.00000   0.00000  -0.00017  -0.00017   3.14150
   D15        3.14135   0.00001   0.00000   0.00049   0.00049  -3.14134
   D16       -0.00016   0.00001   0.00000   0.00032   0.00032   0.00016
   D17       -0.00049   0.00002   0.00000   0.00109   0.00109   0.00060
   D18        3.14132   0.00001   0.00000   0.00064   0.00064  -3.14123
   D19        0.00000   0.00000   0.00000  -0.00000  -0.00000   0.00000
   D20       -3.14155  -0.00000   0.00000  -0.00009  -0.00009   3.14155
   D21        3.14151   0.00000   0.00000   0.00017   0.00017  -3.14150
   D22       -0.00004   0.00000   0.00000   0.00008   0.00008   0.00004
   D23       -0.00001   0.00000   0.00000   0.00003   0.00003   0.00002
   D24        3.14159  -0.00000   0.00000  -0.00001  -0.00001   3.14158
   D25        3.14154   0.00000   0.00000   0.00011   0.00011  -3.14153
   D26       -0.00004   0.00000   0.00000   0.00008   0.00008   0.00004
   D27        0.00002  -0.00000   0.00000  -0.00005  -0.00005  -0.00003
   D28        3.14157   0.00000   0.00000   0.00003   0.00003  -3.14159
   D29       -3.14158  -0.00000   0.00000  -0.00001  -0.00001  -3.14159
   D30       -0.00004   0.00000   0.00000   0.00006   0.00006   0.00003
   D31       -3.14157   0.00000   0.00000   0.00001   0.00001  -3.14156
   D32        0.00000  -0.00001   0.00000  -0.00029  -0.00029  -0.00029
   D33       -0.00039   0.00002   0.00000   0.00103   0.00103   0.00064
   D34        3.14119   0.00002   0.00000   0.00073   0.00073  -3.14127
   D35       -3.14148  -0.00001   0.00000  -0.00024  -0.00024   3.14147
   D36        0.00054  -0.00003   0.00000  -0.00131  -0.00130  -0.00076
         Item               Value     Threshold  Converged?
 Maximum Force            0.001425     0.000450     NO 
 RMS     Force            0.000353     0.000300     NO 
 Maximum Displacement     0.007223     0.001800     NO 
 RMS     Displacement     0.001555     0.001200     NO 
 Predicted change in Energy=-1.419913D-05
 Lowest energy point so far.  Saving SCF results.
 GradGradGradGradGradGradGradGradGradGradGradGradGradGradGradGradGradGrad

 Leave Link  103 at Wed Oct 11 11:37:03 2023, MaxMem=  6710886400 cpu:               0.5 elap:               0.0
 (Enter /data0/home/software/g16/l202.exe)
                          Input orientation:                          
 ---------------------------------------------------------------------
 Center     Atomic      Atomic             Coordinates (Angstroms)
 Number     Number       Type             X           Y           Z
 ---------------------------------------------------------------------
      1          6           0        0.256718    0.687509   -0.000083
      2          6           0        0.262683   -0.724050   -0.000044
      3          6           0       -0.944296   -1.424053    0.000005
      4          6           0       -2.120471   -0.691532    0.000022
      5          6           0       -2.108790    0.713907   -0.000010
      6          6           0       -0.920317    1.429277   -0.000080
      7          1           0       -0.947518   -2.506422   -0.000053
      8          1           0       -3.071964   -1.208423    0.000016
      9          1           0       -3.049427    1.250364   -0.000005
     10          1           0       -0.916538    2.512332   -0.000103
     11          1           0        1.971292    1.974387   -0.000044
     12          6           0        2.318936   -0.127594    0.000216
     13          1           0        3.398787   -0.121304    0.000296
     14          7           0        1.594550    1.041532   -0.000099
     15          7           0        1.570497   -1.195463   -0.000337
 ---------------------------------------------------------------------
                    Distance matrix (angstroms):
                    1          2          3          4          5
     1  C    0.000000
     2  C    1.411571   0.000000
     3  C    2.429224   1.395279   0.000000
     4  C    2.748232   2.383376   1.385631   0.000000
     5  C    2.365655   2.773374   2.434527   1.405488   0.000000
     6  C    1.391270   2.456890   2.853431   2.436842   1.387163
     7  H    3.413412   2.154400   1.082374   2.160936   3.423313
     8  H    3.830754   3.369642   2.138566   1.082828   2.150130
     9  H    3.353714   3.855954   3.403539   2.152654   1.082859
    10  H    2.169449   3.444522   3.936483   3.422601   2.157729
    11  H    2.143786   3.193885   4.477728   4.883610   4.270349
    12  C    2.217462   2.141013   3.511338   4.475082   4.506982
    13  H    3.244500   3.193501   4.534262   5.548636   5.570546
    14  N    1.383881   2.211594   3.539047   4.099377   3.717804
    15  N    2.295996   1.390182   2.525161   3.725209   4.145220
                    6          7          8          9         10
     6  C    0.000000
     7  H    3.935794   0.000000
     8  H    3.403975   2.489592   0.000000
     9  H    2.136613   4.304818   2.458890   0.000000
    10  H    1.083061   5.018850   4.299986   2.478261   0.000000
    11  H    2.942542   5.347626   5.963615   5.072655   2.937508
    12  C    3.593969   4.040860   5.498181   5.542390   4.175824
    13  H    4.589005   4.957737   6.561436   6.592491   5.055500
    14  N    2.544583   4.364641   5.180603   4.648670   2.910123
    15  N    3.618483   2.838840   4.642478   5.227405   4.464649
                   11         12         13         14         15
    11  H    0.000000
    12  C    2.130535   0.000000
    13  H    2.535678   1.079869   0.000000
    14  N    1.006058   1.375351   2.146500   0.000000
    15  N    3.195088   1.304035   2.120487   2.237125   0.000000
 Stoichiometry    C7H6N2
 Framework group  C1[X(C7H6N2)]
 Deg. of freedom    39
 Full point group                 C1      NOp   1
 RotChk:  IX=2 Diff= 2.75D-04
 Largest Abelian subgroup         C1      NOp   1
 Largest concise Abelian subgroup C1      NOp   1
                         Standard orientation:                         
 ---------------------------------------------------------------------
 Center     Atomic      Atomic             Coordinates (Angstroms)
 Number     Number       Type             X           Y           Z
 ---------------------------------------------------------------------
      1          6           0       -0.256743    0.687391    0.000038
      2          6           0       -0.262434   -0.724169   -0.000001
      3          6           0        0.944682   -1.423937   -0.000049
      4          6           0        2.120714   -0.691187   -0.000067
      5          6           0        2.108760    0.714250   -0.000035
      6          6           0        0.920148    1.429389    0.000035
      7          1           0        0.948115   -2.506306    0.000008
      8          1           0        3.072307   -1.207893   -0.000061
      9          1           0        3.049292    1.250889   -0.000040
     10          1           0        0.916158    2.512442    0.000058
     11          1           0       -1.971568    1.973935   -0.000001
     12          6           0       -2.318803   -0.128113   -0.000261
     13          1           0       -3.398655   -0.122034   -0.000341
     14          7           0       -1.594644    1.041154    0.000054
     15          7           0       -1.570155   -1.195837    0.000292
 ---------------------------------------------------------------------
 Rotational constants (GHZ):           3.9589922           1.6808168           1.1798876
 Leave Link  202 at Wed Oct 11 11:37:04 2023, MaxMem=  6710886400 cpu:               0.1 elap:               0.0
 (Enter /data0/home/software/g16/l301.exe)
 Standard basis: 6-311+G(2d,p) (5D, 7F)
 Ernie: Thresh=  0.10000D-02 Tol=  0.10000D-05 Strict=F.
 There are   297 symmetry adapted cartesian basis functions of A   symmetry.
 There are   279 symmetry adapted basis functions of A   symmetry.
   279 basis functions,   426 primitive gaussians,   297 cartesian basis functions
    31 alpha electrons       31 beta electrons
       nuclear repulsion energy       404.7784498502 Hartrees.
 IExCor=  402 DFT=T Ex+Corr=B3LYP ExCW=0 ScaHFX=  0.200000
 ScaDFX=  0.800000  0.720000  1.000000  0.810000 ScalE2=  1.000000  1.000000
 IRadAn=      5 IRanWt=     -1 IRanGd=            0 ICorTp=0 IEmpDi=141
 NAtoms=   15 NActive=   15 NUniq=   15 SFac= 1.00D+00 NAtFMM=   60 NAOKFM=F Big=F
 Integral buffers will be    131072 words long.
 Raffenetti 2 integral format.
 Two-electron integral symmetry is turned on.
 R6Disp:  Grimme-D3(BJ) Dispersion energy=       -0.0276646705 Hartrees.
 Nuclear repulsion after empirical dispersion term =      404.7507851797 Hartrees.
 Leave Link  301 at Wed Oct 11 11:37:04 2023, MaxMem=  6710886400 cpu:               1.1 elap:               0.1
 (Enter /data0/home/software/g16/l302.exe)
 NPDir=0 NMtPBC=     1 NCelOv=     1 NCel=       1 NClECP=     1 NCelD=      1
         NCelK=      1 NCelE2=     1 NClLst=     1 CellRange=     0.0.
 One-electron integrals computed using PRISM.
 One-electron integral symmetry used in STVInt
 NBasis=   279 RedAO= T EigKep=  1.37D-06  NBF=   279
 NBsUse=   279 1.00D-06 EigRej= -1.00D+00 NBFU=   279
 Precomputing XC quadrature grid using
 IXCGrd= 4 IRadAn=           5 IRanWt=          -1 IRanGd=           0 AccXCQ= 0.00D+00.
 Generated NRdTot=       0 NPtTot=           0 NUsed=           0 NTot=          32
 NSgBfM=   297   297   297   297   297 MxSgAt=    15 MxSgA2=    15.
 Leave Link  302 at Wed Oct 11 11:37:04 2023, MaxMem=  6710886400 cpu:               4.3 elap:               0.2
 (Enter /data0/home/software/g16/l303.exe)
 DipDrv:  MaxL=1.
 Leave Link  303 at Wed Oct 11 11:37:04 2023, MaxMem=  6710886400 cpu:               0.7 elap:               0.0
 (Enter /data0/home/software/g16/l401.exe)
 Initial guess from the checkpoint file:  "/data0/home/software/g16/scratch/Gau-2479728.chk"
 B after Tr=     0.000000    0.000000   -0.000000
         Rot=    1.000000    0.000017   -0.000015   -0.000058 Ang=   0.01 deg.
 Guess basis will be translated and rotated to current coordinates.
 JPrj=2 DoOrth=T DoCkMO=T.
 Leave Link  401 at Wed Oct 11 11:37:04 2023, MaxMem=  6710886400 cpu:               3.7 elap:               0.2
 (Enter /data0/home/software/g16/l502.exe)
 Integral symmetry usage will be decided dynamically.
 Closed shell SCF:
 Using DIIS extrapolation, IDIIS=  1040.
 NGot=  6710886400 LenX=  6710700099 LenY=  6710611449
 Requested convergence on RMS density matrix=1.00D-08 within 128 cycles.
 Requested convergence on MAX density matrix=1.00D-06.
 Requested convergence on             energy=1.00D-06.
 No special actions if energy rises.
 Fock matrices will be formed incrementally for  20 cycles.

 Cycle   1  Pass 1  IDiag  1:
 FoFJK:  IHMeth= 1 ICntrl=       0 DoSepK=F KAlg= 0 I1Cent=           0 FoldK=F
 IRaf= 960000000 NMat=       1 IRICut=       1 DoRegI=T DoRafI=F ISym2E= 0 IDoP0=0 IntGTp=1.
 FoFCou: FMM=F IPFlag=           0 FMFlag=      100000 FMFlg1=           0
         NFxFlg=           0 DoJE=F BraDBF=F KetDBF=F FulRan=T
         wScrn=  0.000000 ICntrl=         0 IOpCl=  0 I1Cent=           0 NGrid=           0
         NMat0=    1 NMatS0=      1 NMatT0=    0 NMatD0=    1 NMtDS0=    0 NMtDT0=    0
 Symmetry not used in FoFCou.
 E= -380.004601439223    
 DIIS: error= 1.31D-04 at cycle   1 NSaved=   1.
 NSaved= 1 IEnMin= 1 EnMin= -380.004601439223     IErMin= 1 ErrMin= 1.31D-04
 ErrMax= 1.31D-04  0.00D+00 EMaxC= 1.00D-01 BMatC= 8.15D-06 BMatP= 8.15D-06
 IDIUse=3 WtCom= 9.99D-01 WtEn= 1.31D-03
 Coeff-Com:  0.100D+01
 Coeff-En:   0.100D+01
 Coeff:      0.100D+01
 Gap=     0.439 Goal=   None    Shift=    0.000
 RMSDP=1.15D-04 MaxDP=1.24D-02              OVMax= 8.86D-04

 Cycle   2  Pass 1  IDiag  1:
 RMSU=  1.10D-04    CP:  1.00D+00
 E= -380.004607167398     Delta-E=       -0.000005728175 Rises=F Damp=F
 DIIS: error= 9.99D-05 at cycle   2 NSaved=   2.
 NSaved= 2 IEnMin= 2 EnMin= -380.004607167398     IErMin= 2 ErrMin= 9.99D-05
 ErrMax= 9.99D-05  0.00D+00 EMaxC= 1.00D-01 BMatC= 1.42D-06 BMatP= 8.15D-06
 IDIUse=1 WtCom= 1.00D+00 WtEn= 0.00D+00
 Coeff-Com:  0.198D+00 0.802D+00
 Coeff:      0.198D+00 0.802D+00
 Gap=     0.205 Goal=   None    Shift=    0.000
 RMSDP=2.53D-05 MaxDP=2.45D-03 DE=-5.73D-06 OVMax= 7.07D-04

 Cycle   3  Pass 1  IDiag  1:
 RMSU=  2.29D-05    CP:  1.00D+00  9.17D-01
 E= -380.004606472361     Delta-E=        0.000000695037 Rises=F Damp=F
 DIIS: error= 9.36D-05 at cycle   3 NSaved=   3.
 NSaved= 3 IEnMin= 2 EnMin= -380.004607167398     IErMin= 3 ErrMin= 9.36D-05
 ErrMax= 9.36D-05  0.00D+00 EMaxC= 1.00D-01 BMatC= 2.06D-06 BMatP= 1.42D-06
 IDIUse=1 WtCom= 1.00D+00 WtEn= 0.00D+00
 Coeff-Com: -0.178D-02 0.547D+00 0.455D+00
 Coeff:     -0.178D-02 0.547D+00 0.455D+00
 Gap=     0.205 Goal=   None    Shift=    0.000
 RMSDP=1.32D-05 MaxDP=1.24D-03 DE= 6.95D-07 OVMax= 4.80D-04

 Cycle   4  Pass 1  IDiag  1:
 RMSU=  4.05D-06    CP:  1.00D+00  9.64D-01  5.26D-01
 E= -380.004608306264     Delta-E=       -0.000001833903 Rises=F Damp=F
 DIIS: error= 1.57D-05 at cycle   4 NSaved=   4.
 NSaved= 4 IEnMin= 4 EnMin= -380.004608306264     IErMin= 4 ErrMin= 1.57D-05
 ErrMax= 1.57D-05  0.00D+00 EMaxC= 1.00D-01 BMatC= 5.62D-08 BMatP= 1.42D-06
 IDIUse=1 WtCom= 1.00D+00 WtEn= 0.00D+00
 Coeff-Com: -0.678D-02 0.275D+00 0.265D+00 0.467D+00
 Coeff:     -0.678D-02 0.275D+00 0.265D+00 0.467D+00
 Gap=     0.205 Goal=   None    Shift=    0.000
 RMSDP=2.43D-06 MaxDP=2.46D-04 DE=-1.83D-06 OVMax= 9.78D-05

 Cycle   5  Pass 1  IDiag  1:
 RMSU=  1.95D-06    CP:  1.00D+00  9.70D-01  5.67D-01  8.71D-01
 E= -380.004608354268     Delta-E=       -0.000000048004 Rises=F Damp=F
 DIIS: error= 7.21D-06 at cycle   5 NSaved=   5.
 NSaved= 5 IEnMin= 5 EnMin= -380.004608354268     IErMin= 5 ErrMin= 7.21D-06
 ErrMax= 7.21D-06  0.00D+00 EMaxC= 1.00D-01 BMatC= 6.52D-09 BMatP= 5.62D-08
 IDIUse=1 WtCom= 1.00D+00 WtEn= 0.00D+00
 Coeff-Com: -0.353D-02 0.687D-01 0.871D-01 0.283D+00 0.565D+00
 Coeff:     -0.353D-02 0.687D-01 0.871D-01 0.283D+00 0.565D+00
 Gap=     0.205 Goal=   None    Shift=    0.000
 RMSDP=6.45D-07 MaxDP=4.74D-05 DE=-4.80D-08 OVMax= 3.46D-05

 Cycle   6  Pass 1  IDiag  1:
 RMSU=  5.75D-07    CP:  1.00D+00  9.71D-01  5.75D-01  8.99D-01  1.05D+00
 E= -380.004608360253     Delta-E=       -0.000000005985 Rises=F Damp=F
 DIIS: error= 1.59D-06 at cycle   6 NSaved=   6.
 NSaved= 6 IEnMin= 6 EnMin= -380.004608360253     IErMin= 6 ErrMin= 1.59D-06
 ErrMax= 1.59D-06  0.00D+00 EMaxC= 1.00D-01 BMatC= 4.28D-10 BMatP= 6.52D-09
 IDIUse=1 WtCom= 1.00D+00 WtEn= 0.00D+00
 Coeff-Com: -0.156D-02 0.215D-01 0.326D-01 0.124D+00 0.310D+00 0.513D+00
 Coeff:     -0.156D-02 0.215D-01 0.326D-01 0.124D+00 0.310D+00 0.513D+00
 Gap=     0.205 Goal=   None    Shift=    0.000
 RMSDP=1.64D-07 MaxDP=8.19D-06 DE=-5.99D-09 OVMax= 1.30D-05

 Cycle   7  Pass 1  IDiag  1:
 RMSU=  1.05D-07    CP:  1.00D+00  9.71D-01  5.79D-01  9.00D-01  1.04D+00
                    CP:  8.50D-01
 E= -380.004608360659     Delta-E=       -0.000000000405 Rises=F Damp=F
 DIIS: error= 6.63D-07 at cycle   7 NSaved=   7.
 NSaved= 7 IEnMin= 7 EnMin= -380.004608360659     IErMin= 7 ErrMin= 6.63D-07
 ErrMax= 6.63D-07  0.00D+00 EMaxC= 1.00D-01 BMatC= 7.80D-11 BMatP= 4.28D-10
 IDIUse=1 WtCom= 1.00D+00 WtEn= 0.00D+00
 Coeff-Com: -0.258D-03-0.108D-02 0.270D-02 0.234D-01 0.929D-01 0.319D+00
 Coeff-Com:  0.563D+00
 Coeff:     -0.258D-03-0.108D-02 0.270D-02 0.234D-01 0.929D-01 0.319D+00
 Coeff:      0.563D+00
 Gap=     0.205 Goal=   None    Shift=    0.000
 RMSDP=9.56D-08 MaxDP=7.71D-06 DE=-4.05D-10 OVMax= 3.84D-06

 Cycle   8  Pass 1  IDiag  1:
 RMSU=  5.11D-08    CP:  1.00D+00  9.71D-01  5.78D-01  8.98D-01  1.01D+00
                    CP:  8.08D-01  9.24D-01
 E= -380.004608360740     Delta-E=       -0.000000000081 Rises=F Damp=F
 DIIS: error= 1.36D-07 at cycle   8 NSaved=   8.
 NSaved= 8 IEnMin= 8 EnMin= -380.004608360740     IErMin= 8 ErrMin= 1.36D-07
 ErrMax= 1.36D-07  0.00D+00 EMaxC= 1.00D-01 BMatC= 3.60D-12 BMatP= 7.80D-11
 IDIUse=1 WtCom= 1.00D+00 WtEn= 0.00D+00
 Coeff-Com: -0.653D-05-0.198D-02-0.141D-02 0.386D-03 0.160D-01 0.982D-01
 Coeff-Com:  0.251D+00 0.638D+00
 Coeff:     -0.653D-05-0.198D-02-0.141D-02 0.386D-03 0.160D-01 0.982D-01
 Coeff:      0.251D+00 0.638D+00
 Gap=     0.205 Goal=   None    Shift=    0.000
 RMSDP=3.12D-08 MaxDP=1.99D-06 DE=-8.09D-11 OVMax= 1.11D-06

 Cycle   9  Pass 1  IDiag  1:
 RMSU=  1.55D-08    CP:  1.00D+00  9.71D-01  5.78D-01  9.00D-01  1.02D+00
                    CP:  8.23D-01  9.14D-01  8.78D-01
 E= -380.004608360731     Delta-E=        0.000000000009 Rises=F Damp=F
 DIIS: error= 7.56D-08 at cycle   9 NSaved=   9.
 NSaved= 9 IEnMin= 8 EnMin= -380.004608360740     IErMin= 9 ErrMin= 7.56D-08
 ErrMax= 7.56D-08  0.00D+00 EMaxC= 1.00D-01 BMatC= 6.97D-13 BMatP= 3.60D-12
 IDIUse=1 WtCom= 1.00D+00 WtEn= 0.00D+00
 Coeff-Com:  0.196D-04-0.935D-03-0.951D-03-0.141D-02 0.179D-02 0.249D-01
 Coeff-Com:  0.818D-01 0.359D+00 0.535D+00
 Coeff:      0.196D-04-0.935D-03-0.951D-03-0.141D-02 0.179D-02 0.249D-01
 Coeff:      0.818D-01 0.359D+00 0.535D+00
 Gap=     0.205 Goal=   None    Shift=    0.000
 RMSDP=6.39D-09 MaxDP=2.96D-07 DE= 8.98D-12 OVMax= 3.28D-07

 SCF Done:  E(RB3LYP) =  -380.004608361     A.U. after    9 cycles
            NFock=  9  Conv=0.64D-08     -V/T= 2.0042
 KE= 3.784146536051D+02 PE=-1.693062024773D+03 EE= 5.298919776270D+02
 Leave Link  502 at Wed Oct 11 11:37:14 2023, MaxMem=  6710886400 cpu:             236.8 elap:               9.9
 (Enter /data0/home/software/g16/l701.exe)
 ... and contract with generalized density number  0.
 Compute integral first derivatives.
 R6Disp: Adding Grimme-D3(BJ) dispersion energy 1st derivatives to the gradient.
 Leave Link  701 at Wed Oct 11 11:37:14 2023, MaxMem=  6710886400 cpu:               3.2 elap:               0.2
 (Enter /data0/home/software/g16/l702.exe)
 L702 exits ... SP integral derivatives will be done elsewhere.
 Leave Link  702 at Wed Oct 11 11:37:14 2023, MaxMem=  6710886400 cpu:               0.4 elap:               0.0
 (Enter /data0/home/software/g16/l703.exe)
 Integral derivatives from FoFJK, PRISM(SPDF).
 Compute integral first derivatives, UseDBF=F ICtDFT=           0.
 Calling FoFJK, ICntrl=      2127 FMM=F ISym2X=0 I1Cent= 0 IOpClX= 0 NMat=1 NMatS=1 NMatT=0.
 FoFJK:  IHMeth= 1 ICntrl=    2127 DoSepK=F KAlg= 0 I1Cent=           0 FoldK=F
 IRaf=         0 NMat=       1 IRICut=       1 DoRegI=T DoRafI=F ISym2E= 0 IDoP0=0 IntGTp=1.
 FoFCou: FMM=F IPFlag=           0 FMFlag=      100000 FMFlg1=         800
         NFxFlg=           0 DoJE=F BraDBF=F KetDBF=F FulRan=T
         wScrn=  0.000000 ICntrl=      2127 IOpCl=  0 I1Cent=           0 NGrid=           0
         NMat0=    1 NMatS0=      1 NMatT0=    0 NMatD0=    1 NMtDS0=    0 NMtDT0=    0
 Symmetry not used in FoFCou.
 Leave Link  703 at Wed Oct 11 11:37:18 2023, MaxMem=  6710886400 cpu:              94.3 elap:               4.0
 (Enter /data0/home/software/g16/l716.exe)
 Dipole        =-2.92966404D-01 1.34791081D+00-2.55481734D-04
 ***** Axes restored to original set *****
 -------------------------------------------------------------------
 Center     Atomic                   Forces (Hartrees/Bohr)
 Number     Number              X              Y              Z
 -------------------------------------------------------------------
      1        6           0.000170871    0.000118621    0.000002509
      2        6           0.000169261    0.000022502   -0.000048351
      3        6           0.000360278   -0.000030856   -0.000010570
      4        6          -0.000058434    0.000135295    0.000001286
      5        6          -0.000057176   -0.000097410   -0.000002692
      6        6           0.000238828    0.000032330    0.000002111
      7        1          -0.000073441   -0.000004626    0.000001611
      8        1           0.000005409   -0.000028058    0.000002719
      9        1           0.000011289    0.000013944    0.000000602
     10        1          -0.000046147    0.000016848   -0.000000339
     11        1          -0.000027659    0.000080048    0.000008312
     12        6          -0.000912265   -0.000038207   -0.000095293
     13        1          -0.000106315   -0.000040761   -0.000000656
     14        7           0.000028546    0.000391982    0.000041470
     15        7           0.000296956   -0.000571652    0.000097283
 -------------------------------------------------------------------
 Cartesian Forces:  Max     0.000912265 RMS     0.000197246
 Leave Link  716 at Wed Oct 11 11:37:18 2023, MaxMem=  6710886400 cpu:               0.4 elap:               0.0
 (Enter /data0/home/software/g16/l103.exe)

 GradGradGradGradGradGradGradGradGradGradGradGradGradGradGradGradGradGrad
 Berny optimization.
 Using GEDIIS/GDIIS optimizer.
 FormGI is forming the generalized inverse of G from B-inverse, IUseBI=4.
 Internal  Forces:  Max     0.000619131 RMS     0.000142951
 Search for a local minimum.
 Step number   2 out of a maximum of   87
 All quantities printed in internal units (Hartrees-Bohrs-Radians)
 RMS Force = .14295D-03 SwitMx=.10000D-02 MixMth= 2
 Mixed Optimization -- En-DIIS/RFO-DIIS
 Swapping is turned off.
 Update second derivatives using D2CorX and points    1    2
 DE= -9.17D-06 DEPred=-1.42D-05 R= 6.46D-01
 TightC=F SS=  1.41D+00  RLast= 1.01D-02 DXNew= 5.0454D-01 3.0405D-02
 Trust test= 6.46D-01 RLast= 1.01D-02 DXMaxT set to 3.00D-01
 ITU=  1  0
     Eigenvalues ---    0.01971   0.01995   0.02015   0.02043   0.02100
     Eigenvalues ---    0.02147   0.02151   0.02215   0.02224   0.02229
     Eigenvalues ---    0.02266   0.02422   0.15602   0.16000   0.16000
     Eigenvalues ---    0.16000   0.16000   0.16027   0.21966   0.22560
     Eigenvalues ---    0.24116   0.24668   0.31602   0.35236   0.35601
     Eigenvalues ---    0.35615   0.35651   0.36034   0.37132   0.42793
     Eigenvalues ---    0.43161   0.43695   0.44827   0.46620   0.47258
     Eigenvalues ---    0.47662   0.48052   0.52269   0.63295
 En-DIIS/RFO-DIIS/Sim-DIIS IScMMF=       -3 using points:     2    1
 RFO step:  Lambda=-4.13346831D-06.
 NNeg= 0 NGDIIS= 2 SimSw=  2.50D-03 Rises=F DC= -9.17D-06 SmlDif=  1.00D-05
 NRisDI= 0 DoIntr=F SqrtH=F CThrHd= 10.0 CDAdj=  3.0
 RMS Error=  0.4595805064D-03 NUsed= 2 OKEnD=F EnDIS=F
 InvSVX:  RCond= 1.16D-04 Info=           0 Equed=N FErr=  1.30D-15 BErr=  9.83D-17
 DidBck=T Rises=F RFO-DIIS coefs:    0.71237    0.28763
 Iteration  1 RMS(Cart)=  0.00051014 RMS(Int)=  0.00000027
 Iteration  2 RMS(Cart)=  0.00000029 RMS(Int)=  0.00000008
 ITry= 1 IFail=0 DXMaxC= 2.22D-03 DCOld= 1.00D+10 DXMaxT= 3.00D-01 DXLimC= 3.00D+00 Rises=F
 Variable       Old X    -DE/DX   Delta X   Delta X   Delta X     New X
                                 (Linear)    (Quad)   (Total)
    R1        2.66748   0.00026  -0.00015   0.00067   0.00052   2.66800
    R2        2.62912  -0.00013   0.00013  -0.00035  -0.00022   2.62890
    R3        2.61516  -0.00040  -0.00079   0.00035  -0.00045   2.61471
    R4        2.63670  -0.00020   0.00025  -0.00060  -0.00036   2.63634
    R5        2.62706  -0.00015  -0.00087   0.00080  -0.00007   2.62700
    R6        2.61846   0.00009   0.00009   0.00003   0.00012   2.61858
    R7        2.04539   0.00000   0.00019  -0.00022  -0.00003   2.04537
    R8        2.65599  -0.00005   0.00036  -0.00051  -0.00016   2.65583
    R9        2.04625   0.00001   0.00017  -0.00018  -0.00001   2.04623
   R10        2.62136   0.00004   0.00014  -0.00011   0.00003   2.62139
   R11        2.04631  -0.00000   0.00019  -0.00023  -0.00004   2.04627
   R12        2.04669   0.00002   0.00014  -0.00014   0.00001   2.04670
   R13        1.90117   0.00006   0.00010  -0.00001   0.00008   1.90126
   R14        2.04066  -0.00011   0.00009  -0.00032  -0.00024   2.04042
   R15        2.59904   0.00006  -0.00030   0.00041   0.00011   2.59915
   R16        2.46427  -0.00011  -0.00041   0.00034  -0.00007   2.46420
[...]
 ! D30   D(9,5,6,10)            -0.0006         -DE/DX =    0.0                 !
 ! D31   D(13,12,14,1)         179.998          -DE/DX =    0.0                 !
 ! D32   D(13,12,14,11)          0.0016         -DE/DX =    0.0                 !
 ! D33   D(15,12,14,1)          -0.0254         -DE/DX =    0.0                 !
 ! D34   D(15,12,14,11)       -180.0218         -DE/DX =    0.0                 !
 ! D35   D(13,12,15,2)        -179.9966         -DE/DX =    0.0                 !
 ! D36   D(14,12,15,2)           0.0279         -DE/DX =    0.0                 !
 --------------------------------------------------------------------------------
 GradGradGradGradGradGradGradGradGradGradGradGradGradGradGradGradGradGrad

 Leave Link  103 at Wed Oct 11 11:39:38 2023, MaxMem=  6710886400 cpu:               0.4 elap:               0.0
 (Enter /data0/home/software/g16/l9999.exe)

 ----------------------------------------------------------------------

 Electric dipole moment (input orientation):
 (Debye = 10**-18 statcoulomb cm , SI units = C m)
                  (au)            (Debye)         (10**-30 SI)
   Tot        0.137983D+01      0.350718D+01      0.116987D+02
   x          0.292998D+00      0.744727D+00      0.248414D+01
   y          0.134836D+01      0.342720D+01      0.114319D+02
   z         -0.775825D-04     -0.197195D-03     -0.657772D-03

 Dipole polarizability, Alpha (input orientation).
 (esu units = cm**3 , SI units = C**2 m**2 J**-1)
 Alpha(0;0):
               (au)            (10**-24 esu)      (10**-40 SI)
   iso        0.937887D+02      0.138980D+02      0.154637D+02
   aniso      0.661095D+02      0.979641D+01      0.109000D+02
   xx         0.129299D+03      0.191601D+02      0.213185D+02
   yx         0.328691D+00      0.487069D-01      0.541938D-01
   yy         0.986389D+02      0.146168D+02      0.162634D+02
   zx         0.528777D-03      0.783566D-04      0.871835D-04
   zy        -0.102430D-02     -0.151786D-03     -0.168885D-03
   zz         0.534285D+02      0.791729D+01      0.880917D+01

 ----------------------------------------------------------------------

 Dipole orientation:
     6          0.19385377         -0.04220585          1.37291154
     6          0.75852067         -0.16479193         -1.23176624
     6         -1.14476433          0.24896068         -3.00844790
     6         -3.55448395          0.77264950         -2.12756331
     6         -4.08472682          0.88775873          0.47224792
     6         -2.22076217          0.48253368          2.27033733
     1         -0.72703223          0.15819813         -5.00864331
     1         -5.06857498          1.10174312         -3.46408802
     1         -5.99244177          1.30232232          1.08540546
     1         -2.63922595          0.57335702          4.27173865
     1          2.78245487         -0.60520696          4.43785255
     6          4.23280055         -0.91954860          0.69423232
     1          6.17877676         -1.34237042          1.13888968
     7          2.46841199         -0.53664770          2.56396478
     7          3.30302394         -0.71805200         -1.57891635

 Electric dipole moment (dipole orientation):
 (Debye = 10**-18 statcoulomb cm , SI units = C m)
                  (au)            (Debye)         (10**-30 SI)
   Tot        0.137983D+01      0.350718D+01      0.116987D+02
   x          0.000000D+00      0.000000D+00      0.000000D+00
   y          0.000000D+00      0.000000D+00      0.000000D+00
   z          0.137983D+01      0.350718D+01      0.116987D+02

 Dipole polarizability, Alpha (dipole orientation).
 (esu units = cm**3 , SI units = C**2 m**2 J**-1)
 Alpha(0;0):
               (au)            (10**-24 esu)      (10**-40 SI)
   iso        0.937887D+02      0.138980D+02      0.154637D+02
   aniso      0.661095D+02      0.979641D+01      0.109000D+02
   xx         0.124427D+03      0.184382D+02      0.205152D+02
   yx        -0.154290D+02     -0.228634D+01     -0.254390D+01
   yy         0.567814D+02      0.841414D+01      0.936200D+01
   zx         0.650870D+01      0.964490D+00      0.107314D+01
   zy        -0.141612D+01     -0.209847D+00     -0.233486D+00
   zz         0.100158D+03      0.148419D+02      0.165138D+02

 ----------------------------------------------------------------------
 1\1\GINC-LOCALHOST\Freq\RB3LYP\6-311+G(2d,p)\C7H6N2\WUHANYU\11-Oct-202
 3\0\\#P Geom=AllCheck Guess=TCheck SCRF=Check GenChk RB3LYP/6-311+G(2d
 ,p) Freq\\Title Card Required\\0,1\C,0.2568624822,0.6876522543,0.00000
 1341\C,0.2629777299,-0.72417914,0.0000190871\C,-0.9438571647,-1.424055
 5053,-0.0000161678\C,-2.1200496029,-0.6914473761,-0.0000727914\C,-2.10
 84956551,0.7139091499,-0.0000921809\C,-0.9200608272,1.4293767027,-0.00
 00489147\H,-0.9475607813,-2.506409928,0.0000380269\H,-3.0714630085,-1.
 2084698736,-0.0000759127\H,-3.0491180623,1.2503467702,-0.0001201311\H,
 -0.9165981086,2.5124365088,-0.000052368\H,1.9711456436,1.9748873925,0.
 0001688645\C,2.3178848433,-0.1277290637,-0.0001423497\H,3.3976120244,-
 0.1215590235,-0.0001747844\N,1.5943624548,1.0420017879,0.0000601712\N,
 1.5705000324,-1.1962936564,0.00020611\\Version=ES64L-G16RevA.03\State=
 1-A\HF=-380.0046105\RMSD=3.499e-09\RMSF=5.551e-05\ZeroPoint=0.117652\T
 hermal=0.1237934\Dipole=0.292998,1.3483624,-0.0000776\DipoleDeriv=0.42
 23855,0.1405105,0.0000534,0.3664643,-0.0706258,0.0000099,-0.0000326,-0
 .0000026,0.0526956,0.3420297,-0.0072381,0.000037,-0.2777493,-0.0473918
 ,0.0000003,0.0000292,-0.0000206,0.0314393,0.1325495,-0.0033484,-0.0000
 081,0.0022823,0.1158593,-0.0000171,-0.0000174,-0.0000063,-0.1242839,-0
 .0681525,0.0723462,0.0000054,0.1835972,-0.043349,-0.0000128,-0.0000143
 ,0.0000132,-0.1656613,-0.0891068,0.0138227,0.0000165,-0.1265136,0.0859
 313,0.0000082,-0.0000156,-0.0000044,-0.157217,0.0733814,-0.1027178,-0.
 0000072,-0.0062841,0.0626216,0.0000022,0.0000182,0.0000013,-0.1535532,
 0.0721937,0.0097075,-0.0000034,-0.0134053,-0.0585322,0.0000059,0.00000
 82,0.0000115,0.1389425,-0.0723137,-0.072416,-0.0000043,-0.0701625,0.02
 57002,-0.0000014,0.0000045,-0.0000019,0.140226,-0.0630418,0.0753907,-0
 .0000071,0.072034,0.0233752,0.0000045,-0.0000042,-0.0000032,0.1389846,
 0.0553344,-0.0159381,-0.0000046,0.0041429,-0.0973273,0.0000009,0.00000
 93,0.000008,0.1484915,0.174515,0.0446688,0.0000096,0.0521584,0.1907247
 ,0.0000017,0.0000077,-0.0000254,0.315683,0.0785616,-0.0518447,-0.00005
 87,-0.0032168,0.8853385,-0.0000013,0.0002098,0.0000209,0.0148247,-0.01
 65808,-0.0229868,0.0000148,-0.0206377,0.0759246,0.0000043,-0.0001534,-
 0.0000012,0.142682,-0.4941793,0.0853433,-0.0000319,-0.1856552,-0.58341
 78,0.0000324,-0.0000304,-0.0000742,-0.2319283,-0.5475759,-0.1652999,-0
 .0000114,0.0229454,-0.5648314,-0.0000377,-0.0000189,0.0000849,-0.29132
 56\Polar=129.298643,0.3286906,98.6389242,0.0005288,-0.0010243,53.42850
 26\Quadrupole=4.1938016,0.8237349,-5.0175365,5.7103818,-0.000494,0.000
 654\PG=C01 [X(C7H6N2)]\NImag=0\\0.76888492,-0.10297940,0.64815624,0.00
 001462,0.00000042,0.13506454,-0.11258936,0.02069026,0.00000043,0.74017
 224,-0.02865553,-0.25146230,-0.00000044,0.10728853,0.63807697,-0.00000
 125,0.00000325,-0.07921681,0.00002146,-0.00001987,0.15739561,0.0310932
 8,-0.05986324,0.00000239,-0.24562204,-0.07858080,-0.00000971,0.6529307
 1,-0.03041403,-0.02126208,-0.00000024,-0.11389434,-0.19308549,0.000002
 51,-0.00730626,0.75098846,-0.00000046,-0.00000307,0.00234671,-0.000008
 34,0.00000346,-0.05741480,0.00002481,-0.00002436,0.13036378,-0.0126854
 1,0.02023896,-0.00000130,-0.06771179,-0.01127459,-0.00000338,-0.282062
 71,0.12520221,-0.00001229,0.72619942,0.03313141,-0.04318429,0.00000180
 ,0.02865690,0.05440846,-0.00000109,0.06655053,-0.19005512,0.00000888,0
 .02705194,0.64484723,-0.00000091,0.00000194,-0.00306503,-0.00000415,-0
 .00000132,0.00452221,-0.00000806,0.00000834,-0.05917980,0.00001601,-0.
 00001001,0.12952098,-0.07048754,0.01711917,-0.00000385,-0.01550250,-0.
 02081537,-0.00000001,0.02852137,0.02788539,-0.00000127,-0.12637028,0.0
 2945202,-0.00000225,0.72300029,-0.02228923,0.05763752,-0.00000212,-0.0
 3474950,-0.04005166,-0.00000081,0.07334284,-0.03037126,0.00000217,-0.0
 3346044,-0.29390534,0.00000178,-0.02882601,0.64625955,-0.00000261,-0.0
 0000032,0.00351750,0.00000019,-0.00000035,-0.00374683,-0.00000032,0.00
 000157,0.00646661,-0.00000142,0.00000374,-0.06212085,0.00002057,-0.000
 00468,0.12949749,-0.24707834,0.07722570,-0.00000754,0.03336862,0.05922
 289,0.00000110,-0.05600126,0.00426254,-0.00000060,0.02515397,-0.072798
 59,0.00000204,-0.28110204,-0.06660801,-0.00000949,0.64558947,0.1220808
 9,-0.20111108,0.00000283,0.02552145,-0.01849617,0.00000137,-0.00305951
 ,0.00019099,-0.00000077,-0.02789327,-0.02853002,-0.00000061,-0.1245662
 4,-0.18383172,-0.00000474,0.00388467,0.74534808,-0.00000870,0.00000119
 ,-0.04936551,-0.00000096,0.00000450,0.00278044,-0.00000140,-0.00000021
 ,-0.00107129,0.00000078,-0.00000125,0.00690549,-0.00000952,-0.00000277
 ,-0.05670935,0.00002099,-0.00000233,0.11873708,-0.00399481,-0.00146962
 ,-0.00000051,0.00600368,-0.02880114,0.00000165,-0.05997016,-0.00333255
 ,-0.00000060,0.00577210,0.02742101,-0.00000120,-0.00422107,0.00218063,
 -0.00000048,-0.00121360,-0.00002800,-0.00000001,0.05483145,-0.00206571
 ,0.00059871,0.00000023,0.00203850,-0.01289386,0.00000084,-0.00369596,-
 0.33782200,0.00001458,-0.00214198,-0.01088461,0.00000051,0.00291357,0.
 00097662,0.00000049,-0.00034236,0.00050466,-0.00000007,0.00320578,0.35
 879588,-0.00000006,0.00000015,0.00624982,0.00000111,-0.00000039,0.0043
 9809,-0.00000201,0.00001510,-0.03534692,0.00000086,0.00000090,0.002933
 39,-0.00000029,0.00000055,0.00769027,-0.00000033,-0.00000004,-0.000849
 21,0.00000079,-0.00001602,0.02414570,-0.00001298,0.00068837,-0.0000000
 5,-0.00217941,0.00429734,-0.00000066,-0.02002855,-0.01472906,-0.000000
 34,-0.27195808,-0.11586352,-0.00000126,0.00320374,0.00175299,-0.000000
 06,0.00161039,0.00036862,0.00000001,0.00105918,0.00021947,0.00000011,0
 .28865156,0.00120172,-0.00069519,0.00000005,0.00316963,-0.00146641,0.0
 0000061,0.01602337,0.01188497,0.00000023,-0.11594593,-0.12220329,-0.00
 000028,-0.02929475,-0.01100285,-0.00000055,0.00115163,-0.00543917,0.00
 000026,-0.00058059,0.00082578,-0.00000024,0.12453464,0.12685995,0.0000
 0038,0.00000042,-0.00061074,-0.00000086,-0.00000001,0.00736583,-0.0000
 0083,-0.00000103,0.00247903,-0.00000099,0.00000049,-0.03358473,0.00000
 053,0.00000007,0.00177838,-0.00000017,0.00000021,0.00552304,0.00000022
 ,-0.00000024,-0.00444244,0.00000202,0.00000013,0.02447445,-0.00272465,
 -0.00385802,-0.00000033,-0.00002955,-0.00067460,0.,0.00154339,-0.00050
 327,-0.00000013,0.00373371,-0.00186754,-0.00000002,-0.26746280,0.11858
 046,-0.00000702,-0.01959548,0.01493201,-0.00000094,0.00004115,-0.00018
 252,0.00000004,0.00078175,0.00038813,0.00000009,0.28372772,-0.00338244
 ,-0.00117636,-0.00000016,-0.00129580,-0.00075703,-0.00000004,-0.001281
 95,-0.00553224,0.00000014,0.02892432,-0.01091412,0.00000089,0.11909876
 ,-0.12705282,0.00000391,-0.01537807,0.01133904,-0.00000069,0.00132073,
 -0.00059255,0.00000007,-0.00039940,0.00102849,-0.00000005,-0.12771653,
 0.13181357,-0.00000076,0.00000011,0.00664492,0.00000048,-0.00000027,-0
 .00095978,-0.00000076,0.00000025,0.00582104,-0.00000001,-0.00000061,0.
 00216983,-0.00000643,0.00000375,-0.03347970,-0.00000058,0.00000075,0.0
 0241848,0.00000005,-0.00000001,0.00023237,0.00000002,-0.00000007,-0.00
 341549,0.00000811,-0.00000416,0.02427304,0.00572980,0.02797216,0.00000
 042,-0.00375127,0.00045191,-0.00000048,-0.00136413,0.00007578,-0.00000
 001,-0.00430380,-0.00204764,-0.00000041,0.00577608,-0.02805819,0.00000
 031,-0.06025555,0.00176295,-0.00000120,0.00013232,0.00002375,0.0000000
 4,0.00002704,-0.00135431,0.00000001,0.00102750,0.00057710,0.00000018,0
 .05603805,-0.00267080,-0.01285301,-0.00000005,0.00204231,0.00185342,0.
 00000013,0.00038358,0.00043944,0.00000004,-0.00325601,0.00113752,-0.00
 000019,0.00200755,-0.01207012,0.00000012,0.00053028,-0.33384170,0.0000
 0113,-0.00001395,-0.00009982,0.00000002,0.00016377,-0.00068441,0.00000
 003,-0.00017208,0.00089606,0.,-0.00050458,0.35556376,-0.00000013,0.000
 00118,0.00290956,0.00000003,-0.00000015,0.00618360,0.00000023,0.000000
 18,-0.00079049,-0.00000060,0.00000023,0.00729261,0.00000017,-0.0000012
 1,0.00220188,-0.00000089,0.00000137,-0.03162216,0.00000005,-0.00000008
 ,-0.00126799,0.00000002,-0.00000008,0.00039641,0.00000012,0.00000002,-
 0.00431453,0.00000131,-0.00000128,0.02212367,0.00277583,-0.02861319,-0
 .00000142,-0.00837715,-0.00127306,-0.00000006,0.00145291,-0.00168321,0
 .00000024,-0.00016293,0.00048583,-0.00000007,-0.00028317,-0.00040210,0
 .00000008,0.00169868,0.00053118,0.00000025,-0.00051691,-0.00017189,0.,
 -0.00000622,0.00006900,-0.00000002,0.00000193,-0.00000047,0.,-0.000617
 31,0.00078099,-0.00000011,0.11684935,0.00004781,0.00228603,0.00000193,
 0.00108846,0.00004556,-0.00000016,0.00028433,-0.00024594,-0.00000040,0
 .00000882,0.00059157,0.00000004,-0.00023325,-0.00078993,-0.00000010,0.
 00057732,0.00105004,0.00000007,0.00000014,0.00016468,-0.00000006,0.000
 00854,-0.00000838,0.00000004,0.00006618,0.00001517,0.,-0.00007747,-0.0
 0041230,0.00000009,0.14611287,0.41760918,-0.00000159,0.00000002,-0.007
 39563,0.00000062,0.00000053,0.00255308,-0.00000045,0.00000012,0.000996
 94,0.00000021,-0.00000010,-0.00022606,0.00000009,0.00000013,-0.0001838
 4,-0.00000010,0.00000019,-0.00090579,0.00000004,0.00000003,0.00022304,
 0.,0.00000001,0.00003016,0.00000004,0.00000002,0.00013333,-0.00000014,
 0.00000003,0.00006355,0.00001299,0.00004696,0.00698935,-0.08955452,0.0
 2494129,0.00001015,-0.10664397,-0.02636841,0.00001399,0.00669795,0.007
 05585,-0.00000123,-0.00514498,0.00816338,-0.00000096,-0.00711936,-0.00
 646556,-0.00000073,0.00653465,-0.00750669,0.00000095,0.00025561,-0.000
 18929,0.00000025,-0.00052328,0.00031721,0.00000004,-0.00033875,-0.0002
 9460,-0.00000010,0.00028521,0.00047391,0.00000011,0.01807308,-0.015948
 39,-0.00000400,0.90832464,0.05577842,0.00417221,-0.00000201,-0.0658785
 5,0.00180363,0.00000373,0.02094455,0.00066970,0.00000184,-0.01030675,0
 .00711334,-0.00000232,0.00126745,-0.00870018,0.00000083,-0.00370241,-0
 .00401334,-0.00000195,-0.00048388,-0.00029413,0.00000033,0.00051916,-0
 .00006629,-0.00000022,-0.00083393,-0.00039005,0.00000059,0.00119276,-0
 .00101773,0.00000019,0.01211670,-0.01141091,-0.00000267,0.07503013,0.6
 0455705,0.00000494,0.00000875,0.01196385,0.00000530,-0.00000365,0.0096
 9857,-0.00000225,-0.00000001,0.00456601,0.00000036,-0.00000150,0.00046
 513,0.00000024,0.00000117,0.00084823,-0.00000045,-0.00000006,0.0020756
 3,0.00000010,0.00000006,-0.00042202,-0.00000004,0.,-0.00065318,-0.0000
 0004,-0.00000003,-0.00028846,0.00000012,-0.00000010,-0.00050722,-0.000
 00136,0.00000353,-0.00953297,-0.00007418,-0.00004965,0.14008361,0.0014
 7751,0.00169713,0.00000022,0.00055228,-0.00244126,0.00000193,-0.000672
 29,0.00046019,0.00000046,0.00003200,-0.00058313,-0.00000009,0.00018250
 ,0.00045819,0.,-0.00055408,-0.00026113,0.00000058,-0.00000657,-0.00002
 819,0.00000002,-0.00005148,0.00003119,-0.00000008,-0.00003843,-0.00001
 324,-0.00000010,-0.00001485,0.00002138,0.,-0.00053766,0.00058011,0.000
 00011,-0.34479045,0.00465127,0.00001453,0.36672216,0.00014896,-0.00576
 664,-0.00000160,-0.00356827,-0.00396254,0.00000363,-0.00057883,0.00138
 373,0.00000004,-0.00049755,-0.00010645,-0.00000034,0.00007263,-0.00072
 862,0.00000018,0.00137603,0.00131135,-0.00000024,0.00006062,-0.0000233
 2,0.00000011,-0.00013234,0.00010121,-0.00000004,0.00011666,0.00008940,
 0.00000006,-0.00007159,0.00002729,-0.00000003,-0.00036803,0.00031708,0
 .00000018,0.00072588,-0.05825269,0.00000182,0.00034911,0.05797949,-0.0
 0000484,-0.00000108,0.00239030,-0.00000211,0.00000351,0.00820907,0.000
 00198,-0.00000027,0.00107194,-0.00000066,0.00000190,-0.00041826,-0.000
 00140,-0.00000153,-0.00016619,0.00000230,-0.00000036,0.00191687,0.0000
 0003,0.,0.00024001,0.00000002,-0.00000004,-0.00025362,0.00000002,0.,-0
 .00041430,0.00000001,0.00000006,0.00019171,-0.00000014,0.00000031,-0.0
 0102270,-0.00000266,-0.00000065,-0.03083951,-0.00001349,-0.00000215,0.
 02223605,-0.25257292,-0.04506357,-0.00000747,-0.02338049,-0.05457828,-
 0.00000021,-0.00051669,0.00138143,0.00000217,-0.00307440,-0.00856183,-
 0.00000076,0.00893046,0.00974965,0.00000133,-0.04282269,-0.00979632,-0
 .00000232,-0.00040457,0.00004332,-0.00000035,0.00029495,-0.00013892,-0
 .00000046,-0.00096682,-0.00056992,0.00000042,0.00262377,-0.00045558,-0
 .00000003,-0.12898644,-0.13514615,-0.00000889,-0.17388223,0.07319758,0
 .00000808,-0.00928293,0.03067324,0.00000808,0.62182848,-0.03609500,-0.
 14209273,-0.00000640,-0.01255238,-0.04616146,0.00000107,-0.00653838,-0
 .00612497,0.00000134,0.00519808,-0.00606821,0.00000059,0.00628614,0.00
 328133,0.00000032,0.01081937,0.02154846,0.00000195,-0.00141609,-0.0005
 4150,0.,-0.00028154,0.00016753,-0.00000013,0.00137238,0.00102297,-0.00
 000031,-0.00165362,0.00162372,-0.00000023,-0.13508449,-0.40618417,-0.0
 0004932,0.07733966,-0.21932373,-0.00001846,-0.00109946,0.00364384,-0.0
 0000063,0.12936075,0.89664940,-0.00000200,-0.00001163,-0.04595403,0.00
 000349,-0.00000029,0.00778514,-0.00000296,-0.00000042,0.00265959,0.000
 00179,-0.00000183,-0.00134399,0.00000128,0.00000266,0.00592410,-0.0000
 0300,0.00000077,-0.00294315,-0.00000012,0.00000004,-0.00027994,-0.0000
 0002,-0.00000003,-0.00020054,0.00000009,0.00000006,0.00132276,0.000000
 04,0.00000015,-0.00289373,-0.00000934,-0.00005103,0.00208725,0.0000138
 8,-0.00002365,-0.05257592,-0.00000240,0.00000044,0.00012376,-0.0000006
 7,0.00007184,0.06127978,-0.01826079,0.05127398,-0.00000576,-0.19430930
 ,0.08220237,-0.00002436,-0.05600178,0.00553932,-0.00000240,0.01258319,
 -0.01919078,0.00000209,0.00293432,0.01479428,-0.00000036,-0.00533274,0
 .00402937,0.00000147,0.00223218,0.00037351,-0.00000020,-0.00086859,0.0
 0042798,0.00000011,0.00029932,0.00041154,-0.00000051,-0.00133287,0.000
 66923,-0.00000029,-0.00136400,0.00263067,0.00000106,-0.21217359,-0.163
 49249,0.00004466,-0.01301773,-0.02830653,0.00001286,0.00221253,-0.0356
 5543,-0.00000007,0.48239985,0.01616294,-0.03324703,0.00000575,0.041442
 79,-0.12785111,0.00000482,-0.01662427,0.01894182,-0.00000413,-0.001847
 81,-0.00224669,0.00000097,-0.00236706,0.00034949,-0.00000042,-0.000220
 99,-0.00602942,0.00000042,0.00193691,0.00128546,-0.00000050,-0.0011470
 4,0.00069806,0.00000034,0.00035264,0.00021047,-0.00000006,0.00171098,-
 0.00056213,-0.00000021,0.00749987,-0.00302769,0.00000388,-0.13727439,-
 0.31484689,0.00005816,-0.00382216,0.00398688,0.00000093,0.00990459,-0.
 10144046,0.00001293,0.08429299,0.56377926,0.00000338,-0.00000134,0.014
 52054,-0.00001670,0.00001475,-0.06955342,-0.00000066,-0.00000153,-0.00
 296836,0.00000064,-0.00000152,0.00612908,0.00000213,0.00000085,-0.0015
 1770,-0.00000330,0.00000141,0.00310943,0.,-0.00000037,-0.00350415,0.00
 000021,0.,0.00111344,-0.00000003,0.00000003,-0.00014352,-0.00000020,-0
 .00000008,0.00003311,-0.00000103,-0.00000121,0.00619027,0.00004449,0.0
 0007560,-0.07488175,-0.00000170,-0.00000206,-0.00326515,0.00000109,-0.
 00000164,0.02500893,-0.00002831,-0.00008289,0.09972923\\0.00002927,-0.
 00003473,-0.00000541,0.00011238,-0.00000088,-0.00002485,-0.00018031,0.
 00000370,-0.00000519,0.00008457,-0.00009653,0.00000032,0.00007464,0.00
 009350,-0.00000156,-0.00015124,-0.00000045,-0.00000091,0.00003092,0.00
 001156,0.00000074,0.00000876,0.00002024,0.00000157,0.00000807,-0.00001
 274,0.00000089,0.00001095,-0.00001225,0.00000021,0.00000073,0.00000196
 ,0.00000795,0.00010704,-0.00000239,-0.00006567,-0.00001450,0.00000937,
 -0.00000032,-0.00001218,0.00004104,0.00003098,-0.00010911,-0.00002140,
 0.00006126\\\@


 THOSE WITH THE GOLD MAKE THE RULES.

             -- PETER'S GOLDEN RULE
 Job cpu time:       0 days  0 hours 49 minutes 43.8 seconds.
 Elapsed time:       0 days  0 hours  2 minutes  5.4 seconds.
 File lengths (MBytes):  RWF=    112 Int=      0 D2E=      0 Chk=      7 Scr=      1
 Normal termination of Gaussian 16 at Wed Oct 11 11:39:38 2023.
