          38
 Energy =     -0.50417900 a.u.  #Cluster:    1
C          15.69878300     18.88398000     12.81974500
C          15.72360500     18.42193200     14.12810200
C          14.54956600     17.95158100     14.73674200
C          13.35201500     17.95129400     14.01866800
C          13.35591800     18.42102200     12.68140200
H          14.58445800     17.55593100     15.75464200
H          16.62597200     19.19292700     12.28242700
H          16.67206100     18.39942000     14.67064000
H          12.43563700     18.38824600     12.07288200
C          12.09491300     17.39188900     14.57974200
H          11.20301400     17.96941400     14.30606200
H          11.93607400     16.36362100     14.18136500
H          12.11193500     17.30169300     15.67314400
N          14.50957300     18.89931000     12.11322700
C          14.50370900     19.41112200     10.70106000
H          13.82431300     20.29163400     10.65898100
H          15.53578000     19.78677000     10.45549300
C          14.06986800     18.35431500      9.67435800
H          13.45135200     17.54698000     10.16680600
H          13.37409500     18.82942300      8.95195700
C          15.20255300     17.69201100      8.90524500
H          15.62491000     18.38966200      8.15277100
H          14.77721000     16.86657600      8.29046200
S          16.50070600     17.06705100      9.92911900
O          17.37118700     16.24219600      9.06661300
O          15.92559800     16.11714000     10.98155400
O          17.11007600     18.23563100     10.59273700
P          14.13926000     15.19043100     12.01843500
O          13.32784200     16.38709600     11.64032700
O          13.15763500     14.27803800     13.00236300
H          13.41944900     13.33410700     13.11737300
O          14.56450400     14.07142000     10.95734300
H          15.56363100     14.15201500     10.49213500
O          15.33479300     15.41769700     13.13681400
H          16.17534600     15.85458300     12.77158000
O          16.99215400     13.92227800     10.02603000
H          17.43655300     14.46324700     10.70188700
H          17.12398300     14.45634200      9.18978600
          38
 Energy =     -0.49671600 a.u.  #Cluster:    2
C          15.58098700     18.42187100     13.01112600
C          15.37898100     17.88110000     14.28515000
C          14.09184900     17.71893700     14.77732600
C          12.99946300     18.07202300     13.96899700
C          13.24045400     18.59783100     12.69880600
H          13.92252400     17.27428800     15.75964900
H          16.61702400     18.52267600     12.56995600
H          16.24793000     17.54766100     14.85770400
H          12.41732200     18.82033400     12.01101100
C          11.60435400     17.81502800     14.40276000
H          10.89238500     18.57258900     14.05211800
H          11.26475700     16.84001500     13.98700000
H          11.49865300     17.74136900     15.49313400
N          14.51867600     18.79508900     12.25601300
C          14.72097300     19.42589800     10.92798500
H          13.96588600     20.23235800     10.80101800
H          15.71690200     19.94039300     10.91976800
C          14.61748000     18.40871100      9.77465600
H          14.32104400     17.40215800     10.15391700
H          13.77562200     18.69498900      9.11145300
C          15.89416400     18.30117400      8.95316900
H          16.24589100     19.28849900      8.61473900
H          15.69975400     17.72410100      8.02877200
S          17.25209000     17.47369700      9.83623700
O          18.32573600     17.32792700      8.86797300
O          16.63154800     16.16321900     10.27303000
O          17.50393200     18.34606400     11.00662200
P          14.03232200     15.06493100     12.35420900
O          13.13102200     16.16052900     11.98142500
O          13.59821700     14.49708900     13.78669500
H          14.17206400     13.66458600     13.97990400
O          14.00391800     13.75804900     11.45974300
H          14.44974400     13.95464200     10.52187800
O          15.53841500     15.47480400     12.59390400
H          16.01195600     15.73948800     11.65429400
O          15.36519500     14.15163200      9.07008300
H          16.03672000     13.47491800      9.02890400
H          15.86406800     14.94936500      9.39889000
          38
 Energy =     -0.49606100 a.u.  #Cluster:    3
C          15.53066600     19.13046400     12.75107700
C          15.51625000     18.71922900     14.09364200
C          14.35762000     18.21195100     14.65335900
C          13.18522500     18.14594500     13.87867300
C          13.23828300     18.54493200     12.54677200
H          14.34787500     17.84073700     15.67962800
H          16.44577600     19.55000000     12.28643600
H          16.44851400     18.75969800     14.65993100
H          12.36661400     18.44707200     11.88682800
C          11.92438500     17.61351800     14.45241300
H          12.08917900     16.61134400     14.89594600
H          11.51275900     18.26346900     15.23473300
H          11.14254200     17.45078600     13.69304200
N          14.39995900     19.02964000     12.00428100
C          14.43167600     19.34070400     10.55395200
H          13.62657900     20.07676000     10.33598000
H          15.39698300     19.84808200     10.29328300
C          14.24109700     18.06979700      9.70283200
H          13.62004900     17.32691900     10.25693400
H          13.62104300     18.33169200      8.81879000
C          15.51638600     17.39417200      9.21648500
H          15.88615600     17.88085400      8.29523500
H          15.27915800     16.34653300      8.92707900
S          16.90504600     17.34185200     10.37760700
O          17.67866800     16.15395800      9.98089900
O          16.30267500     17.20737000     11.76111400
O          17.52716300     18.66773900     10.25965400
P          13.85095400     14.91423600     12.20938600
O          12.86601800     15.99234300     12.33638500
O          13.28309200     13.58780200     12.89403400
H          14.05085900     12.91594800     12.99838400
O          14.10617600     14.58027100     10.67800700
H          15.04145600     14.13058800     10.54045400
O          15.25944100     15.08900400     12.89686500
H          15.73683900     15.98212500     12.48410100
O          16.69897200     13.61647200     10.21611400
H          17.12392400     14.48834400     10.00932800
H          17.11396800     13.36768100     11.04036200
          38
 Energy =     -0.49495000 a.u.  #Cluster:    4
C          15.69042800     19.05224500     12.94974400
C          15.66795700     18.51482600     14.24724700
C          14.49127000     18.01144900     14.77101000
C          13.30994200     18.07686000     14.00943800
C          13.36993500     18.59921200     12.72194800
H          14.47260300     17.54245400     15.75645300
H          16.62099400     19.46818900     12.51367600
H          16.60653500     18.45464000     14.80135200
H          12.48891300     18.60516200     12.06715100
C          12.03048200     17.55039300     14.54597800
H          11.24060300     17.48103200     13.78006600
H          12.15405400     16.51037200     14.90727200
H          11.64732900     18.15192200     15.37978000
N          14.54868200     19.07997900     12.21302400
C          14.58564400     19.52449100     10.79813800
H          13.82465000     20.32440100     10.66249000
H          15.57824300     19.99451700     10.57177000
C          14.31129700     18.35432600      9.83328600
H          13.64317700     17.60462100     10.31935600
H          13.70915600     18.73858200      8.98231100
C          15.53851300     17.64457000      9.27642100
H          15.93620900     18.18830300      8.40029500
H          15.23223500     16.64503000      8.89925200
S          16.92754200     17.39808900     10.41549000
O          17.61500700     16.19981100      9.90429600
O          16.32533800     17.19450800     11.78716400
O          17.63834000     18.68439400     10.39581900
P          13.73588900     14.99780400     12.02556400
O          12.73144400     16.05800400     12.15293100
O          13.14622700     13.61168400     12.55557600
H          13.92831300     12.95842500     12.69160100
O          14.10743200     14.79533300     10.49408900
H          15.00411300     14.27362100     10.38404300
O          15.07417200     15.13459400     12.84788300
H          15.64280600     15.97197300     12.45247900
O          16.62021500     13.66634300      9.96294800
H          16.75186300     13.45021300      9.04543300
H          17.10247500     14.52766400     10.06724800
          38
 Energy =     -0.49438000 a.u.  #Cluster:    5
C          15.74651300     19.91011100     12.73925800
C          16.03500000     19.61492300     14.06882600
C          15.26625700     18.68032900     14.76053000
C          14.19323500     18.06360100     14.11626600
C          13.91769900     18.40151200     12.78316100
H          15.51896100     18.41251400     15.78751800
H          16.38133300     20.59014000     12.14969500
H          16.89787500     20.08546000     14.54212600
H          13.09663000     17.90634800     12.23449000
C          13.38912600     17.00684400     14.77418700
H          12.39118700     16.87249300     14.32575000
H          13.89089200     16.02076200     14.64714800
H          13.25330400     17.16756000     15.84911800
N          14.67756300     19.32000100     12.12420800
C          14.42713200     19.60445200     10.68730600
H          13.54806700     20.28451800     10.62256900
H          15.30896100     20.15427000     10.26807200
C          14.18094400     18.33955400      9.84204800
H          13.44170800     17.66954900     10.33839800
H          13.66972100     18.64858800      8.90369200
C          15.43387200     17.55376300      9.48240200
H          16.01796800     18.07062100      8.70126700
H          15.14329400     16.57591900      9.03937000
S          16.53787600     17.24101400     10.88183800
O          17.40213900     16.12482700     10.46836100
O          15.63141900     16.88826000     12.03503000
O          17.16078100     18.55798900     11.12655500
P          13.15230400     14.62032000     11.40890000
O          12.20335100     15.73317200     11.37908000
O          12.39594400     13.25664300     11.74530000
H          13.09452900     12.52845400     11.92589900
O          13.85193800     14.42351700      9.99792000
H          14.80315000     14.00189800     10.10286800
O          14.30507300     14.65129800     12.49390300
H          14.87607700     15.56145200     12.36796300
O          16.50548400     13.54217800     10.24419200
H          16.66114300     13.26975900     11.14766500
H          16.93157800     14.43541700     10.20714100
          38
 Energy =     -0.49359200 a.u.  #Cluster:    6
C          15.46456800     18.88814100     12.99561800
C          15.39007000     18.35398300     14.28235100
C          14.19342200     17.80668800     14.75037800
C          13.06462100     17.78972100     13.91743100
C          13.17312800     18.31566800     12.61383100
H          14.14538300     17.36094300     15.74731900
H          16.41828900     19.26440800     12.57999000
H          16.29217400     18.33187900     14.90045500
H          12.33397000     18.23947400     11.90246300
C          11.79632600     17.14934300     14.35149200
H          11.90685400     16.04050100     14.29522400
H          11.52426800     17.39426900     15.38524500
H          10.93998900     17.39277500     13.70936100
N          14.34959900     18.88485300     12.18467200
C          14.43608700     19.46268200     10.80248200
H          13.57388000     20.15442300     10.66415400
H          15.35689400     20.08884700     10.73432200
C          14.43421600     18.38884500      9.69985800
H          14.10112000     17.39335100     10.11351200
H          13.64105800     18.64026300      8.96495200
C          15.76182700     18.24497500      8.97675200
H          16.18585000     19.23166900      8.70708000
H          15.58507600     17.76340900      7.99023200
S          16.96191100     17.28395100      9.87699400
O          16.67940700     15.85150300      9.58876300
O          16.66020500     17.52591500     11.36468700
O          18.26653600     17.78323100      9.48749500
P          14.20391000     15.11932200     12.12614200
O          13.41990200     16.22008700     11.49043500
O          13.41945300     14.59818000     13.49491800
H          13.59396400     13.65607900     13.74820800
O          14.40127900     13.74427800     11.34484800
H          15.36141000     13.59491100     10.75258600
O          15.64966100     15.54602900     12.67588900
H          16.17290900     16.40114400     12.17550500
O          16.48633000     13.51949100      9.89581800
H          16.15208600     14.02766500      9.11119600
H          17.10239500     14.19713400     10.30736800
          38
 Energy =     -0.49312700 a.u.  #Cluster:    7
C          15.69377800     20.00343200     12.89692700
C          16.01375700     19.65549900     14.20636800
C          15.30253100     18.64777800     14.85565200
C          14.25960200     18.00573500     14.18784800
C          13.94759200     18.39971200     12.87801700
H          15.57975600     18.34163600     15.86555600
H          16.28940700     20.73945200     12.33438100
H          16.85833100     20.14353100     14.69465500
H          13.15503700     17.88329100     12.30996200
C          13.53435900     16.86256900     14.79224100
H          14.16938800     15.95076100     14.75327800
H          13.25905900     17.02929900     15.83936700
H          12.62008400     16.58209700     14.24252600
N          14.64306400     19.39840200     12.26464000
C          14.35513400     19.75754800     10.85116300
H          13.45951100     20.41844900     10.84428900
H          15.21551200     20.35207900     10.44782700
C          14.12293500     18.53967700      9.93605300
H          13.40995100     17.82398400     10.40421900
H          13.58925700     18.89092800      9.02538300
C          15.38726900     17.80584000      9.51044500
H          15.95330000     18.38487300      8.76095400
H          15.10881800     16.85385700      9.00632100
S          16.50280800     17.42435800     10.88160600
O          17.40861000     16.36991500     10.40273300
O          15.60785200     16.97359600     12.00601800
O          17.08595800     18.74247400     11.21710500
P          13.26242000     14.49974900     11.08708900
O          13.08499600     15.45386600      9.99525100
O          11.85982700     13.86482900     11.51842600
H          12.05112800     13.11791900     12.19943800
O          14.11764300     13.19352400     10.81254600
H          15.11832500     13.44872000     10.62122700
O          13.79230100     15.08486900     12.46082500
H          14.57294400     15.79122400     12.27398000
O          16.85096400     13.68649500     10.43491700
H          17.26548200     13.48609400     11.27025000
H          17.07134500     14.64196000     10.30053900
          38
 Energy =     -0.49284300 a.u.  #Cluster:    8
C          15.71717900     18.99261700     13.04604100
C          15.73962200     18.40153200     14.31774800
C          14.60602500     17.76826700     14.81658700
C          13.42445200     17.74799300     14.05017700
C          13.41559700     18.38411900     12.80118100
H          14.63529500     17.26781100     15.78729800
H          16.62798900     19.43842000     12.59419600
H          16.67667600     18.40274300     14.88009800
H          12.52045200     18.33884300     12.15351300
C          12.20214900     17.03512700     14.50785400
H          11.70203200     16.52330200     13.65852400
H          12.42217300     16.24818800     15.24266600
H          11.46728100     17.71678200     14.95681700
N          14.54742300     19.00655300     12.32002400
C          14.54131600     19.59756300     10.94120400
H          13.78582700     20.41477500     10.91431200
H          15.53887300     20.07704600     10.73707200
C          14.22746600     18.54605000      9.86559300
H          13.50447200     17.78239900     10.26558300
H          13.66312700     19.04588800      9.04874500
C          15.42445900     17.82777000      9.26068000
H          15.77511100     18.36608000      8.35705600
H          15.06679500     16.84159900      8.86358800
S          16.79328300     17.56377000     10.35138600
O          17.54240600     16.41928500      9.78454800
O          16.24184900     17.16782300     11.72162900
O          17.45832500     18.86411500     10.51189600
P          13.80319200     15.10620100     11.39296000
O          12.84475900     16.23515600     11.46419600
O          13.12345500     13.65433800     11.77515500
H          13.73417200     12.97944900     12.16998200
O          14.49355200     14.95568600      9.94387400
H          15.45323600     14.40183700      9.87983800
O          15.05252400     15.05618900     12.42625400
H          15.76737000     15.87695500     12.35359900
O          16.88177600     14.11971000      9.67994100
H          17.32328200     14.61539400     10.42401300
H          17.09505200     14.71266300      8.91418500
          38
 Energy =     -0.49279900 a.u.  #Cluster:    9
C          15.75980600     19.85835400     12.80371200
C          16.01055800     19.53293300     14.13409700
C          15.19910300     18.61143900     14.79322000
C          14.12268800     18.03705900     14.11547000
C          13.88872600     18.40172900     12.78172700
H          15.42058000     18.31960400     15.82095000
H          16.42746100     20.52865700     12.23966300
H          16.87694300     19.96918800     14.63314400
H          13.06965600     17.93551800     12.20514700
C          13.27107800     16.99925500     14.74294800
H          13.09378800     17.16850500     15.81054800
H          12.29029400     16.88204400     14.25409900
H          13.75734500     16.00230300     14.64199100
N          14.68879700     19.30955600     12.15575400
C          14.47822600     19.62589800     10.71941700
H          13.61627900     20.32672500     10.64717700
H          15.38147400     20.16299700     10.33042700
C          14.22407800     18.38208700      9.84594900
H          13.46254200     17.71721700     10.31501200
H          13.73778800     18.71815300      8.90385600
C          15.46879800     17.57880700      9.49686600
H          16.07951700     18.09979800      8.73990300
H          15.16758900     16.61601500      9.03064700
S          16.53900400     17.21540600     10.91339700
O          17.37842800     16.08289100     10.48936200
O          15.60426000     16.87985300     12.04508700
O          17.19597000     18.51162400     11.18053700
P          13.10192900     14.66463300     11.32506500
O          12.14130600     15.76369800     11.22568600
O          12.35683300     13.27857200     11.58861100
H          13.05717000     12.58420000     11.87568500
O          13.90113300     14.50312200      9.96155700
H          14.81303900     14.02247900     10.10458900
O          14.15736900     14.70896600     12.50144000
H          14.79313700     15.57093500     12.36798700
O          16.53244600     13.50756400     10.11884400
H          16.91920000     13.36487600      9.26076200
H          16.91568900     14.37736700     10.39968400
