          38
 G =       -0.496004 Gcorr = 0.215775 a.u. Nimag =   0 Frame:     1 Step:     1 Geom:     1
C          15.52432700     19.15920900     12.62831300
C          15.56996600     18.72457600     13.96277400
C          14.44244900     18.18952300     14.55901700
C          13.24107600     18.11848900     13.83057400
C          13.23465000     18.54132200     12.50499100
H          14.47945300     17.80049300     15.57804600
H          16.41367800     19.60099200     12.13514700
H          16.52347700     18.76989300     14.49212400
H          12.33878000     18.44120600     11.87864600
C          12.01238900     17.55642300     14.44440800
H          11.62325900     18.18569200     15.25465600
H          11.20294300     17.39538400     13.71415500
H          12.20964200     16.54904700     14.86216000
N          14.36619200     19.05363700     11.92547800
C          14.33501600     19.39061500     10.48094400
H          13.51089600     20.11771900     10.30870200
H          15.28138800     19.91760900     10.19124600
C          14.12944700     18.13212300      9.61505700
H          13.54193600     17.37008100     10.17963200
H          13.47079600     18.39991200      8.76118100
C          15.39409800     17.48493900      9.06636500
H          15.71943000     17.99311700      8.13994300
H          15.16110700     16.43891900      8.76789600
S          16.82894400     17.43422700     10.17006000
O          17.60375100     16.26583400      9.72110400
O          16.28485700     17.26605300     11.57382700
O          17.42573800     18.77166500     10.05135200
P          13.88703200     14.92716700     12.07722900
O          12.89234300     15.98742900     12.26432300
O          13.36689900     13.57983000     12.75884200
H          14.14694800     12.91649000     12.81558900
O          14.08472300     14.62541400     10.53066600
H          15.01999400     14.19291400     10.34683100
O          15.31952600     15.11103600     12.71046200
H          15.76635900     16.01896800     12.29616300
O          16.67008000     13.70982500      9.94577300
H          17.07403500     14.59173700      9.73962200
H          17.12240300     13.45052600     10.74672400
          38
 G =       -0.496061 Gcorr = 0.215717 a.u. Nimag =   0 Frame:     2 Step:     2 Geom:     2
C          15.53066600     19.13046400     12.75107700
C          15.51625000     18.71922900     14.09364200
C          14.35762000     18.21195100     14.65335900
C          13.18522500     18.14594500     13.87867300
C          13.23828300     18.54493200     12.54677200
H          14.34787500     17.84073700     15.67962800
H          16.44577600     19.55000000     12.28643600
H          16.44851400     18.75969800     14.65993100
H          12.36661400     18.44707200     11.88682800
C          11.92438500     17.61351800     14.45241300
H          12.08917900     16.61134400     14.89594600
H          11.51275900     18.26346900     15.23473300
H          11.14254200     17.45078600     13.69304200
N          14.39995900     19.02964000     12.00428100
C          14.43167600     19.34070400     10.55395200
H          13.62657900     20.07676000     10.33598000
H          15.39698300     19.84808200     10.29328300
C          14.24109700     18.06979700      9.70283200
H          13.62004900     17.32691900     10.25693400
H          13.62104300     18.33169200      8.81879000
C          15.51638600     17.39417200      9.21648500
H          15.88615600     17.88085400      8.29523500
H          15.27915800     16.34653300      8.92707900
S          16.90504600     17.34185200     10.37760700
O          17.67866800     16.15395800      9.98089900
O          16.30267500     17.20737000     11.76111400
O          17.52716300     18.66773900     10.25965400
P          13.85095400     14.91423600     12.20938600
O          12.86601800     15.99234300     12.33638500
O          13.28309200     13.58780200     12.89403400
H          14.05085900     12.91594800     12.99838400
O          14.10617600     14.58027100     10.67800700
H          15.04145600     14.13058800     10.54045400
O          15.25944100     15.08900400     12.89686500
H          15.73683900     15.98212500     12.48410100
O          16.69897200     13.61647200     10.21611400
H          17.12392400     14.48834400     10.00932800
H          17.11396800     13.36768100     11.04036200
          38
 G =       -0.504146 Gcorr = 0.206660 a.u. Nimag =   0 Frame:     3 Step:     3 Geom:     3
C          15.62782800     18.80008000     12.95464100
C          15.56540300     18.28859000     14.24318200
C          14.34125700     17.85520500     14.77586000
C          13.18218500     17.94212300     14.00214800
C          13.27509200     18.46092700     12.68637500
H          14.30653400     17.42019600     15.77759500
H          16.59441800     19.08198000     12.47490700
H          16.48356200     18.19826200     14.82904600
H          12.38560200     18.49748900     12.03396500
C          11.87314300     17.42602900     14.47974900
H          11.68364800     16.42363100     14.03196200
H          11.83216000     17.29214600     15.56804400
H          11.02523800     18.05880700     14.18889300
N          14.47729500     18.90165400     12.19338900
C          14.56623600     19.46566000     10.80400100
H          13.93317800     20.38014800     10.76477500
H          15.62621600     19.79776000     10.62312600
C          14.13315700     18.47119600      9.71652000
H          13.45219800     17.67849200     10.14620200
H          13.49832600     19.00749100      8.98095500
C          15.26916700     17.78150200      8.97691400
H          15.76125900     18.48435700      8.27312700
H          14.83527400     17.00166900      8.31071100
S          16.48380600     17.05509500     10.03558500
O          17.35565200     16.22141600      9.18309800
O          15.81310100     16.09536400     11.02055100
O          17.11453600     18.16626800     10.77371300
P          13.93406800     15.22248800     11.93293100
O          13.20232400     16.47263200     11.56541000
O          12.86084400     14.32499200     12.83123600
H          13.06798900     13.36468200     12.91797800
O          14.35478100     14.12403700     10.84878800
H          15.37802100     14.17058700     10.43433500
O          15.08239600     15.34504900     13.11527900
H          15.96110100     15.75054500     12.80928500
O          16.81677600     13.89001600     10.03426400
H          17.01912400     14.44704200      9.22770100
H          17.24712900     14.38441700     10.75378500
          38
 G =       -0.492826 Gcorr = 0.204970 a.u. Nimag =   0 Frame:     4 Step:     4 Geom:     4
C          15.78149300     19.06476700     12.89486000
C          15.76730500     18.62468700     14.22648600
C          14.60071600     18.10991800     14.78234600
C          13.42389300     18.05872400     14.01008900
C          13.45395900     18.54493700     12.69576400
H          14.59950800     17.72475400     15.80471400
H          16.71599700     19.41026700     12.40486100
H          16.70012600     18.64530400     14.79546800
H          12.56143900     18.46827600     12.04743900
C          12.16482600     17.46485000     14.53323600
H          12.33973600     16.76580800     15.36283200
H          11.45861100     18.22986300     14.88298800
H          11.64935500     16.87565600     13.74540600
N          14.61806300     19.05138400     12.15881200
C          14.64895800     19.47838600     10.72103900
H          13.93410100     20.32180000     10.59118800
H          15.66981500     19.88326700     10.47464500
C          14.29126700     18.32530500      9.77041300
H          13.53065400     17.64761100     10.24787600
H          13.75602800     18.75306500      8.89516100
C          15.45625100     17.48693300      9.26580200
H          15.83899900     17.90126300      8.31134400
H          15.05407800     16.47984200      8.97940700
S          16.80268300     17.28496900     10.39699400
O          17.50067800     16.04979300      9.97275500
O          16.22288600     17.07359000     11.79544800
O          17.52823200     18.56273100     10.41742500
P          13.69318400     15.10977200     11.68228900
O          12.79046800     16.28378100     11.61197700
O          12.94127000     13.74546600     12.22060500
H          13.51462500     13.09584900     12.70398600
O          14.38535600     14.76010100     10.26944900
H          15.31878400     14.15795900     10.28158700
O          14.93055700     15.11872500     12.73188600
H          15.68515500     15.88831800     12.57524200
O          16.73166500     13.78804200     10.13262100
H          17.19205800     14.34559300     10.81949600
H          16.97725000     14.27868000      9.30608400
          38
 G =       -0.496039 Gcorr = 0.215740 a.u. Nimag =   0 Frame:     5 Step:     5 Geom:     5
C          15.70357600     18.95753200     12.93806700
C          15.64947000     18.38782400     14.22037300
C          14.45349700     17.89973700     14.71480600
C          13.28557500     18.01209100     13.93870200
C          13.37727400     18.56557500     12.66543300
H          14.40940500     17.40785200     15.68806200
H          16.64963500     19.36458100     12.52750200
H          16.57774400     18.29260700     14.78666900
H          12.50616000     18.61100100     11.99908200
C          11.98573400     17.50469300     14.44404000
H          11.61524700     18.08157400     15.30069100
H          11.20021900     17.49239800     13.67124400
H          12.07560100     16.44654500     14.76100400
N          14.57454100     19.02905200     12.18537100
C          14.63969200     19.51153800     10.78390500
H          13.89028900     20.32399600     10.65807500
H          15.64042400     19.97708400     10.58644100
C          14.36662000     18.37071700      9.78397600
H          13.68971400     17.61219000     10.24339000
H          13.77421600     18.78212200      8.93873700
C          15.59470300     17.66987400      9.21829900
H          16.00529100     18.23699900      8.36265400
H          15.28623000     16.68463700      8.80388900
S          16.96699400     17.37839600     10.36332600
O          17.65815900     16.19583300      9.82401400
O          16.34575100     17.11946500     11.72054400
O          17.68183400     18.66135200     10.40756300
P          13.73463400     14.96886300     11.88675800
O          12.82748800     16.09092200     12.14485800
O          13.06882400     13.61275600     12.40476300
H          13.78638900     12.88040800     12.42644900
O          13.97783200     14.80639000     10.32593500
H          14.88014800     14.31167500     10.13377400
O          15.14634900     14.95793000     12.58959200
H          15.68881000     15.85860400     12.28890900
O          16.49948600     13.72477300      9.74829100
H          16.88964200     13.34755800     10.53502900
H          16.98682900     14.58288400      9.64980400
          38
 G =       -0.495908 Gcorr = 0.215871 a.u. Nimag =   0 Frame:     6 Step:     6 Geom:     6
C          15.71843700     18.96836200     12.86640600
C          15.71864100     18.39085900     14.14633900
C          14.54363000     17.90448600     14.69025400
C          13.34303500     18.02629200     13.96728000
C          13.38076000     18.58700200     12.69440300
H          14.54053500     17.40677200     15.66154400
H          16.64701300     19.37465100     12.41697900
H          16.67066200     18.28833500     14.67039600
H          12.48128700     18.63973000     12.06744400
C          12.06459600     17.52126400     14.52666000
H          12.16340400     16.46043700     14.83193300
H          11.73564100     18.09359700     15.40309100
H          11.24529200     17.51808700     13.78974700
N          14.55757000     19.04870500     12.16468700
C          14.56275200     19.53967200     10.76464100
H          13.81154000     20.35547300     10.67688000
H          15.55550400     20.00306300     10.52611800
C          14.24161000     18.40608500      9.77084300
H          13.58177900     17.64772500     10.25464000
H          13.61499100     18.82511900      8.95448800
C          15.44077100     17.70338200      9.14832300
H          15.81530200     18.27306200      8.27793400
H          15.11043900     16.72129600      8.74333000
S          16.86152100     17.40133200     10.22969600
O          17.52456900     16.22036000      9.65276500
O          16.30061100     17.13547000     11.61151200
O          17.58128400     18.68220500     10.24996600
P          13.68891500     14.99356800     11.88018400
O          12.79864900     16.11737200     12.18517400
O          13.04180500     13.63689400     12.41974500
H          13.75647100     12.90124800     12.40269000
O          13.86098000     14.83947100     10.30907900
H          14.75242700     14.34417800     10.07313200
O          15.13060000     14.97330900     12.51898000
H          15.66261000     15.87372200     12.19993000
O          16.35142200     13.75535500      9.61045800
H          16.77455600     13.37031600     10.37602300
H          16.83841600     14.61177300      9.49632400
          38
 G =       -0.494920 Gcorr = 0.215286 a.u. Nimag =   0 Frame:     7 Step:     7 Geom:     7
C          15.68365300     19.00083000     12.89404800
C          15.70559600     18.46537600     14.19232000
C          14.54745600     17.96303800     14.75690400
C          13.34075000     18.02749800     14.03619600
C          13.35662800     18.54804600     12.74664800
H          14.56255900     17.49568000     15.74317900
H          16.59878400     19.41577800     12.42557900
H          16.66257300     18.40581600     14.71408400
H          12.45359100     18.55336500     12.12253400
C          12.08040600     17.50193600     14.61701000
H          12.21580700     16.46170000     14.97347500
H          11.72713000     18.10344300     15.46392100
H          11.26414600     17.43345800     13.87924000
N          14.51726600     19.02779500     12.19689000
C          14.50575000     19.47054800     10.78097300
H          13.74093600     20.27070700     10.67060000
H          15.49021300     19.93970200     10.52000500
C          14.19777700     18.29932400      9.82764700
H          13.54693200     17.55021600     10.33754900
H          13.56638000     18.68255900      8.99770000
C          15.40486900     17.58882500      9.22933900
H          15.77247800     18.13191800      8.33981100
H          15.08547000     16.58918500      8.86349300
S          16.83203600     17.34252300     10.32031500
O          17.50034800     16.14277700      9.78766700
O          16.27716300     17.14152400     11.71228300
O          17.54286100     18.62807900     10.27442600
P          13.69784600     14.94551500     12.04223500
O          12.69839700     16.00584800     12.20334800
O          13.12708800     13.55959300     12.59304700
H          13.91376300     12.90728400     12.70436700
O          14.01621300     14.74192900     10.49887300
H          14.90814100     14.21913200     10.35848500
O          15.06381500     15.08318700     12.81745000
H          15.61826600     15.92066300     12.40140000
O          16.50773200     13.60978300      9.88395600
H          16.60552400     13.39450500      8.96193300
H          16.99367600     14.47094600      9.97109600
          38
 G =       -0.504179 Gcorr = 0.206628 a.u. Nimag =   0 Frame:     8 Step:     8 Geom:     8
C          15.69878300     18.88398000     12.81974500
C          15.72360500     18.42193200     14.12810200
C          14.54956600     17.95158100     14.73674200
C          13.35201500     17.95129400     14.01866800
C          13.35591800     18.42102200     12.68140200
H          14.58445800     17.55593100     15.75464200
H          16.62597200     19.19292700     12.28242700
H          16.67206100     18.39942000     14.67064000
H          12.43563700     18.38824600     12.07288200
C          12.09491300     17.39188900     14.57974200
H          11.20301400     17.96941400     14.30606200
H          11.93607400     16.36362100     14.18136500
H          12.11193500     17.30169300     15.67314400
N          14.50957300     18.89931000     12.11322700
C          14.50370900     19.41112200     10.70106000
H          13.82431300     20.29163400     10.65898100
H          15.53578000     19.78677000     10.45549300
C          14.06986800     18.35431500      9.67435800
H          13.45135200     17.54698000     10.16680600
H          13.37409500     18.82942300      8.95195700
C          15.20255300     17.69201100      8.90524500
H          15.62491000     18.38966200      8.15277100
H          14.77721000     16.86657600      8.29046200
S          16.50070600     17.06705100      9.92911900
O          17.37118700     16.24219600      9.06661300
O          15.92559800     16.11714000     10.98155400
O          17.11007600     18.23563100     10.59273700
P          14.13926000     15.19043100     12.01843500
O          13.32784200     16.38709600     11.64032700
O          13.15763500     14.27803800     13.00236300
H          13.41944900     13.33410700     13.11737300
O          14.56450400     14.07142000     10.95734300
H          15.56363100     14.15201500     10.49213500
O          15.33479300     15.41769700     13.13681400
H          16.17534600     15.85458300     12.77158000
O          16.99215400     13.92227800     10.02603000
H          17.43655300     14.46324700     10.70188700
H          17.12398300     14.45634200      9.18978600
          38
 G =       -0.496716 Gcorr = 0.214659 a.u. Nimag =   0 Frame:     9 Step:     9 Geom:     9
C          15.58098700     18.42187100     13.01112600
C          15.37898100     17.88110000     14.28515000
C          14.09184900     17.71893700     14.77732600
C          12.99946300     18.07202300     13.96899700
C          13.24045400     18.59783100     12.69880600
H          13.92252400     17.27428800     15.75964900
H          16.61702400     18.52267600     12.56995600
H          16.24793000     17.54766100     14.85770400
H          12.41732200     18.82033400     12.01101100
C          11.60435400     17.81502800     14.40276000
H          10.89238500     18.57258900     14.05211800
H          11.26475700     16.84001500     13.98700000
H          11.49865300     17.74136900     15.49313400
N          14.51867600     18.79508900     12.25601300
C          14.72097300     19.42589800     10.92798500
H          13.96588600     20.23235800     10.80101800
H          15.71690200     19.94039300     10.91976800
C          14.61748000     18.40871100      9.77465600
H          14.32104400     17.40215800     10.15391700
H          13.77562200     18.69498900      9.11145300
C          15.89416400     18.30117400      8.95316900
H          16.24589100     19.28849900      8.61473900
H          15.69975400     17.72410100      8.02877200
S          17.25209000     17.47369700      9.83623700
O          18.32573600     17.32792700      8.86797300
O          16.63154800     16.16321900     10.27303000
O          17.50393200     18.34606400     11.00662200
P          14.03232200     15.06493100     12.35420900
O          13.13102200     16.16052900     11.98142500
O          13.59821700     14.49708900     13.78669500
H          14.17206400     13.66458600     13.97990400
O          14.00391800     13.75804900     11.45974300
H          14.44974400     13.95464200     10.52187800
O          15.53841500     15.47480400     12.59390400
H          16.01195600     15.73948800     11.65429400
O          15.36519500     14.15163200      9.07008300
H          16.03672000     13.47491800      9.02890400
H          15.86406800     14.94936500      9.39889000
          38
 G =       -0.492799 Gcorr = 0.215713 a.u. Nimag =   0 Frame:    10 Step:    10 Geom:    10
C          15.75980600     19.85835400     12.80371200
C          16.01055800     19.53293300     14.13409700
C          15.19910300     18.61143900     14.79322000
C          14.12268800     18.03705900     14.11547000
C          13.88872600     18.40172900     12.78172700
H          15.42058000     18.31960400     15.82095000
H          16.42746100     20.52865700     12.23966300
H          16.87694300     19.96918800     14.63314400
H          13.06965600     17.93551800     12.20514700
C          13.27107800     16.99925500     14.74294800
H          13.09378800     17.16850500     15.81054800
H          12.29029400     16.88204400     14.25409900
H          13.75734500     16.00230300     14.64199100
N          14.68879700     19.30955600     12.15575400
C          14.47822600     19.62589800     10.71941700
H          13.61627900     20.32672500     10.64717700
H          15.38147400     20.16299700     10.33042700
C          14.22407800     18.38208700      9.84594900
H          13.46254200     17.71721700     10.31501200
H          13.73778800     18.71815300      8.90385600
C          15.46879800     17.57880700      9.49686600
H          16.07951700     18.09979800      8.73990300
H          15.16758900     16.61601500      9.03064700
S          16.53900400     17.21540600     10.91339700
O          17.37842800     16.08289100     10.48936200
O          15.60426000     16.87985300     12.04508700
O          17.19597000     18.51162400     11.18053700
P          13.10192900     14.66463300     11.32506500
O          12.14130600     15.76369800     11.22568600
O          12.35683300     13.27857200     11.58861100
H          13.05717000     12.58420000     11.87568500
O          13.90113300     14.50312200      9.96155700
H          14.81303900     14.02247900     10.10458900
O          14.15736900     14.70896600     12.50144000
H          14.79313700     15.57093500     12.36798700
O          16.53244600     13.50756400     10.11884400
H          16.91920000     13.36487600      9.26076200
H          16.91568900     14.37736700     10.39968400
          38
 G =       -0.493466 Gcorr = 0.205637 a.u. Nimag =   0 Frame:    11 Step:    11 Geom:    11
C          15.63902800     18.71225500     13.11265200
C          15.56486200     18.09774600     14.36298400
C          14.34227800     17.62448600     14.84462500
C          13.18641100     17.76342900     14.06182200
C          13.29309300     18.36806800     12.79255100
H          14.29160000     17.11614800     15.81101900
H          16.60635900     19.03325800     12.68263700
H          16.48361800     17.95477000     14.93896900
H          12.42453300     18.41493400     12.11458300
C          11.88297200     17.20633300     14.50638900
H          11.67297500     17.39913700     15.56532500
H          11.02845400     17.56867700     13.92032900
H          11.89104500     16.09896000     14.36974600
N          14.49892100     18.86199400     12.35194100
C          14.58547000     19.52519100     11.00867400
H          13.78048300     20.29310400     10.95137000
H          15.55285000     20.07716900     10.94468400
C          14.45425800     18.53406700      9.83840900
H          14.05049000     17.54382800     10.19779100
H          13.66124300     18.90108500      9.15362500
C          15.73960900     18.33123200      9.05551000
H          16.23888200     19.29535800      8.83837900
H          15.48829200     17.93905300      8.04557600
S          16.88026800     17.20832700      9.83725500
O          16.46905600     15.83075600      9.45424900
O          16.64699100     17.36201000     11.34981500
O          18.21083900     17.62702900      9.44089200
P          14.00987300     15.13776200     12.04473400
O          13.30255800     16.34459700     11.52265600
O          13.23081500     14.58862300     13.40564500
H          13.34347500     13.62341400     13.59748400
O          14.06885600     13.81453600     11.15807500
H          15.02930400     13.60434800     10.58204900
O          15.50802000     15.39467100     12.56005400
H          16.08673900     16.24001400     12.10215400
O          16.17703000     13.49835600      9.75952500
H          16.80365900     14.14961600     10.19490600
H          15.88481700     14.02568600      8.97094600
          38
 G =       -0.492830 Gcorr = 0.204966 a.u. Nimag =   0 Frame:    12 Step:    12 Geom:    12
C          15.79347200     18.98807300     12.92343300
C          15.80340000     18.49951700     14.23806500
C          14.64553900     17.96925100     14.79767300
C          13.45353700     17.95123900     14.04758400
C          13.45998300     18.48551400     12.75168500
H          14.66270500     17.54659900     15.80498200
H          16.71976400     19.34727500     12.42795400
H          16.74726400     18.49552400     14.78889600
H          12.55439000     18.43647900     12.11893200
C          12.20221000     17.34354600     14.57340100
H          12.39064100     16.60984900     15.36946700
H          11.50895700     18.09751500     14.96992800
H          11.66574900     16.79011500     13.77373300
N          14.61570200     19.00647400     12.21061500
C          14.62044600     19.48568500     10.78908900
H          13.90830700     20.33717400     10.70462500
H          15.63856700     19.89378700     10.53697900
C          14.23662300     18.37024600      9.80433300
H          13.48120000     17.67990600     10.27183200
H          13.68687600     18.83288300      8.95621900
C          15.38584300     17.54428000      9.24609400
H          15.75113300     17.99049600      8.29913000
H          14.97174500     16.55025200      8.93219700
S          16.75452200     17.29473200     10.34042600
O          17.43473200     16.07091600      9.85854300
O          16.20290200     17.03805500     11.74321900
O          17.48878700     18.56648000     10.39026500
P          13.65668700     15.08973200     11.60640800
O          12.75945400     16.27006400     11.59788200
O          12.90861300     13.71033900     12.11041700
H          13.48828700     13.04102700     12.55808400
O          14.31660200     14.78887300     10.16678900
H          15.24504100     14.18087700     10.13692500
O          14.91660600     15.05524100     12.62751600
H          15.67209700     15.82849400     12.48220800
O          16.65369600     13.80868800      9.94607800
H          17.13078900     14.33677900     10.64445100
H          16.88716200     14.32805700      9.13396400
          38
 G =       -0.494380 Gcorr = 0.215614 a.u. Nimag =   0 Frame:    13 Step:    13 Geom:    13
C          15.74651300     19.91011100     12.73925800
C          16.03500000     19.61492300     14.06882600
C          15.26625700     18.68032900     14.76053000
C          14.19323500     18.06360100     14.11626600
C          13.91769900     18.40151200     12.78316100
H          15.51896100     18.41251400     15.78751800
H          16.38133300     20.59014000     12.14969500
H          16.89787500     20.08546000     14.54212600
H          13.09663000     17.90634800     12.23449000
C          13.38912600     17.00684400     14.77418700
H          12.39118700     16.87249300     14.32575000
H          13.89089200     16.02076200     14.64714800
H          13.25330400     17.16756000     15.84911800
N          14.67756300     19.32000100     12.12420800
C          14.42713200     19.60445200     10.68730600
H          13.54806700     20.28451800     10.62256900
H          15.30896100     20.15427000     10.26807200
C          14.18094400     18.33955400      9.84204800
H          13.44170800     17.66954900     10.33839800
H          13.66972100     18.64858800      8.90369200
C          15.43387200     17.55376300      9.48240200
H          16.01796800     18.07062100      8.70126700
H          15.14329400     16.57591900      9.03937000
S          16.53787600     17.24101400     10.88183800
O          17.40213900     16.12482700     10.46836100
O          15.63141900     16.88826000     12.03503000
O          17.16078100     18.55798900     11.12655500
P          13.15230400     14.62032000     11.40890000
O          12.20335100     15.73317200     11.37908000
O          12.39594400     13.25664300     11.74530000
H          13.09452900     12.52845400     11.92589900
O          13.85193800     14.42351700      9.99792000
H          14.80315000     14.00189800     10.10286800
O          14.30507300     14.65129800     12.49390300
H          14.87607700     15.56145200     12.36796300
O          16.50548400     13.54217800     10.24419200
H          16.66114300     13.26975900     11.14766500
H          16.93157800     14.43541700     10.20714100
          38
 G =       -0.494950 Gcorr = 0.215256 a.u. Nimag =   0 Frame:    14 Step:    14 Geom:    14
C          15.69042800     19.05224500     12.94974400
C          15.66795700     18.51482600     14.24724700
C          14.49127000     18.01144900     14.77101000
C          13.30994200     18.07686000     14.00943800
C          13.36993500     18.59921200     12.72194800
H          14.47260300     17.54245400     15.75645300
H          16.62099400     19.46818900     12.51367600
H          16.60653500     18.45464000     14.80135200
H          12.48891300     18.60516200     12.06715100
C          12.03048200     17.55039300     14.54597800
H          11.24060300     17.48103200     13.78006600
H          12.15405400     16.51037200     14.90727200
H          11.64732900     18.15192200     15.37978000
N          14.54868200     19.07997900     12.21302400
C          14.58564400     19.52449100     10.79813800
H          13.82465000     20.32440100     10.66249000
H          15.57824300     19.99451700     10.57177000
C          14.31129700     18.35432600      9.83328600
H          13.64317700     17.60462100     10.31935600
H          13.70915600     18.73858200      8.98231100
C          15.53851300     17.64457000      9.27642100
H          15.93620900     18.18830300      8.40029500
H          15.23223500     16.64503000      8.89925200
S          16.92754200     17.39808900     10.41549000