 Entering Gaussian System, Link 0=g16
 Initial command:
 /data0/home/software/g16/l1.exe "/data0/home/software/g16/scratch/Gau-3830785.inp" -scrdir="/data0/home/software/g16/scratch/"
 Default is to use a total of  22 processors:
                               22 via shared-memory
                                1 via Linda
 Entering Link 1 = /data0/home/software/g16/l1.exe PID=   3830786.
  
 Copyright (c) 1988,1990,1992,1993,1995,1998,2003,2009,2016,
            Gaussian, Inc.  All Rights Reserved.
  
 This is part of the Gaussian(R) 16 program.  It is based on
 the Gaussian(R) 09 system (copyright 2009, Gaussian, Inc.),
 the Gaussian(R) 03 system (copyright 2003, Gaussian, Inc.),
 the Gaussian(R) 98 system (copyright 1998, Gaussian, Inc.),
 the Gaussian(R) 94 system (copyright 1995, Gaussian, Inc.),
 the Gaussian 92(TM) system (copyright 1992, Gaussian, Inc.),
 the Gaussian 90(TM) system (copyright 1990, Gaussian, Inc.),
 the Gaussian 88(TM) system (copyright 1988, Gaussian, Inc.),
 the Gaussian 86(TM) system (copyright 1986, Carnegie Mellon
 University), and the Gaussian 82(TM) system (copyright 1983,
 Carnegie Mellon University). Gaussian is a federally registered
 trademark of Gaussian, Inc.
  
 This software contains proprietary and confidential information,
 including trade secrets, belonging to Gaussian, Inc.
  
 This software is provided under written license and may be
 used, copied, transmitted, or stored only in accord with that
 written license.
  
 The following legend is applicable only to US Government
 contracts under FAR:
  
                    RESTRICTED RIGHTS LEGEND
  
 Use, reproduction and disclosure by the US Government is
 subject to restrictions as set forth in subparagraphs (a)
 and (c) of the Commercial Computer Software - Restricted
 Rights clause in FAR 52.227-19.
  
 Gaussian, Inc.
 340 Quinnipiac St., Bldg. 40, Wallingford CT 06492
  
  
 ---------------------------------------------------------------
 Warning -- This program may not be used in any manner that
 competes with the business of Gaussian, Inc. or will provide
 assistance to any competitor of Gaussian, Inc.  The licensee
 of this program is prohibited from giving any competitor of
 Gaussian, Inc. access to this program.  By using this program,
 the user acknowledges that Gaussian, Inc. is engaged in the
 business of creating and licensing software in the field of
 computational chemistry and represents and warrants to the
 licensee that it is not a competitor of Gaussian, Inc. and that
 it will not use this program in any manner prohibited above.
 ---------------------------------------------------------------
  

 Cite this work as:
 Gaussian 16, Revision A.03,
 M. J. Frisch, G. W. Trucks, H. B. Schlegel, G. E. Scuseria, 
 M. A. Robb, J. R. Cheeseman, G. Scalmani, V. Barone, 
 G. A. Petersson, H. Nakatsuji, X. Li, M. Caricato, A. V. Marenich, 
 J. Bloino, B. G. Janesko, R. Gomperts, B. Mennucci, H. P. Hratchian, 
 J. V. Ortiz, A. F. Izmaylov, J. L. Sonnenberg, D. Williams-Young, 
 F. Ding, F. Lipparini, F. Egidi, J. Goings, B. Peng, A. Petrone, 
 T. Henderson, D. Ranasinghe, V. G. Zakrzewski, J. Gao, N. Rega, 
 G. Zheng, W. Liang, M. Hada, M. Ehara, K. Toyota, R. Fukuda, 
 J. Hasegawa, M. Ishida, T. Nakajima, Y. Honda, O. Kitao, H. Nakai, 
 T. Vreven, K. Throssell, J. A. Montgomery, Jr., J. E. Peralta, 
 F. Ogliaro, M. J. Bearpark, J. J. Heyd, E. N. Brothers, K. N. Kudin, 
 V. N. Staroverov, T. A. Keith, R. Kobayashi, J. Normand, 
 K. Raghavachari, A. P. Rendell, J. C. Burant, S. S. Iyengar, 
 J. Tomasi, M. Cossi, J. M. Millam, M. Klene, C. Adamo, R. Cammi, 
 J. W. Ochterski, R. L. Martin, K. Morokuma, O. Farkas, 
 J. B. Foresman, and D. J. Fox, Gaussian, Inc., Wallingford CT, 2016.
 
 ******************************************
 Gaussian 16:  ES64L-G16RevA.03 25-Dec-2016
                17-Dec-2022 
 ******************************************
 %nproc=24
 Will use up to   24 processors via shared memory.
 %mem=100GB
 ---------------------------------------------------
 #p M062X/6-311+G(2d,p) nosymm em=GD3 counterpoise=3
 ---------------------------------------------------
 1/38=1,62=3,172=1/1;
 2/12=2,15=1,17=6,18=5,40=1/2;
 1/38=1,53=2,62=3,63=1/22;
 3/5=4,6=6,7=112,11=2,25=1,30=1,74=-55,124=31/1,2,3;
 4//1;
 5/5=2,38=5/2;
 6/7=2,8=2,9=2,10=2,28=1/1;
 1/53=2,62=3,63=1/22;
 3/5=7,6=11,7=112,11=2,25=1,30=1,74=-55,82=7,124=31/1,2,3;
 4//1;
 5/5=2,38=5/2;
 6/7=2,8=2,9=2,10=2,28=1/1;
 1/53=2,62=3,63=1/22(-4);
 99/5=1,9=1/99;
 Leave Link    1 at Sat Dec 17 23:53:13 2022, MaxMem= 13421772800 cpu:               0.7 elap:               0.0
 (Enter /data0/home/software/g16/l101.exe)
 -------------------
 Title Card Required
 -------------------
 Symbolic Z-matrix:
 Charge =  0 Multiplicity = 1 in supermolecule
 Charge =  0 Multiplicity = 1 in fragment      1.
 Charge =  0 Multiplicity = 1 in fragment      2.
 Charge =  0 Multiplicity = 1 in fragment      3.
 O                     11.80004   11.64312   8.70156    
 H                     11.77757   11.74232   9.65857    
 H                     11.05076   12.16127   8.37783    
 O                     9.37141   12.77951   7.69817    
 H                     9.41235   12.89963   6.74985    
 H                     9.05899   11.85917   7.81793    
 O                     8.03245   14.18575   9.75806    
 H                     8.53969   13.7788   9.03609    
 H                     7.47397   14.83997   9.34887    
 
 ITRead=  0  0  0  0  0  0  0  0  0
 MicOpt= -1 -1 -1 -1 -1 -1 -1 -1 -1
 NAtoms=      9 NQM=        9 NQMF=       0 NMMI=      0 NMMIF=      0
                NMic=       0 NMicF=      0.
                    Isotopes and Nuclear Properties:
 (Nuclear quadrupole moments (NQMom) in fm**2, nuclear magnetic moments (NMagM)
  in nuclear magnetons)

  Atom         1           2           3           4           5           6           7           8           9
 IAtWgt=          16           1           1          16           1           1          16           1           1
 AtmWgt=  15.9949146   1.0078250   1.0078250  15.9949146   1.0078250   1.0078250  15.9949146   1.0078250   1.0078250
 NucSpn=           0           1           1           0           1           1           0           1           1
 AtZEff=  -0.0000000  -0.0000000  -0.0000000  -0.0000000  -0.0000000  -0.0000000  -0.0000000  -0.0000000  -0.0000000
 NQMom=    0.0000000   0.0000000   0.0000000   0.0000000   0.0000000   0.0000000   0.0000000   0.0000000   0.0000000
 NMagM=    0.0000000   2.7928460   2.7928460   0.0000000   2.7928460   2.7928460   0.0000000   2.7928460   2.7928460
 AtZNuc=   8.0000000   1.0000000   1.0000000   8.0000000   1.0000000   1.0000000   8.0000000   1.0000000   1.0000000
 Leave Link  101 at Sat Dec 17 23:53:13 2022, MaxMem= 13421772800 cpu:               1.9 elap:               0.1
 (Enter /data0/home/software/g16/l202.exe)
                          Input orientation:                          
 ---------------------------------------------------------------------
 Center     Atomic      Atomic             Coordinates (Angstroms)
 Number     Number       Type             X           Y           Z
 ---------------------------------------------------------------------
      1          8           0       11.800036   11.643124    8.701560
      2          1           0       11.777571   11.742316    9.658569
      3          1           0       11.050758   12.161268    8.377826
      4          8           0        9.371413   12.779511    7.698174
      5          1           0        9.412348   12.899635    6.749854
      6          1           0        9.058995   11.859174    7.817931
      7          8           0        8.032453   14.185749    9.758060
      8          1           0        8.539685   13.778797    9.036095
      9          1           0        7.473968   14.839972    9.348873
 ---------------------------------------------------------------------
                    Distance matrix (angstroms):
                    1          2          3          4          5
     1  O    0.000000
     2  H    0.962398   0.000000
     3  H    0.966796   1.531039   0.000000
     4  O    2.862930   3.272387   1.914249   0.000000
     5  H    3.330020   3.923556   2.424843   0.956774   0.000000
     6  H    2.888041   3.285157   2.090900   0.979269   1.532386
     7  O    4.666456   4.472826   3.887639   2.830804   3.550705
     8  H    3.911892   3.875388   3.058628   1.865577   2.600262
     9  H    5.417907   5.311533   4.572944   3.251247   3.778508
                    6          7          8          9
     6  H    0.000000
     7  O    3.198568   0.000000
     8  H    2.332072   0.971662   0.000000
     9  H    3.706919   0.952548   1.536123   0.000000
 Symmetry turned off by external request.
 Stoichiometry    H6O3
 Framework group  C1[X(H6O3)]
 Deg. of freedom    21
 Full point group                 C1      NOp   1
 Rotational constants (GHZ):          13.7255727           2.6080701           2.2151002
 Leave Link  202 at Sat Dec 17 23:53:13 2022, MaxMem= 13421772800 cpu:               0.1 elap:               0.0
 (Enter /data0/home/software/g16/l122.exe)
 Counterpoise: doing full-system calculation.
 Leave Link  122 at Sat Dec 17 23:53:13 2022, MaxMem= 13421772800 cpu:               0.0 elap:               0.0
 (Enter /data0/home/software/g16/l301.exe)
 Standard basis: 6-311+G(2d,p) (5D, 7F)
 Ernie: Thresh=  0.10000D-02 Tol=  0.10000D-05 Strict=F.
   117 basis functions,   174 primitive gaussians,   123 cartesian basis functions
    15 alpha electrons       15 beta electrons
       nuclear repulsion energy        76.6469358428 Hartrees.
 IExCor= 4336 DFT=T Ex+Corr=M062X ExCW=0 ScaHFX=  0.540000
 ScaDFX=  1.000000  1.000000  1.000000  1.000000 ScalE2=  1.000000  1.000000
 IRadAn=      5 IRanWt=     -1 IRanGd=            0 ICorTp=0 IEmpDi=131
 NAtoms=    9 NActive=    9 NUniq=    9 SFac= 1.00D+00 NAtFMM=   60 NAOKFM=F Big=F
 Integral buffers will be    131072 words long.
 Raffenetti 2 integral format.
 Two-electron integral symmetry is turned off.
 R6Disp:  Grimme-D3 Dispersion energy=       -0.0001354582 Hartrees.
 Nuclear repulsion after empirical dispersion term =       76.6468003847 Hartrees.
 Leave Link  301 at Sat Dec 17 23:53:13 2022, MaxMem= 13421772800 cpu:               1.1 elap:               0.1
 (Enter /data0/home/software/g16/l302.exe)
 NPDir=0 NMtPBC=     1 NCelOv=     1 NCel=       1 NClECP=     1 NCelD=      1
         NCelK=      1 NCelE2=     1 NClLst=     1 CellRange=     0.0.
 One-electron integrals computed using PRISM.
 NBasis=   117 RedAO= T EigKep=  8.77D-04  NBF=   117
 NBsUse=   117 1.00D-06 EigRej= -1.00D+00 NBFU=   117
 Precomputing XC quadrature grid using
 IXCGrd= 4 IRadAn=           5 IRanWt=          -1 IRanGd=           0 AccXCQ= 0.00D+00.
 Generated NRdTot=       0 NPtTot=           0 NUsed=           0 NTot=          32
 NSgBfM=   123   123   123   123   123 MxSgAt=     9 MxSgA2=     9.
 Leave Link  302 at Sat Dec 17 23:53:13 2022, MaxMem= 13421772800 cpu:               2.7 elap:               0.1
 (Enter /data0/home/software/g16/l303.exe)
 DipDrv:  MaxL=1.
 Leave Link  303 at Sat Dec 17 23:53:13 2022, MaxMem= 13421772800 cpu:               0.5 elap:               0.0
 (Enter /data0/home/software/g16/l401.exe)
 ExpMin= 8.45D-02 ExpMax= 8.59D+03 ExpMxC= 1.30D+03 IAcc=3 IRadAn=         5 AccDes= 0.00D+00
 Harris functional with IExCor= 1009 and IRadAn=       5 diagonalized for initial guess.
 HarFok:  IExCor= 1009 AccDes= 0.00D+00 IRadAn=         5 IDoV= 1 UseB2=F ITyADJ=14
 ICtDFT=  3500011 ScaDFX=  1.000000  1.000000  1.000000  1.000000
 FoFCou: FMM=F IPFlag=           0 FMFlag=      100000 FMFlg1=           0
         NFxFlg=           0 DoJE=T BraDBF=F KetDBF=T FulRan=T
         wScrn=  0.000000 ICntrl=       500 IOpCl=  0 I1Cent=   200000004 NGrid=           0
         NMat0=    1 NMatS0=      1 NMatT0=    0 NMatD0=    1 NMtDS0=    0 NMtDT0=    0
 Symmetry not used in FoFCou.
 Harris En= -229.254518026005    
 JPrj=0 DoOrth=F DoCkMO=F.
 Leave Link  401 at Sat Dec 17 23:53:13 2022, MaxMem= 13421772800 cpu:               4.7 elap:               0.2
 (Enter /data0/home/software/g16/l502.exe)
 Keep R1 ints in memory in canonical form, NReq=46556122.
 FoFCou: FMM=F IPFlag=           0 FMFlag=           0 FMFlg1=           0
         NFxFlg=           0 DoJE=F BraDBF=F KetDBF=F FulRan=T
         wScrn=  0.000000 ICntrl=       600 IOpCl=  0 I1Cent=           0 NGrid=           0
         NMat0=    1 NMatS0=   6903 NMatT0=    0 NMatD0=    1 NMtDS0=    0 NMtDT0=    0
 Symmetry not used in FoFCou.
 Two-electron integral symmetry not used.
 Closed shell SCF:
 Using DIIS extrapolation, IDIIS=  1040.
 NGot= 13421772800 LenX= 13397909404 LenY= 13397893834
 Requested convergence on RMS density matrix=1.00D-08 within 128 cycles.
 Requested convergence on MAX density matrix=1.00D-06.
 Requested convergence on             energy=1.00D-06.
 No special actions if energy rises.
 Integral accuracy reduced to 1.0D-05 until final iterations.

 Cycle   1  Pass 0  IDiag  1:
 E= -229.072646119502    
 DIIS: error= 5.82D-02 at cycle   1 NSaved=   1.
 NSaved= 1 IEnMin= 1 EnMin= -229.072646119502     IErMin= 1 ErrMin= 5.82D-02
 ErrMax= 5.82D-02  0.00D+00 EMaxC= 1.00D-01 BMatC= 3.41D-01 BMatP= 3.41D-01
 IDIUse=3 WtCom= 4.18D-01 WtEn= 5.82D-01
 Coeff-Com:  0.100D+01
 Coeff-En:   0.100D+01
 Coeff:      0.100D+01
 Gap=     0.273 Goal=   None    Shift=    0.000
 GapD=    0.273 DampG=1.000 DampE=0.500 DampFc=0.5000 IDamp=-1.
 Damping current iteration by 5.00D-01
 RMSDP=5.19D-03 MaxDP=1.06D-01              OVMax= 1.80D-01

 Cycle   2  Pass 0  IDiag  1:
 E= -229.162713745351     Delta-E=       -0.090067625849 Rises=F Damp=T
 DIIS: error= 1.03D-02 at cycle   2 NSaved=   2.
 NSaved= 2 IEnMin= 2 EnMin= -229.162713745351     IErMin= 2 ErrMin= 1.03D-02
 ErrMax= 1.03D-02  0.00D+00 EMaxC= 1.00D-01 BMatC= 1.28D-02 BMatP= 3.41D-01
 IDIUse=3 WtCom= 8.97D-01 WtEn= 1.03D-01
 Coeff-Com:  0.601D-01 0.940D+00
 Coeff-En:   0.154D+00 0.846D+00
 Coeff:      0.699D-01 0.930D+00
 Gap=     0.396 Goal=   None    Shift=    0.000
 RMSDP=6.75D-04 MaxDP=1.39D-02 DE=-9.01D-02 OVMax= 1.06D-01

 Cycle   3  Pass 0  IDiag  1:
 E= -229.280125260540     Delta-E=       -0.117411515190 Rises=F Damp=F
 DIIS: error= 2.55D-03 at cycle   3 NSaved=   3.
 NSaved= 3 IEnMin= 3 EnMin= -229.280125260540     IErMin= 3 ErrMin= 2.55D-03
 ErrMax= 2.55D-03  0.00D+00 EMaxC= 1.00D-01 BMatC= 5.34D-04 BMatP= 1.28D-02
 IDIUse=3 WtCom= 9.74D-01 WtEn= 2.55D-02
 Coeff-Com: -0.240D-01 0.701D-01 0.954D+00
 Coeff-En:   0.000D+00 0.000D+00 0.100D+01
 Coeff:     -0.234D-01 0.683D-01 0.955D+00
 Gap=     0.396 Goal=   None    Shift=    0.000
 RMSDP=1.44D-04 MaxDP=3.44D-03 DE=-1.17D-01 OVMax= 6.41D-03

 Cycle   4  Pass 0  IDiag  1:
 E= -229.280379329337     Delta-E=       -0.000254068797 Rises=F Damp=F
 DIIS: error= 1.53D-03 at cycle   4 NSaved=   4.
 NSaved= 4 IEnMin= 4 EnMin= -229.280379329337     IErMin= 4 ErrMin= 1.53D-03
 ErrMax= 1.53D-03  0.00D+00 EMaxC= 1.00D-01 BMatC= 2.42D-04 BMatP= 5.34D-04
 IDIUse=3 WtCom= 9.85D-01 WtEn= 1.53D-02
 Coeff-Com: -0.130D-01 0.179D-01 0.501D+00 0.494D+00
 Coeff-En:   0.000D+00 0.000D+00 0.207D+00 0.793D+00
 Coeff:     -0.128D-01 0.176D-01 0.497D+00 0.498D+00
 Gap=     0.399 Goal=   None    Shift=    0.000
 RMSDP=6.11D-05 MaxDP=2.12D-03 DE=-2.54D-04 OVMax= 2.97D-03

 Cycle   5  Pass 0  IDiag  1:
 E= -229.280533437418     Delta-E=       -0.000154108081 Rises=F Damp=F
 DIIS: error= 1.60D-04 at cycle   5 NSaved=   5.
 NSaved= 5 IEnMin= 5 EnMin= -229.280533437418     IErMin= 5 ErrMin= 1.60D-04
 ErrMax= 1.60D-04  0.00D+00 EMaxC= 1.00D-01 BMatC= 2.56D-06 BMatP= 2.42D-04
 IDIUse=3 WtCom= 9.98D-01 WtEn= 1.60D-03
 Coeff-Com:  0.549D-03-0.303D-02 0.822D-02 0.701D-01 0.924D+00
 Coeff-En:   0.000D+00 0.000D+00 0.000D+00 0.000D+00 0.100D+01
 Coeff:      0.549D-03-0.302D-02 0.821D-02 0.700D-01 0.924D+00
 Gap=     0.399 Goal=   None    Shift=    0.000
 RMSDP=1.04D-05 MaxDP=3.15D-04 DE=-1.54D-04 OVMax= 5.21D-04

 Cycle   6  Pass 0  IDiag  1:
 E= -229.280535573158     Delta-E=       -0.000002135740 Rises=F Damp=F
 DIIS: error= 2.91D-05 at cycle   6 NSaved=   6.
 NSaved= 6 IEnMin= 6 EnMin= -229.280535573158     IErMin= 6 ErrMin= 2.91D-05
 ErrMax= 2.91D-05  0.00D+00 EMaxC= 1.00D-01 BMatC= 5.97D-08 BMatP= 2.56D-06
 IDIUse=1 WtCom= 1.00D+00 WtEn= 0.00D+00
 Coeff-Com:  0.698D-03-0.105D-02-0.220D-01-0.208D-01 0.601D-01 0.983D+00
 Coeff:      0.698D-03-0.105D-02-0.220D-01-0.208D-01 0.601D-01 0.983D+00
 Gap=     0.399 Goal=   None    Shift=    0.000
 RMSDP=3.60D-06 MaxDP=4.51D-05 DE=-2.14D-06 OVMax= 1.11D-04

 Initial convergence to 1.0D-05 achieved.  Increase integral accuracy.
 Cycle   7  Pass 1  IDiag  1:
 E= -229.280548896492     Delta-E=       -0.000013323334 Rises=F Damp=F
 DIIS: error= 2.86D-05 at cycle   1 NSaved=   1.
 NSaved= 1 IEnMin= 1 EnMin= -229.280548896492     IErMin= 1 ErrMin= 2.86D-05
 ErrMax= 2.86D-05  0.00D+00 EMaxC= 1.00D-01 BMatC= 5.73D-08 BMatP= 5.73D-08
 IDIUse=1 WtCom= 1.00D+00 WtEn= 0.00D+00
 Coeff-Com:  0.100D+01
 Coeff:      0.100D+01
 Gap=     0.399 Goal=   None    Shift=    0.000
 RMSDP=3.60D-06 MaxDP=4.51D-05 DE=-1.33D-05 OVMax= 4.18D-05

 Cycle   8  Pass 1  IDiag  1:
 E= -229.280548940457     Delta-E=       -0.000000043965 Rises=F Damp=F
 DIIS: error= 5.09D-06 at cycle   2 NSaved=   2.
 NSaved= 2 IEnMin= 2 EnMin= -229.280548940457     IErMin= 2 ErrMin= 5.09D-06
 ErrMax= 5.09D-06  0.00D+00 EMaxC= 1.00D-01 BMatC= 1.92D-09 BMatP= 5.73D-08
 IDIUse=1 WtCom= 1.00D+00 WtEn= 0.00D+00
 Coeff-Com: -0.180D-01 0.102D+01
 Coeff:     -0.180D-01 0.102D+01
 Gap=     0.399 Goal=   None    Shift=    0.000
 RMSDP=4.62D-07 MaxDP=9.88D-06 DE=-4.40D-08 OVMax= 1.75D-05

 Cycle   9  Pass 1  IDiag  1:
 E= -229.280548940797     Delta-E=       -0.000000000340 Rises=F Damp=F
 DIIS: error= 6.30D-06 at cycle   3 NSaved=   3.
 NSaved= 3 IEnMin= 3 EnMin= -229.280548940797     IErMin= 2 ErrMin= 5.09D-06
 ErrMax= 6.30D-06  0.00D+00 EMaxC= 1.00D-01 BMatC= 2.03D-09 BMatP= 1.92D-09
 IDIUse=1 WtCom= 1.00D+00 WtEn= 0.00D+00
 Coeff-Com: -0.436D-01 0.535D+00 0.509D+00
 Coeff:     -0.436D-01 0.535D+00 0.509D+00
 Gap=     0.399 Goal=   None    Shift=    0.000
 RMSDP=1.86D-07 MaxDP=6.23D-06 DE=-3.40D-10 OVMax= 8.37D-06

 Cycle  10  Pass 1  IDiag  1:
 E= -229.280548942111     Delta-E=       -0.000000001315 Rises=F Damp=F
 DIIS: error= 4.57D-07 at cycle   4 NSaved=   4.
 NSaved= 4 IEnMin= 4 EnMin= -229.280548942111     IErMin= 4 ErrMin= 4.57D-07
 ErrMax= 4.57D-07  0.00D+00 EMaxC= 1.00D-01 BMatC= 1.38D-11 BMatP= 1.92D-09
 IDIUse=1 WtCom= 1.00D+00 WtEn= 0.00D+00
 Coeff-Com: -0.371D-02 0.131D-01 0.632D-01 0.927D+00
 Coeff:     -0.371D-02 0.131D-01 0.632D-01 0.927D+00
 Gap=     0.399 Goal=   None    Shift=    0.000
 RMSDP=3.74D-08 MaxDP=5.75D-07 DE=-1.31D-09 OVMax= 1.47D-06

 Cycle  11  Pass 1  IDiag  1:
 E= -229.280548942127     Delta-E=       -0.000000000015 Rises=F Damp=F
 DIIS: error= 8.29D-08 at cycle   5 NSaved=   5.
 NSaved= 5 IEnMin= 5 EnMin= -229.280548942127     IErMin= 5 ErrMin= 8.29D-08
 ErrMax= 8.29D-08  0.00D+00 EMaxC= 1.00D-01 BMatC= 1.01D-12 BMatP= 1.38D-11
 IDIUse=1 WtCom= 1.00D+00 WtEn= 0.00D+00
 Coeff-Com:  0.281D-02-0.402D-01-0.322D-01 0.107D+00 0.963D+00
 Coeff:      0.281D-02-0.402D-01-0.322D-01 0.107D+00 0.963D+00
 Gap=     0.399 Goal=   None    Shift=    0.000
 RMSDP=1.58D-08 MaxDP=2.77D-07 DE=-1.51D-11 OVMax= 5.37D-07

 Cycle  12  Pass 1  IDiag  1:
 E= -229.280548942130     Delta-E=       -0.000000000004 Rises=F Damp=F
 DIIS: error= 4.75D-08 at cycle   6 NSaved=   6.
 NSaved= 6 IEnMin= 6 EnMin= -229.280548942130     IErMin= 6 ErrMin= 4.75D-08
 ErrMax= 4.75D-08  0.00D+00 EMaxC= 1.00D-01 BMatC= 1.81D-13 BMatP= 1.01D-12
 IDIUse=1 WtCom= 1.00D+00 WtEn= 0.00D+00
 Coeff-Com:  0.120D-02-0.154D-01-0.152D-01-0.252D-02 0.350D+00 0.682D+00
 Coeff:      0.120D-02-0.154D-01-0.152D-01-0.252D-02 0.350D+00 0.682D+00
 Gap=     0.399 Goal=   None    Shift=    0.000
 RMSDP=3.43D-09 MaxDP=7.96D-08 DE=-3.87D-12 OVMax= 1.47D-07

 SCF Done:  E(RM062X) =  -229.280548942     A.U. after   12 cycles
            NFock= 12  Conv=0.34D-08     -V/T= 2.0028
 KE= 2.286473575049D+02 PE=-6.956783138076D+02 EE= 1.611036069759D+02
 Leave Link  502 at Sat Dec 17 23:53:16 2022, MaxMem= 13421772800 cpu:              43.6 elap:               2.2
 (Enter /data0/home/software/g16/l601.exe)
 Copying SCF densities to generalized density rwf, IOpCl= 0 IROHF=0.

 **********************************************************************

            Population analysis using the SCF density.

 **********************************************************************

 Alpha  occ. eigenvalues --  -19.68216 -19.60646 -19.60165  -1.19227  -1.11713
 Alpha  occ. eigenvalues --   -1.11384  -0.66472  -0.60225  -0.59873  -0.53377
 Alpha  occ. eigenvalues --   -0.47739  -0.45227  -0.43811  -0.38490  -0.38077
 Alpha virt. eigenvalues --    0.01859   0.08398   0.08907   0.10229   0.13724
 Alpha virt. eigenvalues --    0.14312   0.15062   0.18399   0.19379   0.19927
 Alpha virt. eigenvalues --    0.21470   0.21601   0.24570   0.25774   0.26741
 Alpha virt. eigenvalues --    0.27619   0.31092   0.43166   0.47518   0.51498
 Alpha virt. eigenvalues --    0.54829   0.56297   0.62051   0.64278   0.92545
 Alpha virt. eigenvalues --    0.96917   0.99896   1.01841   1.05944   1.06433
 Alpha virt. eigenvalues --    1.08260   1.08399   1.10422   1.13245   1.14902
 Alpha virt. eigenvalues --    1.21849   1.22997   1.25350   1.25772   1.30242
 Alpha virt. eigenvalues --    1.33725   1.34747   1.36583   1.45290   1.46355
 Alpha virt. eigenvalues --    1.63571   1.67835   1.71206   1.73821   1.75168
 Alpha virt. eigenvalues --    1.77059   1.81525   1.96908   1.98185   2.01866
 Alpha virt. eigenvalues --    2.10051   2.10738   2.11398   2.19054   2.25082
 Alpha virt. eigenvalues --    2.35606   2.40667   2.41011   2.43526   2.51604
 Alpha virt. eigenvalues --    2.53653   2.56915   2.60250   2.60945   2.87506
 Alpha virt. eigenvalues --    2.90530   2.93860   3.02921   3.09722   3.13316
 Alpha virt. eigenvalues --    5.07647   5.08155   5.13878   5.48418   5.50011
 Alpha virt. eigenvalues --    5.51519   5.87224   5.97115   5.99496   6.75252
 Alpha virt. eigenvalues --    6.79170   6.79981   6.80509   6.82164   6.83203
 Alpha virt. eigenvalues --    6.84231   6.87176   6.92491   6.93670   6.94805
 Alpha virt. eigenvalues --    6.96937   7.06256   7.15522   7.17267  49.95163
 Alpha virt. eigenvalues --   50.00505  50.01982
          Condensed to atoms (all electrons):
               1          2          3          4          5          6
     1  O    8.058463   0.301403   0.280127   0.004480  -0.000031  -0.001855
     2  H    0.301403   0.437428  -0.019417   0.002183   0.000655  -0.000251
     3  H    0.280127  -0.019417   0.379027  -0.000212   0.002481  -0.004524
     4  O    0.004480   0.002183  -0.000212   7.993727   0.326800   0.338632
     5  H   -0.000031   0.000655   0.002481   0.326800   0.381882  -0.023073
     6  H   -0.001855  -0.000251  -0.004524   0.338632  -0.023073   0.378337
     7  O    0.000810   0.000117  -0.000954   0.022712  -0.000993  -0.005555
     8  H   -0.002083  -0.000405   0.000304  -0.048953  -0.001586   0.005705
     9  H   -0.000044   0.000000   0.000237  -0.001108  -0.000662   0.000758
               7          8          9
     1  O    0.000810  -0.002083  -0.000044
     2  H    0.000117  -0.000405   0.000000
     3  H   -0.000954   0.000304   0.000237
     4  O    0.022712  -0.048953  -0.001108
     5  H   -0.000993  -0.001586  -0.000662
     6  H   -0.005555   0.005705   0.000758
     7  O    8.087876   0.259952   0.287467
     8  H    0.259952   0.401406  -0.008352
     9  H    0.287467  -0.008352   0.452321
 Mulliken charges:
               1
     1  O   -0.641271
     2  H    0.278286
     3  H    0.362931
     4  O   -0.638263
     5  H    0.314527
     6  H    0.311826
     7  O   -0.651432
     8  H    0.394012
     9  H    0.269383
 Sum of Mulliken charges =  -0.00000
 Mulliken charges with hydrogens summed into heavy atoms:
               1
     1  O   -0.000054
     4  O   -0.011909
     7  O    0.011964
         Mulliken charges condensed to fragments:
      1     -0.000054
      2     -0.011909
      3      0.011964
 Electronic spatial extent (au):  <R**2>=          36457.5356
 Charge=             -0.0000 electrons
 Dipole moment (field-independent basis, Debye):
    X=             -2.0446    Y=              0.0565    Z=             -2.8990  Tot=              3.5479
 Quadrupole moment (field-independent basis, Debye-Ang):
   XX=            -65.6247   YY=            -18.7243   ZZ=            -67.3899
   XY=            -23.0758   XZ=            -38.7376   YZ=            -39.8625
 Traceless Quadrupole moment (field-independent basis, Debye-Ang):
   XX=            -15.0450   YY=             31.8553   ZZ=            -16.8103
   XY=            -23.0758   XZ=            -38.7376   YZ=            -39.8625
 Octapole moment (field-independent basis, Debye-Ang**2):
  XXX=          -1352.9136  YYY=           -741.4025  ZZZ=          -1116.4311  XYY=           -466.8248
  XXY=           -772.1445  XXZ=           -701.6399  XZZ=           -676.0603  YZZ=           -922.8356
  YYZ=           -723.1337  XYZ=           -502.7261
 Hexadecapole moment (field-independent basis, Debye-Ang**3):
 XXXX=         -23258.5838 YYYY=         -19227.5190 ZZZZ=         -15969.4975 XXXY=         -16071.1608
 XXXZ=         -12258.2115 YYYX=         -10732.0631 YYYZ=         -14239.1702 ZZZX=         -10308.6189
 ZZZY=         -15238.8461 XXYY=         -11279.1363 XXZZ=          -8759.7726 YYZZ=         -14193.9369
 XXYZ=          -8759.7830 YYXZ=          -8366.0863 ZZXY=          -9050.8656
 N-N= 7.664680038466D+01 E-N=-6.956783151894D+02  KE= 2.286473575049D+02
 No NMR shielding tensors so no spin-rotation constants.
 Leave Link  601 at Sat Dec 17 23:53:16 2022, MaxMem= 13421772800 cpu:               1.8 elap:               0.1
 (Enter /data0/home/software/g16/l122.exe)
 CPIOFr:  IOpCl= 0 IRwI=-1 IRwCP=  731 ICalc= -1 LCPTot=       22668 Len1MO=       57607 IndFrg=       22668
 CPIOFr:  IOpCl= 0 IRwI=-1 IRwCP=  731 ICalc=  0 LCPTot=       22668 Len1MO=       57607 IndFrg=       80275
 Counterpoise: doing calculation for fragment   1 using the basis set of the full-system, NewBq=T
 Leave Link  122 at Sat Dec 17 23:53:16 2022, MaxMem= 13421772800 cpu:               0.1 elap:               0.0
 (Enter /data0/home/software/g16/l301.exe)
 Basis read from rwf:  (5D, 7F)
 No pseudopotential information found on rwf file.
   117 basis functions,   174 primitive gaussians,   123 cartesian basis functions
     5 alpha electrons        5 beta electrons
       nuclear repulsion energy         9.1232667609 Hartrees.
 IExCor= 4336 DFT=T Ex+Corr=M062X ExCW=0 ScaHFX=  0.540000
 ScaDFX=  1.000000  1.000000  1.000000  1.000000 ScalE2=  1.000000  1.000000
 IRadAn=      5 IRanWt=     -1 IRanGd=            0 ICorTp=0 IEmpDi=131
 NAtoms=    9 NActive=    9 NUniq=    9 SFac= 1.00D+00 NAtFMM=   60 NAOKFM=F Big=F
 Integral buffers will be    131072 words long.
 Raffenetti 2 integral format.
 Two-electron integral symmetry is turned off.
 R6Disp:  Grimme-D3 Dispersion energy=       -0.0000000079 Hartrees.
 Nuclear repulsion after empirical dispersion term =        9.1232667530 Hartrees.
 No density basis found on file   718.
 Leave Link  301 at Sat Dec 17 23:53:16 2022, MaxMem= 13421772800 cpu:               1.2 elap:               0.1
 (Enter /data0/home/software/g16/l302.exe)
 NPDir=0 NMtPBC=     1 NCelOv=     1 NCel=       1 NClECP=     1 NCelD=      1
         NCelK=      1 NCelE2=     1 NClLst=     1 CellRange=     0.0.
 One-electron integrals computed using PRISM.
 NBasis=   117 RedAO= T EigKep=  8.77D-04  NBF=   117
 NBsUse=   117 1.00D-06 EigRej= -1.00D+00 NBFU=   117
 Precomputing XC quadrature grid using
 IXCGrd= 4 IRadAn=           5 IRanWt=          -1 IRanGd=           0 AccXCQ= 0.00D+00.
 Generated NRdTot=       0 NPtTot=           0 NUsed=           0 NTot=          32
 NSgBfM=   123   123   123   123   123 MxSgAt=     9 MxSgA2=     9.
 Leave Link  302 at Sat Dec 17 23:53:16 2022, MaxMem= 13421772800 cpu:               2.6 elap:               0.1
 (Enter /data0/home/software/g16/l303.exe)
 DipDrv:  MaxL=1.
 Leave Link  303 at Sat Dec 17 23:53:16 2022, MaxMem= 13421772800 cpu:               0.5 elap:               0.0
 (Enter /data0/home/software/g16/l401.exe)
 ExpMin= 8.45D-02 ExpMax= 8.59D+03 ExpMxC= 1.30D+03 IAcc=3 IRadAn=         5 AccDes= 0.00D+00
 Harris functional with IExCor= 1009 and IRadAn=       5 diagonalized for initial guess.
 HarFok:  IExCor= 1009 AccDes= 0.00D+00 IRadAn=         5 IDoV= 1 UseB2=F ITyADJ=14
 ICtDFT=  3500011 ScaDFX=  1.000000  1.000000  1.000000  1.000000
 FoFCou: FMM=F IPFlag=           0 FMFlag=      100000 FMFlg1=           0
         NFxFlg=           0 DoJE=T BraDBF=F KetDBF=T FulRan=T
         wScrn=  0.000000 ICntrl=       500 IOpCl=  0 I1Cent=   200000004 NGrid=           0
         NMat0=    1 NMatS0=      1 NMatT0=    0 NMatD0=    1 NMtDS0=    0 NMtDT0=    0
 Symmetry not used in FoFCou.
 Harris En= -76.4172233246437    
 JPrj=0 DoOrth=F DoCkMO=F.
 Leave Link  401 at Sat Dec 17 23:53:16 2022, MaxMem= 13421772800 cpu:               4.6 elap:               0.2
 (Enter /data0/home/software/g16/l502.exe)
 Keep R1 ints in memory in canonical form, NReq=46556122.
 FoFCou: FMM=F IPFlag=           0 FMFlag=           0 FMFlg1=           0
         NFxFlg=           0 DoJE=F BraDBF=F KetDBF=F FulRan=T
         wScrn=  0.000000 ICntrl=       600 IOpCl=  0 I1Cent=           0 NGrid=           0
         NMat0=    1 NMatS0=   6903 NMatT0=    0 NMatD0=    1 NMtDS0=    0 NMtDT0=    0
 Symmetry not used in FoFCou.
 Two-electron integral symmetry not used.
 Closed shell SCF:
 Using DIIS extrapolation, IDIIS=  1040.
 NGot= 13421772800 LenX= 13397909404 LenY= 13397893834
 Requested convergence on RMS density matrix=1.00D-08 within 128 cycles.
 Requested convergence on MAX density matrix=1.00D-06.
 Requested convergence on             energy=1.00D-06.
 No special actions if energy rises.
 Integral accuracy reduced to 1.0D-05 until final iterations.

 Cycle   1  Pass 0  IDiag  1:
 E= -76.3465858385725    
 DIIS: error= 5.47D-02 at cycle   1 NSaved=   1.
 NSaved= 1 IEnMin= 1 EnMin= -76.3465858385725     IErMin= 1 ErrMin= 5.47D-02
 ErrMax= 5.47D-02  0.00D+00 EMaxC= 1.00D-01 BMatC= 1.21D-01 BMatP= 1.21D-01
 IDIUse=3 WtCom= 4.53D-01 WtEn= 5.47D-01
 Coeff-Com:  0.100D+01
 Coeff-En:   0.100D+01
 Coeff:      0.100D+01
 Gap=     0.292 Goal=   None    Shift=    0.000
 GapD=    0.292 DampG=1.000 DampE=0.500 DampFc=0.5000 IDamp=-1.
 Damping current iteration by 5.00D-01
 RMSDP=2.94D-03 MaxDP=1.01D-01              OVMax= 1.70D-01

 Cycle   2  Pass 0  IDiag  1:
 E= -76.3780652068406     Delta-E=       -0.031479368268 Rises=F Damp=T
 DIIS: error= 7.85D-03 at cycle   2 NSaved=   2.
 NSaved= 2 IEnMin= 2 EnMin= -76.3780652068406     IErMin= 2 ErrMin= 7.85D-03
 ErrMax= 7.85D-03  0.00D+00 EMaxC= 1.00D-01 BMatC= 4.86D-03 BMatP= 1.21D-01
 IDIUse=3 WtCom= 9.21D-01 WtEn= 7.85D-02
 Coeff-Com:  0.825D-01 0.918D+00
 Coeff-En:   0.188D+00 0.812D+00
 Coeff:      0.908D-01 0.909D+00
 Gap=     0.416 Goal=   None    Shift=    0.000
 RMSDP=3.81D-04 MaxDP=1.41D-02 DE=-3.15D-02 OVMax= 1.02D-01

 Cycle   3  Pass 0  IDiag  1:
 E= -76.4222048271455     Delta-E=       -0.044139620305 Rises=F Damp=F
 DIIS: error= 1.68D-03 at cycle   3 NSaved=   3.
 NSaved= 3 IEnMin= 3 EnMin= -76.4222048271455     IErMin= 3 ErrMin= 1.68D-03
 ErrMax= 1.68D-03  0.00D+00 EMaxC= 1.00D-01 BMatC= 1.25D-04 BMatP= 4.86D-03
 IDIUse=3 WtCom= 9.83D-01 WtEn= 1.68D-02
 Coeff-Com: -0.245D-01 0.470D-01 0.978D+00
 Coeff-En:   0.000D+00 0.000D+00 0.100D+01
 Coeff:     -0.241D-01 0.462D-01 0.978D+00
 Gap=     0.418 Goal=   None    Shift=    0.000
 RMSDP=5.35D-05 MaxDP=1.15D-03 DE=-4.41D-02 OVMax= 3.65D-03

 Cycle   4  Pass 0  IDiag  1:
 E= -76.4223066359626     Delta-E=       -0.000101808817 Rises=F Damp=F
 DIIS: error= 3.04D-04 at cycle   4 NSaved=   4.
 NSaved= 4 IEnMin= 4 EnMin= -76.4223066359626     IErMin= 4 ErrMin= 3.04D-04
 ErrMax= 3.04D-04  0.00D+00 EMaxC= 1.00D-01 BMatC= 3.05D-06 BMatP= 1.25D-04
 IDIUse=3 WtCom= 9.97D-01 WtEn= 3.04D-03
 Coeff-Com: -0.259D-02-0.645D-03 0.156D+00 0.847D+00
 Coeff-En:   0.000D+00 0.000D+00 0.000D+00 0.100D+01
 Coeff:     -0.258D-02-0.643D-03 0.156D+00 0.847D+00
 Gap=     0.419 Goal=   None    Shift=    0.000
 RMSDP=7.83D-06 MaxDP=3.39D-04 DE=-1.02D-04 OVMax= 5.21D-04

 Initial convergence to 1.0D-05 achieved.  Increase integral accuracy.
 Cycle   5  Pass 1  IDiag  1:
 E= -76.4223200684189     Delta-E=       -0.000013432456 Rises=F Damp=F
 DIIS: error= 6.49D-05 at cycle   1 NSaved=   1.
 NSaved= 1 IEnMin= 1 EnMin= -76.4223200684189     IErMin= 1 ErrMin= 6.49D-05
 ErrMax= 6.49D-05  0.00D+00 EMaxC= 1.00D-01 BMatC= 9.50D-08 BMatP= 9.50D-08
 IDIUse=1 WtCom= 1.00D+00 WtEn= 0.00D+00
 Coeff-Com:  0.100D+01
 Coeff:      0.100D+01
 Gap=     0.419 Goal=   None    Shift=    0.000
 RMSDP=7.83D-06 MaxDP=3.39D-04 DE=-1.34D-05 OVMax= 2.23D-04

 Cycle   6  Pass 1  IDiag  1:
 E= -76.4223201593772     Delta-E=       -0.000000090958 Rises=F Damp=F
 DIIS: error= 3.13D-05 at cycle   2 NSaved=   2.
 NSaved= 2 IEnMin= 2 EnMin= -76.4223201593772     IErMin= 2 ErrMin= 3.13D-05
 ErrMax= 3.13D-05  0.00D+00 EMaxC= 1.00D-01 BMatC= 6.42D-08 BMatP= 9.50D-08
 IDIUse=1 WtCom= 1.00D+00 WtEn= 0.00D+00
 Coeff-Com:  0.435D+00 0.565D+00
 Coeff:      0.435D+00 0.565D+00
 Gap=     0.419 Goal=   None    Shift=    0.000
 RMSDP=1.15D-06 MaxDP=4.37D-05 DE=-9.10D-08 OVMax= 7.93D-05

 Cycle   7  Pass 1  IDiag  1:
 E= -76.4223202015344     Delta-E=       -0.000000042157 Rises=F Damp=F
 DIIS: error= 1.65D-05 at cycle   3 NSaved=   3.
 NSaved= 3 IEnMin= 3 EnMin= -76.4223202015344     IErMin= 3 ErrMin= 1.65D-05
 ErrMax= 1.65D-05  0.00D+00 EMaxC= 1.00D-01 BMatC= 4.54D-09 BMatP= 6.42D-08
 IDIUse=1 WtCom= 1.00D+00 WtEn= 0.00D+00
 Coeff-Com: -0.106D+00 0.141D+00 0.965D+00
 Coeff:     -0.106D+00 0.141D+00 0.965D+00
 Gap=     0.419 Goal=   None    Shift=    0.000
 RMSDP=5.76D-07 MaxDP=1.77D-05 DE=-4.22D-08 OVMax= 3.81D-05

 Cycle   8  Pass 1  IDiag  1:
 E= -76.4223202061698     Delta-E=       -0.000000004635 Rises=F Damp=F
 DIIS: error= 1.39D-06 at cycle   4 NSaved=   4.
 NSaved= 4 IEnMin= 4 EnMin= -76.4223202061698     IErMin= 4 ErrMin= 1.39D-06
 ErrMax= 1.39D-06  0.00D+00 EMaxC= 1.00D-01 BMatC= 5.88D-11 BMatP= 4.54D-09
 IDIUse=1 WtCom= 1.00D+00 WtEn= 0.00D+00
 Coeff-Com: -0.273D-01 0.862D-02 0.125D+00 0.894D+00
 Coeff:     -0.273D-01 0.862D-02 0.125D+00 0.894D+00
 Gap=     0.419 Goal=   None    Shift=    0.000
 RMSDP=8.13D-08 MaxDP=2.12D-06 DE=-4.64D-09 OVMax= 5.19D-06

 Cycle   9  Pass 1  IDiag  1:
 E= -76.4223202062575     Delta-E=       -0.000000000088 Rises=F Damp=F
 DIIS: error= 3.54D-07 at cycle   5 NSaved=   5.
 NSaved= 5 IEnMin= 5 EnMin= -76.4223202062575     IErMin= 5 ErrMin= 3.54D-07
 ErrMax= 3.54D-07  0.00D+00 EMaxC= 1.00D-01 BMatC= 2.01D-12 BMatP= 5.88D-11
 IDIUse=1 WtCom= 1.00D+00 WtEn= 0.00D+00
 Coeff-Com:  0.439D-02-0.567D-02-0.466D-01-0.572D-01 0.111D+01
 Coeff:      0.439D-02-0.567D-02-0.466D-01-0.572D-01 0.111D+01
 Gap=     0.419 Goal=   None    Shift=    0.000
 RMSDP=2.27D-08 MaxDP=6.31D-07 DE=-8.77D-11 OVMax= 1.50D-06

 Cycle  10  Pass 1  IDiag  1:
 E= -76.4223202062629     Delta-E=       -0.000000000005 Rises=F Damp=F
 DIIS: error= 1.78D-08 at cycle   6 NSaved=   6.
 NSaved= 6 IEnMin= 6 EnMin= -76.4223202062629     IErMin= 6 ErrMin= 1.78D-08
 ErrMax= 1.78D-08  0.00D+00 EMaxC= 1.00D-01 BMatC= 3.23D-14 BMatP= 2.01D-12
 IDIUse=1 WtCom= 1.00D+00 WtEn= 0.00D+00
 Coeff-Com:  0.314D-04 0.222D-03 0.280D-02-0.121D-01-0.672D-01 0.108D+01
 Coeff:      0.314D-04 0.222D-03 0.280D-02-0.121D-01-0.672D-01 0.108D+01
 Gap=     0.419 Goal=   None    Shift=    0.000
 RMSDP=2.63D-09 MaxDP=5.02D-08 DE=-5.34D-12 OVMax= 1.63D-07

 SCF Done:  E(RM062X) =  -76.4223202063     A.U. after   10 cycles
            NFock= 10  Conv=0.26D-08     -V/T= 2.0029
 KE= 7.619895157734D+01 PE=-1.990981902595D+02 EE= 3.735365172292D+01
 Leave Link  502 at Sat Dec 17 23:53:18 2022, MaxMem= 13421772800 cpu:              37.2 elap:               1.9
 (Enter /data0/home/software/g16/l601.exe)
 Copying SCF densities to generalized density rwf, IOpCl= 0 IROHF=0.

 **********************************************************************

            Population analysis using the SCF density.

 **********************************************************************

 Alpha  occ. eigenvalues --  -19.62562  -1.13391  -0.61013  -0.47398  -0.39996
 Alpha virt. eigenvalues --    0.01917   0.08493   0.09177   0.12026   0.14386
 Alpha virt. eigenvalues --    0.15602   0.17827   0.18564   0.19549   0.21394
 Alpha virt. eigenvalues --    0.21685   0.23755   0.27392   0.29524   0.30911
 Alpha virt. eigenvalues --    0.31774   0.33505   0.41626   0.52333   0.57097
 Alpha virt. eigenvalues --    0.61806   0.67190   0.71418   0.76173   0.78004
 Alpha virt. eigenvalues --    0.79019   0.82296   0.88780   0.95505   0.99034
 Alpha virt. eigenvalues --    1.03829   1.05563   1.07311   1.07899   1.16438
 Alpha virt. eigenvalues --    1.21404   1.22477   1.33321   1.40921   1.68055
 Alpha virt. eigenvalues --    1.72160   1.74507   1.77909   1.80545   1.86780
 Alpha virt. eigenvalues --    1.87800   1.95960   2.04973   2.08148   2.08881
 Alpha virt. eigenvalues --    2.19609   2.21992   2.28811   2.30869   2.37207
 Alpha virt. eigenvalues --    2.41989   2.46737   2.49008   2.50385   2.56055
 Alpha virt. eigenvalues --    2.59900   2.62227   2.63879   2.65343   2.68414
 Alpha virt. eigenvalues --    2.71178   2.74204   2.76639   2.85629   2.94237
 Alpha virt. eigenvalues --    2.97015   2.99525   3.07023   3.11219   3.19717
 Alpha virt. eigenvalues --    3.47668   3.53147   3.59367   3.72725   4.47256
 Alpha virt. eigenvalues --    4.70911   5.04556   5.08960   5.31095   5.49052
 Alpha virt. eigenvalues --    5.96847   6.78413   6.80680   6.89299   6.92336
 Alpha virt. eigenvalues --    7.12270   9.81946   9.86370   9.93285   9.96785
 Alpha virt. eigenvalues --   10.11038  10.19574  10.23267  10.30497  10.38592
 Alpha virt. eigenvalues --   10.57537  12.96417  13.27963  13.34455  13.69631
 Alpha virt. eigenvalues --   13.74671  14.31734  17.69165  18.40467  49.98756
 Alpha virt. eigenvalues --  135.97698 139.60241
          Condensed to atoms (all electrons):
               1          2          3          4          5          6
     1  O    8.004337   0.298998   0.285958   0.023950  -0.000754  -0.004393
     2  H    0.298998   0.441920  -0.018862  -0.000290   0.000609   0.000033
     3  H    0.285958  -0.018862   0.373923   0.005218   0.001988  -0.001968
     4  O    0.023950  -0.000290   0.005218   0.011673  -0.004904  -0.002014
     5  H   -0.000754   0.000609   0.001988  -0.004904   0.005958  -0.000390
     6  H   -0.004393   0.000033  -0.001968  -0.002014  -0.000390   0.001121
     7  O    0.000364   0.000079   0.000130   0.000703   0.000212  -0.000170
     8  H   -0.001397  -0.000278  -0.000632  -0.001748  -0.000947   0.000514
     9  H    0.000008   0.000003   0.000016  -0.000001   0.000008   0.000006
               7          8          9
     1  O    0.000364  -0.001397   0.000008
     2  H    0.000079  -0.000278   0.000003
     3  H    0.000130  -0.000632   0.000016
     4  O    0.000703  -0.001748  -0.000001
     5  H    0.000212  -0.000947   0.000008
     6  H   -0.000170   0.000514   0.000006
     7  O    0.000941  -0.001330  -0.000171
     8  H   -0.001330   0.002837   0.000035
     9  H   -0.000171   0.000035   0.000120
 Mulliken charges:
               1
     1  O   -0.607070
     2  H    0.277789
     3  H    0.354229
     4  O   -0.032586
     5  H   -0.001781
     6  H    0.007261
     7  O   -0.000759
     8  H    0.002945
     9  H   -0.000027
 Sum of Mulliken charges =  -0.00000
 Mulliken charges with hydrogens summed into heavy atoms:
               1
     1  O    0.024947
     4  O   -0.027106
     7  O    0.002159
         Mulliken charges condensed to fragments:
      1      0.024947
      2     -0.027106
      3      0.002159
 Electronic spatial extent (au):  <R**2>=          12553.1354
 Charge=             -0.0000 electrons
 Dipole moment (field-independent basis, Debye):
    X=             -1.3437    Y=              1.0894    Z=              1.1274  Tot=              2.0648
 Quadrupole moment (field-independent basis, Debye-Ang):
   XX=            -37.9347   YY=             18.3909   ZZ=             14.7959
   XY=             -3.8428   XZ=              2.2992   YZ=             22.3555
 Traceless Quadrupole moment (field-independent basis, Debye-Ang):
   XX=            -36.3520   YY=             19.9735   ZZ=             16.3785
   XY=             -3.8428   XZ=              2.2992   YZ=             22.3555
 Octapole moment (field-independent basis, Debye-Ang**2):
  XXX=           -781.2775  YYY=            198.7539  ZZZ=            131.0589  XYY=             10.2945
  XXY=           -314.5360  XXZ=           -157.5307  XZZ=             85.0095  YZZ=            250.4096
  YYZ=            306.5901  XYZ=            126.7780
 Hexadecapole moment (field-independent basis, Debye-Ang**3):
 XXXX=         -14022.6244 YYYY=           1168.5756 ZZZZ=            805.0541 XXXY=          -7735.9986
 XXXZ=          -4681.6609 YYYX=           -205.1448 YYYZ=           3391.7159 ZZZX=            822.2294
 ZZZY=           2187.2454 XXYY=          -3156.5883 XXZZ=           -539.2381 YYZZ=           3286.9180
 XXYZ=           -756.6405 YYXZ=           1918.7102 ZZXY=           1836.7136
 N-N= 9.123266753003D+00 E-N=-1.990981896386D+02  KE= 7.619895157734D+01
 No NMR shielding tensors so no spin-rotation constants.
 Leave Link  601 at Sat Dec 17 23:53:18 2022, MaxMem= 13421772800 cpu:               1.8 elap:               0.1
 (Enter /data0/home/software/g16/l122.exe)
 CPIOFr:  IOpCl= 0 IRwI=-1 IRwCP=  731 ICalc=  1 LCPTot=       22668 Len1MO=       57607 IndFrg=      137882
 Counterpoise: doing calculation for fragment   2 using the basis set of the full-system, NewBq=T
 Leave Link  122 at Sat Dec 17 23:53:18 2022, MaxMem= 13421772800 cpu:               0.1 elap:               0.0
 (Enter /data0/home/software/g16/l301.exe)
 Basis read from rwf:  (5D, 7F)
 No pseudopotential information found on rwf file.
   117 basis functions,   174 primitive gaussians,   123 cartesian basis functions
     5 alpha electrons        5 beta electrons
       nuclear repulsion energy         9.0930488528 Hartrees.
 IExCor= 4336 DFT=T Ex+Corr=M062X ExCW=0 ScaHFX=  0.540000
 ScaDFX=  1.000000  1.000000  1.000000  1.000000 ScalE2=  1.000000  1.000000
 IRadAn=      5 IRanWt=     -1 IRanGd=            0 ICorTp=0 IEmpDi=131
 NAtoms=    9 NActive=    9 NUniq=    9 SFac= 1.00D+00 NAtFMM=   60 NAOKFM=F Big=F
 Integral buffers will be    131072 words long.
 Raffenetti 2 integral format.
 Two-electron integral symmetry is turned off.
 R6Disp:  Grimme-D3 Dispersion energy=       -0.0000000080 Hartrees.
 Nuclear repulsion after empirical dispersion term =        9.0930488448 Hartrees.
 No density basis found on file   718.
 Leave Link  301 at Sat Dec 17 23:53:18 2022, MaxMem= 13421772800 cpu:               1.2 elap:               0.1
 (Enter /data0/home/software/g16/l302.exe)
 NPDir=0 NMtPBC=     1 NCelOv=     1 NCel=       1 NClECP=     1 NCelD=      1
         NCelK=      1 NCelE2=     1 NClLst=     1 CellRange=     0.0.
 One-electron integrals computed using PRISM.
 NBasis=   117 RedAO= T EigKep=  8.77D-04  NBF=   117
 NBsUse=   117 1.00D-06 EigRej= -1.00D+00 NBFU=   117
 Precomputing XC quadrature grid using
 IXCGrd= 4 IRadAn=           5 IRanWt=          -1 IRanGd=           0 AccXCQ= 0.00D+00.
 Generated NRdTot=       0 NPtTot=           0 NUsed=           0 NTot=          32
 NSgBfM=   123   123   123   123   123 MxSgAt=     9 MxSgA2=     9.
 Leave Link  302 at Sat Dec 17 23:53:18 2022, MaxMem= 13421772800 cpu:               2.7 elap:               0.1
 (Enter /data0/home/software/g16/l303.exe)
 DipDrv:  MaxL=1.
 Leave Link  303 at Sat Dec 17 23:53:18 2022, MaxMem= 13421772800 cpu:               0.5 elap:               0.0
 (Enter /data0/home/software/g16/l401.exe)
 ExpMin= 8.45D-02 ExpMax= 8.59D+03 ExpMxC= 1.30D+03 IAcc=3 IRadAn=         5 AccDes= 0.00D+00
 Harris functional with IExCor= 1009 and IRadAn=       5 diagonalized for initial guess.
 HarFok:  IExCor= 1009 AccDes= 0.00D+00 IRadAn=         5 IDoV= 1 UseB2=F ITyADJ=14
 ICtDFT=  3500011 ScaDFX=  1.000000  1.000000  1.000000  1.000000
 FoFCou: FMM=F IPFlag=           0 FMFlag=      100000 FMFlg1=           0
         NFxFlg=           0 DoJE=T BraDBF=F KetDBF=T FulRan=T
         wScrn=  0.000000 ICntrl=       500 IOpCl=  0 I1Cent=   200000004 NGrid=           0
         NMat0=    1 NMatS0=      1 NMatT0=    0 NMatD0=    1 NMtDS0=    0 NMtDT0=    0
 Symmetry not used in FoFCou.
 Harris En= -76.4172599665743    
 JPrj=0 DoOrth=F DoCkMO=F.
 Leave Link  401 at Sat Dec 17 23:53:19 2022, MaxMem= 13421772800 cpu:               4.7 elap:               0.2
 (Enter /data0/home/software/g16/l502.exe)
 Keep R1 ints in memory in canonical form, NReq=46556122.
 FoFCou: FMM=F IPFlag=           0 FMFlag=           0 FMFlg1=           0
         NFxFlg=           0 DoJE=F BraDBF=F KetDBF=F FulRan=T
         wScrn=  0.000000 ICntrl=       600 IOpCl=  0 I1Cent=           0 NGrid=           0
         NMat0=    1 NMatS0=   6903 NMatT0=    0 NMatD0=    1 NMtDS0=    0 NMtDT0=    0
 Symmetry not used in FoFCou.
 Two-electron integral symmetry not used.
 Closed shell SCF:
 Using DIIS extrapolation, IDIIS=  1040.
 NGot= 13421772800 LenX= 13397909404 LenY= 13397893834
 Requested convergence on RMS density matrix=1.00D-08 within 128 cycles.
 Requested convergence on MAX density matrix=1.00D-06.
 Requested convergence on             energy=1.00D-06.
 No special actions if energy rises.
 Integral accuracy reduced to 1.0D-05 until final iterations.

 Cycle   1  Pass 0  IDiag  1:
 E= -76.3474817825461    
 DIIS: error= 3.29D-02 at cycle   1 NSaved=   1.
 NSaved= 1 IEnMin= 1 EnMin= -76.3474817825461     IErMin= 1 ErrMin= 3.29D-02
 ErrMax= 3.29D-02  0.00D+00 EMaxC= 1.00D-01 BMatC= 1.20D-01 BMatP= 1.20D-01
 IDIUse=3 WtCom= 6.71D-01 WtEn= 3.29D-01
 Coeff-Com:  0.100D+01
 Coeff-En:   0.100D+01
 Coeff:      0.100D+01
 Gap=     0.306 Goal=   None    Shift=    0.000
 GapD=    0.306 DampG=1.000 DampE=0.500 DampFc=0.5000 IDamp=-1.
 Damping current iteration by 5.00D-01
 RMSDP=3.28D-03 MaxDP=9.94D-02              OVMax= 1.72D-01

 Cycle   2  Pass 0  IDiag  1:
 E= -76.3785184052373     Delta-E=       -0.031036622691 Rises=F Damp=T
 DIIS: error= 8.01D-03 at cycle   2 NSaved=   2.
 NSaved= 2 IEnMin= 2 EnMin= -76.3785184052373     IErMin= 2 ErrMin= 8.01D-03
 ErrMax= 8.01D-03  0.00D+00 EMaxC= 1.00D-01 BMatC= 4.98D-03 BMatP= 1.20D-01
 IDIUse=3 WtCom= 9.20D-01 WtEn= 8.01D-02
 Coeff-Com:  0.864D-01 0.914D+00
 Coeff-En:   0.195D+00 0.805D+00
 Coeff:      0.951D-01 0.905D+00
 Gap=     0.437 Goal=   None    Shift=    0.000
 RMSDP=4.75D-04 MaxDP=1.43D-02 DE=-3.10D-02 OVMax= 1.03D-01

 Cycle   3  Pass 0  IDiag  1:
 E= -76.4227411053260     Delta-E=       -0.044222700089 Rises=F Damp=F
 DIIS: error= 1.17D-03 at cycle   3 NSaved=   3.
 NSaved= 3 IEnMin= 3 EnMin= -76.4227411053260     IErMin= 3 ErrMin= 1.17D-03
 ErrMax= 1.17D-03  0.00D+00 EMaxC= 1.00D-01 BMatC= 1.23D-04 BMatP= 4.98D-03
 IDIUse=3 WtCom= 9.88D-01 WtEn= 1.17D-02
 Coeff-Com: -0.245D-01 0.453D-01 0.979D+00
 Coeff-En:   0.000D+00 0.000D+00 0.100D+01
 Coeff:     -0.242D-01 0.448D-01 0.979D+00
 Gap=     0.439 Goal=   None    Shift=    0.000
 RMSDP=5.30D-05 MaxDP=1.15D-03 DE=-4.42D-02 OVMax= 3.64D-03

 Cycle   4  Pass 0  IDiag  1:
 E= -76.4228415847699     Delta-E=       -0.000100479444 Rises=F Damp=F
 DIIS: error= 1.36D-04 at cycle   4 NSaved=   4.
 NSaved= 4 IEnMin= 4 EnMin= -76.4228415847699     IErMin= 4 ErrMin= 1.36D-04
 ErrMax= 1.36D-04  0.00D+00 EMaxC= 1.00D-01 BMatC= 2.79D-06 BMatP= 1.23D-04
 IDIUse=3 WtCom= 9.99D-01 WtEn= 1.36D-03
 Coeff-Com: -0.249D-02-0.613D-03 0.148D+00 0.855D+00
 Coeff-En:   0.000D+00 0.000D+00 0.000D+00 0.100D+01
 Coeff:     -0.248D-02-0.612D-03 0.148D+00 0.855D+00
 Gap=     0.439 Goal=   None    Shift=    0.000
 RMSDP=1.07D-05 MaxDP=3.23D-04 DE=-1.00D-04 OVMax= 5.26D-04

 Cycle   5  Pass 0  IDiag  1:
 E= -76.4228433810879     Delta-E=       -0.000001796318 Rises=F Damp=F
 DIIS: error= 3.31D-05 at cycle   5 NSaved=   5.
 NSaved= 5 IEnMin= 5 EnMin= -76.4228433810879     IErMin= 5 ErrMin= 3.31D-05
 ErrMax= 3.31D-05  0.00D+00 EMaxC= 1.00D-01 BMatC= 7.52D-08 BMatP= 2.79D-06
 IDIUse=1 WtCom= 1.00D+00 WtEn= 0.00D+00
 Coeff-Com:  0.132D-02-0.203D-02-0.364D-01-0.501D-01 0.109D+01
 Coeff:      0.132D-02-0.203D-02-0.364D-01-0.501D-01 0.109D+01
 Gap=     0.439 Goal=   None    Shift=    0.000
 RMSDP=5.90D-06 MaxDP=9.88D-05 DE=-1.80D-06 OVMax= 2.12D-04

 Initial convergence to 1.0D-05 achieved.  Increase integral accuracy.
 Cycle   6  Pass 1  IDiag  1:
 E= -76.4228458260637     Delta-E=       -0.000002444976 Rises=F Damp=F
 DIIS: error= 2.04D-05 at cycle   1 NSaved=   1.
 NSaved= 1 IEnMin= 1 EnMin= -76.4228458260637     IErMin= 1 ErrMin= 2.04D-05
 ErrMax= 2.04D-05  0.00D+00 EMaxC= 1.00D-01 BMatC= 2.40D-08 BMatP= 2.40D-08
 IDIUse=1 WtCom= 1.00D+00 WtEn= 0.00D+00
 Coeff-Com:  0.100D+01
 Coeff:      0.100D+01
 Gap=     0.439 Goal=   None    Shift=    0.000
 RMSDP=5.90D-06 MaxDP=9.88D-05 DE=-2.44D-06 OVMax= 4.92D-05

 Cycle   7  Pass 1  IDiag  1:
 E= -76.4228458452851     Delta-E=       -0.000000019221 Rises=F Damp=F
 DIIS: error= 1.85D-06 at cycle   2 NSaved=   2.
 NSaved= 2 IEnMin= 2 EnMin= -76.4228458452851     IErMin= 2 ErrMin= 1.85D-06
 ErrMax= 1.85D-06  0.00D+00 EMaxC= 1.00D-01 BMatC= 6.14D-10 BMatP= 2.40D-08
 IDIUse=1 WtCom= 1.00D+00 WtEn= 0.00D+00
 Coeff-Com: -0.391D-01 0.104D+01
 Coeff:     -0.391D-01 0.104D+01
 Gap=     0.439 Goal=   None    Shift=    0.000
 RMSDP=2.72D-07 MaxDP=8.58D-06 DE=-1.92D-08 OVMax= 1.43D-05

 Cycle   8  Pass 1  IDiag  1:
 E= -76.4228458454984     Delta-E=       -0.000000000213 Rises=F Damp=F
 DIIS: error= 2.06D-06 at cycle   3 NSaved=   3.
 NSaved= 3 IEnMin= 3 EnMin= -76.4228458454984     IErMin= 2 ErrMin= 1.85D-06
 ErrMax= 2.06D-06  0.00D+00 EMaxC= 1.00D-01 BMatC= 5.67D-10 BMatP= 6.14D-10
 IDIUse=1 WtCom= 1.00D+00 WtEn= 0.00D+00
 Coeff-Com: -0.436D-01 0.528D+00 0.515D+00
 Coeff:     -0.436D-01 0.528D+00 0.515D+00
 Gap=     0.439 Goal=   None    Shift=    0.000
 RMSDP=9.52D-08 MaxDP=3.85D-06 DE=-2.13D-10 OVMax= 6.18D-06

 Cycle   9  Pass 1  IDiag  1:
 E= -76.4228458458657     Delta-E=       -0.000000000367 Rises=F Damp=F
 DIIS: error= 2.73D-07 at cycle   4 NSaved=   4.
 NSaved= 4 IEnMin= 4 EnMin= -76.4228458458657     IErMin= 4 ErrMin= 2.73D-07
 ErrMax= 2.73D-07  0.00D+00 EMaxC= 1.00D-01 BMatC= 6.81D-12 BMatP= 5.67D-10
 IDIUse=1 WtCom= 1.00D+00 WtEn= 0.00D+00
 Coeff-Com: -0.119D-02-0.164D-01 0.709D-01 0.947D+00
 Coeff:     -0.119D-02-0.164D-01 0.709D-01 0.947D+00
 Gap=     0.439 Goal=   None    Shift=    0.000
 RMSDP=3.26D-08 MaxDP=5.66D-07 DE=-3.67D-10 OVMax= 1.43D-06

 Cycle  10  Pass 1  IDiag  1:
 E= -76.4228458458732     Delta-E=       -0.000000000008 Rises=F Damp=F
 DIIS: error= 6.33D-08 at cycle   5 NSaved=   5.
 NSaved= 5 IEnMin= 5 EnMin= -76.4228458458732     IErMin= 5 ErrMin= 6.33D-08
 ErrMax= 6.33D-08  0.00D+00 EMaxC= 1.00D-01 BMatC= 3.07D-13 BMatP= 6.81D-12
 IDIUse=1 WtCom= 1.00D+00 WtEn= 0.00D+00
 Coeff-Com:  0.258D-02-0.382D-01-0.267D-01 0.112D+00 0.951D+00
 Coeff:      0.258D-02-0.382D-01-0.267D-01 0.112D+00 0.951D+00
 Gap=     0.439 Goal=   None    Shift=    0.000
 RMSDP=9.28D-09 MaxDP=1.94D-07 DE=-7.52D-12 OVMax= 4.03D-07

 SCF Done:  E(RM062X) =  -76.4228458459     A.U. after   10 cycles
            NFock= 10  Conv=0.93D-08     -V/T= 2.0031
 KE= 7.618308390810D+01 PE=-1.990278842433D+02 EE= 3.732890564453D+01
 Leave Link  502 at Sat Dec 17 23:53:20 2022, MaxMem= 13421772800 cpu:              34.8 elap:               1.7
 (Enter /data0/home/software/g16/l601.exe)
 Copying SCF densities to generalized density rwf, IOpCl= 0 IROHF=0.

 **********************************************************************

            Population analysis using the SCF density.

 **********************************************************************

 Alpha  occ. eigenvalues --  -19.62670  -1.13259  -0.60776  -0.47470  -0.39999
 Alpha virt. eigenvalues --    0.03939   0.08952   0.09762   0.12227   0.14280
 Alpha virt. eigenvalues --    0.15778   0.16356   0.17184   0.19861   0.21417
 Alpha virt. eigenvalues --    0.21826   0.26179   0.27277   0.29622   0.31138
 Alpha virt. eigenvalues --    0.34420   0.39253   0.41224   0.51882   0.54758
 Alpha virt. eigenvalues --    0.58909   0.65749   0.74061   0.75304   0.76244
 Alpha virt. eigenvalues --    0.76855   0.86049   0.89174   0.95522   0.97129
 Alpha virt. eigenvalues --    1.00443   1.02923   1.04641   1.08621   1.17728
 Alpha virt. eigenvalues --    1.22653   1.24102   1.55455   1.58610   1.68296
 Alpha virt. eigenvalues --    1.75657   1.75959   1.79229   1.81960   1.82726
 Alpha virt. eigenvalues --    1.84280   1.89705   1.92522   2.05641   2.08760
 Alpha virt. eigenvalues --    2.14446   2.15737   2.25668   2.25911   2.37868
 Alpha virt. eigenvalues --    2.42398   2.47028   2.48065   2.51743   2.53166
 Alpha virt. eigenvalues --    2.56357   2.57212   2.59501   2.62642   2.65537
 Alpha virt. eigenvalues --    2.66051   2.67028   2.78151   2.79700   2.84243
 Alpha virt. eigenvalues --    2.87963   2.90804   3.01401   3.04824   3.11568
 Alpha virt. eigenvalues --    3.46820   3.48240   3.60167   3.63230   4.53340
 Alpha virt. eigenvalues --    4.54470   5.08784   5.10581   5.20987   5.55910
 Alpha virt. eigenvalues --    5.93095   6.81820   6.87678   6.94111   6.97773
 Alpha virt. eigenvalues --    7.12714   9.70692   9.74806   9.75193   9.83212
 Alpha virt. eigenvalues --    9.83533   9.85097   9.87332   9.88644  10.02998
 Alpha virt. eigenvalues --   10.03736  12.77528  12.87945  13.15132  13.24922
 Alpha virt. eigenvalues --   13.66275  13.78580  17.62419  17.78240  50.00799
 Alpha virt. eigenvalues --  136.43479 136.94294
          Condensed to atoms (all electrons):
               1          2          3          4          5          6
     1  O    0.009736  -0.001925  -0.010233   0.016392  -0.000887   0.002167
     2  H   -0.001925   0.000788   0.001474   0.000651  -0.000017  -0.000377
     3  H   -0.010233   0.001474   0.013123  -0.020375   0.001455  -0.003657
     4  O    0.016392   0.000651  -0.020375   7.930031   0.337423   0.348470
     5  H   -0.000887  -0.000017   0.001455   0.337423   0.410955  -0.029053
     6  H    0.002167  -0.000377  -0.003657   0.348470  -0.029053   0.414785
     7  O   -0.000782   0.000107   0.001223   0.036113  -0.000736  -0.001328
     8  H    0.001746  -0.000206  -0.002820  -0.073679   0.002126   0.004034
     9  H   -0.000003  -0.000001   0.000007  -0.000201   0.000071   0.000076
               7          8          9
     1  O   -0.000782   0.001746  -0.000003
     2  H    0.000107  -0.000206  -0.000001
     3  H    0.001223  -0.002820   0.000007
     4  O    0.036113  -0.073679  -0.000201
     5  H   -0.000736   0.002126   0.000071
     6  H   -0.001328   0.004034   0.000076
     7  O    0.015089  -0.020903  -0.000516
     8  H   -0.020903   0.033122   0.000215
     9  H   -0.000516   0.000215   0.000272
 Mulliken charges:
               1
     1  O   -0.016212
     2  H   -0.000493
     3  H    0.019801
     4  O   -0.574824
     5  H    0.278664
     6  H    0.264883
     7  O   -0.028266
     8  H    0.056366
     9  H    0.000081
 Sum of Mulliken charges =   0.00000
 Mulliken charges with hydrogens summed into heavy atoms:
               1
     1  O    0.003096
     4  O   -0.031276
     7  O    0.028180
         Mulliken charges condensed to fragments:
      1      0.003096
      2     -0.031276
      3      0.028180
 Electronic spatial extent (au):  <R**2>=          11016.5899
 Charge=              0.0000 electrons
 Dipole moment (field-independent basis, Debye):
    X=             -0.4729    Y=             -1.3653    Z=             -1.4054  Tot=              2.0157
 Quadrupole moment (field-independent basis, Debye-Ang):
   XX=            -16.3524   YY=            -40.2772   ZZ=            -26.8077
   XY=            -18.0204   XZ=            -17.0510   YZ=            -29.1885
 Traceless Quadrupole moment (field-independent basis, Debye-Ang):
   XX=             11.4600   YY=            -12.4648   ZZ=              1.0047
   XY=            -18.0204   XZ=            -17.0510   YZ=            -29.1885
 Octapole moment (field-independent basis, Debye-Ang**2):
  XXX=           -334.7762  YYY=           -875.6381  ZZZ=           -369.8317  XYY=           -434.2318
  XXY=           -313.3319  XXZ=           -253.3506  XZZ=           -282.7631  YZZ=           -433.9195
  YYZ=           -557.3052  XYZ=           -316.7923
 Hexadecapole moment (field-independent basis, Debye-Ang**3):
 XXXX=          -5496.9382 YYYY=         -16698.1704 ZZZZ=          -4426.8603 XXXY=          -5180.4013
 XXXZ=          -3784.2609 YYYX=          -8809.0338 YYYZ=         -10002.0738 ZZZX=          -3720.1876
 ZZZY=          -5462.5360 XXYY=          -5821.3899 XXZZ=          -3384.8893 YYZZ=          -7024.4676
 XXYZ=          -4103.4749 YYXZ=          -5698.2205 ZZXY=          -4420.5040
 N-N= 9.093048844791D+00 E-N=-1.990278838192D+02  KE= 7.618308390810D+01
 No NMR shielding tensors so no spin-rotation constants.
 Leave Link  601 at Sat Dec 17 23:53:20 2022, MaxMem= 13421772800 cpu:               1.9 elap:               0.1
 (Enter /data0/home/software/g16/l122.exe)
 CPIOFr:  IOpCl= 0 IRwI=-1 IRwCP=  731 ICalc=  2 LCPTot=       22668 Len1MO=       57607 IndFrg=      195489
 Counterpoise: doing calculation for fragment   3 using the basis set of the full-system, NewBq=T
 Leave Link  122 at Sat Dec 17 23:53:20 2022, MaxMem= 13421772800 cpu:               0.1 elap:               0.0
 (Enter /data0/home/software/g16/l301.exe)
 Basis read from rwf:  (5D, 7F)
 No pseudopotential information found on rwf file.
   117 basis functions,   174 primitive gaussians,   123 cartesian basis functions
     5 alpha electrons        5 beta electrons
       nuclear repulsion energy         9.1456804406 Hartrees.
 IExCor= 4336 DFT=T Ex+Corr=M062X ExCW=0 ScaHFX=  0.540000
 ScaDFX=  1.000000  1.000000  1.000000  1.000000 ScalE2=  1.000000  1.000000
 IRadAn=      5 IRanWt=     -1 IRanGd=            0 ICorTp=0 IEmpDi=131
 NAtoms=    9 NActive=    9 NUniq=    9 SFac= 1.00D+00 NAtFMM=   60 NAOKFM=F Big=F
 Integral buffers will be    131072 words long.
 Raffenetti 2 integral format.
 Two-electron integral symmetry is turned off.
 R6Disp:  Grimme-D3 Dispersion energy=       -0.0000000081 Hartrees.
 Nuclear repulsion after empirical dispersion term =        9.1456804325 Hartrees.
 No density basis found on file   718.
 Leave Link  301 at Sat Dec 17 23:53:21 2022, MaxMem= 13421772800 cpu:               1.2 elap:               0.1
 (Enter /data0/home/software/g16/l302.exe)
 NPDir=0 NMtPBC=     1 NCelOv=     1 NCel=       1 NClECP=     1 NCelD=      1
         NCelK=      1 NCelE2=     1 NClLst=     1 CellRange=     0.0.
 One-electron integrals computed using PRISM.
 NBasis=   117 RedAO= T EigKep=  8.77D-04  NBF=   117
 NBsUse=   117 1.00D-06 EigRej= -1.00D+00 NBFU=   117
 Precomputing XC quadrature grid using
 IXCGrd= 4 IRadAn=           5 IRanWt=          -1 IRanGd=           0 AccXCQ= 0.00D+00.
 Generated NRdTot=       0 NPtTot=           0 NUsed=           0 NTot=          32
 NSgBfM=   123   123   123   123   123 MxSgAt=     9 MxSgA2=     9.
 Leave Link  302 at Sat Dec 17 23:53:21 2022, MaxMem= 13421772800 cpu:               2.6 elap:               0.1
 (Enter /data0/home/software/g16/l303.exe)
 DipDrv:  MaxL=1.
 Leave Link  303 at Sat Dec 17 23:53:21 2022, MaxMem= 13421772800 cpu:               0.5 elap:               0.0
 (Enter /data0/home/software/g16/l401.exe)
 ExpMin= 8.45D-02 ExpMax= 8.59D+03 ExpMxC= 1.30D+03 IAcc=3 IRadAn=         5 AccDes= 0.00D+00
 Harris functional with IExCor= 1009 and IRadAn=       5 diagonalized for initial guess.
 HarFok:  IExCor= 1009 AccDes= 0.00D+00 IRadAn=         5 IDoV= 1 UseB2=F ITyADJ=14
 ICtDFT=  3500011 ScaDFX=  1.000000  1.000000  1.000000  1.000000
 FoFCou: FMM=F IPFlag=           0 FMFlag=      100000 FMFlg1=           0
         NFxFlg=           0 DoJE=T BraDBF=F KetDBF=T FulRan=T
         wScrn=  0.000000 ICntrl=       500 IOpCl=  0 I1Cent=   200000004 NGrid=           0
         NMat0=    1 NMatS0=      1 NMatT0=    0 NMatD0=    1 NMtDS0=    0 NMtDT0=    0
 Symmetry not used in FoFCou.
 Harris En= -76.4173748024900    
 JPrj=0 DoOrth=F DoCkMO=F.
 Leave Link  401 at Sat Dec 17 23:53:21 2022, MaxMem= 13421772800 cpu:               4.6 elap:               0.2
 (Enter /data0/home/software/g16/l502.exe)
 Keep R1 ints in memory in canonical form, NReq=46556122.
 FoFCou: FMM=F IPFlag=           0 FMFlag=           0 FMFlg1=           0
         NFxFlg=           0 DoJE=F BraDBF=F KetDBF=F FulRan=T
         wScrn=  0.000000 ICntrl=       600 IOpCl=  0 I1Cent=           0 NGrid=           0
         NMat0=    1 NMatS0=   6903 NMatT0=    0 NMatD0=    1 NMtDS0=    0 NMtDT0=    0
 Symmetry not used in FoFCou.
 Two-electron integral symmetry not used.
 Closed shell SCF:
 Using DIIS extrapolation, IDIIS=  1040.
 NGot= 13421772800 LenX= 13397909404 LenY= 13397893834
 Requested convergence on RMS density matrix=1.00D-08 within 128 cycles.
 Requested convergence on MAX density matrix=1.00D-06.
 Requested convergence on             energy=1.00D-06.
 No special actions if energy rises.
 Integral accuracy reduced to 1.0D-05 until final iterations.

 Cycle   1  Pass 0  IDiag  1:
 E= -76.3460257579409    
 DIIS: error= 4.25D-02 at cycle   1 NSaved=   1.
 NSaved= 1 IEnMin= 1 EnMin= -76.3460257579409     IErMin= 1 ErrMin= 4.25D-02
 ErrMax= 4.25D-02  0.00D+00 EMaxC= 1.00D-01 BMatC= 1.22D-01 BMatP= 1.22D-01
 IDIUse=3 WtCom= 5.75D-01 WtEn= 4.25D-01
 Coeff-Com:  0.100D+01
 Coeff-En:   0.100D+01
 Coeff:      0.100D+01
 Gap=     0.293 Goal=   None    Shift=    0.000
 GapD=    0.293 DampG=1.000 DampE=0.500 DampFc=0.5000 IDamp=-1.
 Damping current iteration by 5.00D-01
 RMSDP=3.18D-03 MaxDP=1.01D-01              OVMax= 1.70D-01

 Cycle   2  Pass 0  IDiag  1:
 E= -76.3777525052767     Delta-E=       -0.031726747336 Rises=F Damp=T
 DIIS: error= 6.94D-03 at cycle   2 NSaved=   2.
 NSaved= 2 IEnMin= 2 EnMin= -76.3777525052767     IErMin= 2 ErrMin= 6.94D-03
 ErrMax= 6.94D-03  0.00D+00 EMaxC= 1.00D-01 BMatC= 4.85D-03 BMatP= 1.22D-01
 IDIUse=3 WtCom= 9.31D-01 WtEn= 6.94D-02
 Coeff-Com:  0.814D-01 0.919D+00
 Coeff-En:   0.187D+00 0.813D+00
 Coeff:      0.887D-01 0.911D+00
 Gap=     0.419 Goal=   None    Shift=    0.000
 RMSDP=4.08D-04 MaxDP=1.41D-02 DE=-3.17D-02 OVMax= 1.02D-01

 Cycle   3  Pass 0  IDiag  1:
 E= -76.4220838457973     Delta-E=       -0.044331340521 Rises=F Damp=F
 DIIS: error= 1.38D-03 at cycle   3 NSaved=   3.
 NSaved= 3 IEnMin= 3 EnMin= -76.4220838457973     IErMin= 3 ErrMin= 1.38D-03
 ErrMax= 1.38D-03  0.00D+00 EMaxC= 1.00D-01 BMatC= 1.35D-04 BMatP= 4.85D-03
 IDIUse=3 WtCom= 9.86D-01 WtEn= 1.38D-02
 Coeff-Com: -0.257D-01 0.491D-01 0.977D+00
 Coeff-En:   0.000D+00 0.000D+00 0.100D+01
 Coeff:     -0.254D-01 0.484D-01 0.977D+00
 Gap=     0.421 Goal=   None    Shift=    0.000
 RMSDP=5.41D-05 MaxDP=1.17D-03 DE=-4.43D-02 OVMax= 3.73D-03

 Cycle   4  Pass 0  IDiag  1:
 E= -76.4221929207422     Delta-E=       -0.000109074945 Rises=F Damp=F
 DIIS: error= 2.24D-04 at cycle   4 NSaved=   4.
 NSaved= 4 IEnMin= 4 EnMin= -76.4221929207422     IErMin= 4 ErrMin= 2.24D-04
 ErrMax= 2.24D-04  0.00D+00 EMaxC= 1.00D-01 BMatC= 2.95D-06 BMatP= 1.35D-04
 IDIUse=3 WtCom= 9.98D-01 WtEn= 2.24D-03
 Coeff-Com: -0.285D-02-0.535D-04 0.156D+00 0.847D+00
 Coeff-En:   0.000D+00 0.000D+00 0.000D+00 0.100D+01
 Coeff:     -0.284D-02-0.534D-04 0.155D+00 0.848D+00
 Gap=     0.421 Goal=   None    Shift=    0.000
 RMSDP=7.83D-06 MaxDP=3.28D-04 DE=-1.09D-04 OVMax= 5.08D-04

 Initial convergence to 1.0D-05 achieved.  Increase integral accuracy.
 Cycle   5  Pass 1  IDiag  1:
 E= -76.4221941634611     Delta-E=       -0.000001242719 Rises=F Damp=F
 DIIS: error= 4.98D-05 at cycle   1 NSaved=   1.
 NSaved= 1 IEnMin= 1 EnMin= -76.4221941634611     IErMin= 1 ErrMin= 4.98D-05
 ErrMax= 4.98D-05  0.00D+00 EMaxC= 1.00D-01 BMatC= 8.72D-08 BMatP= 8.72D-08
 IDIUse=1 WtCom= 1.00D+00 WtEn= 0.00D+00
 Coeff-Com:  0.100D+01
 Coeff:      0.100D+01
 Gap=     0.421 Goal=   None    Shift=    0.000
 RMSDP=7.83D-06 MaxDP=3.28D-04 DE=-1.24D-06 OVMax= 2.19D-04

 Cycle   6  Pass 1  IDiag  1:
 E= -76.4221942551751     Delta-E=       -0.000000091714 Rises=F Damp=F
 DIIS: error= 2.31D-05 at cycle   2 NSaved=   2.
 NSaved= 2 IEnMin= 2 EnMin= -76.4221942551751     IErMin= 2 ErrMin= 2.31D-05
 ErrMax= 2.31D-05  0.00D+00 EMaxC= 1.00D-01 BMatC= 5.98D-08 BMatP= 8.72D-08
 IDIUse=1 WtCom= 1.00D+00 WtEn= 0.00D+00
 Coeff-Com:  0.439D+00 0.561D+00
 Coeff:      0.439D+00 0.561D+00
 Gap=     0.421 Goal=   None    Shift=    0.000
 RMSDP=1.13D-06 MaxDP=4.23D-05 DE=-9.17D-08 OVMax= 7.80D-05

 Cycle   7  Pass 1  IDiag  1:
 E= -76.4221942949412     Delta-E=       -0.000000039766 Rises=F Damp=F
 DIIS: error= 1.21D-05 at cycle   3 NSaved=   3.
 NSaved= 3 IEnMin= 3 EnMin= -76.4221942949412     IErMin= 3 ErrMin= 1.21D-05
 ErrMax= 1.21D-05  0.00D+00 EMaxC= 1.00D-01 BMatC= 4.13D-09 BMatP= 5.98D-08
 IDIUse=1 WtCom= 1.00D+00 WtEn= 0.00D+00
 Coeff-Com: -0.126D+00 0.121D+00 0.101D+01
 Coeff:     -0.126D+00 0.121D+00 0.101D+01
 Gap=     0.421 Goal=   None    Shift=    0.000
 RMSDP=6.28D-07 MaxDP=1.89D-05 DE=-3.98D-08 OVMax= 3.88D-05

 Cycle   8  Pass 1  IDiag  1:
 E= -76.4221942995279     Delta-E=       -0.000000004587 Rises=F Damp=F
 DIIS: error= 1.10D-06 at cycle   4 NSaved=   4.
 NSaved= 4 IEnMin= 4 EnMin= -76.4221942995279     IErMin= 4 ErrMin= 1.10D-06
 ErrMax= 1.10D-06  0.00D+00 EMaxC= 1.00D-01 BMatC= 6.09D-11 BMatP= 4.13D-09
 IDIUse=1 WtCom= 1.00D+00 WtEn= 0.00D+00
 Coeff-Com: -0.341D-01 0.695D-02 0.166D+00 0.861D+00
 Coeff:     -0.341D-01 0.695D-02 0.166D+00 0.861D+00
 Gap=     0.421 Goal=   None    Shift=    0.000
 RMSDP=8.01D-08 MaxDP=2.07D-06 DE=-4.59D-09 OVMax= 5.05D-06

 Cycle   9  Pass 1  IDiag  1:
 E= -76.4221942996049     Delta-E=       -0.000000000077 Rises=F Damp=F
 DIIS: error= 2.02D-07 at cycle   5 NSaved=   5.
 NSaved= 5 IEnMin= 5 EnMin= -76.4221942996049     IErMin= 5 ErrMin= 2.02D-07
 ErrMax= 2.02D-07  0.00D+00 EMaxC= 1.00D-01 BMatC= 1.31D-12 BMatP= 6.09D-11
 IDIUse=1 WtCom= 1.00D+00 WtEn= 0.00D+00
 Coeff-Com:  0.588D-02-0.396D-02-0.465D-01-0.102D+00 0.115D+01
 Coeff:      0.588D-02-0.396D-02-0.465D-01-0.102D+00 0.115D+01
 Gap=     0.421 Goal=   None    Shift=    0.000
 RMSDP=1.97D-08 MaxDP=6.56D-07 DE=-7.71D-11 OVMax= 1.43D-06

 Cycle  10  Pass 1  IDiag  1:
 E= -76.4221942996084     Delta-E=       -0.000000000003 Rises=F Damp=F
 DIIS: error= 1.63D-08 at cycle   6 NSaved=   6.
 NSaved= 6 IEnMin= 6 EnMin= -76.4221942996084     IErMin= 6 ErrMin= 1.63D-08
 ErrMax= 1.63D-08  0.00D+00 EMaxC= 1.00D-01 BMatC= 2.02D-14 BMatP= 1.31D-12
 IDIUse=1 WtCom= 1.00D+00 WtEn= 0.00D+00
 Coeff-Com: -0.679D-03 0.702D-03 0.738D-02 0.187D-02-0.198D+00 0.119D+01
 Coeff:     -0.679D-03 0.702D-03 0.738D-02 0.187D-02-0.198D+00 0.119D+01
 Gap=     0.421 Goal=   None    Shift=    0.000
 RMSDP=2.77D-09 MaxDP=5.78D-08 DE=-3.44D-12 OVMax= 1.51D-07

 SCF Done:  E(RM062X) =  -76.4221942996     A.U. after   10 cycles
            NFock= 10  Conv=0.28D-08     -V/T= 2.0028
 KE= 7.620652838661D+01 PE=-1.991468455780D+02 EE= 3.737244245928D+01
 Leave Link  502 at Sat Dec 17 23:53:23 2022, MaxMem= 13421772800 cpu:              37.2 elap:               1.8
 (Enter /data0/home/software/g16/l601.exe)
 Copying SCF densities to generalized density rwf, IOpCl= 0 IROHF=0.

 **********************************************************************

            Population analysis using the SCF density.

 **********************************************************************

 Alpha  occ. eigenvalues --  -19.62491  -1.13452  -0.61282  -0.47268  -0.39999
 Alpha virt. eigenvalues --    0.02138   0.08160   0.10402   0.12157   0.13456
 Alpha virt. eigenvalues --    0.16130   0.18278   0.19037   0.19720   0.21462
 Alpha virt. eigenvalues --    0.22381   0.23892   0.26589   0.29027   0.31378
 Alpha virt. eigenvalues --    0.32819   0.34522   0.42119   0.53248   0.56977
 Alpha virt. eigenvalues --    0.61835   0.66389   0.71178   0.75510   0.79038
 Alpha virt. eigenvalues --    0.80264   0.83145   0.88392   0.96453   0.99247
 Alpha virt. eigenvalues --    1.04106   1.05922   1.07045   1.07607   1.18804
 Alpha virt. eigenvalues --    1.21166   1.25383   1.33722   1.40846   1.68259
 Alpha virt. eigenvalues --    1.71722   1.74384   1.77513   1.78547   1.87260
 Alpha virt. eigenvalues --    1.90612   1.97833   2.06668   2.09692   2.10655
 Alpha virt. eigenvalues --    2.19411   2.23738   2.28017   2.31333   2.38049
 Alpha virt. eigenvalues --    2.43817   2.46316   2.49942   2.51445   2.55853
 Alpha virt. eigenvalues --    2.60953   2.61386   2.63992   2.66196   2.69760
 Alpha virt. eigenvalues --    2.71905   2.75817   2.78001   2.85773   2.94025
 Alpha virt. eigenvalues --    2.97407   3.00213   3.09795   3.13880   3.19474
 Alpha virt. eigenvalues --    3.50359   3.54665   3.61124   3.74001   4.49999
 Alpha virt. eigenvalues --    4.72670   5.05821   5.08612   5.32398   5.48700
 Alpha virt. eigenvalues --    5.99467   6.78231   6.80752   6.88894   6.92731
 Alpha virt. eigenvalues --    7.12421   9.79722   9.85074   9.89855   9.96038
 Alpha virt. eigenvalues --   10.09493  10.24008  10.27904  10.35084  10.42294
 Alpha virt. eigenvalues --   10.61012  12.93841  13.27971  13.38480  13.69074
 Alpha virt. eigenvalues --   13.78189  14.33054  17.69255  18.41200  49.99395
 Alpha virt. eigenvalues --  135.92853 139.73595
          Condensed to atoms (all electrons):
               1          2          3          4          5          6
     1  O    0.001434   0.000100  -0.002598   0.001446   0.000371  -0.000546
     2  H    0.000100   0.000035  -0.000222   0.000150   0.000008  -0.000050
     3  H   -0.002598  -0.000222   0.005467  -0.004179  -0.001149   0.001879
     4  O    0.001446   0.000150  -0.004179   0.016347  -0.000753  -0.007790
     5  H    0.000371   0.000008  -0.001149  -0.000753   0.002747  -0.001208
     6  H   -0.000546  -0.000050   0.001879  -0.007790  -0.001208   0.005834
     7  O    0.000259   0.000017  -0.000918   0.026496  -0.001240  -0.004480
     8  H   -0.000423  -0.000031   0.001853  -0.004592  -0.002601   0.003636
     9  H   -0.000034  -0.000002   0.000167  -0.002339  -0.000557   0.000607
               7          8          9
     1  O    0.000259  -0.000423  -0.000034
     2  H    0.000017  -0.000031  -0.000002
     3  H   -0.000918   0.001853   0.000167
     4  O    0.026496  -0.004592  -0.002339
     5  H   -0.001240  -0.002601  -0.000557
     6  H   -0.004480   0.003636   0.000607
     7  O    8.037908   0.260983   0.288217
     8  H    0.260983   0.400699  -0.008085
     9  H    0.288217  -0.008085   0.444741
 Mulliken charges:
               1
     1  O   -0.000010
     2  H   -0.000005
     3  H   -0.000301
     4  O   -0.024785
     5  H    0.004382
     6  H    0.002118
     7  O   -0.607244
     8  H    0.348561
     9  H    0.277285
 Sum of Mulliken charges =  -0.00000
 Mulliken charges with hydrogens summed into heavy atoms:
               1
     1  O   -0.000316
     4  O   -0.018286
     7  O    0.018602
         Mulliken charges condensed to fragments:
      1     -0.000316
      2     -0.018286
      3      0.018602
 Electronic spatial extent (au):  <R**2>=          12874.4236
 Charge=             -0.0000 electrons
 Dipole moment (field-independent basis, Debye):
    X=             -0.1067    Y=              0.4587    Z=             -1.9891  Tot=              2.0441
 Quadrupole moment (field-independent basis, Debye-Ang):
   XX=             -7.8002   YY=              6.9996   ZZ=            -44.7473
   XY=              0.5184   XZ=            -17.3950   YZ=            -23.6637
 Traceless Quadrupole moment (field-independent basis, Debye-Ang):
   XX=              7.3824   YY=             22.1822   ZZ=            -29.5646
   XY=              0.5184   XZ=            -17.3950   YZ=            -23.6637
 Octapole moment (field-independent basis, Debye-Ang**2):
  XXX=           -167.4055  YYY=             21.1740  ZZZ=           -740.9727  XYY=            -12.4379
  XXY=           -107.4935  XXZ=           -210.6152  XZZ=           -376.5799  YZZ=           -589.8755
  YYZ=           -329.8445  XYZ=           -225.6867
 Hexadecapole moment (field-independent basis, Debye-Ang**3):
 XXXX=          -2587.5104 YYYY=          -2019.6041 ZZZZ=         -10757.4601 XXXY=          -2454.4061
 XXXZ=          -2739.9606 YYYX=          -1145.5157 YYYZ=          -5428.0276 ZZZX=          -6148.3693
 ZZZY=         -10071.3782 XXYY=          -1875.1350 XXZZ=          -3746.6149 YYZZ=          -8307.2797
 XXYZ=          -2941.9149 YYXZ=          -3377.4431 ZZXY=          -5126.9983
 N-N= 9.145680432479D+00 E-N=-1.991468452200D+02  KE= 7.620652838661D+01
 No NMR shielding tensors so no spin-rotation constants.
 Leave Link  601 at Sat Dec 17 23:53:23 2022, MaxMem= 13421772800 cpu:               1.8 elap:               0.1
 (Enter /data0/home/software/g16/l122.exe)
 CPIOFr:  IOpCl= 0 IRwI=-1 IRwCP=  731 ICalc=  3 LCPTot=       22668 Len1MO=       57607 IndFrg=      253096
 Counterpoise: doing calculation for fragment   1 using the basis set of the fragment.
 Leave Link  122 at Sat Dec 17 23:53:23 2022, MaxMem= 13421772800 cpu:               0.1 elap:               0.0
 (Enter /data0/home/software/g16/l301.exe)
 Basis read from rwf:  (5D, 7F)
 No pseudopotential information found on rwf file.
    39 basis functions,    58 primitive gaussians,    41 cartesian basis functions
     5 alpha electrons        5 beta electrons
       nuclear repulsion energy         9.1232667609 Hartrees.
 IExCor= 4336 DFT=T Ex+Corr=M062X ExCW=0 ScaHFX=  0.540000
 ScaDFX=  1.000000  1.000000  1.000000  1.000000 ScalE2=  1.000000  1.000000
 IRadAn=      5 IRanWt=     -1 IRanGd=            0 ICorTp=0 IEmpDi=131
 NAtoms=    9 NActive=    3 NUniq=    3 SFac= 1.00D+00 NAtFMM=   60 NAOKFM=F Big=F
 Integral buffers will be    131072 words long.
 Raffenetti 2 integral format.
 Two-electron integral symmetry is turned off.
 R6Disp:  Grimme-D3 Dispersion energy=       -0.0000000079 Hartrees.
 Nuclear repulsion after empirical dispersion term =        9.1232667530 Hartrees.
 No density basis found on file   718.
 Leave Link  301 at Sat Dec 17 23:53:23 2022, MaxMem= 13421772800 cpu:               1.2 elap:               0.1
 (Enter /data0/home/software/g16/l302.exe)
 NPDir=0 NMtPBC=     1 NCelOv=     1 NCel=       1 NClECP=     1 NCelD=      1
         NCelK=      1 NCelE2=     1 NClLst=     1 CellRange=     0.0.
 One-electron integrals computed using PRISM.
 NBasis=    39 RedAO= T EigKep=  3.06D-03  NBF=    39
 NBsUse=    39 1.00D-06 EigRej= -1.00D+00 NBFU=    39
 Precomputing XC quadrature grid using
 IXCGrd= 4 IRadAn=           5 IRanWt=          -1 IRanGd=           0 AccXCQ= 0.00D+00.
 Generated NRdTot=       0 NPtTot=           0 NUsed=           0 NTot=          32
 NSgBfM=    41    41    41    41    41 MxSgAt=     3 MxSgA2=     3.
 Leave Link  302 at Sat Dec 17 23:53:23 2022, MaxMem= 13421772800 cpu:               2.2 elap:               0.1
 (Enter /data0/home/software/g16/l303.exe)
 DipDrv:  MaxL=1.
 Leave Link  303 at Sat Dec 17 23:53:23 2022, MaxMem= 13421772800 cpu:               0.4 elap:               0.0
 (Enter /data0/home/software/g16/l401.exe)
 ExpMin= 8.45D-02 ExpMax= 8.59D+03 ExpMxC= 1.30D+03 IAcc=3 IRadAn=         5 AccDes= 0.00D+00
 Harris functional with IExCor= 1009 and IRadAn=       5 diagonalized for initial guess.
 HarFok:  IExCor= 1009 AccDes= 0.00D+00 IRadAn=         5 IDoV= 1 UseB2=F ITyADJ=14
 ICtDFT=  3500011 ScaDFX=  1.000000  1.000000  1.000000  1.000000
 FoFCou: FMM=F IPFlag=           0 FMFlag=      100000 FMFlg1=           0
         NFxFlg=           0 DoJE=T BraDBF=F KetDBF=T FulRan=T
         wScrn=  0.000000 ICntrl=       500 IOpCl=  0 I1Cent=   200000004 NGrid=           0
         NMat0=    1 NMatS0=      1 NMatT0=    0 NMatD0=    1 NMtDS0=    0 NMtDT0=    0
 Symmetry not used in FoFCou.
 Harris En= -76.4169635744884    
 JPrj=0 DoOrth=F DoCkMO=F.
 Leave Link  401 at Sat Dec 17 23:53:23 2022, MaxMem= 13421772800 cpu:               2.9 elap:               0.1
 (Enter /data0/home/software/g16/l502.exe)
 Keep R1 ints in memory in canonical form, NReq=21036630.
 FoFCou: FMM=F IPFlag=           0 FMFlag=           0 FMFlg1=           0
         NFxFlg=           0 DoJE=F BraDBF=F KetDBF=F FulRan=T
         wScrn=  0.000000 ICntrl=       600 IOpCl=  0 I1Cent=           0 NGrid=           0
         NMat0=    1 NMatS0=    780 NMatT0=    0 NMatD0=    1 NMtDS0=    0 NMtDT0=    0
 Symmetry not used in FoFCou.
 Two-electron integral symmetry not used.
 Closed shell SCF:
 Using DIIS extrapolation, IDIIS=  1040.
 NGot= 13421772800 LenX= 13421463244 LenY= 13421461122
 Requested convergence on RMS density matrix=1.00D-08 within 128 cycles.
 Requested convergence on MAX density matrix=1.00D-06.
 Requested convergence on             energy=1.00D-06.
 No special actions if energy rises.
 Integral accuracy reduced to 1.0D-05 until final iterations.

 Cycle   1  Pass 0  IDiag  1:
 E= -76.3462498422709    
 DIIS: error= 7.05D-02 at cycle   1 NSaved=   1.
 NSaved= 1 IEnMin= 1 EnMin= -76.3462498422709     IErMin= 1 ErrMin= 7.05D-02
 ErrMax= 7.05D-02  0.00D+00 EMaxC= 1.00D-01 BMatC= 1.21D-01 BMatP= 1.21D-01
 IDIUse=3 WtCom= 2.95D-01 WtEn= 7.05D-01
 Coeff-Com:  0.100D+01
 Coeff-En:   0.100D+01
 Coeff:      0.100D+01
 Gap=     0.325 Goal=   None    Shift=    0.000
 GapD=    0.325 DampG=1.000 DampE=0.500 DampFc=0.5000 IDamp=-1.
 Damping current iteration by 5.00D-01
 RMSDP=7.87D-03 MaxDP=1.01D-01              OVMax= 1.69D-01

 Cycle   2  Pass 0  IDiag  1:
 E= -76.3778967305113     Delta-E=       -0.031646888240 Rises=F Damp=T
 DIIS: error= 1.16D-02 at cycle   2 NSaved=   2.
 NSaved= 2 IEnMin= 2 EnMin= -76.3778967305113     IErMin= 2 ErrMin= 1.16D-02
 ErrMax= 1.16D-02  0.00D+00 EMaxC= 1.00D-01 BMatC= 4.80D-03 BMatP= 1.21D-01
 IDIUse=3 WtCom= 8.84D-01 WtEn= 1.16D-01
 Coeff-Com:  0.809D-01 0.919D+00
 Coeff-En:   0.185D+00 0.815D+00
 Coeff:      0.930D-01 0.907D+00
 Gap=     0.458 Goal=   None    Shift=    0.000
 RMSDP=9.33D-04 MaxDP=1.38D-02 DE=-3.16D-02 OVMax= 1.01D-01

 Cycle   3  Pass 0  IDiag  1:
 E= -76.4219113842046     Delta-E=       -0.044014653693 Rises=F Damp=F
 DIIS: error= 2.17D-03 at cycle   3 NSaved=   3.
 NSaved= 3 IEnMin= 3 EnMin= -76.4219113842046     IErMin= 3 ErrMin= 2.17D-03
 ErrMax= 2.17D-03  0.00D+00 EMaxC= 1.00D-01 BMatC= 9.07D-05 BMatP= 4.80D-03
 IDIUse=3 WtCom= 9.78D-01 WtEn= 2.17D-02
 Coeff-Com: -0.199D-01 0.396D-01 0.980D+00
 Coeff-En:   0.000D+00 0.000D+00 0.100D+01
 Coeff:     -0.195D-01 0.388D-01 0.981D+00
 Gap=     0.463 Goal=   None    Shift=    0.000
 RMSDP=1.14D-04 MaxDP=1.02D-03 DE=-4.40D-02 OVMax= 3.29D-03

 Cycle   4  Pass 0  IDiag  1:
 E= -76.4219885677323     Delta-E=       -0.000077183528 Rises=F Damp=F
 DIIS: error= 4.10D-04 at cycle   4 NSaved=   4.
 NSaved= 4 IEnMin= 4 EnMin= -76.4219885677323     IErMin= 4 ErrMin= 4.10D-04
 ErrMax= 4.10D-04  0.00D+00 EMaxC= 1.00D-01 BMatC= 3.28D-06 BMatP= 9.07D-05
 IDIUse=3 WtCom= 9.96D-01 WtEn= 4.10D-03
 Coeff-Com: -0.190D-02-0.216D-02 0.163D+00 0.841D+00
 Coeff-En:   0.000D+00 0.000D+00 0.000D+00 0.100D+01
 Coeff:     -0.189D-02-0.215D-02 0.163D+00 0.841D+00
 Gap=     0.463 Goal=   None    Shift=    0.000
 RMSDP=2.20D-05 MaxDP=3.51D-04 DE=-7.72D-05 OVMax= 5.28D-04

 Cycle   5  Pass 0  IDiag  1:
 E= -76.4219905783302     Delta-E=       -0.000002010598 Rises=F Damp=F
 DIIS: error= 8.83D-05 at cycle   5 NSaved=   5.
[...]
 NSaved= 6 IEnMin= 6 EnMin= -76.4216894787641     IErMin= 6 ErrMin= 9.77D-09
 ErrMax= 9.77D-09  0.00D+00 EMaxC= 1.00D-01 BMatC= 4.36D-15 BMatP= 2.66D-13
 IDIUse=1 WtCom= 1.00D+00 WtEn= 0.00D+00
 Coeff-Com:  0.822D-04 0.216D-03-0.198D-02-0.292D-01-0.369D-01 0.107D+01
 Coeff:      0.822D-04 0.216D-03-0.198D-02-0.292D-01-0.369D-01 0.107D+01
 Gap=     0.462 Goal=   None    Shift=    0.000
 RMSDP=4.12D-09 MaxDP=4.49D-08 DE=-5.12D-13 OVMax= 7.56D-08

 SCF Done:  E(RM062X) =  -76.4216894788     A.U. after   11 cycles
            NFock= 11  Conv=0.41D-08     -V/T= 2.0030
 KE= 7.619139583328D+01 PE=-1.990365093175D+02 EE= 3.733037516070D+01
 Leave Link  502 at Sat Dec 17 23:53:25 2022, MaxMem= 13421772800 cpu:               8.6 elap:               0.4
 (Enter /data0/home/software/g16/l601.exe)
 Copying SCF densities to generalized density rwf, IOpCl= 0 IROHF=0.

 **********************************************************************

            Population analysis using the SCF density.

 **********************************************************************

 Alpha  occ. eigenvalues --  -19.62599  -1.13272  -0.60789  -0.47409  -0.39964
 Alpha virt. eigenvalues --    0.06253   0.13304   0.17395   0.17951   0.18942
 Alpha virt. eigenvalues --    0.23257   0.50988   0.53415   0.97885   1.00265
 Alpha virt. eigenvalues --    1.06039   1.18795   1.19802   1.32518   1.33929
 Alpha virt. eigenvalues --    1.69351   1.73992   1.75774   2.07438   2.09369
 Alpha virt. eigenvalues --    2.35126   2.42248   2.54253   2.88277   3.00961
 Alpha virt. eigenvalues --    5.05677   5.47423   5.92400   6.78239   6.80319
 Alpha virt. eigenvalues --    6.87046   6.91461   7.09691  49.95743
          Condensed to atoms (all electrons):
               4          5          6
     4  O    7.916768   0.322674   0.318874
     5  H    0.322674   0.424300  -0.024424
     6  H    0.318874  -0.024424   0.424684
 Mulliken charges:
               1
     1  O    0.000000
     2  H    0.000000
     3  H    0.000000
     4  O   -0.558316
     5  H    0.277450
     6  H    0.280865
     7  O    0.000000
     8  H    0.000000
     9  H    0.000000
 Sum of Mulliken charges =  -0.00000
 Mulliken charges with hydrogens summed into heavy atoms:
               1
     1  O    0.000000
     4  O   -0.000000
     7  O    0.000000
         Mulliken charges condensed to fragments:
      1      0.000000
      2     -0.000000
      3      0.000000
 Electronic spatial extent (au):  <R**2>=          11018.6094
 Charge=             -0.0000 electrons
 Dipole moment (field-independent basis, Debye):
    X=             -0.4811    Y=             -1.4182    Z=             -1.4872  Tot=              2.1105
 Quadrupole moment (field-independent basis, Debye-Ang):
   XX=            -16.4862   YY=            -41.6008   ZZ=            -28.0666
   XY=            -18.6276   XZ=            -17.8865   YZ=            -30.6452
 Traceless Quadrupole moment (field-independent basis, Debye-Ang):
   XX=             12.2317   YY=            -12.8829   ZZ=              0.6512
   XY=            -18.6276   XZ=            -17.8865   YZ=            -30.6452
 Octapole moment (field-independent basis, Debye-Ang**2):
  XXX=           -336.4264  YYY=           -900.5995  ZZZ=           -384.4697  XYY=           -448.1172
  XXY=           -319.8495  XXZ=           -261.7527  XZZ=           -295.1289  YZZ=           -453.2843
  YYZ=           -581.0541  XYZ=           -331.3515
 Hexadecapole moment (field-independent basis, Debye-Ang**3):
 XXXX=          -5515.2041 YYYY=         -17118.2289 ZZZZ=          -4579.0509 XXXY=          -5247.9076
 XXXZ=          -3868.0718 YYYX=          -9062.1663 YYYZ=         -10370.3096 ZZZX=          -3861.8921
 ZZZY=          -5676.0919 XXYY=          -5963.0106 XXZZ=          -3506.0230 YYZZ=          -7313.3140
 XXYZ=          -4247.7073 YYXZ=          -5932.3488 ZZXY=          -4609.1448
 N-N= 9.093048844791D+00 E-N=-1.990365092392D+02  KE= 7.619139583328D+01
 No NMR shielding tensors so no spin-rotation constants.
 Leave Link  601 at Sat Dec 17 23:53:25 2022, MaxMem= 13421772800 cpu:               1.7 elap:               0.1
 (Enter /data0/home/software/g16/l122.exe)
 CPIOFr:  IOpCl= 0 IRwI=-1 IRwCP=  731 ICalc=  5 LCPTot=       22668 Len1MO=       57607 IndFrg=      368310
 Counterpoise: doing calculation for fragment   3 using the basis set of the fragment.
 Leave Link  122 at Sat Dec 17 23:53:25 2022, MaxMem= 13421772800 cpu:               0.1 elap:               0.0
 (Enter /data0/home/software/g16/l301.exe)
 Basis read from rwf:  (5D, 7F)
 No pseudopotential information found on rwf file.
    39 basis functions,    58 primitive gaussians,    41 cartesian basis functions
     5 alpha electrons        5 beta electrons
       nuclear repulsion energy         9.1456804406 Hartrees.
 IExCor= 4336 DFT=T Ex+Corr=M062X ExCW=0 ScaHFX=  0.540000
 ScaDFX=  1.000000  1.000000  1.000000  1.000000 ScalE2=  1.000000  1.000000
 IRadAn=      5 IRanWt=     -1 IRanGd=            0 ICorTp=0 IEmpDi=131
 NAtoms=    9 NActive=    3 NUniq=    3 SFac= 1.00D+00 NAtFMM=   60 NAOKFM=F Big=F
 Integral buffers will be    131072 words long.
 Raffenetti 2 integral format.
 Two-electron integral symmetry is turned off.
 R6Disp:  Grimme-D3 Dispersion energy=       -0.0000000081 Hartrees.
 Nuclear repulsion after empirical dispersion term =        9.1456804325 Hartrees.
 No density basis found on file   718.
 Leave Link  301 at Sat Dec 17 23:53:25 2022, MaxMem= 13421772800 cpu:               1.2 elap:               0.1
 (Enter /data0/home/software/g16/l302.exe)
 NPDir=0 NMtPBC=     1 NCelOv=     1 NCel=       1 NClECP=     1 NCelD=      1
         NCelK=      1 NCelE2=     1 NClLst=     1 CellRange=     0.0.
 One-electron integrals computed using PRISM.
 NBasis=    39 RedAO= T EigKep=  3.07D-03  NBF=    39
 NBsUse=    39 1.00D-06 EigRej= -1.00D+00 NBFU=    39
 Precomputing XC quadrature grid using
 IXCGrd= 4 IRadAn=           5 IRanWt=          -1 IRanGd=           0 AccXCQ= 0.00D+00.
 Generated NRdTot=       0 NPtTot=           0 NUsed=           0 NTot=          32
 NSgBfM=    41    41    41    41    41 MxSgAt=     3 MxSgA2=     3.
 Leave Link  302 at Sat Dec 17 23:53:25 2022, MaxMem= 13421772800 cpu:               2.3 elap:               0.1
 (Enter /data0/home/software/g16/l303.exe)
 DipDrv:  MaxL=1.
 Leave Link  303 at Sat Dec 17 23:53:25 2022, MaxMem= 13421772800 cpu:               0.4 elap:               0.0
 (Enter /data0/home/software/g16/l401.exe)
 ExpMin= 8.45D-02 ExpMax= 8.59D+03 ExpMxC= 1.30D+03 IAcc=3 IRadAn=         5 AccDes= 0.00D+00
 Harris functional with IExCor= 1009 and IRadAn=       5 diagonalized for initial guess.
 HarFok:  IExCor= 1009 AccDes= 0.00D+00 IRadAn=         5 IDoV= 1 UseB2=F ITyADJ=14
 ICtDFT=  3500011 ScaDFX=  1.000000  1.000000  1.000000  1.000000
 FoFCou: FMM=F IPFlag=           0 FMFlag=      100000 FMFlg1=           0
         NFxFlg=           0 DoJE=T BraDBF=F KetDBF=T FulRan=T
         wScrn=  0.000000 ICntrl=       500 IOpCl=  0 I1Cent=   200000004 NGrid=           0
         NMat0=    1 NMatS0=      1 NMatT0=    0 NMatD0=    1 NMtDS0=    0 NMtDT0=    0
 Symmetry not used in FoFCou.
 Harris En= -76.4171037288971    
 JPrj=0 DoOrth=F DoCkMO=F.
 Leave Link  401 at Sat Dec 17 23:53:25 2022, MaxMem= 13421772800 cpu:               2.9 elap:               0.1
 (Enter /data0/home/software/g16/l502.exe)
 Keep R1 ints in memory in canonical form, NReq=21036630.
 FoFCou: FMM=F IPFlag=           0 FMFlag=           0 FMFlg1=           0
         NFxFlg=           0 DoJE=F BraDBF=F KetDBF=F FulRan=T
         wScrn=  0.000000 ICntrl=       600 IOpCl=  0 I1Cent=           0 NGrid=           0
         NMat0=    1 NMatS0=    780 NMatT0=    0 NMatD0=    1 NMtDS0=    0 NMtDT0=    0
 Symmetry not used in FoFCou.
 Two-electron integral symmetry not used.
 Closed shell SCF:
 Using DIIS extrapolation, IDIIS=  1040.
 NGot= 13421772800 LenX= 13421463244 LenY= 13421461122
 Requested convergence on RMS density matrix=1.00D-08 within 128 cycles.
 Requested convergence on MAX density matrix=1.00D-06.
 Requested convergence on             energy=1.00D-06.
 No special actions if energy rises.
 Integral accuracy reduced to 1.0D-05 until final iterations.

 Cycle   1  Pass 0  IDiag  1:
 E= -76.3456609678024    
 DIIS: error= 7.09D-02 at cycle   1 NSaved=   1.
 NSaved= 1 IEnMin= 1 EnMin= -76.3456609678024     IErMin= 1 ErrMin= 7.09D-02
 ErrMax= 7.09D-02  0.00D+00 EMaxC= 1.00D-01 BMatC= 1.22D-01 BMatP= 1.22D-01
 IDIUse=3 WtCom= 2.91D-01 WtEn= 7.09D-01
 Coeff-Com:  0.100D+01
 Coeff-En:   0.100D+01
 Coeff:      0.100D+01
 Gap=     0.326 Goal=   None    Shift=    0.000
 GapD=    0.326 DampG=1.000 DampE=0.500 DampFc=0.5000 IDamp=-1.
 Damping current iteration by 5.00D-01
 RMSDP=7.84D-03 MaxDP=1.02D-01              OVMax= 1.69D-01

 Cycle   2  Pass 0  IDiag  1:
 E= -76.3775723643442     Delta-E=       -0.031911396542 Rises=F Damp=T
 DIIS: error= 1.16D-02 at cycle   2 NSaved=   2.
 NSaved= 2 IEnMin= 2 EnMin= -76.3775723643442     IErMin= 2 ErrMin= 1.16D-02
 ErrMax= 1.16D-02  0.00D+00 EMaxC= 1.00D-01 BMatC= 4.77D-03 BMatP= 1.22D-01
 IDIUse=3 WtCom= 8.84D-01 WtEn= 1.16D-01
 Coeff-Com:  0.796D-01 0.920D+00
 Coeff-En:   0.183D+00 0.817D+00
 Coeff:      0.917D-01 0.908D+00
 Gap=     0.459 Goal=   None    Shift=    0.000
 RMSDP=9.26D-04 MaxDP=1.37D-02 DE=-3.19D-02 OVMax= 1.01D-01

 Cycle   3  Pass 0  IDiag  1:
 E= -76.4217683708836     Delta-E=       -0.044196006539 Rises=F Damp=F
 DIIS: error= 2.19D-03 at cycle   3 NSaved=   3.
 NSaved= 3 IEnMin= 3 EnMin= -76.4217683708836     IErMin= 3 ErrMin= 2.19D-03
 ErrMax= 2.19D-03  0.00D+00 EMaxC= 1.00D-01 BMatC= 9.13D-05 BMatP= 4.77D-03
 IDIUse=3 WtCom= 9.78D-01 WtEn= 2.19D-02
 Coeff-Com: -0.200D-01 0.398D-01 0.980D+00
 Coeff-En:   0.000D+00 0.000D+00 0.100D+01
 Coeff:     -0.195D-01 0.389D-01 0.981D+00
 Gap=     0.463 Goal=   None    Shift=    0.000
 RMSDP=1.15D-04 MaxDP=9.88D-04 DE=-4.42D-02 OVMax= 3.28D-03

 Cycle   4  Pass 0  IDiag  1:
 E= -76.4218458243223     Delta-E=       -0.000077453439 Rises=F Damp=F
 DIIS: error= 4.07D-04 at cycle   4 NSaved=   4.
 NSaved= 4 IEnMin= 4 EnMin= -76.4218458243223     IErMin= 4 ErrMin= 4.07D-04
 ErrMax= 4.07D-04  0.00D+00 EMaxC= 1.00D-01 BMatC= 3.27D-06 BMatP= 9.13D-05
 IDIUse=3 WtCom= 9.96D-01 WtEn= 4.07D-03
 Coeff-Com: -0.190D-02-0.209D-02 0.164D+00 0.840D+00
 Coeff-En:   0.000D+00 0.000D+00 0.000D+00 0.100D+01
 Coeff:     -0.189D-02-0.208D-02 0.163D+00 0.841D+00
 Gap=     0.464 Goal=   None    Shift=    0.000
 RMSDP=2.19D-05 MaxDP=3.49D-04 DE=-7.75D-05 OVMax= 5.23D-04

 Cycle   5  Pass 0  IDiag  1:
 E= -76.4218478254516     Delta-E=       -0.000002001129 Rises=F Damp=F
 DIIS: error= 8.78D-05 at cycle   5 NSaved=   5.
 NSaved= 5 IEnMin= 5 EnMin= -76.4218478254516     IErMin= 5 ErrMin= 8.78D-05
 ErrMax= 8.78D-05  0.00D+00 EMaxC= 1.00D-01 BMatC= 8.14D-08 BMatP= 3.27D-06
 IDIUse=1 WtCom= 1.00D+00 WtEn= 0.00D+00
 Coeff-Com:  0.115D-02-0.176D-02-0.358D-01-0.674D-01 0.110D+01
 Coeff:      0.115D-02-0.176D-02-0.358D-01-0.674D-01 0.110D+01
 Gap=     0.464 Goal=   None    Shift=    0.000
 RMSDP=8.89D-06 MaxDP=1.03D-04 DE=-2.00D-06 OVMax= 1.97D-04

 Initial convergence to 1.0D-05 achieved.  Increase integral accuracy.
 Cycle   6  Pass 1  IDiag  1:
 E= -76.4218475805228     Delta-E=        0.000000244929 Rises=F Damp=F
 DIIS: error= 1.63D-05 at cycle   1 NSaved=   1.
 NSaved= 1 IEnMin= 1 EnMin= -76.4218475805228     IErMin= 1 ErrMin= 1.63D-05
 ErrMax= 1.63D-05  0.00D+00 EMaxC= 1.00D-01 BMatC= 8.95D-09 BMatP= 8.95D-09
 IDIUse=1 WtCom= 1.00D+00 WtEn= 0.00D+00
 Coeff-Com:  0.100D+01
 Coeff:      0.100D+01
 Gap=     0.464 Goal=   None    Shift=    0.000
 RMSDP=8.89D-06 MaxDP=1.03D-04 DE= 2.45D-07 OVMax= 4.10D-05

 Cycle   7  Pass 1  IDiag  1:
 E= -76.4218475881169     Delta-E=       -0.000000007594 Rises=F Damp=F
 DIIS: error= 6.24D-06 at cycle   2 NSaved=   2.
 NSaved= 2 IEnMin= 2 EnMin= -76.4218475881169     IErMin= 2 ErrMin= 6.24D-06
 ErrMax= 6.24D-06  0.00D+00 EMaxC= 1.00D-01 BMatC= 6.07D-10 BMatP= 8.95D-09
 IDIUse=1 WtCom= 1.00D+00 WtEn= 0.00D+00
 Coeff-Com:  0.301D-01 0.970D+00
 Coeff:      0.301D-01 0.970D+00
 Gap=     0.464 Goal=   None    Shift=    0.000
 RMSDP=5.99D-07 MaxDP=9.30D-06 DE=-7.59D-09 OVMax= 1.49D-05

 Cycle   8  Pass 1  IDiag  1:
 E= -76.4218475883400     Delta-E=       -0.000000000223 Rises=F Damp=F
 DIIS: error= 4.63D-06 at cycle   3 NSaved=   3.
 NSaved= 3 IEnMin= 3 EnMin= -76.4218475883400     IErMin= 3 ErrMin= 4.63D-06
 ErrMax= 4.63D-06  0.00D+00 EMaxC= 1.00D-01 BMatC= 5.71D-10 BMatP= 6.07D-10
 IDIUse=1 WtCom= 1.00D+00 WtEn= 0.00D+00
 Coeff-Com: -0.487D-01 0.511D+00 0.538D+00
 Coeff:     -0.487D-01 0.511D+00 0.538D+00
 Gap=     0.464 Goal=   None    Shift=    0.000
 RMSDP=2.89D-07 MaxDP=3.55D-06 DE=-2.23D-10 OVMax= 7.13D-06

 Cycle   9  Pass 1  IDiag  1:
 E= -76.4218475887254     Delta-E=       -0.000000000385 Rises=F Damp=F
 DIIS: error= 6.21D-07 at cycle   4 NSaved=   4.
 NSaved= 4 IEnMin= 4 EnMin= -76.4218475887254     IErMin= 4 ErrMin= 6.21D-07
 ErrMax= 6.21D-07  0.00D+00 EMaxC= 1.00D-01 BMatC= 4.72D-12 BMatP= 5.71D-10
 IDIUse=1 WtCom= 1.00D+00 WtEn= 0.00D+00
 Coeff-Com: -0.114D-02-0.619D-01 0.253D-02 0.106D+01
 Coeff:     -0.114D-02-0.619D-01 0.253D-02 0.106D+01
 Gap=     0.464 Goal=   None    Shift=    0.000
 RMSDP=8.68D-08 MaxDP=6.30D-07 DE=-3.85D-10 OVMax= 1.66D-06

 Cycle  10  Pass 1  IDiag  1:
 E= -76.4218475887339     Delta-E=       -0.000000000009 Rises=F Damp=F
 DIIS: error= 8.19D-08 at cycle   5 NSaved=   5.
 NSaved= 5 IEnMin= 5 EnMin= -76.4218475887339     IErMin= 5 ErrMin= 8.19D-08
 ErrMax= 8.19D-08  0.00D+00 EMaxC= 1.00D-01 BMatC= 2.24D-13 BMatP= 4.72D-12
 IDIUse=1 WtCom= 1.00D+00 WtEn= 0.00D+00
 Coeff-Com:  0.342D-02-0.452D-01-0.367D-01 0.120D+00 0.959D+00
 Coeff:      0.342D-02-0.452D-01-0.367D-01 0.120D+00 0.959D+00
 Gap=     0.464 Goal=   None    Shift=    0.000
 RMSDP=2.18D-08 MaxDP=1.62D-07 DE=-8.53D-12 OVMax= 4.46D-07

 Cycle  11  Pass 1  IDiag  1:
 E= -76.4218475887344     Delta-E=       -0.000000000000 Rises=F Damp=F
 DIIS: error= 6.27D-09 at cycle   6 NSaved=   6.
 NSaved= 6 IEnMin= 6 EnMin= -76.4218475887344     IErMin= 6 ErrMin= 6.27D-09
 ErrMax= 6.27D-09  0.00D+00 EMaxC= 1.00D-01 BMatC= 1.49D-15 BMatP= 2.24D-13
 IDIUse=1 WtCom= 1.00D+00 WtEn= 0.00D+00
 Coeff-Com: -0.122D-03 0.268D-02 0.143D-02-0.193D-01-0.509D-01 0.107D+01
 Coeff:     -0.122D-03 0.268D-02 0.143D-02-0.193D-01-0.509D-01 0.107D+01
 Gap=     0.464 Goal=   None    Shift=    0.000
 RMSDP=2.42D-09 MaxDP=2.56D-08 DE=-4.26D-13 OVMax= 4.75D-08

 SCF Done:  E(RM062X) =  -76.4218475887     A.U. after   11 cycles
            NFock= 11  Conv=0.24D-08     -V/T= 2.0028
 KE= 7.621027840354D+01 PE=-1.991515563297D+02 EE= 3.737374990498D+01
 Leave Link  502 at Sat Dec 17 23:53:25 2022, MaxMem= 13421772800 cpu:               8.6 elap:               0.4
 (Enter /data0/home/software/g16/l601.exe)
 Copying SCF densities to generalized density rwf, IOpCl= 0 IROHF=0.

 **********************************************************************

            Population analysis using the SCF density.

 **********************************************************************

 Alpha  occ. eigenvalues --  -19.62454  -1.13446  -0.61278  -0.47244  -0.39984
 Alpha virt. eigenvalues --    0.06396   0.13387   0.17356   0.17950   0.18984
 Alpha virt. eigenvalues --    0.23106   0.51628   0.53647   0.97620   1.00139
 Alpha virt. eigenvalues --    1.06073   1.19696   1.19738   1.33045   1.33610
 Alpha virt. eigenvalues --    1.68901   1.74037   1.76414   2.07748   2.09787
 Alpha virt. eigenvalues --    2.34123   2.45103   2.54061   2.89561   3.01452
 Alpha virt. eigenvalues --    5.05764   5.47232   5.95681   6.78029   6.80489
 Alpha virt. eigenvalues --    6.86518   6.91706   7.09367  49.96494
          Condensed to atoms (all electrons):
               7          8          9
     7  O    7.910848   0.323213   0.326495
     8  H    0.323213   0.420193  -0.025186
     9  H    0.326495  -0.025186   0.419914
 Mulliken charges:
               1
     1  O    0.000000
     2  H    0.000000
     3  H    0.000000
     4  O    0.000000
     5  H    0.000000
     6  H    0.000000
     7  O   -0.560556
     8  H    0.281780
     9  H    0.278776
 Sum of Mulliken charges =   0.00000
 Mulliken charges with hydrogens summed into heavy atoms:
               1
     1  O    0.000000
     4  O    0.000000
     7  O    0.000000
         Mulliken charges condensed to fragments:
      1      0.000000
      2      0.000000
      3      0.000000
 Electronic spatial extent (au):  <R**2>=          12875.0814
 Charge=              0.0000 electrons
 Dipole moment (field-independent basis, Debye):
    X=             -0.0999    Y=              0.4526    Z=             -2.0332  Tot=              2.0854
 Quadrupole moment (field-independent basis, Debye-Ang):
   XX=             -7.6885   YY=              6.8267   ZZ=            -45.5709
   XY=              0.5605   XZ=            -17.7007   YZ=            -24.3298
 Traceless Quadrupole moment (field-independent basis, Debye-Ang):
   XX=              7.7891   YY=             22.3042   ZZ=            -30.0933
   XY=              0.5605   XZ=            -17.7007   YZ=            -24.3298
 Octapole moment (field-independent basis, Debye-Ang**2):
  XXX=           -165.9781  YYY=             17.4160  ZZZ=           -752.6687  XYY=            -12.6087
  XXY=           -106.3875  XXZ=           -212.6938  XZZ=           -382.8773  YZZ=           -601.7909
  YYZ=           -339.9269  XYZ=           -230.4033
 Hexadecapole moment (field-independent basis, Debye-Ang**3):
 XXXX=          -2570.8317 YYYY=          -2093.1042 ZZZZ=         -10906.9914 XXXY=          -2438.4848
 XXXZ=          -2753.3963 YYYX=          -1159.3565 YYYZ=          -5581.2853 ZZZX=          -6240.6315
 ZZZY=         -10238.0076 XXYY=          -1866.2434 XXZZ=          -3795.1306 YYZZ=          -8480.5341
 XXYZ=          -2974.9334 YYXZ=          -3450.1646 ZZXY=          -5218.7498
 N-N= 9.145680432479D+00 E-N=-1.991515563323D+02  KE= 7.621027840354D+01
 No NMR shielding tensors so no spin-rotation constants.
 Leave Link  601 at Sat Dec 17 23:53:26 2022, MaxMem= 13421772800 cpu:               1.8 elap:               0.1
 (Enter /data0/home/software/g16/l122.exe)
 CPIOFr:  IOpCl= 0 IRwI=-1 IRwCP=  731 ICalc=  6 LCPTot=       22668 Len1MO=       57607 IndFrg=      425917
 Restoring MOs from calculation   1 to rwf.
 CPIOFr:  IOpCl= 0 IRwI=-2 IRwCP=  731 ICalc=  0 LCPTot=       22668 Len1MO=       57607 IndFrg=       80275
 Counterpoise corrected energy =    -229.278728206615
                   BSSE energy =       0.001820735516
              sum of fragments =    -229.265539616229
           complexation energy =      -9.42 kcal/mole (raw)
           complexation energy =      -8.28 kcal/mole (corrected)
 Leave Link  122 at Sat Dec 17 23:53:26 2022, MaxMem= 13421772800 cpu:               0.1 elap:               0.0
 (Enter /data0/home/software/g16/l9999.exe)
 1\1\GINC-LOCALHOST\SP\RM062X\6-311+G(2d,p)\H6O3\WUHANYU\17-Dec-2022\0\
 \#p M062X/6-311+G(2d,p) nosymm em=GD3 counterpoise=3\\Title Card Requi
 red\\0,1\O,0,11.800036,11.643124,8.70156\H,0,11.777571,11.742316,9.658
 569\H,0,11.050758,12.161268,8.377826\O,0,9.371413,12.779511,7.698174\H
 ,0,9.412348,12.899635,6.749854\H,0,9.058995,11.859174,7.817931\O,0,8.0
 32453,14.185749,9.75806\H,0,8.539685,13.778797,9.036095\H,0,7.473968,1
 4.839972,9.348873\\Version=ES64L-G16RevA.03\HF=-76.4218476\RMSD=2.424e
 -09\Dipole=-0.8194157,0.0049891,-1.1866854\Quadrupole=-10.8417715,23.8
 07123,-12.9653515,-17.7755659,-29.8073721,-31.0463073\PG=C01 [X(H6O3)]
 \\@


 I SUPPOSE A BABY LLAMA HAS A MMAMA AND A PPOPA.
     -- RICHARD AMOUR
 Job cpu time:       0 days  0 hours  4 minutes 11.4 seconds.
 Elapsed time:       0 days  0 hours  0 minutes 12.6 seconds.
 File lengths (MBytes):  RWF=     15 Int=      0 D2E=      0 Chk=      5 Scr=      1
 Normal termination of Gaussian 16 at Sat Dec 17 23:53:26 2022.
