
    -----------------------------------------------------------------------
          Psi4: An Open-Source Ab Initio Electronic Structure Package
                               Psi4 1.3.2 release

                         Git: Rev {HEAD} ecbda83 


    R. M. Parrish, L. A. Burns, D. G. A. Smith, A. C. Simmonett,
    A. E. DePrince III, E. G. Hohenstein, U. Bozkaya, A. Yu. Sokolov,
    R. Di Remigio, R. M. Richard, J. F. Gonthier, A. M. James,
    H. R. McAlexander, A. Kumar, M. Saitow, X. Wang, B. P. Pritchard,
    P. Verma, H. F. Schaefer III, K. Patkowski, R. A. King, E. F. Valeev,
    F. A. Evangelista, J. M. Turney, T. D. Crawford, and C. D. Sherrill,
    J. Chem. Theory Comput. 13(7) pp 3185--3197 (2017).
    (doi: 10.1021/acs.jctc.7b00174)


                         Additional Contributions by
    P. Kraus, H. Kruse, M. H. Lechner, M. C. Schieber, R. A. Shaw,
    A. Alenaizan, R. Galvelis, Z. L. Glick, S. Lehtola, and J. P. Misiewicz

    -----------------------------------------------------------------------


    Psi4 started on: Wednesday, 08 June 2022 02:31PM

    Process ID: 3743456
    Host:       localhost.localdomain
    PSIDATADIR: /data0/home/wuhanyu/software/psi4_132/share/psi4
    Memory:     500.0 MiB
    Threads:    24
    
  ==> Input File <==

--------------------------------------------------------------------------
memory 200 GB

molecule dimer {
0 1
C      3.52200000   17.10600100   17.58099900
C      2.68400000   17.52400000   16.53500000
C      2.06700000   18.77400000   16.61100000
C      2.34900000   19.60700000   17.70400000
C      3.21200000   19.17799900   18.69899900
H      1.38800000   19.11200000   15.81900000
H      4.01100000   16.12000100   17.55800100
H      1.93700000   20.62100000   17.73500100
H      3.49700000   19.82200100   19.53599900
C      2.55100000   16.65600000   15.34100000
H      2.18600000   15.64900000   15.57200000
H      1.90000000   17.09000000   14.56700000
H      3.54600000   16.54500000   14.85000000
N      3.75500000   17.92100000   18.64300000
C      4.64500000   17.47100100   19.73700000
H      4.19500000   17.77000000   20.71200000
H      4.69200000   16.35700000   19.74099900
C      6.06400000   18.05100100   19.60600100
H      6.02900000   19.15099900   19.43000000
H      6.59000000   17.92300000   20.57399900
C      6.87000000   17.39300000   18.48900000
H      7.95500000   17.54100000   18.64900000
H      6.70800000   16.30699900   18.42900100
C      6.48700000   18.06800100   17.15900000
O      6.97800000   19.18000000   16.93700000
O      5.66200000   17.45200000   16.44500000
--
0 1
P      4.53400000   20.24099900   14.67900000
O      3.42400000   20.49099900   15.60900000
O      4.21400000   20.93400000   13.27400000
H      5.02000000   20.75700000   12.65600000
O      5.94500000   20.83300000   15.07300000
H      6.38700000   20.18700000   15.81100000
O      4.75300000   18.71900000   14.28600000
H      5.17600000   18.20000100   15.13200000
}

set {
    scf_type DF
    freeze_core True
    basis aug-cc-pVTZ
}

energy('sapt2+(3)dmp2')
--------------------------------------------------------------------------

  Memory set to 186.265 GiB by Python driver.

  //>>>>>>>>>>>>>>>>>>>>>>>>>>>>>>>>>>>//
  //              Dimer HF             //
  //<<<<<<<<<<<<<<<<<<<<<<<<<<<<<<<<<<<//


*** tstart() called on localhost.localdomain
*** at Wed Jun  8 14:31:12 2022

   => Loading Basis Set <=

    Name: AUG-CC-PVTZ
    Role: ORBITAL
    Keyword: BASIS
    atoms 1-5, 10, 15, 18, 21, 24                     entry C          line   235 file /data0/home/wuhanyu/software/psi4_132/share/psi4/basis/aug-cc-pvtz.gbs 
    atoms 6-9, 11-13, 16-17, 19-20, 22-23, 30, 32, 34 entry H          line    36 file /data0/home/wuhanyu/software/psi4_132/share/psi4/basis/aug-cc-pvtz.gbs 
    atoms 14                                          entry N          line   281 file /data0/home/wuhanyu/software/psi4_132/share/psi4/basis/aug-cc-pvtz.gbs 
    atoms 25-26, 28-29, 31, 33                        entry O          line   327 file /data0/home/wuhanyu/software/psi4_132/share/psi4/basis/aug-cc-pvtz.gbs 
    atoms 27                                          entry P          line   820 file /data0/home/wuhanyu/software/psi4_132/share/psi4/basis/aug-cc-pvtz.gbs 


         ---------------------------------------------------------
                                   SCF
               by Justin Turney, Rob Parrish, Andy Simmonett
                          and Daniel G. A. Smith
                              RHF Reference
                       24 Threads, 190734 MiB Core
         ---------------------------------------------------------

  ==> Geometry <==

    Molecular point group: c1
    Full point group: C1

    Geometry (in Angstrom), charge = 0, multiplicity = 1:

       Center              X                  Y                   Z               Mass       
    ------------   -----------------  -----------------  -----------------  -----------------
         C           -0.973811447238    -1.691981028133     1.015882967976    12.000000000000
         C           -1.811811447238    -1.273982028133    -0.030116032024    12.000000000000
         C           -2.428811447238    -0.023982028133     0.045883967976    12.000000000000
         C           -2.146811447238     0.809017971867     1.138883967976    12.000000000000
         C           -1.283811447238     0.380016971867     2.133882967976    12.000000000000
         H           -3.107811447238     0.314017971867    -0.746116032024     1.007825032230
         H           -0.484811447238    -2.677981028133     0.992884967976     1.007825032230
         H           -2.558811447238     1.823017971867     1.169884967976     1.007825032230
         H           -0.998811447238     1.024018971867     2.970882967976     1.007825032230
         C           -1.944811447238    -2.141982028133    -1.224116032024    12.000000000000
         H           -2.309811447238    -3.148982028133    -0.993116032024     1.007825032230
         H           -2.595811447238    -1.707982028133    -1.998116032024     1.007825032230
         H           -0.949811447238    -2.252982028133    -1.715116032024     1.007825032230
         N           -0.740811447238    -0.876982028133     2.077883967976    14.003074004430
         C            0.149188552762    -1.326981028133     3.171883967976    12.000000000000
         H           -0.300811447238    -1.027982028133     4.146883967976     1.007825032230
         H            0.196188552762    -2.440982028133     3.175882967976     1.007825032230
         C            1.568188552762    -0.746981028133     3.040884967976    12.000000000000
         H            1.533188552762     0.353016971867     2.864883967976     1.007825032230
         H            2.094188552762    -0.874982028133     4.008882967976     1.007825032230
         C            2.374188552762    -1.404982028133     1.923883967976    12.000000000000
         H            3.459188552762    -1.256982028133     2.083883967976     1.007825032230
         H            2.212188552762    -2.490983028133     1.863884967976     1.007825032230
         C            1.991188552762    -0.729981028133     0.593883967976    12.000000000000
         O            2.482188552762     0.382017971867     0.371883967976    15.994914619570
         O            1.166188552762    -1.345982028133    -0.120116032024    15.994914619570
         P            0.038188552762     1.443016971867    -1.886116032024    30.973761998420
         O           -1.071811447238     1.693016971867    -0.956116032024    15.994914619570
         O           -0.281811447238     2.136017971867    -3.291116032024    15.994914619570
         H            0.524188552762     1.959017971867    -3.909116032024     1.007825032230
         O            1.449188552762     2.035017971867    -1.492116032024    15.994914619570
         H            1.891188552762     1.389017971867    -0.754116032024     1.007825032230
         O            0.257188552762    -0.078982028133    -2.279116032024    15.994914619570
         H            0.680188552762    -0.597981028133    -1.433116032024     1.007825032230

  Running in c1 symmetry.

  Rotational constants: A =      0.01849  B =      0.01139  C =      0.00926 [cm^-1]
  Rotational constants: A =    554.34068  B =    341.51524  C =    277.46002 [MHz]
  Nuclear repulsion = 1685.528216953890478

  Charge       = 0
  Multiplicity = 1
  Electrons    = 146
  Nalpha       = 73
  Nbeta        = 73

  ==> Algorithm <==

  SCF Algorithm Type is DF.
  DIIS enabled.
  MOM disabled.
  Fractional occupation disabled.
  Guess Type is SAD.
  Energy threshold   = 1.00e-08
  Density threshold  = 1.00e-08
  Integral threshold = 0.00e+00

  ==> Primary Basis <==

  Basis Set: AUG-CC-PVTZ
    Blend: AUG-CC-PVTZ
    Number of shells: 398
    Number of basis function: 1200
    Number of Cartesian functions: 1394
    Spherical Harmonics?: true
    Max angular momentum: 3

   => Loading Basis Set <=

    Name: (AUG-CC-PVTZ AUX)
    Role: JKFIT
    Keyword: DF_BASIS_SCF
    atoms 1-5, 10, 15, 18, 21, 24                     entry C          line   162 file /data0/home/wuhanyu/software/psi4_132/share/psi4/basis/aug-cc-pvtz-jkfit.gbs 
    atoms 6-9, 11-13, 16-17, 19-20, 22-23, 30, 32, 34 entry H          line    70 file /data0/home/wuhanyu/software/psi4_132/share/psi4/basis/aug-cc-pvtz-jkfit.gbs 
    atoms 14                                          entry N          line   224 file /data0/home/wuhanyu/software/psi4_132/share/psi4/basis/aug-cc-pvtz-jkfit.gbs 
    atoms 25-26, 28-29, 31, 33                        entry O          line   286 file /data0/home/wuhanyu/software/psi4_132/share/psi4/basis/aug-cc-pvtz-jkfit.gbs 
    atoms 27                                          entry P          line   644 file /data0/home/wuhanyu/software/psi4_132/share/psi4/basis/aug-cc-pvtz-jkfit.gbs 

  ==> Pre-Iterations <==

   -------------------------------------------------------
    Irrep   Nso     Nmo     Nalpha   Nbeta   Ndocc  Nsocc
   -------------------------------------------------------
     A       1200    1200       0       0       0       0
   -------------------------------------------------------
    Total    1200    1200      73      73      73       0
   -------------------------------------------------------

  ==> Integral Setup <==

  ==> DiskDFJK: Density-Fitted J/K Matrices <==

    J tasked:                  Yes
    K tasked:                  Yes
    wK tasked:                  No
    OpenMP threads:             24
    Integrals threads:          24
    Memory [MiB]:           143051
    Algorithm:                Core
    Integral Cache:           SAVE
    Schwarz Cutoff:          1E-12
    Fitting Condition:       1E-10

   => Auxiliary Basis Set <=

  Basis Set: (AUG-CC-PVTZ AUX)
    Blend: AUG-CC-PVTZ-JKFIT
    Number of shells: 776
    Number of basis function: 2650
    Number of Cartesian functions: 3287
    Spherical Harmonics?: true
    Max angular momentum: 4

  Minimum eigenvalue in the overlap matrix is 6.2768985875E-07.
  Using Symmetric Orthogonalization.

  SCF Guess: Superposition of Atomic Densities via on-the-fly atomic UHF.

  ==> Iterations <==

                           Total Energy        Delta E     RMS |[F,P]|

   @DF-RHF iter SAD: -1231.91929325057095   -1.23192e+03   0.00000e+00 
   @DF-RHF iter   1: -1232.20930934940588   -2.90016e-01   9.56461e-04 DIIS
   @DF-RHF iter   2: -1232.65779941285427   -4.48490e-01   5.61433e-04 DIIS
   @DF-RHF iter   3: -1232.81732587593660   -1.59526e-01   9.52775e-05 DIIS
   @DF-RHF iter   4: -1232.82478165725297   -7.45578e-03   4.64602e-05 DIIS
   @DF-RHF iter   5: -1232.82639703117707   -1.61537e-03   9.04237e-06 DIIS
   @DF-RHF iter   6: -1232.82651325421716   -1.16223e-04   3.99179e-06 DIIS
   @DF-RHF iter   7: -1232.82654274116067   -2.94869e-05   1.68062e-06 DIIS
   @DF-RHF iter   8: -1232.82655130937428   -8.56821e-06   9.24945e-07 DIIS
   @DF-RHF iter   9: -1232.82655458720751   -3.27783e-06   3.87363e-07 DIIS
   @DF-RHF iter  10: -1232.82655511500798   -5.27800e-07   1.33639e-07 DIIS
   @DF-RHF iter  11: -1232.82655515927263   -4.42647e-08   4.50165e-08 DIIS
   @DF-RHF iter  12: -1232.82655516233604   -3.06341e-09   1.78060e-08 DIIS
   @DF-RHF iter  13: -1232.82655516271825   -3.82215e-10   5.73162e-09 DIIS
  Energy and wave function converged.


  ==> Post-Iterations <==

    Orbital Energies [Eh]
    ---------------------

    Doubly Occupied:                                                      

       1A    -80.058026     2A    -20.569457     3A    -20.542991  
       4A    -20.541961     5A    -20.509791     6A    -20.505864  
       7A    -20.474447     8A    -15.689863     9A    -11.344773  
      10A    -11.341494    11A    -11.328236    12A    -11.323073  
      13A    -11.295343    14A    -11.272136    15A    -11.271787  
      16A    -11.262969    17A    -11.237281    18A    -11.236771  
      19A     -7.575517    20A     -5.474208    21A     -5.473403  
      22A     -5.472724    23A     -1.408031    24A     -1.397460  
      25A     -1.358805    26A     -1.323834    27A     -1.314369  
      28A     -1.292705    29A     -1.268174    30A     -1.155095  
      31A     -1.095493    32A     -1.085824    33A     -0.993706  
      34A     -0.975983    35A     -0.904773    36A     -0.880323  
      37A     -0.842066    38A     -0.788456    39A     -0.754900  
      40A     -0.737080    41A     -0.726448    42A     -0.710732  
      43A     -0.698884    44A     -0.684279    45A     -0.675099  
      46A     -0.656758    47A     -0.647992    48A     -0.633761  
      49A     -0.628869    50A     -0.625963    51A     -0.613072  
      52A     -0.592283    53A     -0.589907    54A     -0.577520  
      55A     -0.571801    56A     -0.568818    57A     -0.555140  
      58A     -0.552862    59A     -0.549554    60A     -0.537641  
      61A     -0.528458    62A     -0.517446    63A     -0.514508  
      64A     -0.509734    65A     -0.499030    66A     -0.486672  
      67A     -0.451644    68A     -0.435141    69A     -0.429475  
      70A     -0.423271    71A     -0.408655    72A     -0.384446  
      73A     -0.360225  

    Virtual:                                                              

      74A      0.010799    75A      0.023178    76A      0.027235  
      77A      0.033286    78A      0.039806    79A      0.041618  
      80A      0.045889    81A      0.049269    82A      0.051737  
      83A      0.053452    84A      0.059452    85A      0.060498  
      86A      0.066098    87A      0.072960    88A      0.077971  
      89A      0.081899    90A      0.084967    91A      0.088360  
      92A      0.089093    93A      0.092691    94A      0.093274  
      95A      0.104488    96A      0.107463    97A      0.110805  
      98A      0.112390    99A      0.114705   100A      0.116434  
     101A      0.117910   102A      0.121464   103A      0.125819  
     104A      0.126929   105A      0.130827   106A      0.132749  
     107A      0.138969   108A      0.143169   109A      0.147870  
     110A      0.149952   111A      0.151482   112A      0.153321  
     113A      0.157324   114A      0.160306   115A      0.164265  
     116A      0.166947   117A      0.169378   118A      0.170575  
     119A      0.174701   120A      0.179888   121A      0.182307  
     122A      0.187683   123A      0.191936   124A      0.194671  
     125A      0.199211   126A      0.200750   127A      0.207435  
     128A      0.210838   129A      0.215058   130A      0.218638  
     131A      0.225111   132A      0.228513   133A      0.233215  
     134A      0.233999   135A      0.237844   136A      0.241096  
     137A      0.241675   138A      0.245000   139A      0.247145  
     140A      0.253302   141A      0.255915   142A      0.258178  
     143A      0.260484   144A      0.263252   145A      0.268768  
     146A      0.269839   147A      0.273755   148A      0.277296  
     149A      0.280046   150A      0.281345   151A      0.283208  
     152A      0.283581   153A      0.289363   154A      0.296081  
     155A      0.298796   156A      0.302669   157A      0.305237  
     158A      0.308329   159A      0.310861   160A      0.316946  
     161A      0.321253   162A      0.323752   163A      0.326526  
     164A      0.328870   165A      0.332016   166A      0.335792  
     167A      0.338596   168A      0.340806   169A      0.342974  
     170A      0.348167   171A      0.348369   172A      0.354914  
     173A      0.357627   174A      0.359176   175A      0.362262  
     176A      0.365321   177A      0.369280   178A      0.371103  
     179A      0.373331   180A      0.375504   181A      0.381991  
     182A      0.383582   183A      0.387071   184A      0.392395  
     185A      0.393420   186A      0.400431   187A      0.404158  
     188A      0.405345   189A      0.412474   190A      0.414346  
     191A      0.416983   192A      0.419688   193A      0.422660  
     194A      0.424686   195A      0.428262   196A      0.431125  
     197A      0.434221   198A      0.440538   199A      0.442052  
     200A      0.447391   201A      0.448385   202A      0.452566  
     203A      0.456917   204A      0.459908   205A      0.460204  
     206A      0.461581   207A      0.464416   208A      0.468234  
     209A      0.471550   210A      0.475009   211A      0.476641  
     212A      0.478697   213A      0.482111   214A      0.483899  
     215A      0.486313   216A      0.489669   217A      0.492527  
     218A      0.494642   219A      0.498293   220A      0.500166  
     221A      0.503128   222A      0.504744   223A      0.507697  
     224A      0.509729   225A      0.512513   226A      0.513787  
     227A      0.519510   228A      0.519909   229A      0.522376  
     230A      0.526230   231A      0.530358   232A      0.534207  
     233A      0.536572   234A      0.539871   235A      0.543036  
     236A      0.546223   237A      0.550039   238A      0.553132  
     239A      0.554941   240A      0.556679   241A      0.559460  
     242A      0.560797   243A      0.565547   244A      0.568606  
     245A      0.571907   246A      0.575608   247A      0.576958  
     248A      0.581524   249A      0.586272   250A      0.587649  
     251A      0.588893   252A      0.597552   253A      0.600350  
     254A      0.603138   255A      0.605054   256A      0.611624  
     257A      0.613940   258A      0.614845   259A      0.621079  
     260A      0.621405   261A      0.623412   262A      0.625080  
     263A      0.636314   264A      0.639874   265A      0.643691  
     266A      0.647123   267A      0.650900   268A      0.651888  
     269A      0.657871   270A      0.663709   271A      0.666846  
     272A      0.670852   273A      0.673501   274A      0.681375  
     275A      0.687944   276A      0.690313   277A      0.692134  
     278A      0.699664   279A      0.700942   280A      0.705850  
     281A      0.708119   282A      0.716321   283A      0.717710  
     284A      0.721324   285A      0.729144   286A      0.731777  
     287A      0.733836   288A      0.740829   289A      0.743967  
     290A      0.747766   291A      0.749257   292A      0.754003  
     293A      0.758368   294A      0.764434   295A      0.767716  
     296A      0.771474   297A      0.778152   298A      0.781157  
     299A      0.788391   300A      0.791923   301A      0.793299  
     302A      0.798294   303A      0.802967   304A      0.808326  
     305A      0.812405   306A      0.816051   307A      0.824118  
     308A      0.828618   309A      0.830075   310A      0.832867  
     311A      0.836691   312A      0.837323   313A      0.844700  
     314A      0.851870   315A      0.853729   316A      0.854984  
     317A      0.866504   318A      0.870078   319A      0.873776  
     320A      0.878513   321A      0.879956   322A      0.882983  
     323A      0.883771   324A      0.890451   325A      0.893498  
     326A      0.895542   327A      0.899957   328A      0.908940  
     329A      0.909941   330A      0.913931   331A      0.915910  
     332A      0.921206   333A      0.927372   334A      0.930000  
     335A      0.930527   336A      0.934300   337A      0.940707  
     338A      0.942566   339A      0.943606   340A      0.948121  
     341A      0.952008   342A      0.953497   343A      0.959396  
     344A      0.967094   345A      0.970140   346A      0.975112  
     347A      0.975532   348A      0.980812   349A      0.983703  
     350A      0.985329   351A      0.990581   352A      0.993479  
     353A      0.998486   354A      1.005287   355A      1.006404  
     356A      1.012189   357A      1.014083   358A      1.016783  
     359A      1.019800   360A      1.020301   361A      1.027792  
     362A      1.028707   363A      1.031836   364A      1.038143  
     365A      1.038661   366A      1.041203   367A      1.045447  
     368A      1.052237   369A      1.056347   370A      1.063749  
     371A      1.067287   372A      1.069160   373A      1.073736  
     374A      1.077341   375A      1.084552   376A      1.085422  
     377A      1.091046   378A      1.093307   379A      1.100758  
     380A      1.101819   381A      1.109793   382A      1.112987  
     383A      1.116293   384A      1.120915   385A      1.122867  
     386A      1.126654   387A      1.130667   388A      1.134879  
     389A      1.140708   390A      1.142237   391A      1.146292  
     392A      1.148960   393A      1.152475   394A      1.155111  
     395A      1.158051   396A      1.164616   397A      1.168762  
     398A      1.172375   399A      1.177873   400A      1.180432  
     401A      1.185637   402A      1.189182   403A      1.193882  
     404A      1.194475   405A      1.198367   406A      1.199783  
     407A      1.203947   408A      1.209555   409A      1.212665  
     410A      1.213816   411A      1.216480   412A      1.223918  
     413A      1.226530   414A      1.232025   415A      1.232666  
     416A      1.240019   417A      1.241778   418A      1.248300  
     419A      1.251923   420A      1.254828   421A      1.256774  
     422A      1.260487   423A      1.267352   424A      1.271515  
     425A      1.273256   426A      1.276750   427A      1.283968  
     428A      1.289771   429A      1.294741   430A      1.298758  
     431A      1.305275   432A      1.306053   433A      1.312209  
     434A      1.313774   435A      1.319547   436A      1.321988  
     437A      1.328546   438A      1.332371   439A      1.336901  
     440A      1.338540   441A      1.343779   442A      1.349321  
     443A      1.353631   444A      1.358670   445A      1.366514  
     446A      1.366751   447A      1.372454   448A      1.373535  
     449A      1.380932   450A      1.383011   451A      1.388948  
     452A      1.393172   453A      1.402172   454A      1.410559  
     455A      1.414019   456A      1.418312   457A      1.421009  
     458A      1.427941   459A      1.429405   460A      1.433411  
     461A      1.435832   462A      1.442571   463A      1.445373  
     464A      1.450030   465A      1.454415   466A      1.467320  
     467A      1.468821   468A      1.471032   469A      1.478318  
     470A      1.481886   471A      1.483039   472A      1.493295  
     473A      1.501384   474A      1.507606   475A      1.508592  
     476A      1.514818   477A      1.519375   478A      1.522817  
     479A      1.525070   480A      1.529968   481A      1.536058  
     482A      1.536250   483A      1.541107   484A      1.547972  
     485A      1.552819   486A      1.556235   487A      1.559540  
     488A      1.567141   489A      1.572278   490A      1.574449  
     491A      1.578497   492A      1.581518   493A      1.586045  
     494A      1.588222   495A      1.593263   496A      1.597077  
     497A      1.602046   498A      1.612615   499A      1.613160  
     500A      1.618073   501A      1.621360   502A      1.631570  
     503A      1.633079   504A      1.634329   505A      1.642719  
     506A      1.646487   507A      1.649319   508A      1.656439  
     509A      1.661779   510A      1.664215   511A      1.664900  
     512A      1.676670   513A      1.677832   514A      1.681672  
     515A      1.686119   516A      1.694535   517A      1.696185  
     518A      1.702621   519A      1.703962   520A      1.708638  
     521A      1.716024   522A      1.720288   523A      1.724284  
     524A      1.729422   525A      1.738649   526A      1.742797  
     527A      1.743535   528A      1.749002   529A      1.757811  
     530A      1.763213   531A      1.768041   532A      1.771035  
     533A      1.774569   534A      1.782411   535A      1.783345  
     536A      1.786163   537A      1.792999   538A      1.796475  
     539A      1.804526   540A      1.805802   541A      1.812592  
     542A      1.817470   543A      1.820685   544A      1.821616  
     545A      1.829186   546A      1.831376   547A      1.836694  
     548A      1.840048   549A      1.844240   550A      1.846984  
     551A      1.852938   552A      1.858716   553A      1.859743  
     554A      1.866112   555A      1.875368   556A      1.879261  
     557A      1.884833   558A      1.888459   559A      1.897771  
     560A      1.900553   561A      1.907113   562A      1.914113  
     563A      1.919361   564A      1.921635   565A      1.927501  
     566A      1.930938   567A      1.941605   568A      1.942647  
     569A      1.944690   570A      1.950444   571A      1.957057  
     572A      1.962160   573A      1.968330   574A      1.976266  
     575A      1.983589   576A      1.986642   577A      1.993307  
     578A      1.999037   579A      2.004484   580A      2.004877  
     581A      2.015487   582A      2.017854   583A      2.019334  
     584A      2.032234   585A      2.036156   586A      2.042313  
     587A      2.045273   588A      2.052928   589A      2.057162  
     590A      2.063741   591A      2.064830   592A      2.071261  
     593A      2.080013   594A      2.084749   595A      2.087746  
     596A      2.094424   597A      2.099718   598A      2.104471  
     599A      2.112521   600A      2.117121   601A      2.127469  
     602A      2.130891   603A      2.138133   604A      2.142718  
     605A      2.147758   606A      2.154289   607A      2.155080  
     608A      2.163941   609A      2.166383   610A      2.169435  
     611A      2.177595   612A      2.178827   613A      2.183567  
     614A      2.195397   615A      2.198398   616A      2.211706  
     617A      2.222064   618A      2.228056   619A      2.230312  
     620A      2.239291   621A      2.242508   622A      2.252240  
     623A      2.253719   624A      2.266245   625A      2.269404  
     626A      2.272633   627A      2.273533   628A      2.289596  
     629A      2.292792   630A      2.296512   631A      2.302995  
     632A      2.308808   633A      2.318162   634A      2.324017  
     635A      2.328542   636A      2.341378   637A      2.343871  
     638A      2.348213   639A      2.356007   640A      2.361328  
     641A      2.368835   642A      2.375434   643A      2.378921  
     644A      2.384125   645A      2.388334   646A      2.391270  
     647A      2.393340   648A      2.398900   649A      2.418470  
     650A      2.419696   651A      2.426043   652A      2.431947  
     653A      2.434916   654A      2.441331   655A      2.445268  
     656A      2.455344   657A      2.465494   658A      2.467312  
     659A      2.474536   660A      2.478685   661A      2.486435  
     662A      2.491862   663A      2.500318   664A      2.503861  
     665A      2.509691   666A      2.517959   667A      2.525091  
     668A      2.535106   669A      2.538391   670A      2.543177  
     671A      2.555800   672A      2.557162   673A      2.564313  
     674A      2.567769   675A      2.576503   676A      2.583648  
     677A      2.591739   678A      2.595438   679A      2.602435  
     680A      2.608922   681A      2.612199   682A      2.624522  
     683A      2.635648   684A      2.641954   685A      2.650012  
     686A      2.658297   687A      2.661085   688A      2.667957  
     689A      2.677913   690A      2.679232   691A      2.684430  
     692A      2.690521   693A      2.696535   694A      2.708052  
     695A      2.715859   696A      2.716579   697A      2.722991  
     698A      2.735281   699A      2.743020   700A      2.755776  
     701A      2.766693   702A      2.770261   703A      2.773961  
     704A      2.783376   705A      2.791516   706A      2.799448  
     707A      2.804624   708A      2.816911   709A      2.825880  
     710A      2.833671   711A      2.841537   712A      2.849317  
     713A      2.857818   714A      2.870613   715A      2.885812  
     716A      2.886682   717A      2.891589   718A      2.899200  
     719A      2.901081   720A      2.911720   721A      2.920424  
     722A      2.929279   723A      2.941941   724A      2.949995  
     725A      2.955536   726A      2.958281   727A      2.973724  
     728A      2.978736   729A      2.989224   730A      3.000219  
     731A      3.007104   732A      3.010641   733A      3.027956  
     734A      3.042017   735A      3.052472   736A      3.059894  
     737A      3.065222   738A      3.077133   739A      3.082482  
     740A      3.091730   741A      3.115429   742A      3.119058  
     743A      3.137142   744A      3.148521   745A      3.154415  
     746A      3.174396   747A      3.183213   748A      3.198517  
     749A      3.207378   750A      3.214980   751A      3.228996  
     752A      3.236270   753A      3.245557   754A      3.257626  
     755A      3.268133   756A      3.295331   757A      3.299855  
     758A      3.312230   759A      3.328418   760A      3.330986  
     761A      3.340906   762A      3.347789   763A      3.362031  
     764A      3.378422   765A      3.389651   766A      3.402435  
     767A      3.417197   768A      3.437142   769A      3.440871  
     770A      3.451997   771A      3.459985   772A      3.463998  
     773A      3.474695   774A      3.475351   775A      3.492295  
     776A      3.502901   777A      3.509433   778A      3.518747  
     779A      3.525894   780A      3.537291   781A      3.543893  
     782A      3.546593   783A      3.553066   784A      3.568463  
     785A      3.573753   786A      3.577121   787A      3.587720  
     788A      3.592968   789A      3.599289   790A      3.605132  
     791A      3.609581   792A      3.617525   793A      3.627625  
     794A      3.633969   795A      3.638204   796A      3.644759  
     797A      3.651172   798A      3.655255   799A      3.662666  
     800A      3.673357   801A      3.675855   802A      3.699643  
     803A      3.701091   804A      3.703439   805A      3.712486  
     806A      3.716740   807A      3.724084   808A      3.729553  
     809A      3.737136   810A      3.740683   811A      3.750071  
     812A      3.756118   813A      3.771308   814A      3.780199  
     815A      3.787139   816A      3.793455   817A      3.798460  
     818A      3.805804   819A      3.808007   820A      3.822273  
     821A      3.830435   822A      3.838439   823A      3.840513  
     824A      3.850117   825A      3.858557   826A      3.866702  
     827A      3.875351   828A      3.878572   829A      3.883590  
     830A      3.890094   831A      3.894985   832A      3.904337  
     833A      3.905799   834A      3.914849   835A      3.923388  
     836A      3.934581   837A      3.939948   838A      3.943068  
     839A      3.953981   840A      3.958429   841A      3.967242  
     842A      3.977232   843A      3.983284   844A      3.987550  
     845A      3.990191   846A      3.996105   847A      3.997304  
     848A      4.010578   849A      4.017296   850A      4.020631  
     851A      4.028456   852A      4.037988   853A      4.045408  
     854A      4.054229   855A      4.060514   856A      4.065925  
     857A      4.072686   858A      4.079746   859A      4.081183  
     860A      4.088255   861A      4.090820   862A      4.096794  
     863A      4.105387   864A      4.121529   865A      4.130935  
     866A      4.145727   867A      4.153142   868A      4.154749  
     869A      4.159688   870A      4.177622   871A      4.183503  
     872A      4.191227   873A      4.196264   874A      4.203524  
     875A      4.209214   876A      4.214426   877A      4.216370  
     878A      4.231700   879A      4.233366   880A      4.242394  
     881A      4.253567   882A      4.261071   883A      4.266803  
     884A      4.271440   885A      4.286115   886A      4.287686  
     887A      4.293679   888A      4.298855   889A      4.305972  
     890A      4.317964   891A      4.319385   892A      4.323637  
     893A      4.328357   894A      4.339590   895A      4.349779  
     896A      4.356394   897A      4.358246   898A      4.371615  
     899A      4.380586   900A      4.386012   901A      4.396376  
     902A      4.407396   903A      4.414841   904A      4.416960  
     905A      4.424532   906A      4.434403   907A      4.439101  
     908A      4.442410   909A      4.451754   910A      4.460639  
     911A      4.467256   912A      4.472738   913A      4.485708  
     914A      4.487118   915A      4.493578   916A      4.501867  
     917A      4.513816   918A      4.520404   919A      4.534094  
     920A      4.537774   921A      4.540683   922A      4.556964  
     923A      4.563368   924A      4.568979   925A      4.576506  
     926A      4.594059   927A      4.599026   928A      4.603213  
     929A      4.614764   930A      4.619099   931A      4.622319  
     932A      4.625885   933A      4.633512   934A      4.646215  
     935A      4.655643   936A      4.662006   937A      4.665098  
     938A      4.676921   939A      4.685361   940A      4.697094  
     941A      4.699607   942A      4.706459   943A      4.715863  
     944A      4.734709   945A      4.739293   946A      4.743971  
     947A      4.757368   948A      4.759857   949A      4.763161  
     950A      4.778074   951A      4.786740   952A      4.791664  
     953A      4.798441   954A      4.805492   955A      4.818949  
     956A      4.831839   957A      4.835774   958A      4.857851  
     959A      4.872115   960A      4.880852   961A      4.881641  
     962A      4.894746   963A      4.895442   964A      4.903494  
     965A      4.911868   966A      4.919133   967A      4.922684  
     968A      4.927468   969A      4.940435   970A      4.949115  
     971A      4.959617   972A      4.970797   973A      4.982571  
     974A      4.984251   975A      4.997628   976A      5.020268  
     977A      5.021095   978A      5.032211   979A      5.038622  
     980A      5.050131   981A      5.059389   982A      5.068958  
     983A      5.073678   984A      5.084199   985A      5.098053  
     986A      5.111760   987A      5.120612   988A      5.130988  
     989A      5.133195   990A      5.147096   991A      5.155073  
     992A      5.162045   993A      5.165190   994A      5.187002  
     995A      5.198303   996A      5.207608   997A      5.213889  
     998A      5.234234   999A      5.237489  1000A      5.249064  
    1001A      5.255799  1002A      5.269856  1003A      5.274106  
    1004A      5.284742  1005A      5.291419  1006A      5.293359  
    1007A      5.299521  1008A      5.307450  1009A      5.308791  
    1010A      5.324444  1011A      5.330234  1012A      5.334621  
    1013A      5.347194  1014A      5.357889  1015A      5.368099  
    1016A      5.376260  1017A      5.378235  1018A      5.393414  
    1019A      5.410485  1020A      5.421769  1021A      5.436911  
    1022A      5.442051  1023A      5.453267  1024A      5.459214  
    1025A      5.464532  1026A      5.477124  1027A      5.489045  
    1028A      5.503273  1029A      5.508510  1030A      5.513014  
    1031A      5.536519  1032A      5.542569  1033A      5.564983  
    1034A      5.565894  1035A      5.573702  1036A      5.575132  
    1037A      5.590908  1038A      5.598203  1039A      5.609819  
    1040A      5.610252  1041A      5.632718  1042A      5.636063  
    1043A      5.653032  1044A      5.670916  1045A      5.686470  
    1046A      5.696613  1047A      5.716702  1048A      5.734576  
    1049A      5.737692  1050A      5.761354  1051A      5.764588  
    1052A      5.790593  1053A      5.807954  1054A      5.819366  
    1055A      5.836875  1056A      5.844030  1057A      5.849391  
    1058A      5.858069  1059A      5.864373  1060A      5.874273  
    1061A      5.893146  1062A      5.931685  1063A      5.950525  
    1064A      5.961323  1065A      5.977436  1066A      5.986670  
    1067A      6.015386  1068A      6.031595  1069A      6.059287  
    1070A      6.069867  1071A      6.088332  1072A      6.103638  
    1073A      6.133358  1074A      6.135556  1075A      6.167575  
    1076A      6.202211  1077A      6.212332  1078A      6.221225  
    1079A      6.238869  1080A      6.272744  1081A      6.285846  
    1082A      6.327063  1083A      6.336675  1084A      6.388784  
    1085A      6.407389  1086A      6.450993  1087A      6.484104  
    1088A      6.504080  1089A      6.537344  1090A      6.553944  
    1091A      6.597926  1092A      6.628653  1093A      6.634580  
    1094A      6.661348  1095A      6.665680  1096A      6.738071  
    1097A      6.746538  1098A      6.788521  1099A      6.827919  
    1100A      6.840889  1101A      6.844402  1102A      6.868535  
    1103A      6.873789  1104A      6.889544  1105A      6.902204  
    1106A      6.918700  1107A      6.922052  1108A      6.926241  
    1109A      6.932812  1110A      6.938063  1111A      6.956241  
    1112A      6.964099  1113A      6.968935  1114A      6.984654  
    1115A      7.016060  1116A      7.021212  1117A      7.035127  
    1118A      7.043982  1119A      7.047463  1120A      7.057912  
    1121A      7.068826  1122A      7.081703  1123A      7.093971  
    1124A      7.106106  1125A      7.123895  1126A      7.135480  
    1127A      7.145455  1128A      7.165086  1129A      7.166454  
    1130A      7.177722  1131A      7.186748  1132A      7.199311  
    1133A      7.208380  1134A      7.230563  1135A      7.242904  
    1136A      7.263741  1137A      7.295810  1138A      7.301549  
    1139A      7.360740  1140A      7.379772  1141A      7.400512  
    1142A      7.405759  1143A      7.420858  1144A      7.435332  
    1145A      7.447907  1146A      7.450789  1147A      7.467371  
    1148A      7.485552  1149A      7.501830  1150A      7.517844  
    1151A      7.525051  1152A      7.536297  1153A      7.555285  
    1154A      7.592078  1155A      7.605954  1156A      7.629191  
    1157A      7.640019  1158A      7.659383  1159A      7.687137  
    1160A      7.704036  1161A      7.762271  1162A      7.784360  
    1163A      7.793389  1164A      7.812117  1165A      7.840465  
    1166A      7.857826  1167A      7.880650  1168A      7.912899  
    1169A      7.919903  1170A      7.967005  1171A      7.999482  
    1172A      8.015564  1173A      8.042057  1174A      8.097395  
    1175A      8.115903  1176A      8.145532  1177A      8.169357  
    1178A      8.243136  1179A      8.354052  1180A      8.373939  
    1181A      8.775990  1182A      8.880269  1183A     11.678143  
    1184A     13.994398  1185A     14.595844  1186A     14.913263  
    1187A     15.852490  1188A     16.300131  1189A     16.380724  
    1190A     16.806251  1191A     16.943579  1192A     18.078868  
    1193A     18.438171  1194A     18.614690  1195A     19.112193  
    1196A     19.264119  1197A     20.475892  1198A     21.161103  
    1199A     21.632883  1200A     21.829677  

    Final Occupation by Irrep:
              A 
    DOCC [    73 ]

  @DF-RHF Final Energy: -1232.82655516271825

   => Energetics <=

    Nuclear Repulsion Energy =           1685.5282169538904782
    One-Electron Energy =               -5049.2589757194637059
    Two-Electron Energy =                2130.9042036028549774
    Total Energy =                      -1232.8265551627182504

Computation Completed


Properties will be evaluated at   0.000000,   0.000000,   0.000000 [a0]

Properties computed using the SCF density matrix

  Nuclear Dipole Moment: [e a0]
     X:    -0.6850      Y:   -12.1913      Z:    12.6877

  Electronic Dipole Moment: [e a0]
     X:    -0.6389      Y:    10.0934      Z:    -9.9484

  Dipole Moment: [e a0]
     X:    -1.3239      Y:    -2.0979      Z:     2.7394     Total:     3.6957

  Dipole Moment: [D]
     X:    -3.3651      Y:    -5.3324      Z:     6.9628     Total:     9.3935


*** tstop() called on localhost.localdomain at Wed Jun  8 14:32:54 2022
Module time:
	user time   =    1907.14 seconds =      31.79 minutes
	system time =      29.03 seconds =       0.48 minutes
	total time  =        102 seconds =       1.70 minutes
Total time:
	user time   =    1907.14 seconds =      31.79 minutes
	system time =      29.03 seconds =       0.48 minutes
	total time  =        102 seconds =       1.70 minutes

*** tstart() called on localhost.localdomain
*** at Wed Jun  8 14:32:54 2022


  //>>>>>>>>>>>>>>>>>>>>>>>>>>>>>>>>>>>//
  //               DFMP2               //
  //<<<<<<<<<<<<<<<<<<<<<<<<<<<<<<<<<<<//

   => Loading Basis Set <=

    Name: (AUG-CC-PVTZ AUX)
    Role: RIFIT
    Keyword: DF_BASIS_MP2
    atoms 1-5, 10, 15, 18, 21, 24                     entry C          line   148 file /data0/home/wuhanyu/software/psi4_132/share/psi4/basis/aug-cc-pvtz-ri.gbs 
    atoms 6-9, 11-13, 16-17, 19-20, 22-23, 30, 32, 34 entry H          line    30 file /data0/home/wuhanyu/software/psi4_132/share/psi4/basis/aug-cc-pvtz-ri.gbs 
    atoms 14                                          entry N          line   206 file /data0/home/wuhanyu/software/psi4_132/share/psi4/basis/aug-cc-pvtz-ri.gbs 
    atoms 25-26, 28-29, 31, 33                        entry O          line   264 file /data0/home/wuhanyu/software/psi4_132/share/psi4/basis/aug-cc-pvtz-ri.gbs 
    atoms 27                                          entry P          line   590 file /data0/home/wuhanyu/software/psi4_132/share/psi4/basis/aug-cc-pvtz-ri.gbs 

	 --------------------------------------------------------
	                          DF-MP2                         
	      2nd-Order Density-Fitted Moller-Plesset Theory     
	              RMP2 Wavefunction,  24 Threads             
	                                                         
	        Rob Parrish, Justin Turney, Andy Simmonett,      
	           Ed Hohenstein, and C. David Sherrill          
	 --------------------------------------------------------

   => Auxiliary Basis Set <=

  Basis Set: (AUG-CC-PVTZ AUX)
    Blend: AUG-CC-PVTZ-RI
    Number of shells: 737
    Number of basis function: 2685
    Number of Cartesian functions: 3383
    Spherical Harmonics?: true
    Max angular momentum: 4

	 --------------------------------------------------------
	                 NBF =  1200, NAUX =  2685
	 --------------------------------------------------------
	   CLASS    FOCC     OCC    AOCC    AVIR     VIR    FVIR
	   PAIRS      22      73      51    1127    1127       0
	 --------------------------------------------------------

	 Will save fitting metric to file 97.

	-----------------------------------------------------------
	 ==================> DF-MP2 Energies <==================== 
	-----------------------------------------------------------
	 Reference Energy          =   -1232.8265551627182504 [Eh]
	 Singles Energy            =      -0.0000000000000000 [Eh]
	 Same-Spin Energy          =      -0.9015495337206907 [Eh]
	 Opposite-Spin Energy      =      -2.6185524206203352 [Eh]
	 Correlation Energy        =      -3.5201019543410261 [Eh]
	 Total Energy              =   -1236.3466571170592943 [Eh]
	-----------------------------------------------------------
	 ================> DF-SCS-MP2 Energies <================== 
	-----------------------------------------------------------
	 SCS Same-Spin Scale       =       0.3333333333333333 [-]
	 SCS Opposite-Spin Scale   =       1.2000000000000000 [-]
	 SCS Same-Spin Energy      =      -0.3005165112402302 [Eh]
	 SCS Opposite-Spin Energy  =      -3.1422629047444022 [Eh]
	 SCS Correlation Energy    =      -3.4427794159846323 [Eh]
	 SCS Total Energy          =   -1236.2693345787029102 [Eh]
	-----------------------------------------------------------


*** tstop() called on localhost.localdomain at Wed Jun  8 14:33:32 2022
Module time:
	user time   =     527.39 seconds =       8.79 minutes
	system time =      10.56 seconds =       0.18 minutes
	total time  =         38 seconds =       0.63 minutes
Total time:
	user time   =    2434.54 seconds =      40.58 minutes
	system time =      39.59 seconds =       0.66 minutes
	total time  =        140 seconds =       2.33 minutes

  //>>>>>>>>>>>>>>>>>>>>>>>>>>>>>>>>>>>//
  //            Monomer A HF           //
  //<<<<<<<<<<<<<<<<<<<<<<<<<<<<<<<<<<<//


*** tstart() called on localhost.localdomain
*** at Wed Jun  8 14:33:32 2022

   => Loading Basis Set <=

    Name: AUG-CC-PVTZ
    Role: ORBITAL
    Keyword: BASIS
    atoms 1-5, 10, 15, 18, 21, 24                     entry C          line   235 file /data0/home/wuhanyu/software/psi4_132/share/psi4/basis/aug-cc-pvtz.gbs 
    atoms 6-9, 11-13, 16-17, 19-20, 22-23, 30, 32, 34 entry H          line    36 file /data0/home/wuhanyu/software/psi4_132/share/psi4/basis/aug-cc-pvtz.gbs 
    atoms 14                                          entry N          line   281 file /data0/home/wuhanyu/software/psi4_132/share/psi4/basis/aug-cc-pvtz.gbs 
    atoms 25-26, 28-29, 31, 33                        entry O          line   327 file /data0/home/wuhanyu/software/psi4_132/share/psi4/basis/aug-cc-pvtz.gbs 
    atoms 27                                          entry P          line   820 file /data0/home/wuhanyu/software/psi4_132/share/psi4/basis/aug-cc-pvtz.gbs 


         ---------------------------------------------------------
                                   SCF
               by Justin Turney, Rob Parrish, Andy Simmonett
                          and Daniel G. A. Smith
                              RHF Reference
                       24 Threads, 190734 MiB Core
         ---------------------------------------------------------

  ==> Geometry <==

    Molecular point group: c1
    Full point group: C1

    Geometry (in Angstrom), charge = 0, multiplicity = 1:

       Center              X                  Y                   Z               Mass       
    ------------   -----------------  -----------------  -----------------  -----------------
         C           -0.973811447238    -1.691981028133     1.015882967976    12.000000000000
         C           -1.811811447238    -1.273982028133    -0.030116032024    12.000000000000
         C           -2.428811447238    -0.023982028133     0.045883967976    12.000000000000
         C           -2.146811447238     0.809017971867     1.138883967976    12.000000000000
         C           -1.283811447238     0.380016971867     2.133882967976    12.000000000000
         H           -3.107811447238     0.314017971867    -0.746116032024     1.007825032230
         H           -0.484811447238    -2.677981028133     0.992884967976     1.007825032230
         H           -2.558811447238     1.823017971867     1.169884967976     1.007825032230
         H           -0.998811447238     1.024018971867     2.970882967976     1.007825032230
         C           -1.944811447238    -2.141982028133    -1.224116032024    12.000000000000
         H           -2.309811447238    -3.148982028133    -0.993116032024     1.007825032230
         H           -2.595811447238    -1.707982028133    -1.998116032024     1.007825032230
         H           -0.949811447238    -2.252982028133    -1.715116032024     1.007825032230
         N           -0.740811447238    -0.876982028133     2.077883967976    14.003074004430
         C            0.149188552762    -1.326981028133     3.171883967976    12.000000000000
         H           -0.300811447238    -1.027982028133     4.146883967976     1.007825032230
         H            0.196188552762    -2.440982028133     3.175882967976     1.007825032230
         C            1.568188552762    -0.746981028133     3.040884967976    12.000000000000
         H            1.533188552762     0.353016971867     2.864883967976     1.007825032230
         H            2.094188552762    -0.874982028133     4.008882967976     1.007825032230
         C            2.374188552762    -1.404982028133     1.923883967976    12.000000000000
         H            3.459188552762    -1.256982028133     2.083883967976     1.007825032230
         H            2.212188552762    -2.490983028133     1.863884967976     1.007825032230
         C            1.991188552762    -0.729981028133     0.593883967976    12.000000000000
         O            2.482188552762     0.382017971867     0.371883967976    15.994914619570
         O            1.166188552762    -1.345982028133    -0.120116032024    15.994914619570
      Gh(P)           0.038188552762     1.443016971867    -1.886116032024    30.973761998420
      Gh(O)          -1.071811447238     1.693016971867    -0.956116032024    15.994914619570
      Gh(O)          -0.281811447238     2.136017971867    -3.291116032024    15.994914619570
      Gh(H)           0.524188552762     1.959017971867    -3.909116032024     1.007825032230
      Gh(O)           1.449188552762     2.035017971867    -1.492116032024    15.994914619570
      Gh(H)           1.891188552762     1.389017971867    -0.754116032024     1.007825032230
      Gh(O)           0.257188552762    -0.078982028133    -2.279116032024    15.994914619570
      Gh(H)           0.680188552762    -0.597981028133    -1.433116032024     1.007825032230

  Running in c1 symmetry.

  Rotational constants: A =      0.01849  B =      0.01139  C =      0.00926 [cm^-1]
  Rotational constants: A =    554.34068  B =    341.51524  C =    277.46002 [MHz]
  Nuclear repulsion =  815.118821993836264

  Charge       = 0
  Multiplicity = 1
  Electrons    = 96
  Nalpha       = 48
  Nbeta        = 48

  ==> Algorithm <==

  SCF Algorithm Type is DF.
  DIIS enabled.
  MOM disabled.
  Fractional occupation disabled.
  Guess Type is SAD.
  Energy threshold   = 1.00e-08
  Density threshold  = 1.00e-08
  Integral threshold = 0.00e+00

  ==> Primary Basis <==

  Basis Set: AUG-CC-PVTZ
    Blend: AUG-CC-PVTZ
    Number of shells: 398
    Number of basis function: 1200
    Number of Cartesian functions: 1394
    Spherical Harmonics?: true
    Max angular momentum: 3

   => Loading Basis Set <=

    Name: (AUG-CC-PVTZ AUX)
    Role: JKFIT
    Keyword: DF_BASIS_SCF
    atoms 1-5, 10, 15, 18, 21, 24                     entry C          line   162 file /data0/home/wuhanyu/software/psi4_132/share/psi4/basis/aug-cc-pvtz-jkfit.gbs 
    atoms 6-9, 11-13, 16-17, 19-20, 22-23, 30, 32, 34 entry H          line    70 file /data0/home/wuhanyu/software/psi4_132/share/psi4/basis/aug-cc-pvtz-jkfit.gbs 
    atoms 14                                          entry N          line   224 file /data0/home/wuhanyu/software/psi4_132/share/psi4/basis/aug-cc-pvtz-jkfit.gbs 
    atoms 25-26, 28-29, 31, 33                        entry O          line   286 file /data0/home/wuhanyu/software/psi4_132/share/psi4/basis/aug-cc-pvtz-jkfit.gbs 
    atoms 27                                          entry P          line   644 file /data0/home/wuhanyu/software/psi4_132/share/psi4/basis/aug-cc-pvtz-jkfit.gbs 

  ==> Pre-Iterations <==

   -------------------------------------------------------
    Irrep   Nso     Nmo     Nalpha   Nbeta   Ndocc  Nsocc
   -------------------------------------------------------
     A       1200    1200       0       0       0       0
   -------------------------------------------------------
    Total    1200    1200      48      48      48       0
   -------------------------------------------------------

  ==> Integral Setup <==

  ==> DiskDFJK: Density-Fitted J/K Matrices <==

    J tasked:                  Yes
    K tasked:                  Yes
    wK tasked:                  No
    OpenMP threads:             24
    Integrals threads:          24
    Memory [MiB]:           143051
    Algorithm:                Core
    Integral Cache:           LOAD
    Schwarz Cutoff:          1E-12
    Fitting Condition:       1E-10

   => Auxiliary Basis Set <=

  Basis Set: (AUG-CC-PVTZ AUX)
    Blend: AUG-CC-PVTZ-JKFIT
    Number of shells: 776
    Number of basis function: 2650
    Number of Cartesian functions: 3287
    Spherical Harmonics?: true
    Max angular momentum: 4

  Minimum eigenvalue in the overlap matrix is 6.2768985875E-07.
  Using Symmetric Orthogonalization.

  SCF Guess: Superposition of Atomic Densities via on-the-fly atomic UHF.

  ==> Iterations <==

                           Total Energy        Delta E     RMS |[F,P]|

   @DF-RHF iter SAD:  -589.89774905960223   -5.89898e+02   0.00000e+00 
   @DF-RHF iter   1:  -590.15641477821521   -2.58666e-01   7.41123e-04 DIIS
   @DF-RHF iter   2:  -590.48432010623412   -3.27905e-01   4.17022e-04 DIIS
   @DF-RHF iter   3:  -590.57864939927867   -9.43293e-02   7.75255e-05 DIIS
   @DF-RHF iter   4:  -590.58422100882262   -5.57161e-03   3.29661e-05 DIIS
   @DF-RHF iter   5:  -590.58513824153897   -9.17233e-04   7.22979e-06 DIIS
   @DF-RHF iter   6:  -590.58522048736961   -8.22458e-05   3.46976e-06 DIIS
   @DF-RHF iter   7:  -590.58524244303180   -2.19557e-05   1.50524e-06 DIIS
   @DF-RHF iter   8:  -590.58525006543994   -7.62241e-06   7.89764e-07 DIIS
   @DF-RHF iter   9:  -590.58525273630664   -2.67087e-06   2.73619e-07 DIIS
   @DF-RHF iter  10:  -590.58525302963812   -2.93331e-07   7.99742e-08 DIIS
   @DF-RHF iter  11:  -590.58525304446994   -1.48318e-08   3.01992e-08 DIIS
   @DF-RHF iter  12:  -590.58525304597561   -1.50567e-09   1.25291e-08 DIIS
   @DF-RHF iter  13:  -590.58525304620503   -2.29420e-10   4.10034e-09 DIIS
  Energy and wave function converged.


  ==> Post-Iterations <==

    Orbital Energies [Eh]
    ---------------------

    Doubly Occupied:                                                      

       1A    -20.433287     2A    -20.426048     3A    -15.699794  
       4A    -11.353892     5A    -11.345360     6A    -11.315581  
       7A    -11.306046     8A    -11.289331     9A    -11.288694  
      10A    -11.269383    11A    -11.245758    12A    -11.241781  
      13A    -11.197378    14A     -1.366248    15A     -1.319076  
      16A     -1.213912    17A     -1.165448    18A     -1.105326  
      19A     -1.072106    20A     -0.990716    21A     -0.971160  
      22A     -0.907243    23A     -0.882326    24A     -0.826816  
      25A     -0.760200    26A     -0.737949    27A     -0.704926  
      28A     -0.671654    29A     -0.667831    30A     -0.653860  
      31A     -0.638088    32A     -0.618070    33A     -0.589770  
      34A     -0.587480    35A     -0.580020    36A     -0.566570  
      37A     -0.559304    38A     -0.541708    39A     -0.534168  
      40A     -0.531264    41A     -0.510070    42A     -0.484158  
      43A     -0.465598    44A     -0.428311    45A     -0.383492  
      46A     -0.348084    47A     -0.337069    48A     -0.327939  

    Virtual:                                                              

      49A      0.010361    50A      0.019039    51A      0.021980  
      52A      0.032644    53A      0.034648    54A      0.036556  
      55A      0.039177    56A      0.045810    57A      0.053576  
      58A      0.055502    59A      0.057339    60A      0.061045  
      61A      0.065174    62A      0.069836    63A      0.076533  
      64A      0.079568    65A      0.080422    66A      0.084620  
      67A      0.088519    68A      0.089473    69A      0.093388  
      70A      0.095587    71A      0.102894    72A      0.105668  
      73A      0.108319    74A      0.111454    75A      0.114644  
      76A      0.116591    77A      0.117995    78A      0.120038  
      79A      0.122543    80A      0.128367    81A      0.131821  
      82A      0.135770    83A      0.139755    84A      0.142640  
      85A      0.145115    86A      0.151028    87A      0.151755  
      88A      0.157286    89A      0.157695    90A      0.162224  
      91A      0.165807    92A      0.170370    93A      0.171655  
      94A      0.174483    95A      0.178088    96A      0.181728  
      97A      0.185296    98A      0.187930    99A      0.189997  
     100A      0.195219   101A      0.202223   102A      0.203101  
     103A      0.207413   104A      0.210951   105A      0.212401  
     106A      0.216959   107A      0.224067   108A      0.225332  
     109A      0.226141   110A      0.232966   111A      0.237239  
     112A      0.240240   113A      0.242516   114A      0.243628  
     115A      0.245071   116A      0.250824   117A      0.253398  
     118A      0.257375   119A      0.260666   120A      0.262764  
     121A      0.263247   122A      0.269095   123A      0.270075  
     124A      0.272420   125A      0.277560   126A      0.281950  
     127A      0.283309   128A      0.285609   129A      0.289291  
     130A      0.290452   131A      0.295948   132A      0.302053  
     133A      0.307081   134A      0.308720   135A      0.311045  
     136A      0.312107   137A      0.317237   138A      0.321539  
     139A      0.329747   140A      0.333490   141A      0.335022  
     142A      0.336375   143A      0.338690   144A      0.343239  
     145A      0.348589   146A      0.351891   147A      0.354393  
     148A      0.358890   149A      0.361513   150A      0.363639  
     151A      0.366756   152A      0.369723   153A      0.373499  
     154A      0.375285   155A      0.376161   156A      0.380523  
     157A      0.384191   158A      0.388715   159A      0.389417  
     160A      0.397204   161A      0.398746   162A      0.402496  
     163A      0.405176   164A      0.410836   165A      0.412296  
     166A      0.417458   167A      0.420289   168A      0.422585  
     169A      0.424436   170A      0.431577   171A      0.436213  
     172A      0.438824   173A      0.443093   174A      0.445444  
     175A      0.448306   176A      0.452081   177A      0.453483  
     178A      0.454729   179A      0.457779   180A      0.462451  
     181A      0.465047   182A      0.466404   183A      0.469343  
     184A      0.472802   185A      0.474838   186A      0.476167  
     187A      0.478044   188A      0.480208   189A      0.487617  
     190A      0.490151   191A      0.493440   192A      0.496127  
     193A      0.497880   194A      0.500123   195A      0.501673  
     196A      0.505181   197A      0.507898   198A      0.510569  
     199A      0.514268   200A      0.518307   201A      0.522276  
     202A      0.524785   203A      0.529229   204A      0.530984  
     205A      0.532538   206A      0.535082   207A      0.540001  
     208A      0.542367   209A      0.544264   210A      0.547209  
     211A      0.551169   212A      0.552193   213A      0.556898  
     214A      0.558298   215A      0.559275   216A      0.568957  
     217A      0.572320   218A      0.575748   219A      0.576671  
     220A      0.579708   221A      0.582103   222A      0.586796  
     223A      0.592023   224A      0.595188   225A      0.596178  
     226A      0.601694   227A      0.606636   228A      0.607787  
     229A      0.614568   230A      0.617570   231A      0.620960  
     232A      0.623911   233A      0.629426   234A      0.632926  
     235A      0.636781   236A      0.638074   237A      0.640804  
     238A      0.643710   239A      0.651709   240A      0.655210  
     241A      0.658334   242A      0.660325   243A      0.669596  
     244A      0.673916   245A      0.674811   246A      0.680087  
     247A      0.684496   248A      0.687338   249A      0.690280  
     250A      0.700153   251A      0.702685   252A      0.704683  
     253A      0.708296   254A      0.711432   255A      0.718178  
     256A      0.722784   257A      0.727948   258A      0.732358  
     259A      0.736397   260A      0.742417   261A      0.744507  
     262A      0.750028   263A      0.754906   264A      0.758189  
     265A      0.758710   266A      0.763967   267A      0.768343  
     268A      0.773516   269A      0.780335   270A      0.786701  
     271A      0.791775   272A      0.793667   273A      0.797948  
     274A      0.802209   275A      0.806038   276A      0.812679  
     277A      0.815003   278A      0.817459   279A      0.823086  
     280A      0.827456   281A      0.829311   282A      0.838242  
     283A      0.843078   284A      0.848353   285A      0.849638  
     286A      0.852635   287A      0.859743   288A      0.864234  
     289A      0.869696   290A      0.873535   291A      0.874665  
     292A      0.877283   293A      0.879101   294A      0.887982  
     295A      0.889442   296A      0.892136   297A      0.895679  
     298A      0.900860   299A      0.904401   300A      0.906968  
     301A      0.912397   302A      0.914893   303A      0.919944  
     304A      0.923039   305A      0.927326   306A      0.929568  
     307A      0.934013   308A      0.935414   309A      0.938331  
     310A      0.941998   311A      0.943653   312A      0.947956  
     313A      0.951220   314A      0.953894   315A      0.957492  
     316A      0.960750   317A      0.968916   318A      0.970969  
     319A      0.975072   320A      0.976899   321A      0.983200  
     322A      0.986612   323A      0.989282   324A      0.991199  
     325A      0.997082   326A      1.000920   327A      1.004629  
     328A      1.007099   329A      1.011289   330A      1.017130  
     331A      1.019293   332A      1.024547   333A      1.026799  
     334A      1.030350   335A      1.031776   336A      1.034651  
     337A      1.041163   338A      1.048160   339A      1.052584  
     340A      1.054203   341A      1.058369   342A      1.058877  
     343A      1.060317   344A      1.070841   345A      1.074071  
     346A      1.077518   347A      1.078685   348A      1.087888  
     349A      1.089748   350A      1.094598   351A      1.097450  
     352A      1.099154   353A      1.103476   354A      1.108800  
     355A      1.112121   356A      1.117995   357A      1.123465  
     358A      1.126140   359A      1.132987   360A      1.133081  
     361A      1.139957   362A      1.141113   363A      1.144581  
     364A      1.151252   365A      1.154042   366A      1.157800  
     367A      1.161606   368A      1.163356   369A      1.170932  
     370A      1.176064   371A      1.178376   372A      1.181215  
     373A      1.182449   374A      1.187863   375A      1.196075  
     376A      1.197997   377A      1.200231   378A      1.202192  
     379A      1.206279   380A      1.212160   381A      1.216157  
     382A      1.221503   383A      1.223390   384A      1.228159  
     385A      1.229055   386A      1.232846   387A      1.236513  
     388A      1.239024   389A      1.245030   390A      1.246857  
     391A      1.255190   392A      1.256815   393A      1.259482  
     394A      1.264947   395A      1.268894   396A      1.272819  
     397A      1.277262   398A      1.280292   399A      1.286842  
     400A      1.290546   401A      1.293724   402A      1.297955  
     403A      1.300260   404A      1.304155   405A      1.312372  
     406A      1.314035   407A      1.320252   408A      1.328140  
     409A      1.333917   410A      1.338167   411A      1.340930  
     412A      1.343421   413A      1.349665   414A      1.351290  
     415A      1.355129   416A      1.360373   417A      1.373509  
     418A      1.375610   419A      1.380732   420A      1.384290  
     421A      1.388210   422A      1.392810   423A      1.394134  
     424A      1.404243   425A      1.405966   426A      1.411681  
     427A      1.412223   428A      1.420434   429A      1.421202  
     430A      1.430567   431A      1.435369   432A      1.436157  
     433A      1.438445   434A      1.443136   435A      1.446220  
     436A      1.454750   437A      1.458298   438A      1.467876  
     439A      1.468753   440A      1.471388   441A      1.478611  
     442A      1.485690   443A      1.487836   444A      1.493755  
     445A      1.497980   446A      1.501287   447A      1.508761  
     448A      1.517302   449A      1.518086   450A      1.528819  
     451A      1.530403   452A      1.531562   453A      1.534696  
     454A      1.540517   455A      1.545867   456A      1.551298  
     457A      1.556314   458A      1.560176   459A      1.564486  
     460A      1.571488   461A      1.573142   462A      1.578654  
     463A      1.584377   464A      1.589941   465A      1.595583  
     466A      1.597109   467A      1.601441   468A      1.605608  
     469A      1.606758   470A      1.614483   471A      1.614984  
     472A      1.615852   473A      1.633588   474A      1.637729  
     475A      1.640225   476A      1.644556   477A      1.646477  
     478A      1.650243   479A      1.654924   480A      1.657442  
     481A      1.660434   482A      1.672588   483A      1.673612  
     484A      1.678561   485A      1.683116   486A      1.685352  
     487A      1.692229   488A      1.698863   489A      1.702470  
     490A      1.704976   491A      1.712414   492A      1.717484  
     493A      1.723117   494A      1.723851   495A      1.728321  
     496A      1.735772   497A      1.741101   498A      1.745201  
     499A      1.754553   500A      1.756853   501A      1.761393  
     502A      1.765047   503A      1.768326   504A      1.777293  
     505A      1.778214   506A      1.790623   507A      1.795532  
     508A      1.797134   509A      1.802612   510A      1.807453  
     511A      1.808039   512A      1.814846   513A      1.818802  
     514A      1.821481   515A      1.825507   516A      1.830649  
     517A      1.836087   518A      1.840417   519A      1.846026  
     520A      1.848764   521A      1.857209   522A      1.860830  
     523A      1.865851   524A      1.870887   525A      1.874368  
     526A      1.880627   527A      1.883852   528A      1.888762  
     529A      1.891851   530A      1.894507   531A      1.900349  
     532A      1.905354   533A      1.908413   534A      1.917436  
     535A      1.924155   536A      1.933035   537A      1.936059  
     538A      1.943754   539A      1.952359   540A      1.952912  
     541A      1.957382   542A      1.961633   543A      1.969645  
     544A      1.975212   545A      1.978936   546A      1.985496  
     547A      1.988302   548A      1.994561   549A      1.999182  
     550A      2.003989   551A      2.009564   552A      2.013790  
     553A      2.018335   554A      2.022304   555A      2.033134  
     556A      2.033947   557A      2.039762   558A      2.049620  
     559A      2.057562   560A      2.062092   561A      2.067675  
     562A      2.076204   563A      2.077597   564A      2.082719  
     565A      2.088717   566A      2.094546   567A      2.095825  
     568A      2.105045   569A      2.109151   570A      2.117596  
     571A      2.125173   572A      2.131046   573A      2.134133  
     574A      2.142281   575A      2.145958   576A      2.154802  
     577A      2.159601   578A      2.166896   579A      2.173980  
     580A      2.178912   581A      2.181970   582A      2.184241  
     583A      2.192923   584A      2.196186   585A      2.210214  
     586A      2.212934   587A      2.226676   588A      2.233019  
     589A      2.239349   590A      2.240122   591A      2.245327  
     592A      2.260915   593A      2.262778   594A      2.268395  
     595A      2.271427   596A      2.279477   597A      2.286490  
     598A      2.293642   599A      2.299106   600A      2.307370  
     601A      2.315871   602A      2.322556   603A      2.332464  
     604A      2.337387   605A      2.344062   606A      2.349903  
     607A      2.358052   608A      2.364347   609A      2.367340  
     610A      2.374565   611A      2.376945   612A      2.385036  
     613A      2.393918   614A      2.404799   615A      2.416106  
     616A      2.419232   617A      2.424802   618A      2.431463  
     619A      2.437243   620A      2.446059   621A      2.454978  
     622A      2.458266   623A      2.467144   624A      2.475469  
     625A      2.480163   626A      2.491688   627A      2.501137  
     628A      2.503427   629A      2.508754   630A      2.521468  
     631A      2.532114   632A      2.544520   633A      2.549422  
     634A      2.553714   635A      2.559590   636A      2.570452  
     637A      2.573198   638A      2.582746   639A      2.588210  
     640A      2.599114   641A      2.605389   642A      2.611855  
     643A      2.616505   644A      2.623007   645A      2.634576  
     646A      2.642142   647A      2.648250   648A      2.649179  
     649A      2.663393   650A      2.667137   651A      2.676143  
     652A      2.679123   653A      2.686833   654A      2.693732  
     655A      2.713932   656A      2.720481   657A      2.730030  
     658A      2.733132   659A      2.742421   660A      2.750234  
     661A      2.754217   662A      2.765714   663A      2.775562  
     664A      2.783707   665A      2.794096   666A      2.800015  
     667A      2.805087   668A      2.815579   669A      2.820222  
     670A      2.826686   671A      2.840314   672A      2.844973  
     673A      2.845863   674A      2.856698   675A      2.862984  
     676A      2.863773   677A      2.880476   678A      2.888791  
     679A      2.896948   680A      2.904451   681A      2.912816  
     682A      2.918352   683A      2.921135   684A      2.927386  
     685A      2.933825   686A      2.940345   687A      2.955948  
     688A      2.963666   689A      2.969550   690A      2.969722  
     691A      2.975855   692A      2.983824   693A      3.002579  
     694A      3.006341   695A      3.020084   696A      3.024655  
     697A      3.025277   698A      3.032272   699A      3.040249  
     700A      3.047619   701A      3.062237   702A      3.082703  
     703A      3.087972   704A      3.089608   705A      3.100926  
     706A      3.109021   707A      3.127767   708A      3.140082  
     709A      3.144370   710A      3.144779   711A      3.155133  
     712A      3.169967   713A      3.172949   714A      3.181937  
     715A      3.198246   716A      3.202892   717A      3.213026  
     718A      3.219907   719A      3.229965   720A      3.232240  
     721A      3.240282   722A      3.251312   723A      3.262831  
     724A      3.273311   725A      3.283527   726A      3.289541  
     727A      3.296772   728A      3.313413   729A      3.326906  
     730A      3.332116   731A      3.343248   732A      3.351366  
     733A      3.357017   734A      3.363453   735A      3.369488  
     736A      3.384746   737A      3.403268   738A      3.414991  
     739A      3.420033   740A      3.424135   741A      3.427851  
     742A      3.440345   743A      3.446777   744A      3.456548  
     745A      3.467034   746A      3.475679   747A      3.484208  
     748A      3.495975   749A      3.505973   750A      3.515288  
     751A      3.520402   752A      3.527726   753A      3.550047  
     754A      3.556278   755A      3.559420   756A      3.568062  
     757A      3.571749   758A      3.576945   759A      3.585270  
     760A      3.588864   761A      3.593772   762A      3.608142  
     763A      3.611219   764A      3.623024   765A      3.626134  
     766A      3.633596   767A      3.638128   768A      3.643838  
     769A      3.650678   770A      3.659269   771A      3.660051  
     772A      3.666342   773A      3.678051   774A      3.692322  
     775A      3.700302   776A      3.702487   777A      3.713606  
     778A      3.716435   779A      3.722712   780A      3.727464  
     781A      3.736791   782A      3.739437   783A      3.745818  
     784A      3.759938   785A      3.763464   786A      3.765584  
     787A      3.774122   788A      3.782977   789A      3.787419  
     790A      3.792015   791A      3.808514   792A      3.822806  
     793A      3.828282   794A      3.834576   795A      3.838924  
     796A      3.840685   797A      3.851546   798A      3.855675  
     799A      3.865050   800A      3.871811   801A      3.875590  
     802A      3.891707   803A      3.896272   804A      3.907216  
     805A      3.913293   806A      3.915450   807A      3.921588  
     808A      3.924971   809A      3.937461   810A      3.944068  
     811A      3.945334   812A      3.954339   813A      3.959106  
     814A      3.969261   815A      3.974688   816A      3.976189  
     817A      3.984279   818A      3.989048   819A      3.991963  
     820A      4.003776   821A      4.006743   822A      4.017804  
     823A      4.020184   824A      4.028647   825A      4.036060  
     826A      4.040007   827A      4.047682   828A      4.055190  
     829A      4.059196   830A      4.067417   831A      4.073727  
     832A      4.080547   833A      4.081153   834A      4.088098  
     835A      4.096300   836A      4.101067   837A      4.106077  
     838A      4.109178   839A      4.120596   840A      4.135808  
     841A      4.140773   842A      4.150017   843A      4.157545  
     844A      4.166217   845A      4.174095   846A      4.179038  
     847A      4.189021   848A      4.195031   849A      4.198443  
     850A      4.205597   851A      4.212984   852A      4.219107  
     853A      4.220278   854A      4.226370   855A      4.233552  
     856A      4.249376   857A      4.255762   858A      4.260253  
     859A      4.263810   860A      4.268073   861A      4.280368  
     862A      4.285078   863A      4.288447   864A      4.302742  
     865A      4.311644   866A      4.317054   867A      4.318093  
     868A      4.326462   869A      4.327453   870A      4.344732  
     871A      4.346575   872A      4.349903   873A      4.369070  
     874A      4.376237   875A      4.377743   876A      4.389206  
     877A      4.392441   878A      4.399716   879A      4.404177  
     880A      4.421322   881A      4.426652   882A      4.432177  
     883A      4.440253   884A      4.448565   885A      4.454011  
     886A      4.456127   887A      4.469009   888A      4.477765  
     889A      4.481786   890A      4.491859   891A      4.498112  
     892A      4.512550   893A      4.519011   894A      4.520735  
     895A      4.531281   896A      4.538959   897A      4.541203  
     898A      4.550856   899A      4.568789   900A      4.569992  
     901A      4.574569   902A      4.582554   903A      4.589530  
     904A      4.597410   905A      4.600952   906A      4.610590  
     907A      4.615280   908A      4.630893   909A      4.635144  
     910A      4.638695   911A      4.650713   912A      4.663804  
     913A      4.676390   914A      4.679430   915A      4.682939  
     916A      4.698223   917A      4.706633   918A      4.709267  
     919A      4.727242   920A      4.729038   921A      4.738303  
     922A      4.747291   923A      4.761929   924A      4.772464  
     925A      4.775775   926A      4.784282   927A      4.797521  
     928A      4.807758   929A      4.815089   930A      4.821910  
     931A      4.833678   932A      4.836966   933A      4.853279  
     934A      4.864396   935A      4.867787   936A      4.878476  
     937A      4.891462   938A      4.902083   939A      4.911023  
     940A      4.919582   941A      4.923182   942A      4.935655  
     943A      4.942413   944A      4.946655   945A      4.952343  
     946A      4.964018   947A      4.988273   948A      4.990932  
     949A      5.005341   950A      5.009094   951A      5.018693  
     952A      5.034804   953A      5.038703   954A      5.047628  
     955A      5.055386   956A      5.059639   957A      5.071626  
     958A      5.077750   959A      5.090948   960A      5.105569  
     961A      5.108648   962A      5.119725   963A      5.128988  
     964A      5.139710   965A      5.142913   966A      5.155939  
     967A      5.161543   968A      5.169089   969A      5.178375  
     970A      5.192095   971A      5.214279   972A      5.220406  
     973A      5.234177   974A      5.243094   975A      5.256771  
     976A      5.264985   977A      5.265212   978A      5.273767  
     979A      5.277940   980A      5.294833   981A      5.307933  
     982A      5.312944   983A      5.327164   984A      5.334943  
     985A      5.338542   986A      5.348199   987A      5.363723  
     988A      5.376005   989A      5.383204   990A      5.392984  
     991A      5.414222   992A      5.429870   993A      5.439304  
     994A      5.443210   995A      5.455525   996A      5.469704  
     997A      5.480814   998A      5.487903   999A      5.494534  
    1000A      5.505446  1001A      5.513808  1002A      5.516705  
    1003A      5.536373  1004A      5.540416  1005A      5.550854  
    1006A      5.558213  1007A      5.566533  1008A      5.577241  
    1009A      5.586949  1010A      5.593100  1011A      5.597377  
    1012A      5.607345  1013A      5.617185  1014A      5.630636  
    1015A      5.638726  1016A      5.651451  1017A      5.656405  
    1018A      5.667306  1019A      5.685236  1020A      5.697807  
    1021A      5.701333  1022A      5.711300  1023A      5.737867  
    1024A      5.749216  1025A      5.758598  1026A      5.762527  
    1027A      5.766574  1028A      5.796867  1029A      5.812152  
    1030A      5.820237  1031A      5.835541  1032A      5.841603  
    1033A      5.850354  1034A      5.865629  1035A      5.886526  
    1036A      5.901144  1037A      5.918316  1038A      5.932492  
    1039A      5.957490  1040A      5.965974  1041A      5.973908  
    1042A      5.995293  1043A      6.013482  1044A      6.047542  
    1045A      6.063330  1046A      6.072166  1047A      6.097092  
    1048A      6.103723  1049A      6.136773  1050A      6.157607  
    1051A      6.181078  1052A      6.208474  1053A      6.227533  
    1054A      6.241524  1055A      6.267348  1056A      6.279647  
    1057A      6.300052  1058A      6.320768  1059A      6.332697  
    1060A      6.345471  1061A      6.381584  1062A      6.435445  
    1063A      6.459934  1064A      6.464672  1065A      6.499924  
    1066A      6.548739  1067A      6.560469  1068A      6.618254  
    1069A      6.627970  1070A      6.643590  1071A      6.659898  
    1072A      6.667462  1073A      6.681091  1074A      6.738991  
    1075A      6.781218  1076A      6.813484  1077A      6.839494  
    1078A      6.875755  1079A      6.901862  1080A      6.908840  
    1081A      6.925703  1082A      6.936622  1083A      6.946763  
    1084A      6.972919  1085A      7.041115  1086A      7.074370  
    1087A      7.081442  1088A      7.091823  1089A      7.123687  
    1090A      7.156632  1091A      7.165648  1092A      7.235011  
    1093A      7.241882  1094A      7.327593  1095A      7.347791  
    1096A      7.399428  1097A      7.409042  1098A      7.451784  
    1099A      7.493479  1100A      7.564266  1101A      7.601980  
    1102A      7.676475  1103A      7.685996  1104A      7.710861  
    1105A      7.773337  1106A      7.776159  1107A      7.798071  
    1108A      7.812627  1109A      7.844678  1110A      7.860216  
    1111A      7.885000  1112A      7.897345  1113A      7.914894  
    1114A      7.923287  1115A      7.944220  1116A      7.970455  
    1117A      7.984833  1118A      7.990110  1119A      7.999575  
    1120A      8.013347  1121A      8.039610  1122A      8.047354  
    1123A      8.088262  1124A      8.103738  1125A      8.111025  
    1126A      8.126279  1127A      8.167513  1128A      8.183108  
[...]
     983A      6.020371   984A      6.034264   985A      6.043142  
     986A      6.053037   987A      6.073175   988A      6.077963  
     989A      6.086531   990A      6.107309   991A      6.125585  
     992A      6.132156   993A      6.157421   994A      6.167988  
     995A      6.176795   996A      6.179045   997A      6.201756  
     998A      6.208359   999A      6.246007  1000A      6.267127  
    1001A      6.292788  1002A      6.311179  1003A      6.322917  
    1004A      6.367935  1005A      6.374783  1006A      6.421369  
    1007A      6.459015  1008A      6.462230  1009A      6.480118  
    1010A      6.522532  1011A      6.531436  1012A      6.551830  
    1013A      6.572537  1014A      6.582050  1015A      6.613224  
    1016A      6.624981  1017A      6.645553  1018A      6.662535  
    1019A      6.693468  1020A      6.780052  1021A      6.786565  
    1022A      6.794045  1023A      6.802254  1024A      6.823929  
    1025A      6.825880  1026A      6.846236  1027A      6.851299  
    1028A      6.856124  1029A      6.866761  1030A      6.874827  
    1031A      6.883725  1032A      6.895498  1033A      6.915793  
    1034A      6.932066  1035A      6.940447  1036A      6.945630  
    1037A      6.957016  1038A      6.961698  1039A      6.985978  
    1040A      6.998427  1041A      7.009387  1042A      7.013285  
    1043A      7.025989  1044A      7.031770  1045A      7.052297  
    1046A      7.083602  1047A      7.089064  1048A      7.094153  
    1049A      7.109781  1050A      7.113545  1051A      7.134406  
    1052A      7.137907  1053A      7.152490  1054A      7.159300  
    1055A      7.171484  1056A      7.177248  1057A      7.187789  
    1058A      7.215047  1059A      7.229178  1060A      7.247741  
    1061A      7.274545  1062A      7.286469  1063A      7.294474  
    1064A      7.312681  1065A      7.320966  1066A      7.329396  
    1067A      7.364818  1068A      7.375521  1069A      7.391229  
    1070A      7.403687  1071A      7.413384  1072A      7.419065  
    1073A      7.431664  1074A      7.465706  1075A      7.473417  
    1076A      7.494831  1077A      7.502823  1078A      7.517395  
    1079A      7.527200  1080A      7.549251  1081A      7.563528  
    1082A      7.585587  1083A      7.614363  1084A      7.620862  
    1085A      7.646105  1086A      7.656787  1087A      7.694310  
    1088A      7.699969  1089A      7.715509  1090A      7.738552  
    1091A      7.752503  1092A      7.785660  1093A      7.797144  
    1094A      7.805796  1095A      7.821173  1096A      7.825229  
    1097A      7.841546  1098A      7.855386  1099A      7.868887  
    1100A      7.874415  1101A      7.896394  1102A      7.903388  
    1103A      7.910541  1104A      7.915495  1105A      7.932539  
    1106A      7.941555  1107A      7.973281  1108A      7.990385  
    1109A      8.007526  1110A      8.011668  1111A      8.048773  
    1112A      8.049793  1113A      8.058374  1114A      8.092229  
    1115A      8.104476  1116A      8.119527  1117A      8.142692  
    1118A      8.153554  1119A      8.174982  1120A      8.245715  
    1121A      8.258539  1122A      8.281204  1123A      8.300884  
    1124A      8.319893  1125A      8.324957  1126A      8.359314  
    1127A      8.378347  1128A      8.396522  1129A      8.410104  
    1130A      8.447480  1131A      8.467986  1132A      8.478820  
    1133A      8.502144  1134A      8.544746  1135A      8.565280  
    1136A      8.593983  1137A      8.618186  1138A      8.704843  
    1139A      8.777342  1140A      8.826091  1141A      8.934380  
    1142A      9.057712  1143A      9.095432  1144A      9.151417  
    1145A      9.271550  1146A      9.403432  1147A      9.473736  
    1148A      9.765494  1149A      9.850203  1150A      9.909266  
    1151A      9.974386  1152A     10.025231  1153A     10.041027  
    1154A     10.115608  1155A     10.169841  1156A     10.243338  
    1157A     10.265274  1158A     10.311191  1159A     10.375009  
    1160A     10.429919  1161A     10.466627  1162A     10.558194  
    1163A     10.595967  1164A     10.609153  1165A     10.688506  
    1166A     10.742980  1167A     10.835944  1168A     10.908719  
    1169A     11.064040  1170A     11.597539  1171A     11.656578  
    1172A     11.818693  1173A     12.050249  1174A     12.103669  
    1175A     12.218734  1176A     12.311260  1177A     12.380419  
    1178A     12.478772  1179A     13.008684  1180A     13.215519  
    1181A     13.551687  1182A     13.988841  1183A     14.108130  
    1184A     14.285458  1185A     14.583027  1186A     14.943536  
    1187A     15.998800  1188A     51.469741  1189A     51.921321  
    1190A     53.251069  1191A     54.332861  1192A     54.856047  
    1193A     55.296867  1194A     55.924273  1195A     56.429023  
    1196A     57.677619  1197A     60.030670  1198A     65.827265  
    1199A     66.886465  1200A     71.402607  

    Final Occupation by Irrep:
              A 
    DOCC [    25 ]

  @DF-RHF Final Energy:  -642.17352219433906

   => Energetics <=

    Nuclear Repulsion Energy =            279.6447397076604489
    One-Electron Energy =               -1444.1267372607392190
    Two-Electron Energy =                 522.3084753587397699
    Total Energy =                       -642.1735221943390570

Computation Completed


Properties will be evaluated at   0.000000,   0.000000,   0.000000 [a0]

Properties computed using the SCF density matrix

  Nuclear Dipole Moment: [e a0]
     X:    12.2651      Y:   133.5581      Z:  -186.2057

  Electronic Dipole Moment: [e a0]
     X:   -10.1015      Y:  -134.6827      Z:   186.0481

  Dipole Moment: [e a0]
     X:     2.1636      Y:    -1.1246      Z:    -0.1576     Total:     2.4435

  Dipole Moment: [D]
     X:     5.4993      Y:    -2.8585      Z:    -0.4006     Total:     6.2108


*** tstop() called on localhost.localdomain at Wed Jun  8 14:36:05 2022
Module time:
	user time   =    1052.00 seconds =      17.53 minutes
	system time =      11.54 seconds =       0.19 minutes
	total time  =         53 seconds =       0.88 minutes
Total time:
	user time   =    5260.18 seconds =      87.67 minutes
	system time =      74.04 seconds =       1.23 minutes
	total time  =        293 seconds =       4.88 minutes

*** tstart() called on localhost.localdomain
*** at Wed Jun  8 14:36:05 2022


  //>>>>>>>>>>>>>>>>>>>>>>>>>>>>>>>>>>>//
  //               DFMP2               //
  //<<<<<<<<<<<<<<<<<<<<<<<<<<<<<<<<<<<//

   => Loading Basis Set <=

    Name: (AUG-CC-PVTZ AUX)
    Role: RIFIT
    Keyword: DF_BASIS_MP2
    atoms 1-5, 10, 15, 18, 21, 24                     entry C          line   148 file /data0/home/wuhanyu/software/psi4_132/share/psi4/basis/aug-cc-pvtz-ri.gbs 
    atoms 6-9, 11-13, 16-17, 19-20, 22-23, 30, 32, 34 entry H          line    30 file /data0/home/wuhanyu/software/psi4_132/share/psi4/basis/aug-cc-pvtz-ri.gbs 
    atoms 14                                          entry N          line   206 file /data0/home/wuhanyu/software/psi4_132/share/psi4/basis/aug-cc-pvtz-ri.gbs 
    atoms 25-26, 28-29, 31, 33                        entry O          line   264 file /data0/home/wuhanyu/software/psi4_132/share/psi4/basis/aug-cc-pvtz-ri.gbs 
    atoms 27                                          entry P          line   590 file /data0/home/wuhanyu/software/psi4_132/share/psi4/basis/aug-cc-pvtz-ri.gbs 

	 --------------------------------------------------------
	                          DF-MP2                         
	      2nd-Order Density-Fitted Moller-Plesset Theory     
	              RMP2 Wavefunction,  24 Threads             
	                                                         
	        Rob Parrish, Justin Turney, Andy Simmonett,      
	           Ed Hohenstein, and C. David Sherrill          
	 --------------------------------------------------------

   => Auxiliary Basis Set <=

  Basis Set: (AUG-CC-PVTZ AUX)
    Blend: AUG-CC-PVTZ-RI
    Number of shells: 737
    Number of basis function: 2685
    Number of Cartesian functions: 3383
    Spherical Harmonics?: true
    Max angular momentum: 4

	 --------------------------------------------------------
	                 NBF =  1200, NAUX =  2685
	 --------------------------------------------------------
	   CLASS    FOCC     OCC    AOCC    AVIR     VIR    FVIR
	   PAIRS       9      25      16    1175    1175       0
	 --------------------------------------------------------

	 Will attempt to load fitting metric from file 97.

	-----------------------------------------------------------
	 ==================> DF-MP2 Energies <==================== 
	-----------------------------------------------------------
	 Reference Energy          =    -642.1735221943390570 [Eh]
	 Singles Energy            =      -0.0000000000000000 [Eh]
	 Same-Spin Energy          =      -0.2990007113165065 [Eh]
	 Opposite-Spin Energy      =      -0.8485765216173020 [Eh]
	 Correlation Energy        =      -1.1475772329338085 [Eh]
	 Total Energy              =    -643.3210994272728840 [Eh]
	-----------------------------------------------------------
	 ================> DF-SCS-MP2 Energies <================== 
	-----------------------------------------------------------
	 SCS Same-Spin Scale       =       0.3333333333333333 [-]
	 SCS Opposite-Spin Scale   =       1.2000000000000000 [-]
	 SCS Same-Spin Energy      =      -0.0996669037721688 [Eh]
	 SCS Opposite-Spin Energy  =      -1.0182918259407623 [Eh]
	 SCS Correlation Energy    =      -1.1179587297129312 [Eh]
	 SCS Total Energy          =    -643.2914809240519389 [Eh]
	-----------------------------------------------------------


*** tstop() called on localhost.localdomain at Wed Jun  8 14:36:32 2022
Module time:
	user time   =     327.18 seconds =       5.45 minutes
	system time =       7.15 seconds =       0.12 minutes
	total time  =         27 seconds =       0.45 minutes
Total time:
	user time   =    5587.36 seconds =      93.12 minutes
	system time =      81.19 seconds =       1.35 minutes
	total time  =        320 seconds =       5.33 minutes
  Constructing Basis Sets for SAPT...

   => Loading Basis Set <=

    Name: (AUG-CC-PVTZ AUX)
    Role: RIFIT
    Keyword: DF_BASIS_SAPT
    atoms 1-5, 10, 15, 18, 21, 24                     entry C          line   148 file /data0/home/wuhanyu/software/psi4_132/share/psi4/basis/aug-cc-pvtz-ri.gbs 
    atoms 6-9, 11-13, 16-17, 19-20, 22-23, 30, 32, 34 entry H          line    30 file /data0/home/wuhanyu/software/psi4_132/share/psi4/basis/aug-cc-pvtz-ri.gbs 
    atoms 14                                          entry N          line   206 file /data0/home/wuhanyu/software/psi4_132/share/psi4/basis/aug-cc-pvtz-ri.gbs 
    atoms 25-26, 28-29, 31, 33                        entry O          line   264 file /data0/home/wuhanyu/software/psi4_132/share/psi4/basis/aug-cc-pvtz-ri.gbs 
    atoms 27                                          entry P          line   590 file /data0/home/wuhanyu/software/psi4_132/share/psi4/basis/aug-cc-pvtz-ri.gbs 


  //>>>>>>>>>>>>>>>>>>>>>>>>>>>>>>>>>>>//
  //           SAPT2+(3)DMP2           //
  //<<<<<<<<<<<<<<<<<<<<<<<<<<<<<<<<<<<//


*** tstart() called on localhost.localdomain
*** at Wed Jun  8 14:36:32 2022

      SAPT2+(3)  
    Ed Hohenstein
     6 June 2009

      Orbital Information
  --------------------------
    NSO        =      1200
    NMO        =      1200
    NRI        =      2685
    NOCC A     =        48
    NOCC B     =        25
    FOCC A     =        13
    FOCC B     =         9
    NVIR A     =      1152
    NVIR B     =      1175

    Estimated memory usage: 105998.9 MB

    Natural Orbital Cutoff:   1.000E-06
    Disp(T3) Truncation:            Yes
    CCD (vv|vv) Truncation:         Yes
    MBPT T2 Truncation:             Yes

    Monomer A: 380 virtual orbitals dropped
    Monomer B: 896 virtual orbitals dropped

    Elst10,r            =    -0.129313199452 [Eh]
    Exch10 (S^2)        =     0.123575675853 [Eh]
    Exch10              =     0.126070335607 [Eh]
    Ind20,r (A<-B)      =    -0.051778593016 [Eh]
    Ind20,r (B<-A)      =    -0.030195889853 [Eh]
    Ind20,r             =    -0.081974482869 [Eh]
    Exch-Ind20,r (A<-B) =     0.026315719683 [Eh]
    Exch-Ind20,r (B<-A) =     0.018643726274 [Eh]
    Exch-Ind20,r        =     0.044959445957 [Eh]
    Disp20              =    -0.048320458378 [Eh]
    Disp20 (NO)         =    -0.043542130847 [Eh]
    Exch-Disp20         =     0.010162733368 [Eh]
    Elst12,r            =     0.004187622318 [Eh]
    Exch11              =     0.002233384967 [Eh]
    Exch12              =     0.013917169658 [Eh]
    Ind22               =    -0.009944191231 [Eh]
    Disp21              =     0.008066232423 [Eh]
    Disp22 (SDQ)        =    -0.001965166386 [Eh]

    (i =   1 of  16)       3738 seconds
    (i =   2 of  16)       7087 seconds
    (i =   3 of  16)      10475 seconds
    (i =   4 of  16)      13918 seconds
    (i =   5 of  16)      17313 seconds
    (i =   6 of  16)      20707 seconds
    (i =   7 of  16)      24102 seconds
    (i =   8 of  16)      27577 seconds
    (i =   9 of  16)      30961 seconds
    (i =  10 of  16)      34394 seconds
    (i =  11 of  16)      38023 seconds
    (i =  12 of  16)      41483 seconds
    (i =  13 of  16)      44858 seconds
    (i =  14 of  16)      48248 seconds
    (i =  15 of  16)      51600 seconds
    (i =  16 of  16)      55099 seconds

    Disp220 (T)         =    -0.004442957839 [Eh]

    (i =   1 of  35)        218 seconds
    (i =   2 of  35)        409 seconds
    (i =   3 of  35)        594 seconds
    (i =   4 of  35)        777 seconds
    (i =   5 of  35)        961 seconds
    (i =   6 of  35)       1144 seconds
    (i =   7 of  35)       1330 seconds
    (i =   8 of  35)       1517 seconds
    (i =   9 of  35)       1705 seconds
    (i =  10 of  35)       1892 seconds
    (i =  11 of  35)       2079 seconds
    (i =  12 of  35)       2266 seconds
    (i =  13 of  35)       2452 seconds
    (i =  14 of  35)       2636 seconds
    (i =  15 of  35)       2816 seconds
    (i =  16 of  35)       2996 seconds
    (i =  17 of  35)       3177 seconds
    (i =  18 of  35)       3356 seconds
    (i =  19 of  35)       3534 seconds
    (i =  20 of  35)       3713 seconds
    (i =  21 of  35)       3892 seconds
    (i =  22 of  35)       4071 seconds
    (i =  23 of  35)       4250 seconds
    (i =  24 of  35)       4429 seconds
    (i =  25 of  35)       4607 seconds
    (i =  26 of  35)       4786 seconds
    (i =  27 of  35)       4964 seconds
    (i =  28 of  35)       5142 seconds
    (i =  29 of  35)       5321 seconds
    (i =  30 of  35)       5500 seconds
    (i =  31 of  35)       5680 seconds
    (i =  32 of  35)       5858 seconds
    (i =  33 of  35)       6038 seconds
    (i =  34 of  35)       6217 seconds
    (i =  35 of  35)       6394 seconds

    Disp202 (T)         =    -0.004668912061 [Eh]

    Disp22 (T)          =    -0.009111869901 [Eh]

    Est. Disp220 (T)    =    -0.004930529470 [Eh]
    Est. Disp202 (T)    =    -0.005181279982 [Eh]

    Est. Disp22 (T)     =    -0.010111809452 [Eh]
    Elst13,r            =     0.000557952409 [Eh]
    Disp30              =     0.001560199378 [Eh]

    SAPT Results 
  --------------------------------------------------------------------------------------------------------
    Electrostatics               -124.56762472 [mEh]     -78.16736464 [kcal/mol]    -327.05225366 [kJ/mol]
      Elst10,r                   -129.31319945 [mEh]     -81.14525774 [kcal/mol]    -339.51175839 [kJ/mol]
      Elst12,r                      4.18762232 [mEh]       2.62777268 [kcal/mol]      10.99460088 [kJ/mol]
      Elst13,r                      0.55795241 [mEh]       0.35012042 [kcal/mol]       1.46490385 [kJ/mol]

    Exchange                      142.22089023 [mEh]      89.24495599 [kcal/mol]     373.40089586 [kJ/mol]
      Exch10                      126.07033561 [mEh]      79.11032996 [kcal/mol]     330.99762054 [kJ/mol]
      Exch10(S^2)                 123.57567585 [mEh]      77.54490733 [kcal/mol]     324.44789225 [kJ/mol]
      Exch11(S^2)                   2.23338497 [mEh]       1.40147023 [kcal/mol]       5.86375142 [kJ/mol]
      Exch12(S^2)                  13.91716966 [mEh]       8.73315581 [kcal/mol]      36.53952390 [kJ/mol]

    Induction                     -64.42530142 [mEh]     -40.42748699 [kcal/mol]    -169.14860557 [kJ/mol]
      Ind20,r                     -81.97448287 [mEh]     -51.43976461 [kcal/mol]    -215.22397512 [kJ/mol]
      Ind22                        -9.94419123 [mEh]      -6.24007421 [kcal/mol]     -26.10847048 [kJ/mol]
      Exch-Ind20,r                 44.95944596 [mEh]      28.21247827 [kcal/mol]     118.04100910 [kJ/mol]
      Exch-Ind22                    5.45395729 [mEh]       3.42240987 [kcal/mol]      14.31936289 [kJ/mol]
      delta HF,r (2)              -27.52202142 [mEh]     -17.27032918 [kcal/mol]     -72.25905728 [kJ/mol]
      delta MP2,r (2)               4.60199085 [mEh]       2.88779286 [kcal/mol]      12.08252532 [kJ/mol]

    Dispersion                    -40.60826905 [mEh]     -25.48207354 [kcal/mol]    -106.61699569 [kJ/mol]
      Disp20                      -48.32045838 [mEh]     -30.32154541 [kcal/mol]    -126.86534599 [kJ/mol]
      Disp30                        1.56019938 [mEh]       0.97903989 [kcal/mol]       4.09630290 [kJ/mol]
      Disp21                        8.06623242 [mEh]       5.06163726 [kcal/mol]      21.17789031 [kJ/mol]
      Disp22 (SDQ)                 -1.96516639 [mEh]      -1.23316052 [kcal/mol]      -5.15954364 [kJ/mol]
      Disp22 (T)                   -9.11186990 [mEh]      -5.71778469 [kcal/mol]     -23.92321113 [kJ/mol]
      Est. Disp22 (T)             -10.11180945 [mEh]      -6.34525623 [kcal/mol]     -26.54855206 [kJ/mol]
      Exch-Disp20                  10.16273337 [mEh]       6.37721147 [kcal/mol]      26.68225278 [kJ/mol]

  Total HF                        -67.77992217 [mEh]     -42.53254330 [kcal/mol]    -177.95616115 [kJ/mol]
  Total SAPT0                    -105.93764718 [mEh]     -66.47687724 [kcal/mol]    -278.13925436 [kJ/mol]
  Total SAPT2                     -90.08970418 [mEh]     -56.53214287 [kcal/mol]    -236.53048575 [kJ/mol]
  Total SAPT2+                    -94.10044760 [mEh]     -59.04892236 [kcal/mol]    -247.06069114 [kJ/mol]
  Total SAPT2+(3)                 -91.98229581 [mEh]     -57.71976204 [kcal/mol]    -241.49948439 [kJ/mol]
  Total SAPT2+dMP2                -89.49845675 [mEh]     -56.16112950 [kcal/mol]    -234.97816581 [kJ/mol]
  Total SAPT2+(3)dMP2             -87.38030496 [mEh]     -54.83196918 [kcal/mol]    -229.41695906 [kJ/mol]

  Special recipe for scaled SAPT0 (see Manual):
    Electrostatics sSAPT0        -129.31319945 [mEh]     -81.14525774 [kcal/mol]    -339.51175839 [kJ/mol]
    Exchange sSAPT0               126.07033561 [mEh]      79.11032996 [kcal/mol]     330.99762054 [kJ/mol]
    Induction sSAPT0              -61.75889183 [mEh]     -38.75428971 [kcal/mol]    -162.14794815 [kJ/mol]
    Dispersion sSAPT0             -37.52974206 [mEh]     -23.55026869 [kcal/mol]     -98.53432421 [kJ/mol]
  Total sSAPT0                   -102.53149773 [mEh]     -64.33948619 [kcal/mol]    -269.19641021 [kJ/mol]
  --------------------------------------------------------------------------------------------------------

*** tstop() called on localhost.localdomain at Thu Jun  9 11:28:44 2022
Module time:
	user time   =  975279.04 seconds =   16254.65 minutes
	system time =    6744.32 seconds =     112.41 minutes
	total time  =      75132 seconds =    1252.20 minutes
Total time:
	user time   =  980868.72 seconds =   16347.81 minutes
	system time =    6825.54 seconds =     113.76 minutes
	total time  =      75452 seconds =    1257.53 minutes

    Psi4 stopped on: Thursday, 09 June 2022 11:28AM
    Psi4 wall time for execution: 20:57:32.47

*** Psi4 exiting successfully. Buy a developer a beer!
