 Entering Gaussian System, Link 0=g16
 Initial command:
 /data0/hywu0/study/g16/l1.exe "/data0/hywu0/study/g16/scratch/Gau-901056.inp" -scrdir="/data0/hywu0/study/g16/scratch/"
 Default is to use a total of   8 processors:
                                8 via shared-memory
                                1 via Linda
 Entering Link 1 = /data0/hywu0/study/g16/l1.exe PID=    901057.
  
 Copyright (c) 1988,1990,1992,1993,1995,1998,2003,2009,2016,
            Gaussian, Inc.  All Rights Reserved.
  
 This is part of the Gaussian(R) 16 program.  It is based on
 the Gaussian(R) 09 system (copyright 2009, Gaussian, Inc.),
 the Gaussian(R) 03 system (copyright 2003, Gaussian, Inc.),
 the Gaussian(R) 98 system (copyright 1998, Gaussian, Inc.),
 the Gaussian(R) 94 system (copyright 1995, Gaussian, Inc.),
 the Gaussian 92(TM) system (copyright 1992, Gaussian, Inc.),
 the Gaussian 90(TM) system (copyright 1990, Gaussian, Inc.),
 the Gaussian 88(TM) system (copyright 1988, Gaussian, Inc.),
 the Gaussian 86(TM) system (copyright 1986, Carnegie Mellon
 University), and the Gaussian 82(TM) system (copyright 1983,
 Carnegie Mellon University). Gaussian is a federally registered
 trademark of Gaussian, Inc.
  
 This software contains proprietary and confidential information,
 including trade secrets, belonging to Gaussian, Inc.
  
 This software is provided under written license and may be
 used, copied, transmitted, or stored only in accord with that
 written license.
  
 The following legend is applicable only to US Government
 contracts under FAR:
  
                    RESTRICTED RIGHTS LEGEND
  
 Use, reproduction and disclosure by the US Government is
 subject to restrictions as set forth in subparagraphs (a)
 and (c) of the Commercial Computer Software - Restricted
 Rights clause in FAR 52.227-19.
  
 Gaussian, Inc.
 340 Quinnipiac St., Bldg. 40, Wallingford CT 06492
  
  
 ---------------------------------------------------------------
 Warning -- This program may not be used in any manner that
 competes with the business of Gaussian, Inc. or will provide
 assistance to any competitor of Gaussian, Inc.  The licensee
 of this program is prohibited from giving any competitor of
 Gaussian, Inc. access to this program.  By using this program,
 the user acknowledges that Gaussian, Inc. is engaged in the
 business of creating and licensing software in the field of
 computational chemistry and represents and warrants to the
 licensee that it is not a competitor of Gaussian, Inc. and that
 it will not use this program in any manner prohibited above.
 ---------------------------------------------------------------
  

 Cite this work as:
 Gaussian 16, Revision A.03,
 M. J. Frisch, G. W. Trucks, H. B. Schlegel, G. E. Scuseria, 
 M. A. Robb, J. R. Cheeseman, G. Scalmani, V. Barone, 
 G. A. Petersson, H. Nakatsuji, X. Li, M. Caricato, A. V. Marenich, 
 J. Bloino, B. G. Janesko, R. Gomperts, B. Mennucci, H. P. Hratchian, 
 J. V. Ortiz, A. F. Izmaylov, J. L. Sonnenberg, D. Williams-Young, 
 F. Ding, F. Lipparini, F. Egidi, J. Goings, B. Peng, A. Petrone, 
 T. Henderson, D. Ranasinghe, V. G. Zakrzewski, J. Gao, N. Rega, 
 G. Zheng, W. Liang, M. Hada, M. Ehara, K. Toyota, R. Fukuda, 
 J. Hasegawa, M. Ishida, T. Nakajima, Y. Honda, O. Kitao, H. Nakai, 
 T. Vreven, K. Throssell, J. A. Montgomery, Jr., J. E. Peralta, 
 F. Ogliaro, M. J. Bearpark, J. J. Heyd, E. N. Brothers, K. N. Kudin, 
 V. N. Staroverov, T. A. Keith, R. Kobayashi, J. Normand, 
 K. Raghavachari, A. P. Rendell, J. C. Burant, S. S. Iyengar, 
 J. Tomasi, M. Cossi, J. M. Millam, M. Klene, C. Adamo, R. Cammi, 
 J. W. Ochterski, R. L. Martin, K. Morokuma, O. Farkas, 
 J. B. Foresman, and D. J. Fox, Gaussian, Inc., Wallingford CT, 2016.
 
 ******************************************
 Gaussian 16:  ES64L-G16RevA.03 25-Dec-2016
                21-May-2022 
 ******************************************
 %nproc=6
 Will use up to    6 processors via shared memory.
 %mem=5GB
 ---------------------------------------------------
 #p M062X/6-311+G(2d,p) nosymm em=GD3 counterpoise=3
 ---------------------------------------------------
 1/38=1,62=3,172=1/1;
 2/12=2,15=1,17=6,18=5,40=1/2;
 1/38=1,53=2,62=3,63=1/22;
 3/5=4,6=6,7=112,11=2,25=1,30=1,74=-55,124=31/1,2,3;
 4//1;
 5/5=2,38=5/2;
 6/7=2,8=2,9=2,10=2,28=1/1;
 1/53=2,62=3,63=1/22;
 3/5=7,6=11,7=112,11=2,25=1,30=1,74=-55,82=7,124=31/1,2,3;
 4//1;
 5/5=2,38=5/2;
 6/7=2,8=2,9=2,10=2,28=1/1;
 1/53=2,62=3,63=1/22(-4);
 99/5=1,9=1/99;
 Leave Link    1 at Sat May 21 15:04:24 2022, MaxMem=   671088640 cpu:               0.2 elap:               0.0
 (Enter /data0/hywu0/study/g16/l101.exe)
 -------------------
 Title Card Required
 -------------------
 Symbolic Z-matrix:
 Charge =  0 Multiplicity = 1 in supermolecule
 Charge =  0 Multiplicity = 1 in fragment      1.
 Charge =  0 Multiplicity = 1 in fragment      2.
 Charge =  0 Multiplicity = 1 in fragment      3.
 C                     10.42001   7.42753   9.44901    
 C                     9.9989    8.13549   8.32773    
 C                     11.27753   9.50146   9.58143    
 N                     11.21487   8.28745   10.20434    
 H                     10.17252   6.43013   9.77018    
 H                     9.36791   7.82961   7.51612    
 H                     11.81505   10.39526   9.93726    
 C                     11.75075   7.99992   11.52338    
 H                     12.78061   8.40056   11.63662    
 H                     11.11779   8.49336   12.3044    
 H                     11.75106   6.91749   11.72718    
 N                     10.54525   9.4159    8.42339    
 C                     10.17259   10.57184   7.60999    
 H                     10.391    10.35236   6.54125    
 H                     10.81483   11.44433   7.91221    
 C                     8.68716   10.96105   7.78878    
 H                     8.5984    12.04551   7.54909    
 H                     8.06186   10.42235   7.05343    
 C                     8.13537   10.72778   9.19328    
 H                     7.92435   9.65583   9.37186    
 H                     7.16478   11.24548   9.32004    
 C                     9.07824   11.24872   10.28241    
 O                     9.83723   12.18661   10.00589    
 O                     9.044     10.63294   11.3756    
 P                     12.12207   11.77319   12.59115    
 O                     12.89878   10.8588   11.74369    
 O                     10.87723   11.10026   13.31189    
 H                     10.10269   10.96889   12.59183    
 O                     13.01179   12.3066   13.80041    
 H                     12.41033   12.93104   14.36371    
 O                     11.58921   13.09374   11.89802    
 H                     10.88141   12.80809   11.15036    
 O                     8.76976   7.95477   11.33144    
 H                     8.86016   8.94187   11.34831    
 H                     8.08452   7.77382   11.96432    
 
 ITRead=  0  0  0  0  0  0  0  0  0  0  0  0  0  0  0  0  0  0  0  0
 ITRead=  0  0  0  0  0  0  0  0  0  0  0  0  0  0  0
 MicOpt= -1 -1 -1 -1 -1 -1 -1 -1 -1 -1 -1 -1 -1 -1 -1 -1 -1 -1 -1 -1
 MicOpt= -1 -1 -1 -1 -1 -1 -1 -1 -1 -1 -1 -1 -1 -1 -1
 NAtoms=     35 NQM=       35 NQMF=       0 NMMI=      0 NMMIF=      0
                NMic=       0 NMicF=      0.
                    Isotopes and Nuclear Properties:
 (Nuclear quadrupole moments (NQMom) in fm**2, nuclear magnetic moments (NMagM)
  in nuclear magnetons)

  Atom         1           2           3           4           5           6           7           8           9          10
 IAtWgt=          12          12          12          14           1           1           1          12           1           1
 AtmWgt=  12.0000000  12.0000000  12.0000000  14.0030740   1.0078250   1.0078250   1.0078250  12.0000000   1.0078250   1.0078250
 NucSpn=           0           0           0           2           1           1           1           0           1           1
 AtZEff=  -0.0000000  -0.0000000  -0.0000000  -0.0000000  -0.0000000  -0.0000000  -0.0000000  -0.0000000  -0.0000000  -0.0000000
 NQMom=    0.0000000   0.0000000   0.0000000   2.0440000   0.0000000   0.0000000   0.0000000   0.0000000   0.0000000   0.0000000
 NMagM=    0.0000000   0.0000000   0.0000000   0.4037610   2.7928460   2.7928460   2.7928460   0.0000000   2.7928460   2.7928460
 AtZNuc=   6.0000000   6.0000000   6.0000000   7.0000000   1.0000000   1.0000000   1.0000000   6.0000000   1.0000000   1.0000000

  Atom        11          12          13          14          15          16          17          18          19          20
 IAtWgt=           1          14          12           1           1          12           1           1          12           1
 AtmWgt=   1.0078250  14.0030740  12.0000000   1.0078250   1.0078250  12.0000000   1.0078250   1.0078250  12.0000000   1.0078250
 NucSpn=           1           2           0           1           1           0           1           1           0           1
 AtZEff=  -0.0000000  -0.0000000  -0.0000000  -0.0000000  -0.0000000  -0.0000000  -0.0000000  -0.0000000  -0.0000000  -0.0000000
 NQMom=    0.0000000   2.0440000   0.0000000   0.0000000   0.0000000   0.0000000   0.0000000   0.0000000   0.0000000   0.0000000
 NMagM=    2.7928460   0.4037610   0.0000000   2.7928460   2.7928460   0.0000000   2.7928460   2.7928460   0.0000000   2.7928460
 AtZNuc=   1.0000000   7.0000000   6.0000000   1.0000000   1.0000000   6.0000000   1.0000000   1.0000000   6.0000000   1.0000000

  Atom        21          22          23          24          25          26          27          28          29          30
 IAtWgt=           1          12          16          16          31          16          16           1          16           1
 AtmWgt=   1.0078250  12.0000000  15.9949146  15.9949146  30.9737634  15.9949146  15.9949146   1.0078250  15.9949146   1.0078250
 NucSpn=           1           0           0           0           1           0           0           1           0           1
 AtZEff=  -0.0000000  -0.0000000  -0.0000000  -0.0000000  -0.0000000  -0.0000000  -0.0000000  -0.0000000  -0.0000000  -0.0000000
 NQMom=    0.0000000   0.0000000   0.0000000   0.0000000   0.0000000   0.0000000   0.0000000   0.0000000   0.0000000   0.0000000
 NMagM=    2.7928460   0.0000000   0.0000000   0.0000000   1.1316000   0.0000000   0.0000000   2.7928460   0.0000000   2.7928460
 AtZNuc=   1.0000000   6.0000000   8.0000000   8.0000000  15.0000000   8.0000000   8.0000000   1.0000000   8.0000000   1.0000000

  Atom        31          32          33          34          35
 IAtWgt=          16           1          16           1           1
 AtmWgt=  15.9949146   1.0078250  15.9949146   1.0078250   1.0078250
 NucSpn=           0           1           0           1           1
 AtZEff=  -0.0000000  -0.0000000  -0.0000000  -0.0000000  -0.0000000
 NQMom=    0.0000000   0.0000000   0.0000000   0.0000000   0.0000000
 NMagM=    0.0000000   2.7928460   0.0000000   2.7928460   2.7928460
 AtZNuc=   8.0000000   1.0000000   8.0000000   1.0000000   1.0000000
 Leave Link  101 at Sat May 21 15:04:25 2022, MaxMem=   671088640 cpu:               0.6 elap:               0.1
 (Enter /data0/hywu0/study/g16/l202.exe)
                          Input orientation:                          
 ---------------------------------------------------------------------
 Center     Atomic      Atomic             Coordinates (Angstroms)
 Number     Number       Type             X           Y           Z
 ---------------------------------------------------------------------
      1          6           0       10.420007    7.427526    9.449007
      2          6           0        9.998900    8.135490    8.327733
      3          6           0       11.277531    9.501461    9.581434
      4          7           0       11.214866    8.287449   10.204341
      5          1           0       10.172522    6.430129    9.770182
      6          1           0        9.367915    7.829614    7.516122
      7          1           0       11.815050   10.395258    9.937262
      8          6           0       11.750746    7.999922   11.523383
      9          1           0       12.780605    8.400561   11.636618
     10          1           0       11.117794    8.493362   12.304396
     11          1           0       11.751058    6.917488   11.727180
     12          7           0       10.545249    9.415895    8.423394
     13          6           0       10.172595   10.571844    7.609990
     14          1           0       10.391000   10.352363    6.541253
     15          1           0       10.814826   11.444333    7.912210
     16          6           0        8.687159   10.961048    7.788775
     17          1           0        8.598402   12.045515    7.549086
     18          1           0        8.061859   10.422347    7.053427
     19          6           0        8.135373   10.727780    9.193278
     20          1           0        7.924352    9.655826    9.371864
     21          1           0        7.164781   11.245484    9.320042
     22          6           0        9.078240   11.248717   10.282411
     23          8           0        9.837228   12.186608   10.005893
     24          8           0        9.044004   10.632938   11.375604
     25         15           0       12.122073   11.773186   12.591147
     26          8           0       12.898783   10.858797   11.743689
     27          8           0       10.877229   11.100256   13.311885
     28          1           0       10.102689   10.968894   12.591828
     29          8           0       13.011792   12.306599   13.800412
     30          1           0       12.410330   12.931036   14.363714
     31          8           0       11.589215   13.093741   11.898022
     32          1           0       10.881412   12.808092   11.150360
     33          8           0        8.769757    7.954771   11.331442
     34          1           0        8.860156    8.941866   11.348313
     35          1           0        8.084520    7.773823   11.964319
 ---------------------------------------------------------------------
                    Distance matrix (angstroms):
                    1          2          3          4          5
     1  C    0.000000
     2  C    1.391330   0.000000
     3  C    2.248130   2.252230   0.000000
     4  N    1.393484   2.241277   1.365930   0.000000
     5  H    1.076663   2.240326   3.269518   2.173617   0.000000
     6  H    2.237100   1.072574   3.272189   3.293533   2.772497
     7  H    3.315414   3.315952   1.102004   2.207807   4.295121
     8  C    2.530126   3.646851   2.499944   1.452484   2.833506
     9  H    3.362270   4.330920   2.773985   2.125029   3.764078
    10  H    3.126685   4.146546   2.907972   2.112357   3.401869
    11  H    2.687361   4.013705   3.391957   2.117388   2.561081
    12  N    2.240799   1.395380   1.372813   2.212137   3.296599
    13  C    3.651018   2.545809   2.500639   3.610463   4.671213
    14  H    4.124384   2.873983   3.279127   4.284955   5.085040
    15  H    4.318838   3.433196   2.602913   3.921710   5.385801
    16  C    4.271406   3.161474   3.471894   4.401408   5.163478
    17  H    5.315427   4.225634   4.216679   5.293328   6.240487
    18  H    4.502068   3.256639   4.192779   4.942419   5.270053
    19  C    4.022018   3.307850   3.395244   4.057184   4.790887
    20  H    3.346575   2.775857   3.363266   3.659639   3.951967
    21  H    5.018957   4.323074   4.474892   5.092656   5.695329
    22  C    4.134780   3.789533   2.895022   3.652448   4.967758
    23  O    4.826864   4.387928   3.076468   4.140134   5.771051
    24  O    3.984950   4.054453   3.080248   3.403795   4.638376
    25  P    5.626263   5.993112   3.864241   4.320906   6.348768
    26  O    4.814926   5.243518   3.024263   3.437586   5.562403
    27  O    5.349750   5.865413   4.078315   4.205082   5.903419
    28  H    4.745451   5.120689   3.549096   3.758614   5.344806
    29  O    7.032598   7.511716   5.355020   5.684561   7.670535
    30  H    7.642274   8.077458   5.992948   6.347631   8.268622
    31  O    6.282572   6.313503   4.285814   5.109710   7.137118
    32  H    5.661977   5.529852   3.681338   4.630589   6.563980
    33  O    2.558295   3.250495   3.426909   2.712856   2.594189
    34  H    2.886819   3.327294   3.046097   2.698443   3.243705
    35  H    3.449814   4.125580   4.342602   3.627727   3.313533
                    6          7          8          9         10
     6  H    0.000000
     7  H    4.293357   0.000000
     8  C    4.665301   2.873595   0.000000
     9  H    5.380606   2.792655   1.110830   0.000000
    10  H    5.141032   3.115557   1.119863   1.794291   0.000000
    11  H    4.923856   3.911878   1.101452   1.807671   1.793762
    12  N    2.173832   2.205299   3.614987   4.043826   4.030019
    13  C    2.859396   2.853951   4.941658   5.265921   5.220243
    14  H    2.891597   3.682748   5.674902   5.956718   6.099011
    15  H    3.913647   2.490350   5.077449   5.196157   5.300124
    16  C    3.216154   3.836641   5.665786   6.174001   5.691071
    17  H    4.285681   4.332846   6.488384   6.890895   6.448108
    18  H    2.939751   4.733253   6.281444   6.881847   6.374355
    19  C    3.568106   3.768833   5.093282   5.741432   4.854535
    20  H    2.977029   4.000496   4.691731   5.503453   4.488779
    21  H    4.447032   4.767478   6.034854   6.708024   5.666291
    22  C    4.407554   2.887499   4.385997   4.863474   3.979973
    23  O    5.040100   2.669349   4.846923   5.065262   4.534648
    24  O    4.781124   3.131136   3.779030   4.360484   3.121065
    25  P    6.992355   3.006003   3.938975   3.566425   3.442099
    26  O    6.286120   2.156971   3.088639   2.463403   3.013569
    27  O    6.823928   3.572760   3.684270   3.703743   2.805138
    28  H    6.013133   3.210601   3.559840   3.831448   2.690969
    29  O    8.533085   4.473180   5.032153   4.471307   4.512878
    30  H    9.064784   5.135952   5.728736   5.300883   5.060078
    31  O    7.200434   3.343261   5.110131   4.849091   4.642291
    32  H    6.346936   2.857456   4.900346   4.823869   4.472647
    33  O    3.863952   4.144095   2.987503   4.047068   2.598076
    34  H    4.022513   3.582571   3.045229   3.968129   2.492424
    35  H    4.629975   4.989763   3.699562   4.749042   3.135943
                   11         12         13         14         15
    11  H    0.000000
    12  N    4.314049   0.000000
    13  C    5.726877   1.461751   0.000000
    14  H    6.367257   2.107895   1.112687   0.000000
    15  H    5.993568   2.109157   1.124738   1.803205   0.000000
    16  C    6.422530   2.498547   1.545951   2.197699   2.185353
    17  H    7.327508   3.386669   2.157197   2.663813   2.325041
    18  H    6.909283   3.009482   2.187994   2.385816   3.059541
    19  C    5.831995   2.849783   2.584839   3.501718   3.055168
    20  H    5.262099   2.797546   2.999648   3.818622   3.699214
    21  H    6.749800   3.947016   3.524913   4.350612   3.917188
    22  C    5.290639   2.994544   2.966076   4.064856   2.944800
    23  O    5.864231   3.268401   2.908657   3.959147   2.426969
    24  O    4.610457   3.528523   3.931577   5.026338   3.973571
    25  P    4.945897   5.041167   5.482300   6.451091   4.869239
    26  O    4.105053   4.318037   4.960031   5.797481   4.400677
    27  O    4.557457   5.181180   5.769518   6.829145   5.410986
    28  H    4.458545   4.470292   4.998124   6.088735   4.757311
    29  O    5.910183   6.584248   7.027926   7.961343   6.343586
    30  H    6.599145   7.149975   7.495734   8.480457   6.810126
    31  O    6.180735   5.166184   5.172426   6.135621   4.382570
    32  H    5.982326   4.365358   4.247051   5.245472   3.514241
    33  O    3.181308   3.707290   4.760906   5.596676   5.296272
    34  H    3.549501   3.408723   4.284202   5.238398   4.678662
    35  H    3.772671   4.614080   5.581143   6.432602   6.111203
                   16         17         18         19         20
    16  C    0.000000
    17  H    1.114180   0.000000
    18  H    1.105412   1.779952   0.000000
    19  C    1.526928   2.157357   2.162789   0.000000
    20  H    2.188984   3.080175   2.445734   1.107027   0.000000
    21  H    2.177916   2.414871   2.572906   1.107310   1.762568
    22  C    2.540456   2.887247   3.484574   1.531856   2.167454
    23  O    2.782134   2.755086   3.870608   2.384289   3.235111
    24  O    3.619439   4.103191   4.437361   2.365830   2.494663
    25  P    5.959948   6.157337   6.998317   5.341551   5.698057
    26  O    5.778371   6.123420   6.751658   5.404798   5.640714
    27  O    5.943108   6.268686   6.895953   4.961798   5.131240
    28  H    5.007305   5.371335   5.927697   3.934287   4.103348
    29  O    7.526801   7.656713   8.577532   6.891866   7.247115
    30  H    7.808500   7.858378   8.868090   7.061374   7.467902
    31  O    5.464084   5.381169   6.561150   4.984219   5.624229
    32  H    4.418888   4.331609   5.516024   3.962146   4.673760
    33  O    4.647044   5.574026   4.989135   3.558619   2.729147
    34  H    4.096014   4.912767   4.612499   2.891189   2.300395
    35  H    5.287414   6.164877   5.579610   4.050570   3.207555
                   21         22         23         24         25
    21  H    0.000000
    22  C    2.141843   0.000000
    23  O    2.915146   1.237806   0.000000
    24  O    2.851671   1.255160   2.217928   0.000000
    25  P    5.962662   3.856196   3.474906   3.500317   0.000000
    26  O    6.237176   4.109005   3.762464   3.878894   1.468867
    27  O    5.453272   3.526488   3.631989   2.707080   1.588060
    28  H    4.405949   2.541890   2.870602   1.647083   2.173660
    29  O    7.442259   5.382219   4.948801   4.942082   1.593252
    30  H    7.469638   5.530828   5.115235   5.053930   2.136750
    31  O    5.444047   3.509887   2.733588   3.578627   1.583738
    32  H    4.427771   2.537009   1.669242   2.856238   2.164749
    33  O    4.177376   3.470693   4.561252   2.692534   5.234995
    34  H    3.506399   2.550543   3.644875   1.701255   4.494565
    35  H    4.459882   3.986375   5.136155   3.072740   5.717487
                   26         27         28         29         30
    26  O    0.000000
    27  O    2.569868   0.000000
    28  H    2.923970   1.065669   0.000000
    29  O    2.517739   2.500056   3.422428   0.000000
    30  H    3.375988   2.609310   3.509243   1.033918   0.000000
    31  O    2.594949   2.545568   2.684418   2.502480   2.603909
    32  H    2.867329   2.754798   2.463106   3.436974   3.560667
    33  O    5.064797   4.272899   3.528487   6.559656   6.871074
    34  H    4.487923   3.547231   2.683106   5.879651   6.132687
    35  H    5.722139   4.547561   3.830829   6.942284   7.146088
                   31         32         33         34         35
    31  O    0.000000
    32  H    1.068447   0.000000
    33  O    5.888919   5.295904   0.000000
    34  H    4.998801   4.367192   0.991369   0.000000
    35  H    6.370935   5.816270   0.950171   1.531470   0.000000
 Symmetry turned off by external request.
 Stoichiometry    C8H17N2O7P
 Framework group  C1[X(C8H17N2O7P)]
 Deg. of freedom    99
 Full point group                 C1      NOp   1
 Rotational constants (GHZ):           0.5682936           0.2873211           0.2464368
 Leave Link  202 at Sat May 21 15:04:25 2022, MaxMem=   671088640 cpu:               0.1 elap:               0.0
 (Enter /data0/hywu0/study/g16/l122.exe)
 Counterpoise: doing full-system calculation.
 Leave Link  122 at Sat May 21 15:04:25 2022, MaxMem=   671088640 cpu:               0.0 elap:               0.0
 (Enter /data0/hywu0/study/g16/l301.exe)
 Standard basis: 6-311+G(2d,p) (5D, 7F)
 Ernie: Thresh=  0.10000D-02 Tol=  0.10000D-05 Strict=F.
   596 basis functions,   906 primitive gaussians,   632 cartesian basis functions
    75 alpha electrons       75 beta electrons
       nuclear repulsion energy      1744.1305473192 Hartrees.
 IExCor= 4336 DFT=T Ex+Corr=M062X ExCW=0 ScaHFX=  0.540000
 ScaDFX=  1.000000  1.000000  1.000000  1.000000 ScalE2=  1.000000  1.000000
 IRadAn=      5 IRanWt=     -1 IRanGd=            0 ICorTp=0 IEmpDi=131
 NAtoms=   35 NActive=   35 NUniq=   35 SFac= 1.00D+00 NAtFMM=   60 NAOKFM=F Big=F
 Integral buffers will be    131072 words long.
 Raffenetti 2 integral format.
 Two-electron integral symmetry is turned off.
 R6Disp:  Grimme-D3 Dispersion energy=       -0.0026100265 Hartrees.
 Nuclear repulsion after empirical dispersion term =     1744.1279372927 Hartrees.
 Leave Link  301 at Sat May 21 15:04:25 2022, MaxMem=   671088640 cpu:               0.3 elap:               0.1
 (Enter /data0/hywu0/study/g16/l302.exe)
 NPDir=0 NMtPBC=     1 NCelOv=     1 NCel=       1 NClECP=     1 NCelD=      1
         NCelK=      1 NCelE2=     1 NClLst=     1 CellRange=     0.0.
 One-electron integrals computed using PRISM.
 NBasis=   596 RedAO= T EigKep=  9.46D-06  NBF=   596
 NBsUse=   596 1.00D-06 EigRej= -1.00D+00 NBFU=   596
 Precomputing XC quadrature grid using
 IXCGrd= 4 IRadAn=           5 IRanWt=          -1 IRanGd=           0 AccXCQ= 0.00D+00.
 Generated NRdTot=       0 NPtTot=           0 NUsed=           0 NTot=          32
 NSgBfM=   632   632   632   632   632 MxSgAt=    35 MxSgA2=    35.
 Leave Link  302 at Sat May 21 15:04:26 2022, MaxMem=   671088640 cpu:               5.2 elap:               0.9
 (Enter /data0/hywu0/study/g16/l303.exe)
 DipDrv:  MaxL=1.
 Leave Link  303 at Sat May 21 15:04:26 2022, MaxMem=   671088640 cpu:               0.5 elap:               0.1
 (Enter /data0/hywu0/study/g16/l401.exe)
 ExpMin= 3.48D-02 ExpMax= 7.75D+04 ExpMxC= 2.65D+03 IAcc=3 IRadAn=         5 AccDes= 0.00D+00
 Harris functional with IExCor= 1009 and IRadAn=       5 diagonalized for initial guess.
 HarFok:  IExCor= 1009 AccDes= 0.00D+00 IRadAn=         5 IDoV= 1 UseB2=F ITyADJ=14
 ICtDFT=  3500011 ScaDFX=  1.000000  1.000000  1.000000  1.000000
 FoFCou: FMM=F IPFlag=           0 FMFlag=      100000 FMFlg1=           0
         NFxFlg=           0 DoJE=T BraDBF=F KetDBF=T FulRan=T
         wScrn=  0.000000 ICntrl=       500 IOpCl=  0 I1Cent=   200000004 NGrid=           0
         NMat0=    1 NMatS0=      1 NMatT0=    0 NMatD0=    1 NMtDS0=    0 NMtDT0=    0
 Symmetry not used in FoFCou.
 Harris En= -1292.05482754999    
 JPrj=0 DoOrth=F DoCkMO=F.
 Leave Link  401 at Sat May 21 15:04:34 2022, MaxMem=   671088640 cpu:              49.9 elap:               8.4
 (Enter /data0/hywu0/study/g16/l502.exe)
 Two-electron integral symmetry not used.
 Closed shell SCF:
 Using DIIS extrapolation, IDIIS=  1040.
 NGot=   671088640 LenX=   670281583 LenY=   669881527
 Requested convergence on RMS density matrix=1.00D-08 within 128 cycles.
 Requested convergence on MAX density matrix=1.00D-06.
 Requested convergence on             energy=1.00D-06.
 No special actions if energy rises.
 Fock matrices will be formed incrementally for  20 cycles.

 Cycle   1  Pass 1  IDiag  1:
 FoFJK:  IHMeth= 1 ICntrl=       0 DoSepK=F KAlg= 0 I1Cent=           0 FoldK=F
 IRaf= 860000000 NMat=       1 IRICut=       1 DoRegI=T DoRafI=F ISym2E= 0 IDoP0=0 IntGTp=1.
 FoFCou: FMM=F IPFlag=           0 FMFlag=      100000 FMFlg1=           0
         NFxFlg=           0 DoJE=F BraDBF=F KetDBF=F FulRan=T
         wScrn=  0.000000 ICntrl=         0 IOpCl=  0 I1Cent=           0 NGrid=           0
         NMat0=    1 NMatS0=      1 NMatT0=    0 NMatD0=    1 NMtDS0=    0 NMtDT0=    0
 Symmetry not used in FoFCou.
 E= -1291.98652163490    
 DIIS: error= 2.38D-02 at cycle   1 NSaved=   1.
 NSaved= 1 IEnMin= 1 EnMin= -1291.98652163490     IErMin= 1 ErrMin= 2.38D-02
 ErrMax= 2.38D-02  0.00D+00 EMaxC= 1.00D-01 BMatC= 1.02D+00 BMatP= 1.02D+00
 IDIUse=3 WtCom= 7.62D-01 WtEn= 2.38D-01
 Coeff-Com:  0.100D+01
 Coeff-En:   0.100D+01
 Coeff:      0.100D+01
 Gap=     0.291 Goal=   None    Shift=    0.000
 GapD=    0.291 DampG=1.000 DampE=0.500 DampFc=0.5000 IDamp=-1.
 Damping current iteration by 5.00D-01
 RMSDP=5.71D-03 MaxDP=1.04D+00              OVMax= 2.28D-01

 Cycle   2  Pass 1  IDiag  1:
 RMSU=  2.86D-03    CP:  9.98D-01
 E= -1292.27013486331     Delta-E=       -0.283613228407 Rises=F Damp=T
 DIIS: error= 5.12D-03 at cycle   2 NSaved=   2.
 NSaved= 2 IEnMin= 2 EnMin= -1292.27013486331     IErMin= 2 ErrMin= 5.12D-03
 ErrMax= 5.12D-03  0.00D+00 EMaxC= 1.00D-01 BMatC= 6.29D-02 BMatP= 1.02D+00
 IDIUse=3 WtCom= 9.49D-01 WtEn= 5.12D-02
 Coeff-Com:  0.730D-02 0.993D+00
 Coeff-En:   0.712D-01 0.929D+00
 Coeff:      0.106D-01 0.989D+00
 Gap=     0.337 Goal=   None    Shift=    0.000
 RMSDP=2.69D-03 MaxDP=8.03D-01 DE=-2.84D-01 OVMax= 1.40D-01

 Cycle   3  Pass 1  IDiag  1:
 RMSU=  1.91D-03    CP:  8.58D-01  7.37D-01
 E= -1292.59223712604     Delta-E=       -0.322102262735 Rises=F Damp=F
 DIIS: error= 4.11D-03 at cycle   3 NSaved=   3.
 NSaved= 3 IEnMin= 3 EnMin= -1292.59223712604     IErMin= 3 ErrMin= 4.11D-03
 ErrMax= 4.11D-03  0.00D+00 EMaxC= 1.00D-01 BMatC= 2.04D-02 BMatP= 6.29D-02
 IDIUse=3 WtCom= 9.59D-01 WtEn= 4.11D-02
 Coeff-Com: -0.578D-01 0.328D+00 0.729D+00
 Coeff-En:   0.000D+00 0.000D+00 0.100D+01
 Coeff:     -0.554D-01 0.315D+00 0.741D+00
 Gap=     0.320 Goal=   None    Shift=    0.000
 RMSDP=5.26D-04 MaxDP=4.06D-02 DE=-3.22D-01 OVMax= 4.00D-02

 Cycle   4  Pass 1  IDiag  1:
 RMSU=  4.49D-04    CP:  8.52D-01  8.27D-01  9.63D-01
 E= -1292.60257513718     Delta-E=       -0.010338011138 Rises=F Damp=F
 DIIS: error= 2.43D-03 at cycle   4 NSaved=   4.
 NSaved= 4 IEnMin= 4 EnMin= -1292.60257513718     IErMin= 4 ErrMin= 2.43D-03
 ErrMax= 2.43D-03  0.00D+00 EMaxC= 1.00D-01 BMatC= 6.18D-03 BMatP= 2.04D-02
 IDIUse=3 WtCom= 9.76D-01 WtEn= 2.43D-02
 Coeff-Com: -0.308D-01 0.834D-01 0.404D+00 0.544D+00
 Coeff-En:   0.000D+00 0.000D+00 0.215D+00 0.785D+00
 Coeff:     -0.300D-01 0.814D-01 0.399D+00 0.550D+00
 Gap=     0.323 Goal=   None    Shift=    0.000
 RMSDP=2.02D-04 MaxDP=1.62D-02 DE=-1.03D-02 OVMax= 1.53D-02

 Cycle   5  Pass 1  IDiag  1:
 RMSU=  1.32D-04    CP:  8.50D-01  8.14D-01  9.84D-01  6.88D-01
 E= -1292.60689973513     Delta-E=       -0.004324597946 Rises=F Damp=F
 DIIS: error= 3.56D-04 at cycle   5 NSaved=   5.
 NSaved= 5 IEnMin= 5 EnMin= -1292.60689973513     IErMin= 5 ErrMin= 3.56D-04
 ErrMax= 3.56D-04  0.00D+00 EMaxC= 1.00D-01 BMatC= 1.93D-04 BMatP= 6.18D-03
 IDIUse=3 WtCom= 9.96D-01 WtEn= 3.56D-03
 Coeff-Com: -0.949D-02 0.182D-01 0.131D+00 0.239D+00 0.621D+00
 Coeff-En:   0.000D+00 0.000D+00 0.000D+00 0.000D+00 0.100D+01
 Coeff:     -0.946D-02 0.181D-01 0.131D+00 0.238D+00 0.622D+00
 Gap=     0.313 Goal=   None    Shift=    0.000
 RMSDP=4.31D-05 MaxDP=7.41D-03 DE=-4.32D-03 OVMax= 2.36D-03

 Cycle   6  Pass 1  IDiag  1:
 RMSU=  3.29D-05    CP:  8.49D-01  8.11D-01  9.87D-01  7.13D-01  8.41D-01
 E= -1292.60703596971     Delta-E=       -0.000136234578 Rises=F Damp=F
 DIIS: error= 7.76D-05 at cycle   6 NSaved=   6.
 NSaved= 6 IEnMin= 6 EnMin= -1292.60703596971     IErMin= 6 ErrMin= 7.76D-05
 ErrMax= 7.76D-05  0.00D+00 EMaxC= 1.00D-01 BMatC= 1.58D-05 BMatP= 1.93D-04
 IDIUse=1 WtCom= 1.00D+00 WtEn= 0.00D+00
 Coeff-Com: -0.186D-02 0.194D-02 0.271D-01 0.630D-01 0.278D+00 0.632D+00
 Coeff:     -0.186D-02 0.194D-02 0.271D-01 0.630D-01 0.278D+00 0.632D+00
 Gap=     0.313 Goal=   None    Shift=    0.000
 RMSDP=1.40D-05 MaxDP=8.94D-04 DE=-1.36D-04 OVMax= 1.01D-03

 Cycle   7  Pass 1  IDiag  1:
 RMSU=  1.34D-05    CP:  8.49D-01  8.11D-01  9.87D-01  7.17D-01  8.55D-01
                    CP:  9.27D-01
 E= -1292.60704853093     Delta-E=       -0.000012561221 Rises=F Damp=F
 DIIS: error= 2.74D-05 at cycle   7 NSaved=   7.
 NSaved= 7 IEnMin= 7 EnMin= -1292.60704853093     IErMin= 7 ErrMin= 2.74D-05
 ErrMax= 2.74D-05  0.00D+00 EMaxC= 1.00D-01 BMatC= 1.72D-06 BMatP= 1.58D-05
 IDIUse=1 WtCom= 1.00D+00 WtEn= 0.00D+00
 Coeff-Com:  0.337D-03-0.126D-02-0.424D-02-0.188D-02 0.464D-01 0.266D+00
 Coeff-Com:  0.694D+00
 Coeff:      0.337D-03-0.126D-02-0.424D-02-0.188D-02 0.464D-01 0.266D+00
 Coeff:      0.694D+00
 Gap=     0.313 Goal=   None    Shift=    0.000
 RMSDP=6.02D-06 MaxDP=1.10D-03 DE=-1.26D-05 OVMax= 5.26D-04

 Cycle   8  Pass 1  IDiag  1:
 RMSU=  4.28D-06    CP:  8.49D-01  8.11D-01  9.88D-01  7.18D-01  8.70D-01
                    CP:  9.95D-01  9.57D-01
 E= -1292.60704995565     Delta-E=       -0.000001424723 Rises=F Damp=F
 DIIS: error= 1.35D-05 at cycle   8 NSaved=   8.
 NSaved= 8 IEnMin= 8 EnMin= -1292.60704995565     IErMin= 8 ErrMin= 1.35D-05
 ErrMax= 1.35D-05  0.00D+00 EMaxC= 1.00D-01 BMatC= 3.43D-07 BMatP= 1.72D-06
 IDIUse=1 WtCom= 1.00D+00 WtEn= 0.00D+00
 Coeff-Com:  0.463D-03-0.952D-03-0.651D-02-0.110D-01-0.209D-01 0.259D-01
 Coeff-Com:  0.342D+00 0.671D+00
 Coeff:      0.463D-03-0.952D-03-0.651D-02-0.110D-01-0.209D-01 0.259D-01
 Coeff:      0.342D+00 0.671D+00
 Gap=     0.313 Goal=   None    Shift=    0.000
 RMSDP=2.08D-06 MaxDP=3.54D-04 DE=-1.42D-06 OVMax= 1.51D-04

 Cycle   9  Pass 1  IDiag  1:
 RMSU=  1.59D-06    CP:  8.49D-01  8.10D-01  9.88D-01  7.19D-01  8.76D-01
                    CP:  1.01D+00  9.77D-01  9.09D-01
 E= -1292.60705024848     Delta-E=       -0.000000292830 Rises=F Damp=F
 DIIS: error= 4.52D-06 at cycle   9 NSaved=   9.
 NSaved= 9 IEnMin= 9 EnMin= -1292.60705024848     IErMin= 9 ErrMin= 4.52D-06
 ErrMax= 4.52D-06  0.00D+00 EMaxC= 1.00D-01 BMatC= 2.59D-08 BMatP= 3.43D-07
 IDIUse=1 WtCom= 1.00D+00 WtEn= 0.00D+00
 Coeff-Com:  0.142D-03-0.244D-03-0.215D-02-0.412D-02-0.121D-01-0.134D-01
 Coeff-Com:  0.807D-01 0.272D+00 0.679D+00
 Coeff:      0.142D-03-0.244D-03-0.215D-02-0.412D-02-0.121D-01-0.134D-01
 Coeff:      0.807D-01 0.272D+00 0.679D+00
 Gap=     0.313 Goal=   None    Shift=    0.000
 RMSDP=6.82D-07 MaxDP=5.21D-05 DE=-2.93D-07 OVMax= 4.92D-05

 Cycle  10  Pass 1  IDiag  1:
 RMSU=  5.18D-07    CP:  8.49D-01  8.10D-01  9.88D-01  7.19D-01  8.76D-01
                    CP:  1.01D+00  9.99D-01  9.65D-01  9.04D-01
 E= -1292.60705027372     Delta-E=       -0.000000025235 Rises=F Damp=F
 DIIS: error= 1.27D-06 at cycle  10 NSaved=  10.
 NSaved=10 IEnMin=10 EnMin= -1292.60705027372     IErMin=10 ErrMin= 1.27D-06
 ErrMax= 1.27D-06  0.00D+00 EMaxC= 1.00D-01 BMatC= 2.80D-09 BMatP= 2.59D-08
 IDIUse=1 WtCom= 1.00D+00 WtEn= 0.00D+00
 Coeff-Com: -0.107D-04 0.317D-04 0.745D-04-0.197D-04-0.161D-02-0.831D-02
 Coeff-Com: -0.141D-01-0.118D-02 0.231D+00 0.794D+00
 Coeff:     -0.107D-04 0.317D-04 0.745D-04-0.197D-04-0.161D-02-0.831D-02
 Coeff:     -0.141D-01-0.118D-02 0.231D+00 0.794D+00
 Gap=     0.313 Goal=   None    Shift=    0.000
 RMSDP=2.55D-07 MaxDP=2.47D-05 DE=-2.52D-08 OVMax= 4.14D-05

 Cycle  11  Pass 1  IDiag  1:
 RMSU=  1.68D-07    CP:  8.49D-01  8.10D-01  9.88D-01  7.19D-01  8.76D-01
                    CP:  1.01D+00  9.97D-01  9.80D-01  1.00D+00  1.06D+00
 E= -1292.60705027703     Delta-E=       -0.000000003319 Rises=F Damp=F
 DIIS: error= 9.63D-07 at cycle  11 NSaved=  11.
 NSaved=11 IEnMin=11 EnMin= -1292.60705027703     IErMin=11 ErrMin= 9.63D-07
 ErrMax= 9.63D-07  0.00D+00 EMaxC= 1.00D-01 BMatC= 6.33D-10 BMatP= 2.80D-09
 IDIUse=1 WtCom= 1.00D+00 WtEn= 0.00D+00
 Coeff-Com: -0.226D-04 0.466D-04 0.308D-03 0.506D-03 0.689D-03-0.247D-02
 Coeff-Com: -0.169D-01-0.380D-01 0.175D-01 0.382D+00 0.656D+00
 Coeff:     -0.226D-04 0.466D-04 0.308D-03 0.506D-03 0.689D-03-0.247D-02
 Coeff:     -0.169D-01-0.380D-01 0.175D-01 0.382D+00 0.656D+00
 Gap=     0.313 Goal=   None    Shift=    0.000
 RMSDP=1.05D-07 MaxDP=8.98D-06 DE=-3.32D-09 OVMax= 1.08D-05

 Cycle  12  Pass 1  IDiag  1:
 RMSU=  6.68D-08    CP:  8.49D-01  8.10D-01  9.88D-01  7.19D-01  8.76D-01
                    CP:  1.01D+00  9.97D-01  9.85D-01  1.03D+00  1.14D+00
                    CP:  8.89D-01
 E= -1292.60705027776     Delta-E=       -0.000000000727 Rises=F Damp=F
 DIIS: error= 1.76D-07 at cycle  12 NSaved=  12.
 NSaved=12 IEnMin=12 EnMin= -1292.60705027776     IErMin=12 ErrMin= 1.76D-07
 ErrMax= 1.76D-07  0.00D+00 EMaxC= 1.00D-01 BMatC= 2.78D-11 BMatP= 6.33D-10
 IDIUse=1 WtCom= 1.00D+00 WtEn= 0.00D+00
 Coeff-Com: -0.428D-05 0.810D-05 0.734D-04 0.134D-03 0.335D-03 0.214D-03
 Coeff-Com: -0.268D-02-0.103D-01-0.193D-01 0.298D-01 0.180D+00 0.821D+00
 Coeff:     -0.428D-05 0.810D-05 0.734D-04 0.134D-03 0.335D-03 0.214D-03
 Coeff:     -0.268D-02-0.103D-01-0.193D-01 0.298D-01 0.180D+00 0.821D+00
 Gap=     0.313 Goal=   None    Shift=    0.000
 RMSDP=2.51D-08 MaxDP=1.49D-06 DE=-7.27D-10 OVMax= 5.38D-06

 Cycle  13  Pass 1  IDiag  1:
 RMSU=  1.97D-08    CP:  8.49D-01  8.10D-01  9.88D-01  7.19D-01  8.76D-01
                    CP:  1.01D+00  9.96D-01  9.86D-01  1.04D+00  1.15D+00
                    CP:  9.51D-01  1.04D+00
 E= -1292.60705027770     Delta-E=        0.000000000058 Rises=F Damp=F
 DIIS: error= 8.53D-08 at cycle  13 NSaved=  13.
 NSaved=13 IEnMin=12 EnMin= -1292.60705027776     IErMin=13 ErrMin= 8.53D-08
 ErrMax= 8.53D-08  0.00D+00 EMaxC= 1.00D-01 BMatC= 7.29D-12 BMatP= 2.78D-11
 IDIUse=1 WtCom= 1.00D+00 WtEn= 0.00D+00
 Coeff-Com:  0.559D-06-0.136D-05 0.137D-05 0.693D-05 0.727D-04 0.303D-03
 Coeff-Com:  0.563D-03-0.656D-03-0.104D-01-0.286D-01-0.519D-02 0.355D+00
 Coeff-Com:  0.689D+00
 Coeff:      0.559D-06-0.136D-05 0.137D-05 0.693D-05 0.727D-04 0.303D-03
 Coeff:      0.563D-03-0.656D-03-0.104D-01-0.286D-01-0.519D-02 0.355D+00
 Coeff:      0.689D+00
 Gap=     0.313 Goal=   None    Shift=    0.000
 RMSDP=1.15D-08 MaxDP=2.07D-06 DE= 5.82D-11 OVMax= 9.07D-07

 Cycle  14  Pass 1  IDiag  1:
 RMSU=  7.80D-09    CP:  8.49D-01  8.10D-01  9.88D-01  7.19D-01  8.76D-01
                    CP:  1.01D+00  9.97D-01  9.85D-01  1.04D+00  1.15D+00
                    CP:  9.60D-01  1.12D+00  1.10D+00
 E= -1292.60705027775     Delta-E=       -0.000000000049 Rises=F Damp=F
 DIIS: error= 3.54D-08 at cycle  14 NSaved=  14.
 NSaved=14 IEnMin=12 EnMin= -1292.60705027776     IErMin=14 ErrMin= 3.54D-08
 ErrMax= 3.54D-08  0.00D+00 EMaxC= 1.00D-01 BMatC= 8.65D-13 BMatP= 7.29D-12
 IDIUse=1 WtCom= 1.00D+00 WtEn= 0.00D+00
 Coeff-Com:  0.918D-06-0.186D-05-0.977D-05-0.157D-04-0.116D-04 0.113D-03
 Coeff-Com:  0.709D-03 0.118D-02-0.201D-02-0.170D-01-0.304D-01 0.602D-01
 Coeff-Com:  0.300D+00 0.688D+00
 Coeff:      0.918D-06-0.186D-05-0.977D-05-0.157D-04-0.116D-04 0.113D-03
 Coeff:      0.709D-03 0.118D-02-0.201D-02-0.170D-01-0.304D-01 0.602D-01
 Coeff:      0.300D+00 0.688D+00
 Gap=     0.313 Goal=   None    Shift=    0.000
 RMSDP=4.83D-09 MaxDP=1.07D-06 DE=-4.91D-11 OVMax= 4.08D-07

 Cycle  15  Pass 1  IDiag  1:
 RMSU=  3.04D-09    CP:  8.49D-01  8.10D-01  9.88D-01  7.19D-01  8.76D-01
                    CP:  1.01D+00  9.97D-01  9.85D-01  1.04D+00  1.15D+00
                    CP:  9.61D-01  1.16D+00  1.19D+00  1.03D+00
 E= -1292.60705027773     Delta-E=        0.000000000025 Rises=F Damp=F
 DIIS: error= 1.02D-08 at cycle  15 NSaved=  15.
 NSaved=15 IEnMin=12 EnMin= -1292.60705027776     IErMin=15 ErrMin= 1.02D-08
 ErrMax= 1.02D-08  0.00D+00 EMaxC= 1.00D-01 BMatC= 1.55D-13 BMatP= 8.65D-13
 IDIUse=1 WtCom= 1.00D+00 WtEn= 0.00D+00
 Coeff-Com:  0.346D-06-0.697D-06-0.455D-05-0.766D-05-0.123D-04 0.178D-04
 Coeff-Com:  0.272D-03 0.602D-03 0.239D-03-0.453D-02-0.141D-01-0.109D-01
 Coeff-Com:  0.505D-01 0.337D+00 0.641D+00
 Coeff:      0.346D-06-0.697D-06-0.455D-05-0.766D-05-0.123D-04 0.178D-04
 Coeff:      0.272D-03 0.602D-03 0.239D-03-0.453D-02-0.141D-01-0.109D-01
 Coeff:      0.505D-01 0.337D+00 0.641D+00
 Gap=     0.313 Goal=   None    Shift=    0.000
 RMSDP=1.46D-09 MaxDP=2.37D-07 DE= 2.50D-11 OVMax= 1.58D-07

 SCF Done:  E(RM062X) =  -1292.60705028     A.U. after   15 cycles
            NFock= 15  Conv=0.15D-08     -V/T= 2.0035
 KE= 1.288064435490D+03 PE=-6.531603378520D+03 EE= 2.206803955459D+03
 Leave Link  502 at Sat May 21 15:15:37 2022, MaxMem=   671088640 cpu:            3964.3 elap:             662.7
 (Enter /data0/hywu0/study/g16/l601.exe)
 Copying SCF densities to generalized density rwf, IOpCl= 0 IROHF=0.

 **********************************************************************

            Population analysis using the SCF density.

 **********************************************************************

 Alpha  occ. eigenvalues --  -78.12647 -19.64164 -19.61609 -19.61436 -19.60376
 Alpha  occ. eigenvalues --  -19.59906 -19.59696 -19.55906 -14.86614 -14.86445
 Alpha  occ. eigenvalues --  -10.66575 -10.65408 -10.62471 -10.62119 -10.61902
 Alpha  occ. eigenvalues --  -10.59358 -10.56754 -10.55224  -6.93371  -5.05312
 Alpha  occ. eigenvalues --   -5.05234  -5.05090  -1.19950  -1.19276  -1.18838
 Alpha  occ. eigenvalues --   -1.11891  -1.11792  -1.10582  -1.09080  -1.08092
 Alpha  occ. eigenvalues --   -1.06203  -0.92727  -0.89864  -0.85745  -0.81310
 Alpha  occ. eigenvalues --   -0.75288  -0.72210  -0.70549  -0.67726  -0.64680
 Alpha  occ. eigenvalues --   -0.62558  -0.61506  -0.60633  -0.59280  -0.58416
 Alpha  occ. eigenvalues --   -0.57792  -0.56443  -0.55886  -0.55583  -0.54219
 Alpha  occ. eigenvalues --   -0.53862  -0.53251  -0.52256  -0.51337  -0.50769
 Alpha  occ. eigenvalues --   -0.48443  -0.47942  -0.47609  -0.46725  -0.46191
 Alpha  occ. eigenvalues --   -0.45482  -0.44626  -0.43485  -0.42388  -0.41986
 Alpha  occ. eigenvalues --   -0.41169  -0.39270  -0.38516  -0.37623  -0.35965
 Alpha  occ. eigenvalues --   -0.35720  -0.34777  -0.34228  -0.33950  -0.32983
 Alpha virt. eigenvalues --   -0.01675  -0.00523   0.00386   0.01441   0.01638
 Alpha virt. eigenvalues --    0.01888   0.02443   0.03080   0.03229   0.04205
 Alpha virt. eigenvalues --    0.04806   0.05210   0.05817   0.06242   0.06883
 Alpha virt. eigenvalues --    0.07134   0.07541   0.07933   0.08512   0.08583
 Alpha virt. eigenvalues --    0.09430   0.10162   0.10726   0.11167   0.11654
 Alpha virt. eigenvalues --    0.12155   0.12419   0.13064   0.13790   0.14109
 Alpha virt. eigenvalues --    0.14462   0.14624   0.15496   0.15808   0.16093
 Alpha virt. eigenvalues --    0.16356   0.16712   0.17023   0.17514   0.17692
 Alpha virt. eigenvalues --    0.18066   0.18736   0.18823   0.19218   0.19616
 Alpha virt. eigenvalues --    0.20016   0.20427   0.20888   0.21057   0.21593
 Alpha virt. eigenvalues --    0.21911   0.22307   0.22863   0.23080   0.23440
 Alpha virt. eigenvalues --    0.24107   0.24298   0.24414   0.25128   0.25524
 Alpha virt. eigenvalues --    0.26166   0.26558   0.26657   0.27639   0.27718
 Alpha virt. eigenvalues --    0.28088   0.28534   0.28901   0.29316   0.29534
 Alpha virt. eigenvalues --    0.29753   0.30135   0.30640   0.31136   0.31762
 Alpha virt. eigenvalues --    0.32028   0.32425   0.32583   0.32870   0.33307
 Alpha virt. eigenvalues --    0.33424   0.33803   0.34224   0.34597   0.35330
 Alpha virt. eigenvalues --    0.35873   0.36438   0.36859   0.37695   0.38107
 Alpha virt. eigenvalues --    0.38519   0.38813   0.39756   0.40164   0.41339
 Alpha virt. eigenvalues --    0.41662   0.42040   0.42462   0.42728   0.44259
 Alpha virt. eigenvalues --    0.44554   0.44790   0.44992   0.45973   0.46469
 Alpha virt. eigenvalues --    0.47461   0.48288   0.48550   0.49820   0.50518
 Alpha virt. eigenvalues --    0.51010   0.51436   0.51991   0.53848   0.54886
 Alpha virt. eigenvalues --    0.55643   0.56345   0.56865   0.57177   0.57627
 Alpha virt. eigenvalues --    0.58501   0.58969   0.60110   0.60531   0.61168
 Alpha virt. eigenvalues --    0.61438   0.62130   0.62755   0.63622   0.64224
 Alpha virt. eigenvalues --    0.65347   0.65479   0.66396   0.66859   0.67511
 Alpha virt. eigenvalues --    0.68240   0.68727   0.69089   0.69671   0.70399
 Alpha virt. eigenvalues --    0.70674   0.70983   0.71831   0.72171   0.73437
 Alpha virt. eigenvalues --    0.74034   0.74928   0.75348   0.75939   0.76840
 Alpha virt. eigenvalues --    0.77304   0.78199   0.79279   0.80058   0.80543
 Alpha virt. eigenvalues --    0.81636   0.82540   0.83849   0.84429   0.85537
 Alpha virt. eigenvalues --    0.85993   0.87443   0.87916   0.89359   0.89626
 Alpha virt. eigenvalues --    0.91213   0.91803   0.93007   0.94449   0.95146
 Alpha virt. eigenvalues --    0.95940   0.98751   1.00240   1.00578   1.01549
 Alpha virt. eigenvalues --    1.02409   1.04529   1.05660   1.07229   1.08565
 Alpha virt. eigenvalues --    1.08753   1.09944   1.10827   1.11140   1.12828
 Alpha virt. eigenvalues --    1.13668   1.14060   1.15302   1.15587   1.16030
 Alpha virt. eigenvalues --    1.17577   1.17717   1.18571   1.19524   1.20563
 Alpha virt. eigenvalues --    1.20900   1.21919   1.22708   1.23358   1.23724
 Alpha virt. eigenvalues --    1.24243   1.25170   1.25424   1.26032   1.26223
 Alpha virt. eigenvalues --    1.26406   1.27160   1.28284   1.28686   1.29875
 Alpha virt. eigenvalues --    1.30036   1.30859   1.31380   1.32181   1.33105
 Alpha virt. eigenvalues --    1.33339   1.33626   1.34764   1.36592   1.36668
 Alpha virt. eigenvalues --    1.37979   1.38575   1.39036   1.39632   1.39928
 Alpha virt. eigenvalues --    1.41227   1.41655   1.42630   1.43484   1.44243
 Alpha virt. eigenvalues --    1.45114   1.45421   1.45674   1.46613   1.47382
 Alpha virt. eigenvalues --    1.47959   1.49400   1.50115   1.51143   1.52774
 Alpha virt. eigenvalues --    1.53643   1.54074   1.55289   1.55687   1.57448
 Alpha virt. eigenvalues --    1.58988   1.59703   1.61204   1.62035   1.62351
 Alpha virt. eigenvalues --    1.63710   1.65098   1.67371   1.68414   1.69393
 Alpha virt. eigenvalues --    1.70260   1.70773   1.72390   1.73728   1.74496
 Alpha virt. eigenvalues --    1.76248   1.77091   1.77496   1.78474   1.79763
 Alpha virt. eigenvalues --    1.80225   1.81283   1.81855   1.83135   1.84127
 Alpha virt. eigenvalues --    1.84773   1.85965   1.87490   1.88470   1.89762
 Alpha virt. eigenvalues --    1.90286   1.91486   1.91683   1.92390   1.93442
 Alpha virt. eigenvalues --    1.94380   1.95589   1.97048   1.97259   1.99402
 Alpha virt. eigenvalues --    2.01005   2.02437   2.02758   2.04806   2.06016
 Alpha virt. eigenvalues --    2.07071   2.08179   2.08560   2.09964   2.10885
 Alpha virt. eigenvalues --    2.12698   2.15439   2.15699   2.16566   2.16859
 Alpha virt. eigenvalues --    2.18550   2.20665   2.21987   2.24583   2.24984
 Alpha virt. eigenvalues --    2.25871   2.26534   2.28460   2.28950   2.29962
 Alpha virt. eigenvalues --    2.30404   2.30946   2.32289   2.33690   2.33740
 Alpha virt. eigenvalues --    2.35117   2.35812   2.37214   2.38473   2.39103
 Alpha virt. eigenvalues --    2.42767   2.43166   2.43629   2.45784   2.46278
 Alpha virt. eigenvalues --    2.46571   2.47922   2.50419   2.53334   2.54076
 Alpha virt. eigenvalues --    2.58063   2.59486   2.60404   2.62960   2.64797
 Alpha virt. eigenvalues --    2.67475   2.68046   2.70142   2.71306   2.73874
 Alpha virt. eigenvalues --    2.77455   2.79381   2.80565   2.81304   2.82173
 Alpha virt. eigenvalues --    2.83397   2.84761   2.86763   2.87936   2.88685
 Alpha virt. eigenvalues --    2.89140   2.89712   2.91750   2.92607   2.93418
 Alpha virt. eigenvalues --    2.95113   2.97665   2.99429   3.02233   3.04545
 Alpha virt. eigenvalues --    3.06040   3.06498   3.08531   3.09288   3.11882
 Alpha virt. eigenvalues --    3.12482   3.13674   3.16645   3.19442   3.22030
 Alpha virt. eigenvalues --    3.24585   3.26485   3.28233   3.29738   3.30413
 Alpha virt. eigenvalues --    3.33142   3.35509   3.37080   3.37971   3.39400
 Alpha virt. eigenvalues --    3.40411   3.43489   3.45080   3.46470   3.47510
 Alpha virt. eigenvalues --    3.48332   3.49162   3.50060   3.51795   3.53585
 Alpha virt. eigenvalues --    3.55409   3.56252   3.58063   3.60480   3.60953
 Alpha virt. eigenvalues --    3.61580   3.62509   3.64061   3.64740   3.66713
 Alpha virt. eigenvalues --    3.68033   3.69057   3.70433   3.71644   3.74235
 Alpha virt. eigenvalues --    3.76851   3.76886   3.78679   3.81973   3.87321
 Alpha virt. eigenvalues --    3.88071   3.90822   3.91342   3.97117   3.98763
 Alpha virt. eigenvalues --    4.01816   4.04908   4.05890   4.09136   4.12419
 Alpha virt. eigenvalues --    4.18057   4.21687   4.22927   4.25734   4.27762
 Alpha virt. eigenvalues --    4.35672   4.41869   4.52949   4.54549   4.97721
 Alpha virt. eigenvalues --    5.03298   5.04603   5.06142   5.08257   5.11437
 Alpha virt. eigenvalues --    5.11692   5.14565   5.15921   5.16273   5.18356
 Alpha virt. eigenvalues --    5.21149   5.22591   5.23217   5.24131   5.31204
 Alpha virt. eigenvalues --    5.32626   5.33627   5.34884   5.39294   5.42682
 Alpha virt. eigenvalues --    5.45488   5.47719   5.48756   5.53891   5.56697
 Alpha virt. eigenvalues --    5.57755   5.62975   5.63727   5.67549   5.69953
 Alpha virt. eigenvalues --    5.83102   5.97892   6.02299   6.23265   6.78056
 Alpha virt. eigenvalues --    6.79195   6.81759   6.82986   6.83432   6.85084
 Alpha virt. eigenvalues --    6.85825   6.86894   6.88864   6.89616   6.91119
 Alpha virt. eigenvalues --    6.92234   6.95955   6.97070   7.00233   7.00928
 Alpha virt. eigenvalues --    7.01803   7.02417   7.05116   7.05809   7.07548
 Alpha virt. eigenvalues --    7.07954   7.11061   7.13313   7.20744   7.23697
 Alpha virt. eigenvalues --    7.29334   7.29968   7.31600   7.32482   7.36246
 Alpha virt. eigenvalues --    7.39164   7.40182   7.43742   7.46941   7.73055
 Alpha virt. eigenvalues --   14.29551  14.33058  14.42887  23.92613  23.96462
 Alpha virt. eigenvalues --   24.02694  24.05626  24.08674  24.12781  24.17586
 Alpha virt. eigenvalues --   24.27193  35.62919  35.70667  50.05982  50.09274
 Alpha virt. eigenvalues --   50.10538  50.11640  50.15891  50.19878  50.20113
 Alpha virt. eigenvalues --  163.97961
          Condensed to atoms (all electrons):
               1          2          3          4          5          6
     1  C    6.372363  -0.476529  -0.354334   0.282342   0.398172  -0.023399
     2  C   -0.476529   6.677934  -1.177241   0.221661  -0.000904   0.400306
     3  C   -0.354334  -1.177241  10.624837  -0.720049  -0.006467   0.006245
     4  N    0.282342   0.221661  -0.720049   6.508357  -0.031926   0.007923
     5  H    0.398172  -0.000904  -0.006467  -0.031926   0.471359  -0.001235
     6  H   -0.023399   0.400306   0.006245   0.007923  -0.001235   0.477328
     7  H    0.018351   0.014753   0.227552   0.006491   0.000090   0.000040
     8  C   -0.126774   0.068927  -0.302660   0.269586  -0.003071  -0.000647
     9  H    0.008772   0.001872  -0.038333  -0.038509   0.000179   0.000002
    10  H   -0.008886   0.004335  -0.040043   0.001035   0.000149   0.000011
    11  H   -0.030846   0.025925   0.039945  -0.062433   0.001981  -0.000041
    12  N    0.036243   0.388730  -0.703328   0.106492   0.009916  -0.035531
    13  C   -0.033761  -0.183011  -0.119341  -0.052098   0.002151   0.006360
    14  H    0.008329  -0.019583   0.006947  -0.003926  -0.000024   0.000515
    15  H    0.000180  -0.003415   0.004980   0.004337   0.000006   0.000007
    16  C    0.046027   0.122048  -0.227662  -0.002063  -0.000519   0.007946
    17  H    0.000464  -0.004715   0.005960  -0.000919  -0.000000  -0.000122
    18  H   -0.004460  -0.000880   0.009604   0.000718   0.000009  -0.000951
    19  C    0.095012  -0.239723   0.232332  -0.070131  -0.001435  -0.004205
    20  H   -0.006941   0.005237  -0.002143  -0.005615   0.000008  -0.000922
    21  H    0.001648  -0.001398   0.006127   0.000472   0.000000   0.000032
    22  C   -0.127579   0.274969  -0.551711   0.118508   0.001521  -0.002598
    23  O    0.001518   0.013844  -0.101280   0.001070   0.000023  -0.000075
    24  O    0.022456   0.001210  -0.126297   0.054373   0.000094   0.000112
    25  P    0.014518  -0.014932  -0.093868   0.014375   0.000036   0.000041
    26  O   -0.006714   0.005469   0.099034  -0.040151   0.000013  -0.000002
    27  O   -0.002514   0.004070  -0.025476  -0.001802   0.000017  -0.000001
    28  H   -0.000261  -0.004497   0.043864  -0.003600  -0.000021   0.000001
    29  O    0.000957  -0.000122  -0.005338   0.001203   0.000000   0.000000
    30  H    0.000013   0.000043  -0.003552   0.000186  -0.000000  -0.000000
    31  O   -0.000261  -0.000743   0.001941  -0.002069  -0.000002   0.000000
    32  H   -0.001635   0.001125  -0.001882   0.000063   0.000000  -0.000002
    33  O    0.017206  -0.035347  -0.099342  -0.000192  -0.011718  -0.000171
    34  H    0.003557  -0.023576   0.059632  -0.003057  -0.000191   0.000050
    35  H    0.022797  -0.000872  -0.020315  -0.006286  -0.000106   0.000014
               7          8          9         10         11         12
     1  C    0.018351  -0.126774   0.008772  -0.008886  -0.030846   0.036243
     2  C    0.014753   0.068927   0.001872   0.004335   0.025925   0.388730
     3  C    0.227552  -0.302660  -0.038333  -0.040043   0.039945  -0.703328
     4  N    0.006491   0.269586  -0.038509   0.001035  -0.062433   0.106492
     5  H    0.000090  -0.003071   0.000179   0.000149   0.001981   0.009916
     6  H    0.000040  -0.000647   0.000002   0.000011  -0.000041  -0.035531
     7  H    0.379523   0.007067   0.001923   0.000721  -0.000256  -0.005022
     8  C    0.007067   5.399495   0.427152   0.415540   0.386578  -0.049620
     9  H    0.001923   0.427152   0.437408  -0.024676  -0.012278   0.002446
    10  H    0.000721   0.415540  -0.024676   0.443190  -0.021921   0.002375
    11  H   -0.000256   0.386578  -0.012278  -0.021921   0.502808  -0.003563
    12  N   -0.005022  -0.049620   0.002446   0.002375  -0.003563   6.734557
    13  C   -0.002947  -0.012779   0.001187  -0.001923   0.000700   0.128376
    14  H    0.000180  -0.000589  -0.000007   0.000002  -0.000002  -0.055108
    15  H    0.002004   0.000760  -0.000017   0.000017  -0.000002  -0.062888
    16  C    0.010444  -0.013802  -0.000421   0.001864  -0.000029   0.065339
    17  H   -0.000096  -0.000008  -0.000000   0.000000  -0.000000   0.004227
    18  H   -0.000034   0.000042  -0.000000  -0.000000   0.000000   0.000462
    19  C   -0.011636  -0.006330   0.000334  -0.002280  -0.000848  -0.036123
    20  H   -0.000203  -0.000613   0.000002   0.000008  -0.000005   0.021631
    21  H    0.000016   0.000127  -0.000000   0.000001  -0.000000  -0.002549
    22  C    0.022217   0.009822   0.001856   0.002094   0.000394   0.052227
    23  O    0.018557   0.001793   0.000153   0.000297  -0.000002  -0.004806
    24  O   -0.003936   0.007019  -0.000320   0.007786   0.000141   0.038814
    25  P    0.012956   0.017505   0.000533  -0.000331   0.000836   0.001341
    26  O    0.015184  -0.065142   0.001332  -0.004013   0.001672   0.010316
    27  O   -0.001211   0.008854  -0.000803   0.006178   0.000255   0.003279
    28  H   -0.000269  -0.008180   0.000151  -0.003046  -0.000111  -0.005576
    29  O    0.001351  -0.003596   0.000060   0.000125   0.000006   0.000742
    30  H   -0.000022   0.001629   0.000012   0.000036  -0.000000   0.000021
    31  O   -0.000858   0.003947   0.000285   0.000255   0.000003  -0.001997
    32  H   -0.002296  -0.001099  -0.000002  -0.000088   0.000001   0.001369
    33  O    0.002184   0.005489   0.001612  -0.001498  -0.000025   0.020467
    34  H   -0.000311  -0.002914  -0.000295  -0.001336  -0.000442  -0.010130
    35  H    0.000025   0.001748   0.000021   0.000096  -0.000039   0.000430
              13         14         15         16         17         18
     1  C   -0.033761   0.008329   0.000180   0.046027   0.000464  -0.004460
     2  C   -0.183011  -0.019583  -0.003415   0.122048  -0.004715  -0.000880
     3  C   -0.119341   0.006947   0.004980  -0.227662   0.005960   0.009604
     4  N   -0.052098  -0.003926   0.004337  -0.002063  -0.000919   0.000718
     5  H    0.002151  -0.000024   0.000006  -0.000519  -0.000000   0.000009
     6  H    0.006360   0.000515   0.000007   0.007946  -0.000122  -0.000951
     7  H   -0.002947   0.000180   0.002004   0.010444  -0.000096  -0.000034
     8  C   -0.012779  -0.000589   0.000760  -0.013802  -0.000008   0.000042
     9  H    0.001187  -0.000007  -0.000017  -0.000421  -0.000000  -0.000000
    10  H   -0.001923   0.000002   0.000017   0.001864   0.000000  -0.000000
    11  H    0.000700  -0.000002  -0.000002  -0.000029  -0.000000   0.000000
    12  N    0.128376  -0.055108  -0.062888   0.065339   0.004227   0.000462
    13  C    6.225730   0.437187   0.470194  -0.516592  -0.048720  -0.033305
    14  H    0.437187   0.500804  -0.020397  -0.038203   0.000684  -0.009630
    15  H    0.470194  -0.020397   0.442063  -0.047121  -0.008658   0.004173
    16  C   -0.516592  -0.038203  -0.047121   6.462124   0.436096   0.454942
    17  H   -0.048720   0.000684  -0.008658   0.436096   0.486979  -0.029175
    18  H   -0.033305  -0.009630   0.004173   0.454942  -0.029175   0.513578
    19  C    0.280727  -0.004574   0.007480  -0.345232  -0.051063  -0.076064
    20  H    0.004058  -0.000066  -0.000579  -0.091645   0.005505  -0.007008
    21  H    0.004799  -0.000004  -0.000050   0.001369  -0.007853  -0.002706
    22  C   -0.205096   0.007485  -0.014327   0.096523   0.019390   0.006234
    23  O   -0.012031   0.002079  -0.003610   0.003539  -0.003868   0.000865
    24  O    0.022885  -0.000261   0.000264   0.000745  -0.000165  -0.001098
    25  P    0.012815  -0.000013   0.000280  -0.007875   0.000105   0.000112
    26  O    0.009406  -0.000018  -0.000325   0.004379  -0.000003  -0.000001
    27  O   -0.001091  -0.000001   0.000009  -0.004511   0.000009   0.000001
    28  H   -0.002208   0.000005  -0.000004   0.002772  -0.000005  -0.000006
    29  O    0.000976  -0.000000   0.000002   0.000202  -0.000000  -0.000000
    30  H   -0.000060   0.000000   0.000000  -0.000075   0.000000   0.000000
    31  O    0.006785   0.000011  -0.000779  -0.008995   0.000071  -0.000010
    32  H   -0.003447  -0.000016   0.000331  -0.000764  -0.000025   0.000028
    33  O    0.002363   0.000062  -0.000015  -0.001653  -0.000047   0.000084
    34  H   -0.001597  -0.000005   0.000008  -0.005028   0.000007  -0.000021
    35  H   -0.000257  -0.000001  -0.000002   0.001230   0.000000  -0.000012
              19         20         21         22         23         24
     1  C    0.095012  -0.006941   0.001648  -0.127579   0.001518   0.022456
     2  C   -0.239723   0.005237  -0.001398   0.274969   0.013844   0.001210
     3  C    0.232332  -0.002143   0.006127  -0.551711  -0.101280  -0.126297
     4  N   -0.070131  -0.005615   0.000472   0.118508   0.001070   0.054373
     5  H   -0.001435   0.000008   0.000000   0.001521   0.000023   0.000094
     6  H   -0.004205  -0.000922   0.000032  -0.002598  -0.000075   0.000112
     7  H   -0.011636  -0.000203   0.000016   0.022217   0.018557  -0.003936
     8  C   -0.006330  -0.000613   0.000127   0.009822   0.001793   0.007019
     9  H    0.000334   0.000002  -0.000000   0.001856   0.000153  -0.000320
    10  H   -0.002280   0.000008   0.000001   0.002094   0.000297   0.007786
    11  H   -0.000848  -0.000005  -0.000000   0.000394  -0.000002   0.000141
    12  N   -0.036123   0.021631  -0.002549   0.052227  -0.004806   0.038814
    13  C    0.280727   0.004058   0.004799  -0.205096  -0.012031   0.022885
    14  H   -0.004574  -0.000066  -0.000004   0.007485   0.002079  -0.000261
    15  H    0.007480  -0.000579  -0.000050  -0.014327  -0.003610   0.000264
    16  C   -0.345232  -0.091645   0.001369   0.096523   0.003539   0.000745
    17  H   -0.051063   0.005505  -0.007853   0.019390  -0.003868  -0.000165
    18  H   -0.076064  -0.007008  -0.002706   0.006234   0.000865  -0.001098
    19  C    6.153405   0.464115   0.440506  -0.366445  -0.106501  -0.064463
    20  H    0.464115   0.482506  -0.026397  -0.027919   0.004661  -0.013772
    21  H    0.440506  -0.026397   0.494713  -0.111582   0.003287   0.010450
    22  C   -0.366445  -0.027919  -0.111582   5.802950   0.369357   0.227057
    23  O   -0.106501   0.004661   0.003287   0.369357   8.336068  -0.023189
    24  O   -0.064463  -0.013772   0.010450   0.227057  -0.023189   8.476686
    25  P   -0.001907  -0.000414   0.000346  -0.046952   0.063159   0.065907
    26  O   -0.003861   0.000057  -0.000005   0.007031  -0.012439  -0.019571
    27  O    0.005273  -0.000089   0.000018   0.009994  -0.016848   0.006054
    28  H   -0.004398   0.000382  -0.000213   0.023243  -0.003578   0.000827
    29  O   -0.000722  -0.000003   0.000002  -0.004553   0.006389   0.006814
    30  H   -0.000199  -0.000000  -0.000000  -0.000644   0.000276   0.000645
    31  O    0.012726  -0.000029   0.000068  -0.005849  -0.027383  -0.016316
    32  H    0.008652   0.000171  -0.000270   0.018364   0.052441   0.005467
    33  O   -0.025861   0.002314   0.000597   0.035479   0.001797  -0.032713
    34  H    0.029928  -0.000533  -0.000529  -0.017162  -0.000327   0.025801
    35  H    0.006948  -0.000115  -0.000034  -0.004706  -0.000013   0.005297
              25         26         27         28         29         30
     1  C    0.014518  -0.006714  -0.002514  -0.000261   0.000957   0.000013
     2  C   -0.014932   0.005469   0.004070  -0.004497  -0.000122   0.000043
     3  C   -0.093868   0.099034  -0.025476   0.043864  -0.005338  -0.003552
     4  N    0.014375  -0.040151  -0.001802  -0.003600   0.001203   0.000186
     5  H    0.000036   0.000013   0.000017  -0.000021   0.000000  -0.000000
     6  H    0.000041  -0.000002  -0.000001   0.000001   0.000000  -0.000000
     7  H    0.012956   0.015184  -0.001211  -0.000269   0.001351  -0.000022
     8  C    0.017505  -0.065142   0.008854  -0.008180  -0.003596   0.001629
     9  H    0.000533   0.001332  -0.000803   0.000151   0.000060   0.000012
    10  H   -0.000331  -0.004013   0.006178  -0.003046   0.000125   0.000036
    11  H    0.000836   0.001672   0.000255  -0.000111   0.000006  -0.000000
    12  N    0.001341   0.010316   0.003279  -0.005576   0.000742   0.000021
    13  C    0.012815   0.009406  -0.001091  -0.002208   0.000976  -0.000060
    14  H   -0.000013  -0.000018  -0.000001   0.000005  -0.000000   0.000000
    15  H    0.000280  -0.000325   0.000009  -0.000004   0.000002   0.000000
    16  C   -0.007875   0.004379  -0.004511   0.002772   0.000202  -0.000075
    17  H    0.000105  -0.000003   0.000009  -0.000005  -0.000000   0.000000
    18  H    0.000112  -0.000001   0.000001  -0.000006  -0.000000   0.000000
    19  C   -0.001907  -0.003861   0.005273  -0.004398  -0.000722  -0.000199
    20  H   -0.000414   0.000057  -0.000089   0.000382  -0.000003  -0.000000
    21  H    0.000346  -0.000005   0.000018  -0.000213   0.000002  -0.000000
    22  C   -0.046952   0.007031   0.009994   0.023243  -0.004553  -0.000644
    23  O    0.063159  -0.012439  -0.016848  -0.003578   0.006389   0.000276
    24  O    0.065907  -0.019571   0.006054   0.000827   0.006814   0.000645
    25  P   12.497772   0.446684   0.295520   0.002272   0.213500   0.010552
    26  O    0.446684   8.312940  -0.027525   0.000248  -0.012900  -0.010069
    27  O    0.295520  -0.027525   8.175309   0.224481   0.003114  -0.005081
    28  H    0.002272   0.000248   0.224481   0.279812  -0.006008  -0.000250
    29  O    0.213500  -0.012900   0.003114  -0.006008   8.033148   0.234915
    30  H    0.010552  -0.010069  -0.005081  -0.000250   0.234915   0.467657
    31  O    0.276701  -0.025780   0.013776  -0.003159  -0.010732  -0.001481
    32  H   -0.000354   0.001714  -0.005675   0.000711  -0.003430  -0.000075
    33  O    0.001598  -0.000808   0.004503  -0.014428   0.000147   0.000002
    34  H   -0.002979  -0.000026  -0.005290   0.014395  -0.000148   0.000004
    35  H   -0.000294   0.000009   0.000404  -0.000915   0.000005   0.000000
              31         32         33         34         35
     1  C   -0.000261  -0.001635   0.017206   0.003557   0.022797
     2  C   -0.000743   0.001125  -0.035347  -0.023576  -0.000872
     3  C    0.001941  -0.001882  -0.099342   0.059632  -0.020315
     4  N   -0.002069   0.000063  -0.000192  -0.003057  -0.006286
     5  H   -0.000002   0.000000  -0.011718  -0.000191  -0.000106
     6  H    0.000000  -0.000002  -0.000171   0.000050   0.000014
     7  H   -0.000858  -0.002296   0.002184  -0.000311   0.000025
     8  C    0.003947  -0.001099   0.005489  -0.002914   0.001748
     9  H    0.000285  -0.000002   0.001612  -0.000295   0.000021
    10  H    0.000255  -0.000088  -0.001498  -0.001336   0.000096
    11  H    0.000003   0.000001  -0.000025  -0.000442  -0.000039
    12  N   -0.001997   0.001369   0.020467  -0.010130   0.000430
    13  C    0.006785  -0.003447   0.002363  -0.001597  -0.000257
    14  H    0.000011  -0.000016   0.000062  -0.000005  -0.000001
    15  H   -0.000779   0.000331  -0.000015   0.000008  -0.000002
    16  C   -0.008995  -0.000764  -0.001653  -0.005028   0.001230
    17  H    0.000071  -0.000025  -0.000047   0.000007   0.000000
    18  H   -0.000010   0.000028   0.000084  -0.000021  -0.000012
    19  C    0.012726   0.008652  -0.025861   0.029928   0.006948
    20  H   -0.000029   0.000171   0.002314  -0.000533  -0.000115
    21  H    0.000068  -0.000270   0.000597  -0.000529  -0.000034
    22  C   -0.005849   0.018364   0.035479  -0.017162  -0.004706
    23  O   -0.027383   0.052441   0.001797  -0.000327  -0.000013
    24  O   -0.016316   0.005467  -0.032713   0.025801   0.005297
    25  P    0.276701  -0.000354   0.001598  -0.002979  -0.000294
    26  O   -0.025780   0.001714  -0.000808  -0.000026   0.000009
    27  O    0.013776  -0.005675   0.004503  -0.005290   0.000404
    28  H   -0.003159   0.000711  -0.014428   0.014395  -0.000915
    29  O   -0.010732  -0.003430   0.000147  -0.000148   0.000005
    30  H   -0.001481  -0.000075   0.000002   0.000004   0.000000
    31  O    8.186675   0.224551  -0.000154   0.000451  -0.000002
    32  H    0.224551   0.249122  -0.000104  -0.000130  -0.000005
    33  O   -0.000154  -0.000104   8.289502   0.228990   0.260727
    34  H    0.000451  -0.000130   0.228990   0.367072  -0.016606
    35  H   -0.000002  -0.000005   0.260727  -0.016606   0.442060
 Mulliken charges:
               1
     1  C   -0.146031
     2  C   -0.044968
     3  C   -0.648337
     4  N    0.445635
     5  H    0.171895
     6  H    0.162968
     7  H    0.287470
     8  C   -0.435255
     9  H    0.228372
    10  H    0.223930
    11  H    0.171599
    12  N    0.346441
    13  C   -0.386435
    14  H    0.188137
    15  H    0.225093
    16  C   -0.405398
    17  H    0.195945
    18  H    0.174510
    19  C   -0.313436
    20  H    0.194357
    21  H    0.189013
    22  C    0.380408
    23  O   -0.565222
    24  O   -0.684801
    25  P    1.220454
    26  O   -0.686135
    27  O   -0.663198
    28  H    0.467572
    29  O   -0.456102
    30  H    0.305518
    31  O   -0.621646
    32  H    0.457190
    33  O   -0.651046
    34  H    0.362736
    35  H    0.308768
 Sum of Mulliken charges =  -0.00000
 Mulliken charges with hydrogens summed into heavy atoms:
               1
     1  C    0.025864
     2  C    0.117999
     3  C   -0.360867
     4  N    0.445635
     8  C    0.188646
    12  N    0.346441
    13  C    0.026796
    16  C   -0.034944
    19  C    0.069935
    22  C    0.380408
    23  O   -0.565222
    24  O   -0.684801
    25  P    1.220454
    26  O   -0.686135
    27  O   -0.195627
    29  O   -0.150584
    31  O   -0.164456
    33  O    0.020458
         Mulliken charges condensed to fragments:
      1     -0.044110
      2      0.023652
      3      0.020458
 Electronic spatial extent (au):  <R**2>=         183613.5515
 Charge=              0.0000 electrons
 Dipole moment (field-independent basis, Debye):
    X=             -3.7088    Y=             -5.4006    Z=             -5.5468  Tot=              8.5842
 Quadrupole moment (field-independent basis, Debye-Ang):
   XX=           -200.1856   YY=           -219.1207   ZZ=           -218.1701
   XY=            -98.4669   XZ=            -98.2145   YZ=           -112.1579
 Traceless Quadrupole moment (field-independent basis, Debye-Ang):
   XX=             12.3066   YY=             -6.6286   ZZ=             -5.6780
   XY=            -98.4669   XZ=            -98.2145   YZ=           -112.1579
 Octapole moment (field-independent basis, Debye-Ang**2):
  XXX=          -5163.8497  YYY=          -5107.4457  ZZZ=          -5092.9193  XYY=          -2779.6559
  XXY=          -2750.2363  XXZ=          -2766.7565  XZZ=          -2750.6198  YZZ=          -2796.1267
  YYZ=          -2848.5997  XYZ=          -1629.5112
 Hexadecapole moment (field-independent basis, Debye-Ang**3):
 XXXX=        -103281.0809 YYYY=         -96497.7447 ZZZZ=         -97537.7412 XXXY=         -61408.2915
 XXXZ=         -62604.3560 YYYX=         -59361.8831 YYYZ=         -59296.0932 ZZZX=         -59529.7708
 ZZZY=         -58044.6335 XXYY=         -48159.2879 XXZZ=         -48549.8079 YYZZ=         -46844.8822
 XXYZ=         -35772.9086 YYXZ=         -35251.1606 ZZXY=         -34543.0790
 N-N= 1.744127937293D+03 E-N=-6.531603378151D+03  KE= 1.288064435490D+03
 No NMR shielding tensors so no spin-rotation constants.
 Leave Link  601 at Sat May 21 15:15:37 2022, MaxMem=   671088640 cpu:               1.3 elap:               0.3
 (Enter /data0/hywu0/study/g16/l122.exe)
 CPIOFr:  IOpCl= 0 IRwI=-1 IRwCP=  731 ICalc= -1 LCPTot=      545013 Len1MO=     1433100 IndFrg=      545013
 CPIOFr:  IOpCl= 0 IRwI=-1 IRwCP=  731 ICalc=  0 LCPTot=      545013 Len1MO=     1433100 IndFrg=     1978113
 Counterpoise: doing calculation for fragment   1 using the basis set of the full-system, NewBq=T
 Leave Link  122 at Sat May 21 15:15:37 2022, MaxMem=   671088640 cpu:               0.1 elap:               0.0
 (Enter /data0/hywu0/study/g16/l301.exe)
 Basis read from rwf:  (5D, 7F)
 No pseudopotential information found on rwf file.
   596 basis functions,   906 primitive gaussians,   632 cartesian basis functions
    45 alpha electrons       45 beta electrons
       nuclear repulsion energy       745.3039137808 Hartrees.
 IExCor= 4336 DFT=T Ex+Corr=M062X ExCW=0 ScaHFX=  0.540000
 ScaDFX=  1.000000  1.000000  1.000000  1.000000 ScalE2=  1.000000  1.000000
 IRadAn=      5 IRanWt=     -1 IRanGd=            0 ICorTp=0 IEmpDi=131
 NAtoms=   35 NActive=   35 NUniq=   35 SFac= 1.00D+00 NAtFMM=   60 NAOKFM=F Big=F
 Integral buffers will be    131072 words long.
 Raffenetti 2 integral format.
 Two-electron integral symmetry is turned off.
 R6Disp:  Grimme-D3 Dispersion energy=       -0.0009937145 Hartrees.
 Nuclear repulsion after empirical dispersion term =      745.3029200663 Hartrees.
 No density basis found on file   718.
 Leave Link  301 at Sat May 21 15:15:37 2022, MaxMem=   671088640 cpu:               0.4 elap:               0.1
 (Enter /data0/hywu0/study/g16/l302.exe)
 NPDir=0 NMtPBC=     1 NCelOv=     1 NCel=       1 NClECP=     1 NCelD=      1
         NCelK=      1 NCelE2=     1 NClLst=     1 CellRange=     0.0.
 One-electron integrals computed using PRISM.
 NBasis=   596 RedAO= T EigKep=  9.46D-06  NBF=   596
 NBsUse=   596 1.00D-06 EigRej= -1.00D+00 NBFU=   596
 Precomputing XC quadrature grid using
 IXCGrd= 4 IRadAn=           5 IRanWt=          -1 IRanGd=           0 AccXCQ= 0.00D+00.
 Generated NRdTot=       0 NPtTot=           0 NUsed=           0 NTot=          32
 NSgBfM=   632   632   632   632   632 MxSgAt=    35 MxSgA2=    35.
 Leave Link  302 at Sat May 21 15:15:38 2022, MaxMem=   671088640 cpu:               4.9 elap:               0.8
 (Enter /data0/hywu0/study/g16/l303.exe)
 DipDrv:  MaxL=1.
 Leave Link  303 at Sat May 21 15:15:38 2022, MaxMem=   671088640 cpu:               0.5 elap:               0.1
 (Enter /data0/hywu0/study/g16/l401.exe)
 ExpMin= 3.48D-02 ExpMax= 7.75D+04 ExpMxC= 2.65D+03 IAcc=3 IRadAn=         5 AccDes= 0.00D+00
 Harris functional with IExCor= 1009 and IRadAn=       5 diagonalized for initial guess.
 HarFok:  IExCor= 1009 AccDes= 0.00D+00 IRadAn=         5 IDoV= 1 UseB2=F ITyADJ=14
 ICtDFT=  3500011 ScaDFX=  1.000000  1.000000  1.000000  1.000000
 FoFCou: FMM=F IPFlag=           0 FMFlag=      100000 FMFlg1=           0
         NFxFlg=           0 DoJE=T BraDBF=F KetDBF=T FulRan=T
         wScrn=  0.000000 ICntrl=       500 IOpCl=  0 I1Cent=   200000004 NGrid=           0
         NMat0=    1 NMatS0=      1 NMatT0=    0 NMatD0=    1 NMtDS0=    0 NMtDT0=    0
 Symmetry not used in FoFCou.
 Harris En= -571.691535576517    
 JPrj=0 DoOrth=F DoCkMO=F.
 Leave Link  401 at Sat May 21 15:15:47 2022, MaxMem=   671088640 cpu:              54.3 elap:               9.1
 (Enter /data0/hywu0/study/g16/l502.exe)
 Two-electron integral symmetry not used.
 Closed shell SCF:
 Using DIIS extrapolation, IDIIS=  1040.
 NGot=   671088640 LenX=   670281583 LenY=   669881527
 Requested convergence on RMS density matrix=1.00D-08 within 128 cycles.
 Requested convergence on MAX density matrix=1.00D-06.
 Requested convergence on             energy=1.00D-06.
 No special actions if energy rises.
 Fock matrices will be formed incrementally for  20 cycles.

 Cycle   1  Pass 1  IDiag  1:
 FoFJK:  IHMeth= 1 ICntrl=       0 DoSepK=F KAlg= 0 I1Cent=           0 FoldK=F
 IRaf= 860000000 NMat=       1 IRICut=       1 DoRegI=T DoRafI=F ISym2E= 0 IDoP0=0 IntGTp=1.
 FoFCou: FMM=F IPFlag=           0 FMFlag=      100000 FMFlg1=           0
         NFxFlg=           0 DoJE=F BraDBF=F KetDBF=F FulRan=T
         wScrn=  0.000000 ICntrl=         0 IOpCl=  0 I1Cent=           0 NGrid=           0
         NMat0=    1 NMatS0=      1 NMatT0=    0 NMatD0=    1 NMtDS0=    0 NMtDT0=    0
 Symmetry not used in FoFCou.
 E= -571.590511392088    
 DIIS: error= 1.72D-02 at cycle   1 NSaved=   1.
 NSaved= 1 IEnMin= 1 EnMin= -571.590511392088     IErMin= 1 ErrMin= 1.72D-02
 ErrMax= 1.72D-02  0.00D+00 EMaxC= 1.00D-01 BMatC= 4.66D-01 BMatP= 4.66D-01
 IDIUse=3 WtCom= 8.28D-01 WtEn= 1.72D-01
 Coeff-Com:  0.100D+01
 Coeff-En:   0.100D+01
 Coeff:      0.100D+01
 Gap=     0.306 Goal=   None    Shift=    0.000
 GapD=    0.306 DampG=1.000 DampE=0.500 DampFc=0.5000 IDamp=-1.
 Damping current iteration by 5.00D-01
 RMSDP=6.96D-03 MaxDP=9.69D-01              OVMax= 2.42D-01

 Cycle   2  Pass 1  IDiag  1:
 RMSU=  3.47D-03    CP:  9.82D-01
 E= -571.740319920430     Delta-E=       -0.149808528342 Rises=F Damp=T
 DIIS: error= 4.29D-03 at cycle   2 NSaved=   2.
 NSaved= 2 IEnMin= 2 EnMin= -571.740319920430     IErMin= 2 ErrMin= 4.29D-03
 ErrMax= 4.29D-03  0.00D+00 EMaxC= 1.00D-01 BMatC= 3.92D-02 BMatP= 4.66D-01
 IDIUse=3 WtCom= 9.57D-01 WtEn= 4.29D-02
 Coeff-Com: -0.283D-02 0.100D+01
 Coeff-En:   0.496D-01 0.950D+00
 Coeff:     -0.581D-03 0.100D+01
 Gap=     0.243 Goal=   None    Shift=    0.000
 RMSDP=3.40D-03 MaxDP=6.34D-01 DE=-1.50D-01 OVMax= 1.72D-01

 Cycle   3  Pass 1  IDiag  1:
 RMSU=  2.11D-03    CP:  8.34D-01  3.52D-01
 E= -571.917284112658     Delta-E=       -0.176964192228 Rises=F Damp=F
 DIIS: error= 3.92D-03 at cycle   3 NSaved=   3.
 NSaved= 3 IEnMin= 3 EnMin= -571.917284112658     IErMin= 3 ErrMin= 3.92D-03
 ErrMax= 3.92D-03  0.00D+00 EMaxC= 1.00D-01 BMatC= 1.58D-02 BMatP= 3.92D-02
 IDIUse=3 WtCom= 9.61D-01 WtEn= 3.92D-02
 Coeff-Com: -0.873D-01 0.380D+00 0.707D+00
 Coeff-En:   0.000D+00 0.000D+00 0.100D+01
 Coeff:     -0.839D-01 0.365D+00 0.719D+00
 Gap=     0.228 Goal=   None    Shift=    0.000
 RMSDP=4.86D-04 MaxDP=4.59D-02 DE=-1.77D-01 OVMax= 2.70D-02

 Cycle   4  Pass 1  IDiag  1:
 RMSU=  4.56D-04    CP:  8.37D-01  3.93D-01  1.04D+00
 E= -571.926618150943     Delta-E=       -0.009334038285 Rises=F Damp=F
 DIIS: error= 1.56D-03 at cycle   4 NSaved=   4.
 NSaved= 4 IEnMin= 4 EnMin= -571.926618150943     IErMin= 4 ErrMin= 1.56D-03
 ErrMax= 1.56D-03  0.00D+00 EMaxC= 1.00D-01 BMatC= 2.36D-03 BMatP= 1.58D-02
 IDIUse=3 WtCom= 9.84D-01 WtEn= 1.56D-02
 Coeff-Com: -0.418D-01 0.105D+00 0.347D+00 0.590D+00
 Coeff-En:   0.000D+00 0.000D+00 0.555D-01 0.945D+00
 Coeff:     -0.412D-01 0.104D+00 0.342D+00 0.595D+00
 Gap=     0.221 Goal=   None    Shift=    0.000
 RMSDP=1.45D-04 MaxDP=1.44D-02 DE=-9.33D-03 OVMax= 9.05D-03

 Cycle   5  Pass 1  IDiag  1:
 RMSU=  1.28D-04    CP:  8.34D-01  3.88D-01  1.04D+00  8.72D-01
 E= -571.928574886180     Delta-E=       -0.001956735237 Rises=F Damp=F
 DIIS: error= 3.36D-04 at cycle   5 NSaved=   5.
 NSaved= 5 IEnMin= 5 EnMin= -571.928574886180     IErMin= 5 ErrMin= 3.36D-04
 ErrMax= 3.36D-04  0.00D+00 EMaxC= 1.00D-01 BMatC= 1.45D-04 BMatP= 2.36D-03
 IDIUse=3 WtCom= 9.97D-01 WtEn= 3.36D-03
 Coeff-Com: -0.141D-01 0.262D-01 0.104D+00 0.265D+00 0.618D+00
 Coeff-En:   0.000D+00 0.000D+00 0.000D+00 0.000D+00 0.100D+01
 Coeff:     -0.141D-01 0.261D-01 0.104D+00 0.265D+00 0.619D+00
 Gap=     0.221 Goal=   None    Shift=    0.000
 RMSDP=5.36D-05 MaxDP=7.76D-03 DE=-1.96D-03 OVMax= 4.42D-03

 Cycle   6  Pass 1  IDiag  1:
 RMSU=  4.39D-05    CP:  8.35D-01  3.83D-01  1.04D+00  9.16D-01  9.51D-01
 E= -571.928683788852     Delta-E=       -0.000108902671 Rises=F Damp=F
 DIIS: error= 1.37D-04 at cycle   6 NSaved=   6.
 NSaved= 6 IEnMin= 6 EnMin= -571.928683788852     IErMin= 6 ErrMin= 1.37D-04
 ErrMax= 1.37D-04  0.00D+00 EMaxC= 1.00D-01 BMatC= 2.37D-05 BMatP= 1.45D-04
 IDIUse=3 WtCom= 9.99D-01 WtEn= 1.37D-03
 Coeff-Com: -0.289D-02 0.281D-02 0.152D-01 0.719D-01 0.325D+00 0.588D+00
 Coeff-En:   0.000D+00 0.000D+00 0.000D+00 0.000D+00 0.000D+00 0.100D+01
 Coeff:     -0.289D-02 0.280D-02 0.152D-01 0.718D-01 0.325D+00 0.588D+00
 Gap=     0.222 Goal=   None    Shift=    0.000
 RMSDP=2.06D-05 MaxDP=1.88D-03 DE=-1.09D-04 OVMax= 1.83D-03

 Cycle   7  Pass 1  IDiag  1:
 RMSU=  1.70D-05    CP:  8.36D-01  3.82D-01  1.04D+00  9.33D-01  9.98D-01
                    CP:  1.10D+00
 E= -571.928703474803     Delta-E=       -0.000019685952 Rises=F Damp=F
 DIIS: error= 3.97D-05 at cycle   7 NSaved=   7.
 NSaved= 7 IEnMin= 7 EnMin= -571.928703474803     IErMin= 7 ErrMin= 3.97D-05
 ErrMax= 3.97D-05  0.00D+00 EMaxC= 1.00D-01 BMatC= 2.66D-06 BMatP= 2.37D-05
 IDIUse=1 WtCom= 1.00D+00 WtEn= 0.00D+00
 Coeff-Com:  0.196D-02-0.470D-02-0.166D-01-0.268D-01 0.110D-01 0.258D+00
 Coeff-Com:  0.777D+00
 Coeff:      0.196D-02-0.470D-02-0.166D-01-0.268D-01 0.110D-01 0.258D+00
 Coeff:      0.777D+00
 Gap=     0.221 Goal=   None    Shift=    0.000
 RMSDP=1.03D-05 MaxDP=6.86D-04 DE=-1.97D-05 OVMax= 1.02D-03

 Cycle   8  Pass 1  IDiag  1:
 RMSU=  6.18D-06    CP:  8.36D-01  3.81D-01  1.04D+00  9.35D-01  1.03D+00
                    CP:  1.22D+00  1.08D+00
 E= -571.928706676264     Delta-E=       -0.000003201461 Rises=F Damp=F
 DIIS: error= 9.02D-06 at cycle   8 NSaved=   8.
 NSaved= 8 IEnMin= 8 EnMin= -571.928706676264     IErMin= 8 ErrMin= 9.02D-06
 ErrMax= 9.02D-06  0.00D+00 EMaxC= 1.00D-01 BMatC= 1.49D-07 BMatP= 2.66D-06
 IDIUse=1 WtCom= 1.00D+00 WtEn= 0.00D+00
 Coeff-Com:  0.755D-03-0.146D-02-0.547D-02-0.135D-01-0.251D-01 0.250D-01
 Coeff-Com:  0.240D+00 0.780D+00
 Coeff:      0.755D-03-0.146D-02-0.547D-02-0.135D-01-0.251D-01 0.250D-01
 Coeff:      0.240D+00 0.780D+00
 Gap=     0.222 Goal=   None    Shift=    0.000
 RMSDP=3.13D-06 MaxDP=3.96D-04 DE=-3.20D-06 OVMax= 3.83D-04

 Cycle   9  Pass 1  IDiag  1:
 RMSU=  2.06D-06    CP:  8.36D-01  3.80D-01  1.04D+00  9.33D-01  1.03D+00
                    CP:  1.24D+00  1.14D+00  1.22D+00
 E= -571.928706932671     Delta-E=       -0.000000256407 Rises=F Damp=F
 DIIS: error= 3.65D-06 at cycle   9 NSaved=   9.
 NSaved= 9 IEnMin= 9 EnMin= -571.928706932671     IErMin= 9 ErrMin= 3.65D-06
 ErrMax= 3.65D-06  0.00D+00 EMaxC= 1.00D-01 BMatC= 1.38D-08 BMatP= 1.49D-07
 IDIUse=1 WtCom= 1.00D+00 WtEn= 0.00D+00
 Coeff-Com:  0.550D-04-0.466D-04-0.292D-03-0.182D-02-0.713D-02-0.116D-01
 Coeff-Com:  0.558D-02 0.212D+00 0.803D+00
 Coeff:      0.550D-04-0.466D-04-0.292D-03-0.182D-02-0.713D-02-0.116D-01
 Coeff:      0.558D-02 0.212D+00 0.803D+00
 Gap=     0.222 Goal=   None    Shift=    0.000
 RMSDP=1.21D-06 MaxDP=1.56D-04 DE=-2.56D-07 OVMax= 1.28D-04

 Cycle  10  Pass 1  IDiag  1:
 RMSU=  5.89D-07    CP:  8.35D-01  3.80D-01  1.04D+00  9.32D-01  1.03D+00
                    CP:  1.24D+00  1.16D+00  1.32D+00  1.25D+00
 E= -571.928706956972     Delta-E=       -0.000000024301 Rises=F Damp=F
 DIIS: error= 1.59D-06 at cycle  10 NSaved=  10.
 NSaved=10 IEnMin=10 EnMin= -571.928706956972     IErMin=10 ErrMin= 1.59D-06
 ErrMax= 1.59D-06  0.00D+00 EMaxC= 1.00D-01 BMatC= 3.86D-09 BMatP= 1.38D-08
 IDIUse=1 WtCom= 1.00D+00 WtEn= 0.00D+00
 Coeff-Com: -0.838D-04 0.174D-03 0.610D-03 0.105D-02 0.393D-03-0.931D-02
[...]
 Sum of Mulliken charges =  -0.00000
 Mulliken charges with hydrogens summed into heavy atoms:
               1
     1  C    0.000000
     2  C    0.000000
     3  C    0.000000
     4  N    0.000000
     8  C    0.000000
    12  N    0.000000
    13  C    0.000000
    16  C    0.000000
    19  C    0.000000
    22  C    0.000000
    23  O    0.000000
    24  O    0.000000
    25  P    1.282812
    26  O   -0.617684
    27  O   -0.243543
    29  O   -0.178732
    31  O   -0.242852
    33  O    0.000000
         Mulliken charges condensed to fragments:
      1      0.000000
      2     -0.000000
      3      0.000000
 Electronic spatial extent (au):  <R**2>=          80014.6773
 Charge=             -0.0000 electrons
 Dipole moment (field-independent basis, Debye):
    X=             -5.0672    Y=              2.3429    Z=              0.2866  Tot=              5.5900
 Quadrupole moment (field-independent basis, Debye-Ang):
   XX=           -154.9568   YY=             17.2809   ZZ=            -25.6922
   XY=            -29.2962   XZ=            -54.7513   YZ=             33.6881
 Traceless Quadrupole moment (field-independent basis, Debye-Ang):
   XX=           -100.5008   YY=             71.7370   ZZ=             28.7638
   XY=            -29.2962   XZ=            -54.7513   YZ=             33.6881
 Octapole moment (field-independent basis, Debye-Ang**2):
  XXX=          -3412.8905  YYY=           -368.5834  ZZZ=          -1110.3182  XYY=           -447.2686
  XXY=          -1436.3957  XXZ=          -1784.5887  XZZ=           -978.7427  YZZ=             98.7336
  YYZ=            279.8896  XYZ=           -253.4158
 Hexadecapole moment (field-independent basis, Debye-Ang**3):
 XXXX=         -65100.2243 YYYY=         -16600.0941 ZZZZ=         -29331.1127 XXXY=         -35273.9954
 XXXZ=         -40387.1778 YYYX=         -11936.4633 YYYZ=          -3710.7331 ZZZX=         -21078.3313
 ZZZY=          -7653.9068 XXYY=         -17974.0973 XXZZ=         -25368.5664 YYZZ=            -78.9583
 XXYZ=         -16034.7006 YYXZ=          -4121.3274 ZZXY=          -6377.4162
 N-N= 2.798221074950D+02 E-N=-2.087241862822D+03  KE= 6.424928531918D+02
 No NMR shielding tensors so no spin-rotation constants.
 Leave Link  601 at Sat May 21 15:45:11 2022, MaxMem=   671088640 cpu:               0.4 elap:               0.1
 (Enter /data0/hywu0/study/g16/l122.exe)
 CPIOFr:  IOpCl= 0 IRwI=-1 IRwCP=  731 ICalc=  5 LCPTot=      545013 Len1MO=     1433100 IndFrg=     9143613
 Counterpoise: doing calculation for fragment   3 using the basis set of the fragment.
 Leave Link  122 at Sat May 21 15:45:11 2022, MaxMem=   671088640 cpu:               0.1 elap:               0.0
 (Enter /data0/hywu0/study/g16/l301.exe)
 Basis read from rwf:  (5D, 7F)
 No pseudopotential information found on rwf file.
    39 basis functions,    58 primitive gaussians,    41 cartesian basis functions
     5 alpha electrons        5 beta electrons
       nuclear repulsion energy         9.0712350188 Hartrees.
 IExCor= 4336 DFT=T Ex+Corr=M062X ExCW=0 ScaHFX=  0.540000
 ScaDFX=  1.000000  1.000000  1.000000  1.000000 ScalE2=  1.000000  1.000000
 IRadAn=      5 IRanWt=     -1 IRanGd=            0 ICorTp=0 IEmpDi=131
 NAtoms=   35 NActive=    3 NUniq=    3 SFac= 1.00D+00 NAtFMM=   60 NAOKFM=F Big=F
 Integral buffers will be    131072 words long.
 Raffenetti 2 integral format.
 Two-electron integral symmetry is turned off.
 R6Disp:  Grimme-D3 Dispersion energy=       -0.0000000080 Hartrees.
 Nuclear repulsion after empirical dispersion term =        9.0712350108 Hartrees.
 No density basis found on file   718.
 Leave Link  301 at Sat May 21 15:45:11 2022, MaxMem=   671088640 cpu:               0.4 elap:               0.1
 (Enter /data0/hywu0/study/g16/l302.exe)
 NPDir=0 NMtPBC=     1 NCelOv=     1 NCel=       1 NClECP=     1 NCelD=      1
         NCelK=      1 NCelE2=     1 NClLst=     1 CellRange=     0.0.
 One-electron integrals computed using PRISM.
 NBasis=    39 RedAO= T EigKep=  3.08D-03  NBF=    39
 NBsUse=    39 1.00D-06 EigRej= -1.00D+00 NBFU=    39
 Precomputing XC quadrature grid using
 IXCGrd= 4 IRadAn=           5 IRanWt=          -1 IRanGd=           0 AccXCQ= 0.00D+00.
 Generated NRdTot=       0 NPtTot=           0 NUsed=           0 NTot=          32
 NSgBfM=    41    41    41    41    41 MxSgAt=     3 MxSgA2=     3.
 Leave Link  302 at Sat May 21 15:45:11 2022, MaxMem=   671088640 cpu:               0.5 elap:               0.1
 (Enter /data0/hywu0/study/g16/l303.exe)
 DipDrv:  MaxL=1.
 Leave Link  303 at Sat May 21 15:45:11 2022, MaxMem=   671088640 cpu:               0.1 elap:               0.0
 (Enter /data0/hywu0/study/g16/l401.exe)
 ExpMin= 8.45D-02 ExpMax= 8.59D+03 ExpMxC= 1.30D+03 IAcc=3 IRadAn=         5 AccDes= 0.00D+00
 Harris functional with IExCor= 1009 and IRadAn=       5 diagonalized for initial guess.
 HarFok:  IExCor= 1009 AccDes= 0.00D+00 IRadAn=         5 IDoV= 1 UseB2=F ITyADJ=14
 ICtDFT=  3500011 ScaDFX=  1.000000  1.000000  1.000000  1.000000
 FoFCou: FMM=F IPFlag=           0 FMFlag=      100000 FMFlg1=           0
         NFxFlg=           0 DoJE=T BraDBF=F KetDBF=T FulRan=T
         wScrn=  0.000000 ICntrl=       500 IOpCl=  0 I1Cent=   200000004 NGrid=           0
         NMat0=    1 NMatS0=      1 NMatT0=    0 NMatD0=    1 NMtDS0=    0 NMtDT0=    0
 Symmetry not used in FoFCou.
 Harris En= -76.4157154859146    
 JPrj=0 DoOrth=F DoCkMO=F.
 Leave Link  401 at Sat May 21 15:45:11 2022, MaxMem=   671088640 cpu:               0.8 elap:               0.1
 (Enter /data0/hywu0/study/g16/l502.exe)
 Keep R1 ints in memory in canonical form, NReq=5492098.
 FoFCou: FMM=F IPFlag=           0 FMFlag=           0 FMFlg1=           0
         NFxFlg=           0 DoJE=F BraDBF=F KetDBF=F FulRan=T
         wScrn=  0.000000 ICntrl=       600 IOpCl=  0 I1Cent=           0 NGrid=           0
         NMat0=    1 NMatS0=    780 NMatT0=    0 NMatD0=    1 NMtDS0=    0 NMtDT0=    0
 Symmetry not used in FoFCou.
 Two-electron integral symmetry not used.
 Closed shell SCF:
 Using DIIS extrapolation, IDIIS=  1040.
 NGot=   671088640 LenX=   670778980 LenY=   670776858
 Requested convergence on RMS density matrix=1.00D-08 within 128 cycles.
 Requested convergence on MAX density matrix=1.00D-06.
 Requested convergence on             energy=1.00D-06.
 No special actions if energy rises.
 Integral accuracy reduced to 1.0D-05 until final iterations.

 Cycle   1  Pass 0  IDiag  1:
 E= -76.3456949273180    
 DIIS: error= 6.99D-02 at cycle   1 NSaved=   1.
 NSaved= 1 IEnMin= 1 EnMin= -76.3456949273180     IErMin= 1 ErrMin= 6.99D-02
 ErrMax= 6.99D-02  0.00D+00 EMaxC= 1.00D-01 BMatC= 1.20D-01 BMatP= 1.20D-01
 IDIUse=3 WtCom= 3.01D-01 WtEn= 6.99D-01
 Coeff-Com:  0.100D+01
 Coeff-En:   0.100D+01
 Coeff:      0.100D+01
 Gap=     0.324 Goal=   None    Shift=    0.000
 GapD=    0.324 DampG=1.000 DampE=0.500 DampFc=0.5000 IDamp=-1.
 Damping current iteration by 5.00D-01
 RMSDP=7.92D-03 MaxDP=1.01D-01              OVMax= 1.68D-01

 Cycle   2  Pass 0  IDiag  1:
 E= -76.3769486111147     Delta-E=       -0.031253683797 Rises=F Damp=T
 DIIS: error= 1.10D-02 at cycle   2 NSaved=   2.
 NSaved= 2 IEnMin= 2 EnMin= -76.3769486111147     IErMin= 2 ErrMin= 1.10D-02
 ErrMax= 1.10D-02  0.00D+00 EMaxC= 1.00D-01 BMatC= 4.89D-03 BMatP= 1.20D-01
 IDIUse=3 WtCom= 8.90D-01 WtEn= 1.10D-01
 Coeff-Com:  0.842D-01 0.916D+00
 Coeff-En:   0.190D+00 0.810D+00
 Coeff:      0.959D-01 0.904D+00
 Gap=     0.456 Goal=   None    Shift=    0.000
 RMSDP=9.52D-04 MaxDP=1.42D-02 DE=-3.13D-02 OVMax= 1.01D-01

 Cycle   3  Pass 0  IDiag  1:
 E= -76.4209298152000     Delta-E=       -0.043981204085 Rises=F Damp=F
 DIIS: error= 2.20D-03 at cycle   3 NSaved=   3.
 NSaved= 3 IEnMin= 3 EnMin= -76.4209298152000     IErMin= 3 ErrMin= 2.20D-03
 ErrMax= 2.20D-03  0.00D+00 EMaxC= 1.00D-01 BMatC= 9.43D-05 BMatP= 4.89D-03
 IDIUse=3 WtCom= 9.78D-01 WtEn= 2.20D-02
 Coeff-Com: -0.202D-01 0.407D-01 0.979D+00
 Coeff-En:   0.000D+00 0.000D+00 0.100D+01
 Coeff:     -0.197D-01 0.398D-01 0.980D+00
 Gap=     0.460 Goal=   None    Shift=    0.000
 RMSDP=1.17D-04 MaxDP=1.10D-03 DE=-4.40D-02 OVMax= 3.37D-03

 Cycle   4  Pass 0  IDiag  1:
 E= -76.4210101207692     Delta-E=       -0.000080305569 Rises=F Damp=F
 DIIS: error= 4.21D-04 at cycle   4 NSaved=   4.
 NSaved= 4 IEnMin= 4 EnMin= -76.4210101207692     IErMin= 4 ErrMin= 4.21D-04
 ErrMax= 4.21D-04  0.00D+00 EMaxC= 1.00D-01 BMatC= 3.41D-06 BMatP= 9.43D-05
 IDIUse=3 WtCom= 9.96D-01 WtEn= 4.21D-03
 Coeff-Com: -0.201D-02-0.214D-02 0.165D+00 0.840D+00
 Coeff-En:   0.000D+00 0.000D+00 0.000D+00 0.100D+01
 Coeff:     -0.200D-02-0.213D-02 0.164D+00 0.840D+00
 Gap=     0.461 Goal=   None    Shift=    0.000
 RMSDP=2.24D-05 MaxDP=3.57D-04 DE=-8.03D-05 OVMax= 5.44D-04

 Cycle   5  Pass 0  IDiag  1:
 E= -76.4210122313041     Delta-E=       -0.000002110535 Rises=F Damp=F
 DIIS: error= 9.13D-05 at cycle   5 NSaved=   5.
 NSaved= 5 IEnMin= 5 EnMin= -76.4210122313041     IErMin= 5 ErrMin= 9.13D-05
 ErrMax= 9.13D-05  0.00D+00 EMaxC= 1.00D-01 BMatC= 8.68D-08 BMatP= 3.41D-06
 IDIUse=1 WtCom= 1.00D+00 WtEn= 0.00D+00
 Coeff-Com:  0.120D-02-0.184D-02-0.371D-01-0.687D-01 0.111D+01
 Coeff:      0.120D-02-0.184D-02-0.371D-01-0.687D-01 0.111D+01
 Gap=     0.461 Goal=   None    Shift=    0.000
 RMSDP=9.17D-06 MaxDP=1.04D-04 DE=-2.11D-06 OVMax= 2.08D-04

 Initial convergence to 1.0D-05 achieved.  Increase integral accuracy.
 Cycle   6  Pass 1  IDiag  1:
 E= -76.4210301805764     Delta-E=       -0.000017949272 Rises=F Damp=F
 DIIS: error= 1.87D-05 at cycle   1 NSaved=   1.
 NSaved= 1 IEnMin= 1 EnMin= -76.4210301805764     IErMin= 1 ErrMin= 1.87D-05
 ErrMax= 1.87D-05  0.00D+00 EMaxC= 1.00D-01 BMatC= 1.67D-08 BMatP= 1.67D-08
 IDIUse=1 WtCom= 1.00D+00 WtEn= 0.00D+00
 Coeff-Com:  0.100D+01
 Coeff:      0.100D+01
 Gap=     0.461 Goal=   None    Shift=    0.000
 RMSDP=9.17D-06 MaxDP=1.04D-04 DE=-1.79D-05 OVMax= 3.28D-05

 Cycle   7  Pass 1  IDiag  1:
 E= -76.4210301934164     Delta-E=       -0.000000012840 Rises=F Damp=F
 DIIS: error= 4.71D-06 at cycle   2 NSaved=   2.
 NSaved= 2 IEnMin= 2 EnMin= -76.4210301934164     IErMin= 2 ErrMin= 4.71D-06
 ErrMax= 4.71D-06  0.00D+00 EMaxC= 1.00D-01 BMatC= 3.73D-10 BMatP= 1.67D-08
 IDIUse=1 WtCom= 1.00D+00 WtEn= 0.00D+00
 Coeff-Com: -0.369D-01 0.104D+01
 Coeff:     -0.369D-01 0.104D+01
 Gap=     0.461 Goal=   None    Shift=    0.000
 RMSDP=4.25D-07 MaxDP=4.25D-06 DE=-1.28D-08 OVMax= 1.12D-05

 Cycle   8  Pass 1  IDiag  1:
 E= -76.4210301935555     Delta-E=       -0.000000000139 Rises=F Damp=F
 DIIS: error= 3.22D-06 at cycle   3 NSaved=   3.
 NSaved= 3 IEnMin= 3 EnMin= -76.4210301935555     IErMin= 3 ErrMin= 3.22D-06
 ErrMax= 3.22D-06  0.00D+00 EMaxC= 1.00D-01 BMatC= 2.77D-10 BMatP= 3.73D-10
 IDIUse=1 WtCom= 1.00D+00 WtEn= 0.00D+00
 Coeff-Com: -0.428D-01 0.492D+00 0.551D+00
 Coeff:     -0.428D-01 0.492D+00 0.551D+00
 Gap=     0.461 Goal=   None    Shift=    0.000
 RMSDP=2.10D-07 MaxDP=3.10D-06 DE=-1.39D-10 OVMax= 4.49D-06

 Cycle   9  Pass 1  IDiag  1:
 E= -76.4210301937308     Delta-E=       -0.000000000175 Rises=F Damp=F
 DIIS: error= 8.28D-07 at cycle   4 NSaved=   4.
 NSaved= 4 IEnMin= 4 EnMin= -76.4210301937308     IErMin= 4 ErrMin= 8.28D-07
 ErrMax= 8.28D-07  0.00D+00 EMaxC= 1.00D-01 BMatC= 8.19D-12 BMatP= 2.77D-10
 IDIUse=1 WtCom= 1.00D+00 WtEn= 0.00D+00
 Coeff-Com: -0.286D-02 0.272D-03 0.140D+00 0.863D+00
 Coeff:     -0.286D-02 0.272D-03 0.140D+00 0.863D+00
 Gap=     0.461 Goal=   None    Shift=    0.000
 RMSDP=4.40D-08 MaxDP=4.33D-07 DE=-1.75D-10 OVMax= 1.34D-06

 Cycle  10  Pass 1  IDiag  1:
 E= -76.4210301937378     Delta-E=       -0.000000000007 Rises=F Damp=F
 DIIS: error= 5.92D-08 at cycle   5 NSaved=   5.
 NSaved= 5 IEnMin= 5 EnMin= -76.4210301937378     IErMin= 5 ErrMin= 5.92D-08
 ErrMax= 5.92D-08  0.00D+00 EMaxC= 1.00D-01 BMatC= 1.21D-13 BMatP= 8.19D-12
 IDIUse=1 WtCom= 1.00D+00 WtEn= 0.00D+00
 Coeff-Com:  0.160D-02-0.224D-01-0.236D-01 0.170D-01 0.103D+01
 Coeff:      0.160D-02-0.224D-01-0.236D-01 0.170D-01 0.103D+01
 Gap=     0.461 Goal=   None    Shift=    0.000
 RMSDP=1.48D-08 MaxDP=9.79D-08 DE=-6.98D-12 OVMax= 3.45D-07

 Cycle  11  Pass 1  IDiag  1:
 E= -76.4210301937380     Delta-E=       -0.000000000000 Rises=F Damp=F
 DIIS: error= 1.43D-08 at cycle   6 NSaved=   6.
 NSaved= 6 IEnMin= 6 EnMin= -76.4210301937380     IErMin= 6 ErrMin= 1.43D-08
 ErrMax= 1.43D-08  0.00D+00 EMaxC= 1.00D-01 BMatC= 6.66D-15 BMatP= 1.21D-13
 IDIUse=1 WtCom= 1.00D+00 WtEn= 0.00D+00
 Coeff-Com:  0.145D-03-0.562D-04-0.995D-02-0.441D-01 0.415D-01 0.101D+01
 Coeff:      0.145D-03-0.562D-04-0.995D-02-0.441D-01 0.415D-01 0.101D+01
 Gap=     0.461 Goal=   None    Shift=    0.000
 RMSDP=3.48D-09 MaxDP=2.63D-08 DE=-2.13D-13 OVMax= 8.05D-08

 SCF Done:  E(RM062X) =  -76.4210301937     A.U. after   11 cycles
            NFock= 11  Conv=0.35D-08     -V/T= 2.0031
 KE= 7.618441593600D+01 PE=-1.989886693662D+02 EE= 3.731198822560D+01
 Leave Link  502 at Sat May 21 15:45:12 2022, MaxMem=   671088640 cpu:               4.9 elap:               0.8
 (Enter /data0/hywu0/study/g16/l601.exe)
 Copying SCF densities to generalized density rwf, IOpCl= 0 IROHF=0.

 **********************************************************************

            Population analysis using the SCF density.

 **********************************************************************

 Alpha  occ. eigenvalues --  -19.62657  -1.13211  -0.60579  -0.47469  -0.39956
 Alpha virt. eigenvalues --    0.06161   0.13266   0.17411   0.17951   0.18939
 Alpha virt. eigenvalues --    0.23322   0.50187   0.53857   0.97898   1.00432
 Alpha virt. eigenvalues --    1.06014   1.18418   1.19845   1.32325   1.34065
 Alpha virt. eigenvalues --    1.69457   1.73763   1.75665   2.06439   2.10021
 Alpha virt. eigenvalues --    2.35453   2.41084   2.54365   2.87343   3.01332
 Alpha virt. eigenvalues --    5.05654   5.47171   5.91273   6.78306   6.80235
 Alpha virt. eigenvalues --    6.87204   6.91369   7.09806  49.95564
          Condensed to atoms (all electrons):
              33         34         35
    33  O    7.919550   0.315509   0.322416
    34  H    0.315509   0.426736  -0.024067
    35  H    0.322416  -0.024067   0.425998
 Mulliken charges:
               1
     1  C    0.000000
     2  C    0.000000
     3  C    0.000000
     4  N    0.000000
     5  H    0.000000
     6  H    0.000000
     7  H    0.000000
     8  C    0.000000
     9  H    0.000000
    10  H    0.000000
    11  H    0.000000
    12  N    0.000000
    13  C    0.000000
    14  H    0.000000
    15  H    0.000000
    16  C    0.000000
    17  H    0.000000
    18  H    0.000000
    19  C    0.000000
    20  H    0.000000
    21  H    0.000000
    22  C    0.000000
    23  O    0.000000
    24  O    0.000000
    25  P    0.000000
    26  O    0.000000
    27  O    0.000000
    28  H    0.000000
    29  O    0.000000
    30  H    0.000000
    31  O    0.000000
    32  H    0.000000
    33  O   -0.557475
    34  H    0.281822
    35  H    0.275653
 Sum of Mulliken charges =  -0.00000
 Mulliken charges with hydrogens summed into heavy atoms:
               1
     1  C    0.000000
     2  C    0.000000
     3  C    0.000000
     4  N    0.000000
     8  C    0.000000
    12  N    0.000000
    13  C    0.000000
    16  C    0.000000
    19  C    0.000000
    22  C    0.000000
    23  O    0.000000
    24  O    0.000000
    25  P    0.000000
    26  O    0.000000
    27  O    0.000000
    29  O    0.000000
    31  O    0.000000
    33  O   -0.000000
         Mulliken charges condensed to fragments:
      1      0.000000
      2      0.000000
      3     -0.000000
 Electronic spatial extent (au):  <R**2>=           9650.3128
 Charge=             -0.0000 electrons
 Dipole moment (field-independent basis, Debye):
    X=             -1.0697    Y=              1.4137    Z=              1.1647  Tot=              2.1212
 Quadrupole moment (field-independent basis, Debye-Ang):
   XX=            -25.1582   YY=             17.5255   ZZ=             19.7666
   XY=              4.5595   XZ=             -3.1235   YZ=             24.9367
 Traceless Quadrupole moment (field-independent basis, Debye-Ang):
   XX=            -29.2028   YY=             13.4809   ZZ=             15.7220
   XY=              4.5595   XZ=             -3.1235   YZ=             24.9367
 Octapole moment (field-independent basis, Debye-Ang**2):
  XXX=           -414.9995  YYY=            150.6886  ZZZ=            223.0046  XYY=             97.0644
  XXY=            -80.1753  XXZ=           -216.5098  XZZ=              8.1233  YZZ=            330.3579
  YYZ=            266.5487  XYZ=            120.3560
 Hexadecapole moment (field-independent basis, Debye-Ang**3):
 XXXX=          -5841.4502 YYYY=            981.3674 ZZZZ=           1650.5448 XXXY=          -2206.9790
 XXXZ=          -4189.2950 YYYX=            919.9028 YYYZ=           2222.7935 ZZZX=            -79.9947
 ZZZY=           3678.8901 XXYY=            -61.2724 XXZZ=          -2193.6662 YYZZ=           3360.0289
 XXYZ=           -387.0374 YYXZ=           1621.5549 ZZXY=           1672.7980
 N-N= 9.071235010846D+00 E-N=-1.989886691161D+02  KE= 7.618441593600D+01
 No NMR shielding tensors so no spin-rotation constants.
 Leave Link  601 at Sat May 21 15:45:12 2022, MaxMem=   671088640 cpu:               0.4 elap:               0.1
 (Enter /data0/hywu0/study/g16/l122.exe)
 CPIOFr:  IOpCl= 0 IRwI=-1 IRwCP=  731 ICalc=  6 LCPTot=      545013 Len1MO=     1433100 IndFrg=    10576713
 Restoring MOs from calculation   1 to rwf.
 CPIOFr:  IOpCl= 0 IRwI=-2 IRwCP=  731 ICalc=  0 LCPTot=      545013 Len1MO=     1433100 IndFrg=     1978113
 Counterpoise corrected energy =   -1292.602564294157
                   BSSE energy =       0.004485983570
              sum of fragments =   -1292.484988613522
           complexation energy =     -76.59 kcal/mole (raw)
           complexation energy =     -73.78 kcal/mole (corrected)
 Leave Link  122 at Sat May 21 15:45:12 2022, MaxMem=   671088640 cpu:               0.1 elap:               0.0
 (Enter /data0/hywu0/study/g16/l9999.exe)
 1\1\GINC-LOCALHOST\SP\RM062X\6-311+G(2d,p)\C8H17N2O7P1\HYWU0\21-May-20
 22\0\\#p M062X/6-311+G(2d,p) nosymm em=GD3 counterpoise=3\\Title Card 
 Required\\0,1\C,0,10.420007,7.427526,9.449007\C,0,9.9989,8.13549,8.327
 733\C,0,11.277531,9.501461,9.581434\N,0,11.214866,8.287449,10.204341\H
 ,0,10.172522,6.430129,9.770182\H,0,9.367915,7.829614,7.516122\H,0,11.8
 1505,10.395258,9.937262\C,0,11.750746,7.999922,11.523383\H,0,12.780605
 ,8.400561,11.636618\H,0,11.117794,8.493362,12.304396\H,0,11.751058,6.9
 17488,11.72718\N,0,10.545249,9.415895,8.423394\C,0,10.172595,10.571844
 ,7.60999\H,0,10.391,10.352363,6.541253\H,0,10.814826,11.444333,7.91221
 \C,0,8.687159,10.961048,7.788775\H,0,8.598402,12.045515,7.549086\H,0,8
 .061859,10.422347,7.053427\C,0,8.135373,10.72778,9.193278\H,0,7.924352
 ,9.655826,9.371864\H,0,7.164781,11.245484,9.320042\C,0,9.07824,11.2487
 17,10.282411\O,0,9.837228,12.186608,10.005893\O,0,9.044004,10.632938,1
 1.375604\P,0,12.122073,11.773186,12.591147\O,0,12.898783,10.858797,11.
 743689\O,0,10.877229,11.100256,13.311885\H,0,10.102689,10.968894,12.59
 1828\O,0,13.011792,12.306599,13.800412\H,0,12.41033,12.931036,14.36371
 4\O,0,11.589215,13.093741,11.898022\H,0,10.881412,12.808092,11.15036\O
 ,0,8.769757,7.954771,11.331442\H,0,8.860156,8.941866,11.348313\H,0,8.0
 8452,7.773823,11.964319\\Version=ES64L-G16RevA.03\HF=-76.4210302\RMSD=
 3.480e-09\Dipole=-1.4977846,-2.1069161,-2.1831525\Quadrupole=8.0948918
 ,-4.1861327,-3.9087591,-73.6567196,-73.941276,-83.177934\PG=C01 [X(C8H
 17N2O7P1)]\\@


 NEVER LISTEN TO CRITICISM
 OR YOU'LL BE DOIN' EVERYBODY ELSE'S THING BUT BUT YOUR OWN.

                                               -- ANDY CAPP
 Job cpu time:       0 days  4 hours  3 minutes 50.1 seconds.
 Elapsed time:       0 days  0 hours 40 minutes 47.7 seconds.
 File lengths (MBytes):  RWF=    295 Int=      0 D2E=      0 Chk=    101 Scr=      1
 Normal termination of Gaussian 16 at Sat May 21 15:45:12 2022.
