 Entering Gaussian System, Link 0=g16
 Initial command:
 /data0/home/software/g16/l1.exe "/data0/home/software/g16/scratch/Gau-2706135.inp" -scrdir="/data0/home/software/g16/scratch/"
 Default is to use a total of  22 processors:
                               22 via shared-memory
                                1 via Linda
 Entering Link 1 = /data0/home/software/g16/l1.exe PID=   2706136.
  
 Copyright (c) 1988,1990,1992,1993,1995,1998,2003,2009,2016,
            Gaussian, Inc.  All Rights Reserved.
  
 This is part of the Gaussian(R) 16 program.  It is based on
 the Gaussian(R) 09 system (copyright 2009, Gaussian, Inc.),
 the Gaussian(R) 03 system (copyright 2003, Gaussian, Inc.),
 the Gaussian(R) 98 system (copyright 1998, Gaussian, Inc.),
 the Gaussian(R) 94 system (copyright 1995, Gaussian, Inc.),
 the Gaussian 92(TM) system (copyright 1992, Gaussian, Inc.),
 the Gaussian 90(TM) system (copyright 1990, Gaussian, Inc.),
 the Gaussian 88(TM) system (copyright 1988, Gaussian, Inc.),
 the Gaussian 86(TM) system (copyright 1986, Carnegie Mellon
 University), and the Gaussian 82(TM) system (copyright 1983,
 Carnegie Mellon University). Gaussian is a federally registered
 trademark of Gaussian, Inc.
  
 This software contains proprietary and confidential information,
 including trade secrets, belonging to Gaussian, Inc.
  
 This software is provided under written license and may be
 used, copied, transmitted, or stored only in accord with that
 written license.
  
 The following legend is applicable only to US Government
 contracts under FAR:
  
                    RESTRICTED RIGHTS LEGEND
  
 Use, reproduction and disclosure by the US Government is
 subject to restrictions as set forth in subparagraphs (a)
 and (c) of the Commercial Computer Software - Restricted
 Rights clause in FAR 52.227-19.
  
 Gaussian, Inc.
 340 Quinnipiac St., Bldg. 40, Wallingford CT 06492
  
  
 ---------------------------------------------------------------
 Warning -- This program may not be used in any manner that
 competes with the business of Gaussian, Inc. or will provide
 assistance to any competitor of Gaussian, Inc.  The licensee
 of this program is prohibited from giving any competitor of
 Gaussian, Inc. access to this program.  By using this program,
 the user acknowledges that Gaussian, Inc. is engaged in the
 business of creating and licensing software in the field of
 computational chemistry and represents and warrants to the
 licensee that it is not a competitor of Gaussian, Inc. and that
 it will not use this program in any manner prohibited above.
 ---------------------------------------------------------------
  

 Cite this work as:
 Gaussian 16, Revision A.03,
 M. J. Frisch, G. W. Trucks, H. B. Schlegel, G. E. Scuseria, 
 M. A. Robb, J. R. Cheeseman, G. Scalmani, V. Barone, 
 G. A. Petersson, H. Nakatsuji, X. Li, M. Caricato, A. V. Marenich, 
 J. Bloino, B. G. Janesko, R. Gomperts, B. Mennucci, H. P. Hratchian, 
 J. V. Ortiz, A. F. Izmaylov, J. L. Sonnenberg, D. Williams-Young, 
 F. Ding, F. Lipparini, F. Egidi, J. Goings, B. Peng, A. Petrone, 
 T. Henderson, D. Ranasinghe, V. G. Zakrzewski, J. Gao, N. Rega, 
 G. Zheng, W. Liang, M. Hada, M. Ehara, K. Toyota, R. Fukuda, 
 J. Hasegawa, M. Ishida, T. Nakajima, Y. Honda, O. Kitao, H. Nakai, 
 T. Vreven, K. Throssell, J. A. Montgomery, Jr., J. E. Peralta, 
 F. Ogliaro, M. J. Bearpark, J. J. Heyd, E. N. Brothers, K. N. Kudin, 
 V. N. Staroverov, T. A. Keith, R. Kobayashi, J. Normand, 
 K. Raghavachari, A. P. Rendell, J. C. Burant, S. S. Iyengar, 
 J. Tomasi, M. Cossi, J. M. Millam, M. Klene, C. Adamo, R. Cammi, 
 J. W. Ochterski, R. L. Martin, K. Morokuma, O. Farkas, 
 J. B. Foresman, and D. J. Fox, Gaussian, Inc., Wallingford CT, 2016.
 
 ******************************************
 Gaussian 16:  ES64L-G16RevA.03 25-Dec-2016
                27-Nov-2022 
 ******************************************
 %chk=MImPS_PA_1.chk
 %nproc=16
 Will use up to   16 processors via shared memory.
 %mem=80000MB
 ---------------------------------------------------
 #p M062X/6-311+G(2d,p) nosymm em=GD3 counterpoise=2
 ---------------------------------------------------
 1/38=1,62=2,172=1/1;
 2/12=2,15=1,17=6,18=5,40=1/2;
 1/38=1,53=2,62=2,63=1/22;
 3/5=4,6=6,7=112,11=2,25=1,30=1,74=-55,124=31/1,2,3;
 4//1;
 5/5=2,38=5/2;
 6/7=2,8=2,9=2,10=2,28=1/1;
 1/53=2,62=2,63=1/22;
 3/5=7,6=11,7=112,11=2,25=1,30=1,74=-55,82=7,124=31/1,2,3;
 4//1;
 5/5=2,38=5/2;
 6/7=2,8=2,9=2,10=2,28=1/1;
 1/53=2,62=2,63=1/22(-4);
 99/5=1,9=1/99;
 Leave Link    1 at Sun Nov 27 17:51:43 2022, MaxMem= 10485760000 cpu:               0.5 elap:               0.0
 (Enter /data0/home/software/g16/l101.exe)
 -------------------
 Title Card Required
 -------------------
 Symbolic Z-matrix:
 Charge =  0 Multiplicity = 1 in supermolecule
 Charge =  0 Multiplicity = 1 in fragment      1.
 Charge =  0 Multiplicity = 1 in fragment      2.
 C                     15.23507   18.76693   14.63082    
 C                     14.25242   18.61778   15.59769    
 C                     15.89636   17.13237   16.03726    
 N                     16.24584   17.84568   14.92352    
 H                     15.2798   19.43274   13.79056    
 H                     13.32126   19.13569   15.72144    
 H                     16.4892   16.35357   16.54122    
 C                     17.4284   17.62889   14.10984    
 H                     17.58424   18.45188   13.39605    
 H                     18.34006   17.53382   14.74219    
 H                     17.33271   16.67436   13.53657    
 N                     14.68514   17.61567   16.47231    
 C                     13.85366   16.98753   17.50017    
 H                     13.43613   17.78077   18.15845    
 H                     14.50155   16.33817   18.14886    
 C                     12.72409   16.15925   16.84835    
 H                     11.75695   16.43757   17.31356    
 H                     12.61776   16.43458   15.7743    
 C                     12.93384   14.66023   16.97285    
 H                     12.07907   14.11831   16.52458    
 H                     12.95176   14.34525   18.03201    
 S                     14.45448   14.04449   16.18495    
 O                     14.10085   12.76047   15.60581    
 O                     14.90965   15.0998   15.21782    
 O                     15.44681   14.03037   17.30988    
 P                     18.51016   14.27018   15.68901    
 O                     18.77955   15.61275   16.21027    
 O                     19.84285   13.59384   15.13618    
 H                     19.58529   12.6573   14.78405    
 O                     17.93144   13.19378   16.67783    
 H                     16.96527   13.52386   17.04156    
 O                     17.59657   14.2922   14.37525    
 H                     16.6218   14.55998   14.60481    
 
 ITRead=  0  0  0  0  0  0  0  0  0  0  0  0  0  0  0  0  0  0  0  0
 ITRead=  0  0  0  0  0  0  0  0  0  0  0  0  0
 MicOpt= -1 -1 -1 -1 -1 -1 -1 -1 -1 -1 -1 -1 -1 -1 -1 -1 -1 -1 -1 -1
 MicOpt= -1 -1 -1 -1 -1 -1 -1 -1 -1 -1 -1 -1 -1
 NAtoms=     33 NQM=       33 NQMF=       0 NMMI=      0 NMMIF=      0
                NMic=       0 NMicF=      0.
                    Isotopes and Nuclear Properties:
 (Nuclear quadrupole moments (NQMom) in fm**2, nuclear magnetic moments (NMagM)
  in nuclear magnetons)

  Atom         1           2           3           4           5           6           7           8           9          10
 IAtWgt=          12          12          12          14           1           1           1          12           1           1
 AtmWgt=  12.0000000  12.0000000  12.0000000  14.0030740   1.0078250   1.0078250   1.0078250  12.0000000   1.0078250   1.0078250
 NucSpn=           0           0           0           2           1           1           1           0           1           1
 AtZEff=  -0.0000000  -0.0000000  -0.0000000  -0.0000000  -0.0000000  -0.0000000  -0.0000000  -0.0000000  -0.0000000  -0.0000000
 NQMom=    0.0000000   0.0000000   0.0000000   2.0440000   0.0000000   0.0000000   0.0000000   0.0000000   0.0000000   0.0000000
 NMagM=    0.0000000   0.0000000   0.0000000   0.4037610   2.7928460   2.7928460   2.7928460   0.0000000   2.7928460   2.7928460
 AtZNuc=   6.0000000   6.0000000   6.0000000   7.0000000   1.0000000   1.0000000   1.0000000   6.0000000   1.0000000   1.0000000

  Atom        11          12          13          14          15          16          17          18          19          20
 IAtWgt=           1          14          12           1           1          12           1           1          12           1
 AtmWgt=   1.0078250  14.0030740  12.0000000   1.0078250   1.0078250  12.0000000   1.0078250   1.0078250  12.0000000   1.0078250
 NucSpn=           1           2           0           1           1           0           1           1           0           1
 AtZEff=  -0.0000000  -0.0000000  -0.0000000  -0.0000000  -0.0000000  -0.0000000  -0.0000000  -0.0000000  -0.0000000  -0.0000000
 NQMom=    0.0000000   2.0440000   0.0000000   0.0000000   0.0000000   0.0000000   0.0000000   0.0000000   0.0000000   0.0000000
 NMagM=    2.7928460   0.4037610   0.0000000   2.7928460   2.7928460   0.0000000   2.7928460   2.7928460   0.0000000   2.7928460
 AtZNuc=   1.0000000   7.0000000   6.0000000   1.0000000   1.0000000   6.0000000   1.0000000   1.0000000   6.0000000   1.0000000

  Atom        21          22          23          24          25          26          27          28          29          30
 IAtWgt=           1          32          16          16          16          31          16          16           1          16
 AtmWgt=   1.0078250  31.9720718  15.9949146  15.9949146  15.9949146  30.9737634  15.9949146  15.9949146   1.0078250  15.9949146
 NucSpn=           1           0           0           0           0           1           0           0           1           0
 AtZEff=  -0.0000000  -0.0000000  -0.0000000  -0.0000000  -0.0000000  -0.0000000  -0.0000000  -0.0000000  -0.0000000  -0.0000000
 NQMom=    0.0000000   0.0000000   0.0000000   0.0000000   0.0000000   0.0000000   0.0000000   0.0000000   0.0000000   0.0000000
 NMagM=    2.7928460   0.0000000   0.0000000   0.0000000   0.0000000   1.1316000   0.0000000   0.0000000   2.7928460   0.0000000
 AtZNuc=   1.0000000  16.0000000   8.0000000   8.0000000   8.0000000  15.0000000   8.0000000   8.0000000   1.0000000   8.0000000

  Atom        31          32          33
 IAtWgt=           1          16           1
 AtmWgt=   1.0078250  15.9949146   1.0078250
 NucSpn=           1           0           1
 AtZEff=  -0.0000000  -0.0000000  -0.0000000
 NQMom=    0.0000000   0.0000000   0.0000000
 NMagM=    2.7928460   0.0000000   2.7928460
 AtZNuc=   1.0000000   8.0000000   1.0000000
 Leave Link  101 at Sun Nov 27 17:51:43 2022, MaxMem= 10485760000 cpu:               1.4 elap:               0.1
 (Enter /data0/home/software/g16/l202.exe)
                          Input orientation:                          
 ---------------------------------------------------------------------
 Center     Atomic      Atomic             Coordinates (Angstroms)
 Number     Number       Type             X           Y           Z
 ---------------------------------------------------------------------
      1          6           0       15.235070   18.766929   14.630815
      2          6           0       14.252417   18.617782   15.597688
      3          6           0       15.896362   17.132374   16.037264
      4          7           0       16.245842   17.845678   14.923521
      5          1           0       15.279797   19.432740   13.790558
      6          1           0       13.321255   19.135692   15.721441
      7          1           0       16.489198   16.353571   16.541216
      8          6           0       17.428404   17.628886   14.109843
      9          1           0       17.584238   18.451880   13.396053
     10          1           0       18.340064   17.533815   14.742187
     11          1           0       17.332706   16.674360   13.536573
     12          7           0       14.685137   17.615670   16.472307
     13          6           0       13.853660   16.987529   17.500171
     14          1           0       13.436133   17.780766   18.158452
     15          1           0       14.501546   16.338169   18.148861
     16          6           0       12.724085   16.159247   16.848352
     17          1           0       11.756948   16.437568   17.313555
     18          1           0       12.617755   16.434579   15.774296
     19          6           0       12.933837   14.660229   16.972849
     20          1           0       12.079074   14.118307   16.524580
     21          1           0       12.951764   14.345255   18.032012
     22         16           0       14.454483   14.044488   16.184953
     23          8           0       14.100854   12.760469   15.605811
     24          8           0       14.909648   15.099795   15.217819
     25          8           0       15.446810   14.030367   17.309884
     26         15           0       18.510158   14.270184   15.689006
     27          8           0       18.779547   15.612746   16.210267
     28          8           0       19.842853   13.593839   15.136182
     29          1           0       19.585293   12.657302   14.784054
     30          8           0       17.931443   13.193779   16.677833
     31          1           0       16.965273   13.523856   17.041560
     32          8           0       17.596567   14.292199   14.375251
     33          1           0       16.621796   14.559978   14.604809
 ---------------------------------------------------------------------
                    Distance matrix (angstroms):
                    1          2          3          4          5
     1  C    0.000000
     2  C    1.386613   0.000000
     3  C    2.255477   2.258809   0.000000
     4  N    1.398585   2.241515   1.367977   0.000000
     5  H    1.073004   2.232798   3.274068   2.176147   0.000000
     6  H    2.233414   1.072664   3.277835   3.294544   2.766303
     7  H    3.323668   3.319651   1.100889   2.214169   4.302331
     8  C    2.525325   3.643966   2.511698   1.451731   2.823534
     9  H    2.672542   3.996968   3.400885   2.119420   2.535383
    10  H    3.342748   4.314594   2.794648   2.125066   3.725151
    11  H    3.158526   4.184885   2.919986   2.115865   3.447840
    12  N    2.240294   1.398726   1.374738   2.210756   3.293500
    13  C    3.647981   2.536961   2.516686   3.619127   4.666278
    14  H    4.080798   2.815036   3.312488   4.285260   5.020619
    15  H    4.337462   3.430333   2.652379   3.964590   5.401560
    16  C    4.245294   3.153467   3.415872   4.353366   5.157279
    17  H    4.971956   3.731608   4.387074   5.276856   5.813177
    18  H    3.687512   2.733073   3.362341   3.984725   4.473327
    19  C    5.257926   4.392260   3.970312   5.031521   6.197368
    20  H    5.929278   5.082108   4.888125   5.815380   6.779580
    21  H    6.027672   5.086464   4.518596   5.724214   7.020839
    22  S    5.032505   4.615271   3.411139   4.387394   5.953783
    23  O    6.189881   5.859279   4.745899   5.561101   7.014574
    24  O    3.728048   3.598956   2.403429   3.067882   4.576953
    25  O    5.445848   5.040096   3.382914   4.570534   6.449743
    26  P    5.662745   6.085910   3.891702   4.300843   6.378975
    27  O    5.000686   5.468126   3.263733   3.614051   5.718006
    28  O    6.946072   7.530336   5.376613   5.573316   7.531597
    29  H    7.501697   8.039209   5.933382   6.171761   8.088936
    30  O    6.520791   6.642421   4.479332   5.249669   7.368325
    31  H    6.024542   5.949154   3.895200   4.866397   6.951601
    32  O    5.066082   5.602532   3.703995   3.840869   5.668726
    33  H    4.429686   4.802660   3.032392   3.322460   5.119353
                    6          7          8          9         10
     6  H    0.000000
     7  H    4.295124   0.000000
     8  C    4.662230   2.901743   0.000000
     9  H    4.903881   3.936250   1.100500   0.000000
    10  H    5.358488   2.838166   1.113562   1.796161   0.000000
    11  H    5.188790   3.137243   1.117549   1.800720   1.790793
    12  N    2.175877   2.202789   3.620349   4.308987   4.044565
    13  C    2.839356   2.875336   4.968346   5.736316   5.294594
    14  H    2.790707   3.738120   5.687928   6.351190   5.981671
    15  H    3.887363   2.556466   5.152292   6.046482   5.269651
    16  C    3.238173   3.782614   5.638252   6.387145   6.153421
    17  H    3.501679   4.795597   6.621814   7.304901   7.152000
    18  H    2.791723   3.947505   5.228682   5.864426   5.917634
    19  C    4.663248   3.961604   6.100071   6.985436   6.516183
    20  H    5.230889   4.944277   6.838893   7.672963   7.351368
    21  H    5.331374   4.332349   6.797496   7.734100   7.072739
    22  S    5.236354   3.098202   5.098843   6.082634   5.417999
    23  O    6.423754   4.414697   6.083748   7.029165   6.442172
    24  O    4.366359   2.412118   3.737385   4.659264   4.233017
    25  O    5.753736   2.659831   5.207333   6.279845   5.219017
    26  P    7.113293   3.025069   3.865854   4.858142   3.402453
    27  O    6.514833   2.429825   3.209702   4.172439   2.457419
    28  O    8.578223   4.564783   4.812955   5.632935   4.235212
    29  H    9.060155   5.131844   5.461078   6.285531   5.033163
    30  O    7.581217   3.476064   5.149543   6.207919   4.769655
    31  H    6.820138   2.912778   5.065642   6.161027   4.822545
    32  O    6.599238   3.188562   3.351447   4.273398   3.345968
    33  H    5.751313   2.642769   3.211511   4.187396   3.437299
                   11         12         13         14         15
    11  H    0.000000
    12  N    4.063769   0.000000
    13  C    5.283176   1.463701   0.000000
    14  H    6.145664   2.104840   1.112154   0.000000
    15  H    5.422333   2.115785   1.123487   1.793400   0.000000
    16  C    5.698474   2.471498   1.544946   2.202884   2.209684
    17  H    6.738749   3.266483   2.175657   2.310345   2.870616
    18  H    5.224525   2.481182   2.193595   2.857650   3.032577
    19  C    5.934203   3.471632   2.557434   3.375753   2.579961
    20  H    6.562183   4.361863   3.511890   4.233763   3.665303
    21  H    6.695249   4.016575   2.842162   3.471792   2.527288
    22  S    4.713206   3.590141   3.279066   4.346436   3.019954
    23  O    5.481346   4.966405   4.638722   5.671086   4.407675
    24  O    3.343210   2.820243   3.144484   4.243368   3.207978
    25  O    4.978472   3.759798   3.364393   4.339168   2.631227
    26  P    3.435029   5.141656   5.687465   6.645907   5.137745
    27  O    3.220095   4.565585   5.274300   6.086691   4.752439
    28  O    4.283596   6.675507   7.278462   8.228641   6.718418
    29  H    4.771489   7.172666   7.679829   8.686116   7.121460
    30  O    4.726568   5.489432   5.630017   6.590940   4.880093
    31  H    4.727115   4.718687   4.678621   5.641237   3.900823
    32  O    2.539231   4.890759   5.571291   6.617546   5.292002
    33  H    2.473284   4.071296   4.683877   5.757630   4.496413
                   16         17         18         19         20
    16  C    0.000000
    17  H    1.108707   0.000000
    18  H    1.113872   1.763609   0.000000
    19  C    1.518733   2.158722   2.164429   0.000000
    20  H    2.164787   2.470874   2.493636   1.106908   0.000000
    21  H    2.177948   2.514267   3.094207   1.105150   1.756543
    22  S    2.811864   3.778527   3.042161   1.819967   2.400701
    23  O    3.871833   4.683091   3.965735   2.615303   2.602970
    24  O    2.925365   4.015129   2.709998   2.679026   3.268500
    25  O    3.486886   4.405645   4.017688   2.612537   3.459202
    26  P    6.196070   7.276164   6.277921   5.735481   6.486917
    27  O    6.113463   7.156429   6.231626   5.971695   6.872298
    28  O    7.758202   8.843620   7.789675   7.228073   7.904365
    29  H    7.975031   9.053826   7.987176   7.283159   7.842658
    30  O    5.994969   7.003620   6.289232   5.216663   5.926927
    31  H    4.997028   5.974140   5.383231   4.189098   4.949301
    32  O    5.774355   6.880217   5.597829   5.350141   5.923899
    33  H    4.773185   5.876172   4.573202   4.383914   4.951456
                   21         22         23         24         25
    21  H    0.000000
    22  S    2.400053   0.000000
    23  O    3.117436   1.452296   0.000000
    24  O    3.510317   1.502064   2.505420   0.000000
    25  O    2.616463   1.500127   2.515572   2.410177   0.000000
    26  P    6.032500   4.092115   4.661343   3.724774   3.474026
    27  O    6.236052   4.600680   5.512805   4.027926   3.849703
    28  O    7.512494   5.507952   5.821135   5.158593   4.923488
    29  H    7.576419   5.496546   5.546621   5.292975   5.039064
    30  O    5.287429   3.613293   4.001300   3.859506   2.696807
    31  H    4.214730   2.703498   3.293787   3.167840   1.623047
    32  O    5.911760   3.634429   4.010048   2.929448   3.647202
    33  H    5.026028   2.731269   3.255055   1.897007   2.996416
                   26         27         28         29         30
    26  P    0.000000
    27  O    1.465181   0.000000
    28  O    1.593466   2.521956   0.000000
    29  H    2.139215   3.379047   1.033166   0.000000
    30  O    1.572049   2.605628   2.488016   2.570880   0.000000
    31  H    2.184737   2.888962   3.451931   3.565355   1.083851
    32  O    1.600339   2.551582   2.472352   2.606730   2.573043
    33  H    2.196674   2.888201   3.404554   3.526276   2.806974
                   31         32         33
    31  H    0.000000
    32  O    2.845714   0.000000
    33  H    2.670071   1.036620   0.000000
 Symmetry turned off by external request.
 Stoichiometry    C7H15N2O7PS
 Framework group  C1[X(C7H15N2O7PS)]
 Deg. of freedom    93
 Full point group                 C1      NOp   1
 Rotational constants (GHZ):           0.4617657           0.3020157           0.2100378
 Leave Link  202 at Sun Nov 27 17:51:43 2022, MaxMem= 10485760000 cpu:               0.1 elap:               0.0
 (Enter /data0/home/software/g16/l122.exe)
 Counterpoise: doing full-system calculation.
 Leave Link  122 at Sun Nov 27 17:51:43 2022, MaxMem= 10485760000 cpu:               0.0 elap:               0.0
 (Enter /data0/home/software/g16/l301.exe)
 Standard basis: 6-311+G(2d,p) (5D, 7F)
 Ernie: Thresh=  0.10000D-02 Tol=  0.10000D-05 Strict=F.
   592 basis functions,   904 primitive gaussians,   628 cartesian basis functions
    79 alpha electrons       79 beta electrons
       nuclear repulsion energy      1913.9958727965 Hartrees.
 IExCor= 4336 DFT=T Ex+Corr=M062X ExCW=0 ScaHFX=  0.540000
 ScaDFX=  1.000000  1.000000  1.000000  1.000000 ScalE2=  1.000000  1.000000
 IRadAn=      5 IRanWt=     -1 IRanGd=            0 ICorTp=0 IEmpDi=131
 NAtoms=   33 NActive=   33 NUniq=   33 SFac= 1.00D+00 NAtFMM=   60 NAOKFM=F Big=F
 Integral buffers will be    131072 words long.
 Raffenetti 2 integral format.
 Two-electron integral symmetry is turned off.
 R6Disp:  Grimme-D3 Dispersion energy=       -0.0023204722 Hartrees.
 Nuclear repulsion after empirical dispersion term =     1913.9935523243 Hartrees.
 Leave Link  301 at Sun Nov 27 17:51:43 2022, MaxMem= 10485760000 cpu:               0.8 elap:               0.1
 (Enter /data0/home/software/g16/l302.exe)
 NPDir=0 NMtPBC=     1 NCelOv=     1 NCel=       1 NClECP=     1 NCelD=      1
         NCelK=      1 NCelE2=     1 NClLst=     1 CellRange=     0.0.
 One-electron integrals computed using PRISM.
 NBasis=   592 RedAO= T EigKep=  1.14D-05  NBF=   592
 NBsUse=   592 1.00D-06 EigRej= -1.00D+00 NBFU=   592
 Precomputing XC quadrature grid using
 IXCGrd= 4 IRadAn=           5 IRanWt=          -1 IRanGd=           0 AccXCQ= 0.00D+00.
 Generated NRdTot=       0 NPtTot=           0 NUsed=           0 NTot=          32
 NSgBfM=   628   628   628   628   628 MxSgAt=    33 MxSgA2=    33.
 Leave Link  302 at Sun Nov 27 17:51:44 2022, MaxMem= 10485760000 cpu:               9.5 elap:               0.6
 (Enter /data0/home/software/g16/l303.exe)
 DipDrv:  MaxL=1.
 Leave Link  303 at Sun Nov 27 17:51:44 2022, MaxMem= 10485760000 cpu:               0.9 elap:               0.1
 (Enter /data0/home/software/g16/l401.exe)
 ExpMin= 3.48D-02 ExpMax= 9.34D+04 ExpMxC= 3.17D+03 IAcc=3 IRadAn=         5 AccDes= 0.00D+00
 Harris functional with IExCor= 1009 and IRadAn=       5 diagonalized for initial guess.
 HarFok:  IExCor= 1009 AccDes= 0.00D+00 IRadAn=         5 IDoV= 1 UseB2=F ITyADJ=14
 ICtDFT=  3500011 ScaDFX=  1.000000  1.000000  1.000000  1.000000
 FoFCou: FMM=F IPFlag=           0 FMFlag=      100000 FMFlg1=           0
         NFxFlg=           0 DoJE=T BraDBF=F KetDBF=T FulRan=T
         wScrn=  0.000000 ICntrl=       500 IOpCl=  0 I1Cent=   200000004 NGrid=           0
         NMat0=    1 NMatS0=      1 NMatT0=    0 NMatD0=    1 NMtDS0=    0 NMtDT0=    0
 Symmetry not used in FoFCou.
 Harris En= -1650.75692725480    
 JPrj=0 DoOrth=F DoCkMO=F.
 Leave Link  401 at Sun Nov 27 17:51:47 2022, MaxMem= 10485760000 cpu:              46.7 elap:               2.9
 (Enter /data0/home/software/g16/l502.exe)
 Two-electron integral symmetry not used.
 Closed shell SCF:
 Using DIIS extrapolation, IDIIS=  1040.
 NGot= 10485760000 LenX= 10484956849 LenY= 10484561837
 Requested convergence on RMS density matrix=1.00D-08 within 128 cycles.
 Requested convergence on MAX density matrix=1.00D-06.
 Requested convergence on             energy=1.00D-06.
 No special actions if energy rises.
 Fock matrices will be formed incrementally for  20 cycles.

 Cycle   1  Pass 1  IDiag  1:
 FoFJK:  IHMeth= 1 ICntrl=       0 DoSepK=F KAlg= 0 I1Cent=           0 FoldK=F
 IRaf= 840000000 NMat=       1 IRICut=       1 DoRegI=T DoRafI=F ISym2E= 0 IDoP0=0 IntGTp=1.
 FoFCou: FMM=F IPFlag=           0 FMFlag=      100000 FMFlg1=           0
         NFxFlg=           0 DoJE=F BraDBF=F KetDBF=F FulRan=T
         wScrn=  0.000000 ICntrl=         0 IOpCl=  0 I1Cent=           0 NGrid=           0
         NMat0=    1 NMatS0=      1 NMatT0=    0 NMatD0=    1 NMtDS0=    0 NMtDT0=    0
 Symmetry not used in FoFCou.
 E= -1650.73448264561    
 DIIS: error= 2.85D-02 at cycle   1 NSaved=   1.
 NSaved= 1 IEnMin= 1 EnMin= -1650.73448264561     IErMin= 1 ErrMin= 2.85D-02
 ErrMax= 2.85D-02  0.00D+00 EMaxC= 1.00D-01 BMatC= 1.18D+00 BMatP= 1.18D+00
 IDIUse=3 WtCom= 7.15D-01 WtEn= 2.85D-01
 Coeff-Com:  0.100D+01
 Coeff-En:   0.100D+01
 Coeff:      0.100D+01
 Gap=     0.297 Goal=   None    Shift=    0.000
 GapD=    0.297 DampG=1.000 DampE=0.500 DampFc=0.5000 IDamp=-1.
 Damping current iteration by 5.00D-01
 RMSDP=4.24D-03 MaxDP=3.01D-01              OVMax= 2.36D-01

 Cycle   2  Pass 1  IDiag  1:
 RMSU=  2.12D-03    CP:  9.90D-01
 E= -1651.03379930118     Delta-E=       -0.299316655565 Rises=F Damp=T
 DIIS: error= 6.69D-03 at cycle   2 NSaved=   2.
 NSaved= 2 IEnMin= 2 EnMin= -1651.03379930118     IErMin= 2 ErrMin= 6.69D-03
 ErrMax= 6.69D-03  0.00D+00 EMaxC= 1.00D-01 BMatC= 7.21D-02 BMatP= 1.18D+00
 IDIUse=3 WtCom= 9.33D-01 WtEn= 6.69D-02
 Coeff-Com:  0.333D-01 0.967D+00
 Coeff-En:   0.130D+00 0.870D+00
 Coeff:      0.397D-01 0.960D+00
 Gap=     0.333 Goal=   None    Shift=    0.000
 RMSDP=1.47D-03 MaxDP=2.22D-01 DE=-2.99D-01 OVMax= 1.45D-01

 Cycle   3  Pass 1  IDiag  1:
 RMSU=  1.31D-03    CP:  9.29D-01  8.97D-01
 E= -1651.40241584266     Delta-E=       -0.368616541482 Rises=F Damp=F
 DIIS: error= 4.44D-03 at cycle   3 NSaved=   3.
 NSaved= 3 IEnMin= 3 EnMin= -1651.40241584266     IErMin= 3 ErrMin= 4.44D-03
 ErrMax= 4.44D-03  0.00D+00 EMaxC= 1.00D-01 BMatC= 2.59D-02 BMatP= 7.21D-02
 IDIUse=3 WtCom= 9.56D-01 WtEn= 4.44D-02
 Coeff-Com: -0.497D-01 0.337D+00 0.713D+00
 Coeff-En:   0.000D+00 0.000D+00 0.100D+01
 Coeff:     -0.475D-01 0.322D+00 0.725D+00
 Gap=     0.310 Goal=   None    Shift=    0.000
 RMSDP=4.52D-04 MaxDP=2.93D-02 DE=-3.69D-01 OVMax= 3.58D-02

 Cycle   4  Pass 1  IDiag  1:
 RMSU=  4.08D-04    CP:  9.26D-01  9.79D-01  9.41D-01
 E= -1651.41637667108     Delta-E=       -0.013960828420 Rises=F Damp=F
 DIIS: error= 1.95D-03 at cycle   4 NSaved=   4.
 NSaved= 4 IEnMin= 4 EnMin= -1651.41637667108     IErMin= 4 ErrMin= 1.95D-03
 ErrMax= 1.95D-03  0.00D+00 EMaxC= 1.00D-01 BMatC= 7.05D-03 BMatP= 2.59D-02
 IDIUse=3 WtCom= 9.81D-01 WtEn= 1.95D-02
 Coeff-Com: -0.284D-01 0.821D-01 0.390D+00 0.556D+00
 Coeff-En:   0.000D+00 0.000D+00 0.196D+00 0.804D+00
 Coeff:     -0.279D-01 0.805D-01 0.387D+00 0.561D+00
 Gap=     0.307 Goal=   None    Shift=    0.000
 RMSDP=1.70D-04 MaxDP=9.48D-03 DE=-1.40D-02 OVMax= 1.19D-02

 Cycle   5  Pass 1  IDiag  1:
 RMSU=  1.09D-04    CP:  9.24D-01  9.76D-01  9.75D-01  7.02D-01
 E= -1651.42146001374     Delta-E=       -0.005083342664 Rises=F Damp=F
 DIIS: error= 2.94D-04 at cycle   5 NSaved=   5.
 NSaved= 5 IEnMin= 5 EnMin= -1651.42146001374     IErMin= 5 ErrMin= 2.94D-04
 ErrMax= 2.94D-04  0.00D+00 EMaxC= 1.00D-01 BMatC= 2.40D-04 BMatP= 7.05D-03
 IDIUse=3 WtCom= 9.97D-01 WtEn= 2.94D-03
 Coeff-Com: -0.865D-02 0.173D-01 0.126D+00 0.243D+00 0.623D+00
 Coeff-En:   0.000D+00 0.000D+00 0.000D+00 0.000D+00 0.100D+01
 Coeff:     -0.862D-02 0.173D-01 0.125D+00 0.242D+00 0.624D+00
 Gap=     0.305 Goal=   None    Shift=    0.000
 RMSDP=3.87D-05 MaxDP=3.01D-03 DE=-5.08D-03 OVMax= 2.55D-03

 Cycle   6  Pass 1  IDiag  1:
 RMSU=  2.78D-05    CP:  9.24D-01  9.74D-01  9.78D-01  7.34D-01  7.90D-01
 E= -1651.42162404620     Delta-E=       -0.000164032453 Rises=F Damp=F
 DIIS: error= 9.94D-05 at cycle   6 NSaved=   6.
 NSaved= 6 IEnMin= 6 EnMin= -1651.42162404620     IErMin= 6 ErrMin= 9.94D-05
 ErrMax= 9.94D-05  0.00D+00 EMaxC= 1.00D-01 BMatC= 2.61D-05 BMatP= 2.40D-04
 IDIUse=1 WtCom= 1.00D+00 WtEn= 0.00D+00
 Coeff-Com: -0.178D-02 0.168D-02 0.273D-01 0.702D-01 0.303D+00 0.599D+00
 Coeff:     -0.178D-02 0.168D-02 0.273D-01 0.702D-01 0.303D+00 0.599D+00
 Gap=     0.305 Goal=   None    Shift=    0.000
 RMSDP=1.36D-05 MaxDP=8.69D-04 DE=-1.64D-04 OVMax= 8.59D-04

 Cycle   7  Pass 1  IDiag  1:
 RMSU=  1.14D-05    CP:  9.24D-01  9.75D-01  9.79D-01  7.38D-01  8.23D-01
                    CP:  7.97D-01
 E= -1651.42164309921     Delta-E=       -0.000019053017 Rises=F Damp=F
 DIIS: error= 3.42D-05 at cycle   7 NSaved=   7.
 NSaved= 7 IEnMin= 7 EnMin= -1651.42164309921     IErMin= 7 ErrMin= 3.42D-05
 ErrMax= 3.42D-05  0.00D+00 EMaxC= 1.00D-01 BMatC= 2.43D-06 BMatP= 2.61D-05
 IDIUse=1 WtCom= 1.00D+00 WtEn= 0.00D+00
 Coeff-Com:  0.146D-03-0.113D-02-0.218D-02 0.458D-02 0.730D-01 0.267D+00
 Coeff-Com:  0.658D+00
 Coeff:      0.146D-03-0.113D-02-0.218D-02 0.458D-02 0.730D-01 0.267D+00
 Coeff:      0.658D+00
 Gap=     0.306 Goal=   None    Shift=    0.000
 RMSDP=4.80D-06 MaxDP=5.92D-04 DE=-1.91D-05 OVMax= 3.01D-04

 Cycle   8  Pass 1  IDiag  1:
 RMSU=  3.49D-06    CP:  9.24D-01  9.74D-01  9.80D-01  7.42D-01  8.32D-01
                    CP:  8.65D-01  8.65D-01
 E= -1651.42164496759     Delta-E=       -0.000001868378 Rises=F Damp=F
 DIIS: error= 1.32D-05 at cycle   8 NSaved=   8.
 NSaved= 8 IEnMin= 8 EnMin= -1651.42164496759     IErMin= 8 ErrMin= 1.32D-05
 ErrMax= 1.32D-05  0.00D+00 EMaxC= 1.00D-01 BMatC= 2.73D-07 BMatP= 2.43D-06
 IDIUse=1 WtCom= 1.00D+00 WtEn= 0.00D+00
 Coeff-Com:  0.310D-03-0.676D-03-0.525D-02-0.885D-02-0.148D-01 0.123D-01
 Coeff-Com:  0.261D+00 0.756D+00
 Coeff:      0.310D-03-0.676D-03-0.525D-02-0.885D-02-0.148D-01 0.123D-01
 Coeff:      0.261D+00 0.756D+00
 Gap=     0.306 Goal=   None    Shift=    0.000
 RMSDP=2.08D-06 MaxDP=1.40D-04 DE=-1.87D-06 OVMax= 1.63D-04

 Cycle   9  Pass 1  IDiag  1:
 RMSU=  1.60D-06    CP:  9.24D-01  9.74D-01  9.80D-01  7.42D-01  8.41D-01
                    CP:  8.80D-01  9.05D-01  8.76D-01
 E= -1651.42164521513     Delta-E=       -0.000000247543 Rises=F Damp=F
 DIIS: error= 4.79D-06 at cycle   9 NSaved=   9.
 NSaved= 9 IEnMin= 9 EnMin= -1651.42164521513     IErMin= 9 ErrMin= 4.79D-06
 ErrMax= 4.79D-06  0.00D+00 EMaxC= 1.00D-01 BMatC= 4.30D-08 BMatP= 2.73D-07
 IDIUse=1 WtCom= 1.00D+00 WtEn= 0.00D+00
 Coeff-Com:  0.128D-03-0.212D-03-0.238D-02-0.461D-02-0.131D-01-0.157D-01
 Coeff-Com:  0.695D-01 0.363D+00 0.603D+00
 Coeff:      0.128D-03-0.212D-03-0.238D-02-0.461D-02-0.131D-01-0.157D-01
 Coeff:      0.695D-01 0.363D+00 0.603D+00
 Gap=     0.306 Goal=   None    Shift=    0.000
 RMSDP=6.01D-07 MaxDP=2.34D-05 DE=-2.48D-07 OVMax= 5.18D-05

 Cycle  10  Pass 1  IDiag  1:
 RMSU=  4.17D-07    CP:  9.24D-01  9.74D-01  9.80D-01  7.43D-01  8.41D-01
                    CP:  8.82D-01  9.28D-01  9.39D-01  8.61D-01
 E= -1651.42164525407     Delta-E=       -0.000000038940 Rises=F Damp=F
 DIIS: error= 1.77D-06 at cycle  10 NSaved=  10.
 NSaved=10 IEnMin=10 EnMin= -1651.42164525407     IErMin=10 ErrMin= 1.77D-06
 ErrMax= 1.77D-06  0.00D+00 EMaxC= 1.00D-01 BMatC= 3.31D-09 BMatP= 4.30D-08
 IDIUse=1 WtCom= 1.00D+00 WtEn= 0.00D+00
 Coeff-Com:  0.486D-05 0.770D-05-0.190D-03-0.485D-03-0.280D-02-0.689D-02
 Coeff-Com: -0.849D-02 0.323D-01 0.213D+00 0.773D+00
 Coeff:      0.486D-05 0.770D-05-0.190D-03-0.485D-03-0.280D-02-0.689D-02
 Coeff:     -0.849D-02 0.323D-01 0.213D+00 0.773D+00
 Gap=     0.306 Goal=   None    Shift=    0.000
 RMSDP=2.09D-07 MaxDP=1.62D-05 DE=-3.89D-08 OVMax= 2.25D-05

 Cycle  11  Pass 1  IDiag  1:
 RMSU=  1.64D-07    CP:  9.24D-01  9.74D-01  9.80D-01  7.43D-01  8.41D-01
                    CP:  8.83D-01  9.28D-01  9.57D-01  9.24D-01  9.75D-01
 E= -1651.42164525782     Delta-E=       -0.000000003749 Rises=F Damp=F
 DIIS: error= 4.91D-07 at cycle  11 NSaved=  11.
 NSaved=11 IEnMin=11 EnMin= -1651.42164525782     IErMin=11 ErrMin= 4.91D-07
 ErrMax= 4.91D-07  0.00D+00 EMaxC= 1.00D-01 BMatC= 5.95D-10 BMatP= 3.31D-09
 IDIUse=1 WtCom= 1.00D+00 WtEn= 0.00D+00
 Coeff-Com: -0.152D-04 0.322D-04 0.257D-03 0.435D-03 0.531D-03-0.790D-03
 Coeff-Com: -0.139D-01-0.410D-01-0.701D-02 0.319D+00 0.743D+00
 Coeff:     -0.152D-04 0.322D-04 0.257D-03 0.435D-03 0.531D-03-0.790D-03
 Coeff:     -0.139D-01-0.410D-01-0.701D-02 0.319D+00 0.743D+00
 Gap=     0.306 Goal=   None    Shift=    0.000
 RMSDP=9.37D-08 MaxDP=4.58D-06 DE=-3.75D-09 OVMax= 9.81D-06

 Cycle  12  Pass 1  IDiag  1:
 RMSU=  5.61D-08    CP:  9.24D-01  9.74D-01  9.80D-01  7.43D-01  8.41D-01
                    CP:  8.83D-01  9.26D-01  9.63D-01  9.58D-01  1.07D+00
                    CP:  1.00D+00
 E= -1651.42164525861     Delta-E=       -0.000000000790 Rises=F Damp=F
 DIIS: error= 1.62D-07 at cycle  12 NSaved=  12.
 NSaved=12 IEnMin=12 EnMin= -1651.42164525861     IErMin=12 ErrMin= 1.62D-07
 ErrMax= 1.62D-07  0.00D+00 EMaxC= 1.00D-01 BMatC= 5.56D-11 BMatP= 5.95D-10
 IDIUse=1 WtCom= 1.00D+00 WtEn= 0.00D+00
 Coeff-Com: -0.484D-05 0.902D-05 0.105D-03 0.191D-03 0.459D-03 0.512D-03
 Coeff-Com: -0.368D-02-0.169D-01-0.261D-01 0.321D-01 0.266D+00 0.748D+00
 Coeff:     -0.484D-05 0.902D-05 0.105D-03 0.191D-03 0.459D-03 0.512D-03
 Coeff:     -0.368D-02-0.169D-01-0.261D-01 0.321D-01 0.266D+00 0.748D+00
 Gap=     0.306 Goal=   None    Shift=    0.000
 RMSDP=2.64D-08 MaxDP=2.03D-06 DE=-7.90D-10 OVMax= 3.04D-06

 Cycle  13  Pass 1  IDiag  1:
 RMSU=  1.96D-08    CP:  9.24D-01  9.74D-01  9.80D-01  7.43D-01  8.41D-01
                    CP:  8.83D-01  9.26D-01  9.63D-01  9.64D-01  1.08D+00
                    CP:  1.08D+00  1.00D+00
 E= -1651.42164525861     Delta-E=        0.000000000000 Rises=F Damp=F
 DIIS: error= 7.59D-08 at cycle  13 NSaved=  13.
 NSaved=13 IEnMin=12 EnMin= -1651.42164525861     IErMin=13 ErrMin= 7.59D-08
 ErrMax= 7.59D-08  0.00D+00 EMaxC= 1.00D-01 BMatC= 9.63D-12 BMatP= 5.56D-11
 IDIUse=1 WtCom= 1.00D+00 WtEn= 0.00D+00
 Coeff-Com:  0.710D-07-0.601D-06 0.123D-04 0.244D-04 0.123D-03 0.312D-03
 Coeff-Com:  0.163D-03-0.171D-02-0.101D-01-0.272D-01 0.154D-01 0.325D+00
 Coeff-Com:  0.698D+00
 Coeff:      0.710D-07-0.601D-06 0.123D-04 0.244D-04 0.123D-03 0.312D-03
 Coeff:      0.163D-03-0.171D-02-0.101D-01-0.272D-01 0.154D-01 0.325D+00
 Coeff:      0.698D+00
 Gap=     0.306 Goal=   None    Shift=    0.000
 RMSDP=1.19D-08 MaxDP=8.33D-07 DE= 0.00D+00 OVMax= 1.44D-06

 Cycle  14  Pass 1  IDiag  1:
 RMSU=  8.14D-09    CP:  9.24D-01  9.74D-01  9.80D-01  7.43D-01  8.41D-01
                    CP:  8.83D-01  9.26D-01  9.64D-01  9.63D-01  1.08D+00
                    CP:  1.10D+00  1.11D+00  8.73D-01
 E= -1651.42164525869     Delta-E=       -0.000000000072 Rises=F Damp=F
 DIIS: error= 2.50D-08 at cycle  14 NSaved=  14.
 NSaved=14 IEnMin=14 EnMin= -1651.42164525869     IErMin=14 ErrMin= 2.50D-08
 ErrMax= 2.50D-08  0.00D+00 EMaxC= 1.00D-01 BMatC= 1.72D-12 BMatP= 9.63D-12
 IDIUse=1 WtCom= 1.00D+00 WtEn= 0.00D+00
 Coeff-Com:  0.665D-06-0.145D-05-0.686D-05-0.122D-04 0.124D-05 0.832D-04
 Coeff-Com:  0.534D-03 0.140D-02-0.169D-02-0.190D-01-0.293D-01 0.668D-01
 Coeff-Com:  0.357D+00 0.625D+00
 Coeff:      0.665D-06-0.145D-05-0.686D-05-0.122D-04 0.124D-05 0.832D-04
 Coeff:      0.534D-03 0.140D-02-0.169D-02-0.190D-01-0.293D-01 0.668D-01
 Coeff:      0.357D+00 0.625D+00
 Gap=     0.306 Goal=   None    Shift=    0.000
 RMSDP=4.48D-09 MaxDP=6.35D-07 DE=-7.23D-11 OVMax= 4.66D-07

 SCF Done:  E(RM062X) =  -1651.42164526     A.U. after   14 cycles
            NFock= 14  Conv=0.45D-08     -V/T= 2.0031
 KE= 1.646346775807D+03 PE=-7.724763317297D+03 EE= 2.513001343908D+03
 Leave Link  502 at Sun Nov 27 17:55:02 2022, MaxMem= 10485760000 cpu:            3117.8 elap:             195.4
 (Enter /data0/home/software/g16/l601.exe)
 Copying SCF densities to generalized density rwf, IOpCl= 0 IROHF=0.

 **********************************************************************

            Population analysis using the SCF density.

 **********************************************************************

 Alpha  occ. eigenvalues --  -90.09245 -78.13288 -19.64470 -19.63275 -19.62349
 Alpha  occ. eigenvalues --  -19.60547 -19.60503 -19.59520 -19.56378 -14.87514
 Alpha  occ. eigenvalues --  -14.87171 -10.68296 -10.63642 -10.63554 -10.63266
 Alpha  occ. eigenvalues --  -10.60798 -10.58363 -10.57784  -8.42725  -6.94026
 Alpha  occ. eigenvalues --   -6.35012  -6.34958  -6.34936  -5.05963  -5.05890
 Alpha  occ. eigenvalues --   -5.05742  -1.23789  -1.20237  -1.19912  -1.12502
 Alpha  occ. eigenvalues --   -1.11672  -1.10408  -1.09244  -1.08992  -1.06734
 Alpha  occ. eigenvalues --   -0.94253  -0.91319  -0.87341  -0.82351  -0.76735
 Alpha  occ. eigenvalues --   -0.73890  -0.72091  -0.68797  -0.66766  -0.65860
 Alpha  occ. eigenvalues --   -0.61624  -0.61265  -0.60160  -0.59141  -0.57872
 Alpha  occ. eigenvalues --   -0.57294  -0.56942  -0.55984  -0.55597  -0.54672
 Alpha  occ. eigenvalues --   -0.54091  -0.52844  -0.51550  -0.50761  -0.49371
 Alpha  occ. eigenvalues --   -0.48470  -0.47563  -0.46950  -0.46648  -0.46007
 Alpha  occ. eigenvalues --   -0.44882  -0.42974  -0.42431  -0.41893  -0.41227
 Alpha  occ. eigenvalues --   -0.39963  -0.39381  -0.37609  -0.37168  -0.36504
 Alpha  occ. eigenvalues --   -0.35686  -0.34988  -0.34621  -0.32714
 Alpha virt. eigenvalues --   -0.02153  -0.01134  -0.00602  -0.00018   0.00756
 Alpha virt. eigenvalues --    0.01243   0.02210   0.02463   0.02909   0.03935
 Alpha virt. eigenvalues --    0.04261   0.04876   0.05341   0.05744   0.06454
 Alpha virt. eigenvalues --    0.06963   0.07431   0.07992   0.08309   0.08498
 Alpha virt. eigenvalues --    0.09547   0.09800   0.10058   0.10810   0.11036
 Alpha virt. eigenvalues --    0.11585   0.11880   0.12123   0.13004   0.13444
 Alpha virt. eigenvalues --    0.13527   0.13766   0.14541   0.14707   0.14936
 Alpha virt. eigenvalues --    0.15319   0.15858   0.16011   0.16394   0.16775
 Alpha virt. eigenvalues --    0.17057   0.17381   0.17748   0.18126   0.18354
 Alpha virt. eigenvalues --    0.18498   0.19073   0.19101   0.19998   0.20217
 Alpha virt. eigenvalues --    0.20506   0.21508   0.21923   0.22406   0.22521
 Alpha virt. eigenvalues --    0.22995   0.23432   0.23768   0.24048   0.24471
 Alpha virt. eigenvalues --    0.24862   0.25411   0.25823   0.26190   0.26601
 Alpha virt. eigenvalues --    0.26749   0.27478   0.27949   0.28267   0.28749
 Alpha virt. eigenvalues --    0.29008   0.29715   0.30106   0.30251   0.30407
 Alpha virt. eigenvalues --    0.30992   0.31565   0.31676   0.32243   0.32678
 Alpha virt. eigenvalues --    0.33138   0.33525   0.33904   0.34302   0.34746
 Alpha virt. eigenvalues --    0.34997   0.35738   0.36240   0.36823   0.37462
 Alpha virt. eigenvalues --    0.37523   0.38027   0.38488   0.39623   0.39863
 Alpha virt. eigenvalues --    0.40029   0.40349   0.41263   0.41516   0.42127
 Alpha virt. eigenvalues --    0.42511   0.43271   0.43900   0.44125   0.44272
 Alpha virt. eigenvalues --    0.45079   0.46255   0.46510   0.47107   0.47688
 Alpha virt. eigenvalues --    0.48019   0.48974   0.50173   0.51840   0.52679
 Alpha virt. eigenvalues --    0.53249   0.53448   0.54340   0.55035   0.55525
 Alpha virt. eigenvalues --    0.56185   0.57073   0.57798   0.58885   0.59186
 Alpha virt. eigenvalues --    0.60345   0.60548   0.60820   0.61791   0.62872
 Alpha virt. eigenvalues --    0.63066   0.64061   0.64907   0.65661   0.66385
 Alpha virt. eigenvalues --    0.67015   0.67118   0.67753   0.68440   0.68786
 Alpha virt. eigenvalues --    0.70003   0.70807   0.71593   0.71889   0.73246
 Alpha virt. eigenvalues --    0.74349   0.74664   0.75539   0.76309   0.76591
 Alpha virt. eigenvalues --    0.77390   0.78214   0.78447   0.80002   0.80620
 Alpha virt. eigenvalues --    0.81045   0.83056   0.83476   0.83977   0.85073
 Alpha virt. eigenvalues --    0.86095   0.87144   0.87939   0.88853   0.89313
 Alpha virt. eigenvalues --    0.91163   0.91751   0.92306   0.92852   0.93748
 Alpha virt. eigenvalues --    0.95280   0.95610   0.96341   0.97853   0.99149
 Alpha virt. eigenvalues --    1.01723   1.03107   1.03272   1.04190   1.05616
 Alpha virt. eigenvalues --    1.06762   1.07775   1.09356   1.09849   1.11094
 Alpha virt. eigenvalues --    1.12482   1.12771   1.14070   1.14774   1.15113
 Alpha virt. eigenvalues --    1.15688   1.16520   1.18474   1.18980   1.20162
 Alpha virt. eigenvalues --    1.20706   1.21478   1.21959   1.22282   1.23338
 Alpha virt. eigenvalues --    1.24046   1.24391   1.24637   1.26075   1.27104
 Alpha virt. eigenvalues --    1.27157   1.27653   1.28166   1.28744   1.29340
 Alpha virt. eigenvalues --    1.30075   1.30307   1.31168   1.31841   1.33459
 Alpha virt. eigenvalues --    1.34160   1.34736   1.35236   1.35862   1.36582
 Alpha virt. eigenvalues --    1.37472   1.37960   1.38739   1.39125   1.39906
 Alpha virt. eigenvalues --    1.40786   1.41365   1.42136   1.43423   1.44346
 Alpha virt. eigenvalues --    1.45418   1.45670   1.46588   1.49004   1.49951
 Alpha virt. eigenvalues --    1.50538   1.51569   1.52555   1.53110   1.54322
 Alpha virt. eigenvalues --    1.54937   1.55899   1.56235   1.58014   1.58680
 Alpha virt. eigenvalues --    1.59633   1.60020   1.60772   1.62235   1.63677
 Alpha virt. eigenvalues --    1.64209   1.67558   1.68500   1.69280   1.71164
 Alpha virt. eigenvalues --    1.71687   1.72637   1.74346   1.75445   1.76626
 Alpha virt. eigenvalues --    1.77945   1.78957   1.79385   1.80374   1.80954
 Alpha virt. eigenvalues --    1.81164   1.82783   1.83646   1.83867   1.85317
 Alpha virt. eigenvalues --    1.86240   1.86719   1.87892   1.90231   1.90913
 Alpha virt. eigenvalues --    1.91539   1.92300   1.92540   1.94019   1.95242
 Alpha virt. eigenvalues --    1.95511   1.97957   1.98634   2.00005   2.01573
 Alpha virt. eigenvalues --    2.02187   2.02810   2.04247   2.05662   2.06709
 Alpha virt. eigenvalues --    2.08130   2.08532   2.10489   2.12156   2.13663
 Alpha virt. eigenvalues --    2.14583   2.15135   2.15798   2.17379   2.18804
 Alpha virt. eigenvalues --    2.20991   2.22459   2.23786   2.24124   2.25174
 Alpha virt. eigenvalues --    2.26077   2.26969   2.27857   2.28390   2.30016
 Alpha virt. eigenvalues --    2.30324   2.31672   2.32429   2.33377   2.34182
 Alpha virt. eigenvalues --    2.34820   2.35126   2.37015   2.39241   2.40081
 Alpha virt. eigenvalues --    2.40813   2.41437   2.42881   2.47283   2.47495
 Alpha virt. eigenvalues --    2.48323   2.51826   2.53086   2.54361   2.56805
 Alpha virt. eigenvalues --    2.60920   2.65778   2.67780   2.69776   2.70259
 Alpha virt. eigenvalues --    2.70396   2.73327   2.76490   2.76963   2.77605
 Alpha virt. eigenvalues --    2.79153   2.81557   2.82495   2.83173   2.84367
 Alpha virt. eigenvalues --    2.85663   2.87527   2.88603   2.88879   2.92081
 Alpha virt. eigenvalues --    2.92268   2.92715   2.95794   2.96905   2.97924
 Alpha virt. eigenvalues --    2.98311   3.00768   3.01735   3.03711   3.04959
 Alpha virt. eigenvalues --    3.07431   3.09683   3.12846   3.14009   3.17265
 Alpha virt. eigenvalues --    3.19910   3.24873   3.26114   3.28799   3.29577
 Alpha virt. eigenvalues --    3.30425   3.33086   3.33975   3.35455   3.37811
 Alpha virt. eigenvalues --    3.40033   3.41527   3.45050   3.45334   3.45943
 Alpha virt. eigenvalues --    3.49364   3.49747   3.51587   3.52440   3.54138
 Alpha virt. eigenvalues --    3.56034   3.56588   3.57785   3.59587   3.61161
 Alpha virt. eigenvalues --    3.62467   3.63722   3.64821   3.66429   3.67348
 Alpha virt. eigenvalues --    3.67681   3.72231   3.72445   3.79985   3.81700
 Alpha virt. eigenvalues --    3.86686   3.88018   3.89353   3.91473   3.96333
 Alpha virt. eigenvalues --    3.99652   4.02489   4.04446   4.11423   4.13863
 Alpha virt. eigenvalues --    4.15603   4.19452   4.20366   4.23654   4.39395
 Alpha virt. eigenvalues --    4.51346   4.52532   4.96246   5.00023   5.02990
 Alpha virt. eigenvalues --    5.03179   5.05783   5.11090   5.11432   5.11588
 Alpha virt. eigenvalues --    5.14123   5.15502   5.17686   5.17934   5.18535
 Alpha virt. eigenvalues --    5.20598   5.21804   5.24364   5.27370   5.29039
 Alpha virt. eigenvalues --    5.30455   5.31486   5.33501   5.34702   5.36476
 Alpha virt. eigenvalues --    5.41003   5.42336   5.45011   5.46253   5.50528
 Alpha virt. eigenvalues --    5.55526   5.56297   5.57049   5.61500   5.62785
 Alpha virt. eigenvalues --    5.70948   5.81548   6.76430   6.77808   6.78340
 Alpha virt. eigenvalues --    6.79787   6.81099   6.81591   6.81733   6.84158
 Alpha virt. eigenvalues --    6.85635   6.85952   6.86622   6.89068   6.90246
 Alpha virt. eigenvalues --    6.92296   6.95112   6.96431   6.97267   6.99441
 Alpha virt. eigenvalues --    7.01225   7.02685   7.05081   7.05567   7.06780
 Alpha virt. eigenvalues --    7.09304   7.17210   7.19985   7.22120   7.28884
 Alpha virt. eigenvalues --    7.30643   7.32938   7.35275   7.38630   7.41099
 Alpha virt. eigenvalues --    7.42629   7.46627   7.72699   8.61593  14.30955
 Alpha virt. eigenvalues --   14.32297  14.42027  17.74341  17.79590  17.84732
 Alpha virt. eigenvalues --   23.89365  23.95454  23.98650  24.01973  24.04269
 Alpha virt. eigenvalues --   24.11153  24.14670  35.60395  35.67044  50.05432
 Alpha virt. eigenvalues --   50.08275  50.09400  50.09765  50.12356  50.15675
 Alpha virt. eigenvalues --   50.18136 163.96856 189.92446
          Condensed to atoms (all electrons):
               1          2          3          4          5          6
     1  C    5.798075   0.171867  -0.667115   0.406959   0.390362  -0.023315
     2  C    0.171867   5.632945  -0.262626  -0.062441  -0.008148   0.399699
     3  C   -0.667115  -0.262626   8.167046  -0.030120   0.015673   0.004032
     4  N    0.406959  -0.062441  -0.030120   6.344469  -0.041903   0.011712
     5  H    0.390362  -0.008148   0.015673  -0.041903   0.477354  -0.001087
     6  H   -0.023315   0.399699   0.004032   0.011712  -0.001087   0.473710
     7  H    0.022044  -0.004613   0.301806  -0.015762  -0.000037  -0.000065
     8  C   -0.094815   0.037487  -0.266292   0.258127   0.000318  -0.000048
     9  H   -0.025888   0.029659   0.036937  -0.071024   0.002036  -0.000022
    10  H   -0.002718  -0.000695  -0.013579  -0.031698   0.000051   0.000010
    11  H    0.000923  -0.004520  -0.019573  -0.017730   0.000138   0.000010
    12  N    0.051245   0.359861  -0.215830  -0.004529   0.006484  -0.038381
    13  C   -0.044267  -0.089793  -0.254129  -0.078750   0.000983   0.009374
    14  H    0.005733  -0.017882   0.011124  -0.004612  -0.000017   0.000087
    15  H   -0.000574  -0.006078  -0.006526   0.002691   0.000007  -0.000023
    16  C    0.083198  -0.085978  -0.068967  -0.029614  -0.000771   0.003339
    17  H   -0.001376   0.005104   0.003201   0.000388   0.000001  -0.000264
    18  H    0.001339   0.004798  -0.020948  -0.002458  -0.000014  -0.000601
    19  C   -0.026948   0.034671   0.122325   0.025128   0.000198  -0.001752
    20  H   -0.000085   0.000945  -0.001619   0.000071  -0.000000   0.000004
    21  H    0.000183  -0.000161  -0.006458  -0.000007  -0.000000   0.000000
    22  S    0.042715   0.038646  -0.432154   0.041899  -0.000236   0.000252
    23  O   -0.000733   0.002331  -0.011675   0.000247  -0.000001  -0.000002
    24  O    0.023942   0.028699  -0.154188   0.001081  -0.000070   0.000183
    25  O   -0.004809  -0.007717   0.110417  -0.002312   0.000004  -0.000011
    26  P   -0.000338  -0.007793   0.028047  -0.020214   0.000095  -0.000024
    27  O   -0.002180   0.007358   0.019400  -0.019915  -0.000006  -0.000001
    28  O    0.000139  -0.000273   0.011921  -0.001603  -0.000000   0.000000
    29  H   -0.000024  -0.000009  -0.001829   0.000082  -0.000000   0.000000
    30  O   -0.002345   0.000432   0.016270  -0.002367  -0.000000   0.000000
    31  H    0.000932   0.000574  -0.013262   0.001773  -0.000000  -0.000000
    32  O    0.001487   0.004648  -0.014792  -0.010716   0.000004   0.000001
    33  H   -0.003622  -0.000637   0.023655   0.003682  -0.000010  -0.000000
               7          8          9         10         11         12
     1  C    0.022044  -0.094815  -0.025888  -0.002718   0.000923   0.051245
     2  C   -0.004613   0.037487   0.029659  -0.000695  -0.004520   0.359861
     3  C    0.301806  -0.266292   0.036937  -0.013579  -0.019573  -0.215830
     4  N   -0.015762   0.258127  -0.071024  -0.031698  -0.017730  -0.004529
     5  H   -0.000037   0.000318   0.002036   0.000051   0.000138   0.006484
     6  H   -0.000065  -0.000048  -0.000022   0.000010   0.000010  -0.038381
     7  H    0.390959   0.005272  -0.000260   0.000861   0.000281  -0.005772
     8  C    0.005272   5.389368   0.387276   0.421890   0.407011  -0.028887
     9  H   -0.000260   0.387276   0.507814  -0.013218  -0.020683  -0.004886
    10  H    0.000861   0.421890  -0.013218   0.415693  -0.023529   0.001376
    11  H    0.000281   0.407011  -0.020683  -0.023529   0.444167   0.001240
    12  N   -0.005772  -0.028887  -0.004886   0.001376   0.001240   6.415958
    13  C    0.010951  -0.013110   0.000982  -0.000128  -0.000288   0.147277
    14  H   -0.000056  -0.000558  -0.000003  -0.000004   0.000001  -0.047615
    15  H    0.001921  -0.000038  -0.000001  -0.000002   0.000005  -0.049616
    16  C    0.009563  -0.012507  -0.000243   0.000254  -0.000192  -0.037452
    17  H   -0.000041   0.000131  -0.000000  -0.000000   0.000000  -0.000298
    18  H    0.000166  -0.000796  -0.000002   0.000001   0.000002   0.003942
    19  C   -0.010777   0.003916   0.000057   0.000015   0.000102   0.046947
    20  H    0.000011   0.000014  -0.000000   0.000000  -0.000000  -0.000972
    21  H    0.000029  -0.000047  -0.000000   0.000000   0.000000   0.001890
    22  S    0.022527   0.009271  -0.000405   0.000351  -0.001242   0.088658
    23  O    0.000644   0.000371  -0.000000   0.000011   0.000042  -0.000920
    24  O   -0.012009  -0.003538   0.000083  -0.001215   0.001401   0.029665
    25  O   -0.005846  -0.000241   0.000011   0.000025   0.000302  -0.033698
    26  P    0.010022   0.001198   0.001029   0.002438   0.001920  -0.009270
    27  O    0.017294  -0.031767   0.001254   0.001969  -0.002972   0.014244
    28  O    0.000551  -0.005899  -0.000046   0.000151   0.000168   0.000156
    29  H   -0.000098   0.001178  -0.000001   0.000033   0.000021  -0.000041
    30  O   -0.005384   0.000261   0.000012   0.000493   0.000361  -0.002947
    31  H    0.002307   0.000172  -0.000001  -0.000090  -0.000083   0.002642
    32  O   -0.006097  -0.005388   0.000639  -0.002244   0.005361   0.005780
    33  H   -0.000157   0.005088  -0.000050   0.000150   0.001219  -0.004582
              13         14         15         16         17         18
     1  C   -0.044267   0.005733  -0.000574   0.083198  -0.001376   0.001339
     2  C   -0.089793  -0.017882  -0.006078  -0.085978   0.005104   0.004798
     3  C   -0.254129   0.011124  -0.006526  -0.068967   0.003201  -0.020948
     4  N   -0.078750  -0.004612   0.002691  -0.029614   0.000388  -0.002458
     5  H    0.000983  -0.000017   0.000007  -0.000771   0.000001  -0.000014
     6  H    0.009374   0.000087  -0.000023   0.003339  -0.000264  -0.000601
     7  H    0.010951  -0.000056   0.001921   0.009563  -0.000041   0.000166
     8  C   -0.013110  -0.000558  -0.000038  -0.012507   0.000131  -0.000796
     9  H    0.000982  -0.000003  -0.000001  -0.000243  -0.000000  -0.000002
    10  H   -0.000128  -0.000004  -0.000002   0.000254  -0.000000   0.000001
    11  H   -0.000288   0.000001   0.000005  -0.000192   0.000000   0.000002
    12  N    0.147277  -0.047615  -0.049616  -0.037452  -0.000298   0.003942
    13  C    6.373395   0.439929   0.460027  -0.277703  -0.027600  -0.030939
    14  H    0.439929   0.499104  -0.018429  -0.063115  -0.009428   0.001750
    15  H    0.460027  -0.018429   0.418618  -0.029106   0.001663   0.001940
    16  C   -0.277703  -0.063115  -0.029106   6.552685   0.377279   0.481515
    17  H   -0.027600  -0.009428   0.001663   0.377279   0.530540  -0.032981
    18  H   -0.030939   0.001750   0.001940   0.481515  -0.032981   0.473164
    19  C   -0.193660   0.014674  -0.020443  -0.474560  -0.001903  -0.071879
    20  H    0.022729  -0.000134   0.000075  -0.084299  -0.004584  -0.004197
    21  H   -0.007144   0.000001   0.000217  -0.019962  -0.006513   0.005163
    22  S    0.011000  -0.000993   0.016843  -0.072416   0.001781   0.007956
    23  O    0.025984  -0.000096   0.000079  -0.042700  -0.000210   0.000491
    24  O   -0.017025   0.001633  -0.002270  -0.029957  -0.000765  -0.008082
    25  O   -0.024216   0.000775  -0.000186   0.006914  -0.000412   0.000805
    26  P    0.009884   0.000000   0.000100  -0.003605  -0.000020   0.000124
    27  O    0.006524  -0.000008  -0.000335  -0.000403   0.000001  -0.000012
    28  O    0.000394  -0.000000   0.000008   0.000310  -0.000000   0.000000
    29  H   -0.000046   0.000000   0.000000  -0.000031   0.000000   0.000000
    30  O   -0.000535  -0.000002  -0.000169  -0.004077   0.000001   0.000010
    31  H   -0.002640  -0.000002   0.000237   0.000210   0.000005  -0.000033
    32  O   -0.003263   0.000007   0.000015  -0.007055  -0.000001   0.000068
    33  H    0.005036  -0.000019  -0.000035   0.008014   0.000005  -0.000140
              19         20         21         22         23         24
     1  C   -0.026948  -0.000085   0.000183   0.042715  -0.000733   0.023942
     2  C    0.034671   0.000945  -0.000161   0.038646   0.002331   0.028699
     3  C    0.122325  -0.001619  -0.006458  -0.432154  -0.011675  -0.154188
     4  N    0.025128   0.000071  -0.000007   0.041899   0.000247   0.001081
     5  H    0.000198  -0.000000  -0.000000  -0.000236  -0.000001  -0.000070
     6  H   -0.001752   0.000004   0.000000   0.000252  -0.000002   0.000183
     7  H   -0.010777   0.000011   0.000029   0.022527   0.000644  -0.012009
     8  C    0.003916   0.000014  -0.000047   0.009271   0.000371  -0.003538
     9  H    0.000057  -0.000000  -0.000000  -0.000405  -0.000000   0.000083
    10  H    0.000015   0.000000   0.000000   0.000351   0.000011  -0.001215
    11  H    0.000102  -0.000000   0.000000  -0.001242   0.000042   0.001401
    12  N    0.046947  -0.000972   0.001890   0.088658  -0.000920   0.029665
    13  C   -0.193660   0.022729  -0.007144   0.011000   0.025984  -0.017025
    14  H    0.014674  -0.000134   0.000001  -0.000993  -0.000096   0.001633
    15  H   -0.020443   0.000075   0.000217   0.016843   0.000079  -0.002270
    16  C   -0.474560  -0.084299  -0.019962  -0.072416  -0.042700  -0.029957
    17  H   -0.001903  -0.004584  -0.006513   0.001781  -0.000210  -0.000765
    18  H   -0.071879  -0.004197   0.005163   0.007956   0.000491  -0.008082
    19  C    6.491063   0.455958   0.416914  -0.088103  -0.111582  -0.051150
    20  H    0.455958   0.458610  -0.025291  -0.048153   0.015713   0.004424
    21  H    0.416914  -0.025291   0.456797  -0.035646  -0.001036  -0.005308
    22  S   -0.088103  -0.048153  -0.035646  14.355792   0.525297   0.242568
    23  O   -0.111582   0.015713  -0.001036   0.525297   8.051895  -0.006770
    24  O   -0.051150   0.004424  -0.005308   0.242568  -0.006770   8.641812
    25  O   -0.027270  -0.003718   0.012444   0.266335  -0.064967  -0.105603
    26  P   -0.007753   0.000101  -0.000028  -0.026179  -0.001213   0.031658
    27  O    0.001420  -0.000001  -0.000002   0.011196  -0.000799  -0.008312
    28  O   -0.000785   0.000000   0.000000  -0.008110   0.000506   0.003046
    29  H   -0.000012   0.000000   0.000000  -0.001030   0.000037   0.000030
    30  O    0.009535  -0.000041   0.000133  -0.016333  -0.002989  -0.016066
    31  H   -0.004593   0.000074  -0.000371   0.055314   0.003046   0.007683
    32  O    0.002907   0.000003  -0.000010  -0.008161  -0.010271   0.029755
    33  H   -0.002118   0.000009   0.000001   0.038329   0.006417   0.017920
              25         26         27         28         29         30
     1  C   -0.004809  -0.000338  -0.002180   0.000139  -0.000024  -0.002345
     2  C   -0.007717  -0.007793   0.007358  -0.000273  -0.000009   0.000432
     3  C    0.110417   0.028047   0.019400   0.011921  -0.001829   0.016270
     4  N   -0.002312  -0.020214  -0.019915  -0.001603   0.000082  -0.002367
     5  H    0.000004   0.000095  -0.000006  -0.000000  -0.000000  -0.000000
     6  H   -0.000011  -0.000024  -0.000001   0.000000   0.000000   0.000000
     7  H   -0.005846   0.010022   0.017294   0.000551  -0.000098  -0.005384
     8  C   -0.000241   0.001198  -0.031767  -0.005899   0.001178   0.000261
     9  H    0.000011   0.001029   0.001254  -0.000046  -0.000001   0.000012
    10  H    0.000025   0.002438   0.001969   0.000151   0.000033   0.000493
    11  H    0.000302   0.001920  -0.002972   0.000168   0.000021   0.000361
    12  N   -0.033698  -0.009270   0.014244   0.000156  -0.000041  -0.002947
    13  C   -0.024216   0.009884   0.006524   0.000394  -0.000046  -0.000535
    14  H    0.000775   0.000000  -0.000008  -0.000000   0.000000  -0.000002
    15  H   -0.000186   0.000100  -0.000335   0.000008   0.000000  -0.000169
    16  C    0.006914  -0.003605  -0.000403   0.000310  -0.000031  -0.004077
    17  H   -0.000412  -0.000020   0.000001  -0.000000   0.000000   0.000001
    18  H    0.000805   0.000124  -0.000012   0.000000   0.000000   0.000010
    19  C   -0.027270  -0.007753   0.001420  -0.000785  -0.000012   0.009535
    20  H   -0.003718   0.000101  -0.000001   0.000000   0.000000  -0.000041
    21  H    0.012444  -0.000028  -0.000002   0.000000   0.000000   0.000133
    22  S    0.266335  -0.026179   0.011196  -0.008110  -0.001030  -0.016333
    23  O   -0.064967  -0.001213  -0.000799   0.000506   0.000037  -0.002989
    24  O   -0.105603   0.031658  -0.008312   0.003046   0.000030  -0.016066
    25  O    8.516416   0.040289  -0.018331   0.004660   0.000368   0.010711
    26  P    0.040289  12.590201   0.431883   0.181387   0.013106   0.297969
    27  O   -0.018331   0.431883   8.306846  -0.042243  -0.007019  -0.026829
    28  O    0.004660   0.181387  -0.042243   8.066351   0.241658  -0.004759
    29  H    0.000368   0.013106  -0.007019   0.241658   0.456962  -0.004281
    30  O    0.010711   0.297969  -0.026829  -0.004759  -0.004281   8.113951
    31  H    0.025942   0.004877   0.013068  -0.002370  -0.000420   0.217552
    32  O   -0.018463   0.305652  -0.036069   0.012432  -0.009916   0.001647
    33  H    0.003833  -0.002694  -0.009367  -0.002052   0.001533  -0.007898
              31         32         33
     1  C    0.000932   0.001487  -0.003622
     2  C    0.000574   0.004648  -0.000637
     3  C   -0.013262  -0.014792   0.023655
     4  N    0.001773  -0.010716   0.003682
     5  H   -0.000000   0.000004  -0.000010
     6  H   -0.000000   0.000001  -0.000000
     7  H    0.002307  -0.006097  -0.000157
     8  C    0.000172  -0.005388   0.005088
     9  H   -0.000001   0.000639  -0.000050
    10  H   -0.000090  -0.002244   0.000150
    11  H   -0.000083   0.005361   0.001219
    12  N    0.002642   0.005780  -0.004582
    13  C   -0.002640  -0.003263   0.005036
    14  H   -0.000002   0.000007  -0.000019
    15  H    0.000237   0.000015  -0.000035
    16  C    0.000210  -0.007055   0.008014
    17  H    0.000005  -0.000001   0.000005
    18  H   -0.000033   0.000068  -0.000140
    19  C   -0.004593   0.002907  -0.002118
    20  H    0.000074   0.000003   0.000009
    21  H   -0.000371  -0.000010   0.000001
    22  S    0.055314  -0.008161   0.038329
    23  O    0.003046  -0.010271   0.006417
    24  O    0.007683   0.029755   0.017920
    25  O    0.025942  -0.018463   0.003833
    26  P    0.004877   0.305652  -0.002694
    27  O    0.013068  -0.036069  -0.009367
    28  O   -0.002370   0.012432  -0.002052
    29  H   -0.000420  -0.009916   0.001533
    30  O    0.217552   0.001647  -0.007898
    31  H    0.243462  -0.000812   0.002290
    32  O   -0.000812   8.134749   0.199477
    33  H    0.002290   0.199477   0.377192
 Mulliken charges:
               1
     1  C   -0.099986
     2  C   -0.200361
     3  C   -0.410172
     4  N    0.349466
     5  H    0.158592
     6  H    0.163182
     7  H    0.269767
     8  C   -0.464418
     9  H    0.168947
    10  H    0.243348
    11  H    0.226135
    12  N    0.308328
    13  C   -0.459232
    14  H    0.188158
    15  H    0.229384
    16  C   -0.178568
    17  H    0.166297
    18  H    0.189850
    19  C   -0.530541
    20  H    0.214353
    21  H    0.214213
    22  S    0.962432
    23  O   -0.377148
    24  O   -0.643256
    25  O   -0.682450
    26  P    1.127153
    27  O   -0.625884
    28  O   -0.455700
    29  H    0.309752
    30  O   -0.572318
    31  H    0.442518
    32  O   -0.571372
    33  H    0.339532
 Sum of Mulliken charges =  -0.00000
 Mulliken charges with hydrogens summed into heavy atoms:
               1
     1  C    0.058606
     2  C   -0.037179
     3  C   -0.140405
     4  N    0.349466
     8  C    0.174012
    12  N    0.308328
    13  C   -0.041690
    16  C    0.177579
    19  C   -0.101975
    22  S    0.962432
    23  O   -0.377148
    24  O   -0.643256
    25  O   -0.682450
    26  P    1.127153
    27  O   -0.625884
    28  O   -0.145948
    30  O   -0.129800
    32  O   -0.231840
         Mulliken charges condensed to fragments:
      1      0.006319
      2     -0.006319
 Electronic spatial extent (au):  <R**2>=         424837.5288
 Charge=             -0.0000 electrons
 Dipole moment (field-independent basis, Debye):
    X=             -6.0876    Y=              9.7574    Z=             -0.6785  Tot=             11.5207
 Quadrupole moment (field-independent basis, Debye-Ang):
   XX=           -315.3302   YY=            191.4337   ZZ=           -137.2232
   XY=             47.5070   XZ=           -121.9477   YZ=            139.8755
 Traceless Quadrupole moment (field-independent basis, Debye-Ang):
   XX=           -228.2903   YY=            278.4736   ZZ=            -50.1833
   XY=             47.5070   XZ=           -121.9477   YZ=            139.8755
 Octapole moment (field-independent basis, Debye-Ang**2):
  XXX=         -10521.8072  YYY=           1937.1249  ZZZ=          -6023.8740  XYY=           1190.1986
  XXY=          -2827.4542  XXZ=          -5632.1107  XZZ=          -4180.4790  YZZ=            214.3896
  YYZ=           2698.4631  XYZ=            294.9219
 Hexadecapole moment (field-independent basis, Debye-Ang**3):
 XXXX=        -292090.2439 YYYY=         -13005.6632 ZZZZ=        -186682.6956 XXXY=        -132928.5330
 XXXZ=        -180209.1203 YYYX=           -363.2616 YYYZ=          23295.7748 ZZZX=        -130979.8419
 ZZZY=         -56415.6367 XXYY=         -40166.1331 XXZZ=        -129359.7617 YYZZ=           9927.3565
 XXYZ=         -55512.4847 YYXZ=          10169.2124 ZZXY=         -30660.0245
 N-N= 1.913993552324D+03 E-N=-7.724763323494D+03  KE= 1.646346775807D+03
 No NMR shielding tensors so no spin-rotation constants.
 Leave Link  601 at Sun Nov 27 17:55:02 2022, MaxMem= 10485760000 cpu:               2.4 elap:               0.2
 (Enter /data0/home/software/g16/l122.exe)
 CPIOFr:  IOpCl= 0 IRwI=-1 IRwCP=  731 ICalc= -1 LCPTot=      536908 Len1MO=     1413956 IndFrg=      536908
 CPIOFr:  IOpCl= 0 IRwI=-1 IRwCP=  731 ICalc=  0 LCPTot=      536908 Len1MO=     1413956 IndFrg=     1950864
 Counterpoise: doing calculation for fragment   1 using the basis set of the full-system, NewBq=T
 Leave Link  122 at Sun Nov 27 17:55:02 2022, MaxMem= 10485760000 cpu:               0.4 elap:               0.0
 (Enter /data0/home/software/g16/l301.exe)
 Basis read from rwf:  (5D, 7F)
 No pseudopotential information found on rwf file.
   592 basis functions,   904 primitive gaussians,   628 cartesian basis functions
    54 alpha electrons       54 beta electrons
       nuclear repulsion energy      1014.0442487745 Hartrees.
 IExCor= 4336 DFT=T Ex+Corr=M062X ExCW=0 ScaHFX=  0.540000
 ScaDFX=  1.000000  1.000000  1.000000  1.000000 ScalE2=  1.000000  1.000000
 IRadAn=      5 IRanWt=     -1 IRanGd=            0 ICorTp=0 IEmpDi=131
 NAtoms=   33 NActive=   33 NUniq=   33 SFac= 1.00D+00 NAtFMM=   60 NAOKFM=F Big=F
 Integral buffers will be    131072 words long.
 Raffenetti 2 integral format.
 Two-electron integral symmetry is turned off.
 R6Disp:  Grimme-D3 Dispersion energy=       -0.0011871833 Hartrees.
 Nuclear repulsion after empirical dispersion term =     1014.0430615913 Hartrees.
 No density basis found on file   718.
 Leave Link  301 at Sun Nov 27 17:55:03 2022, MaxMem= 10485760000 cpu:               0.9 elap:               0.1
 (Enter /data0/home/software/g16/l302.exe)
 NPDir=0 NMtPBC=     1 NCelOv=     1 NCel=       1 NClECP=     1 NCelD=      1
         NCelK=      1 NCelE2=     1 NClLst=     1 CellRange=     0.0.
 One-electron integrals computed using PRISM.
 NBasis=   592 RedAO= T EigKep=  1.14D-05  NBF=   592
 NBsUse=   592 1.00D-06 EigRej= -1.00D+00 NBFU=   592
 Precomputing XC quadrature grid using
 IXCGrd= 4 IRadAn=           5 IRanWt=          -1 IRanGd=           0 AccXCQ= 0.00D+00.
 Generated NRdTot=       0 NPtTot=           0 NUsed=           0 NTot=          32
 NSgBfM=   628   628   628   628   628 MxSgAt=    33 MxSgA2=    33.
 Leave Link  302 at Sun Nov 27 17:55:03 2022, MaxMem= 10485760000 cpu:               9.8 elap:               0.6
 (Enter /data0/home/software/g16/l303.exe)
 DipDrv:  MaxL=1.
 Leave Link  303 at Sun Nov 27 17:55:03 2022, MaxMem= 10485760000 cpu:               0.9 elap:               0.1
 (Enter /data0/home/software/g16/l401.exe)
 ExpMin= 3.48D-02 ExpMax= 9.34D+04 ExpMxC= 3.17D+03 IAcc=3 IRadAn=         5 AccDes= 0.00D+00
 Harris functional with IExCor= 1009 and IRadAn=       5 diagonalized for initial guess.
 HarFok:  IExCor= 1009 AccDes= 0.00D+00 IRadAn=         5 IDoV= 1 UseB2=F ITyADJ=14
 ICtDFT=  3500011 ScaDFX=  1.000000  1.000000  1.000000  1.000000
 FoFCou: FMM=F IPFlag=           0 FMFlag=      100000 FMFlg1=           0
         NFxFlg=           0 DoJE=T BraDBF=F KetDBF=T FulRan=T
         wScrn=  0.000000 ICntrl=       500 IOpCl=  0 I1Cent=   200000004 NGrid=           0
         NMat0=    1 NMatS0=      1 NMatT0=    0 NMatD0=    1 NMtDS0=    0 NMtDT0=    0
 Symmetry not used in FoFCou.
 Harris En= -1006.80622686205    
 JPrj=0 DoOrth=F DoCkMO=F.
 Leave Link  401 at Sun Nov 27 17:55:06 2022, MaxMem= 10485760000 cpu:              47.0 elap:               3.0
 (Enter /data0/home/software/g16/l502.exe)
 Two-electron integral symmetry not used.
 Closed shell SCF:
 Using DIIS extrapolation, IDIIS=  1040.
 NGot= 10485760000 LenX= 10484956849 LenY= 10484561837
 Requested convergence on RMS density matrix=1.00D-08 within 128 cycles.
 Requested convergence on MAX density matrix=1.00D-06.
 Requested convergence on             energy=1.00D-06.
 No special actions if energy rises.
 Fock matrices will be formed incrementally for  20 cycles.

 Cycle   1  Pass 1  IDiag  1:
 FoFJK:  IHMeth= 1 ICntrl=       0 DoSepK=F KAlg= 0 I1Cent=           0 FoldK=F
 IRaf= 840000000 NMat=       1 IRICut=       1 DoRegI=T DoRafI=F ISym2E= 0 IDoP0=0 IntGTp=1.
 FoFCou: FMM=F IPFlag=           0 FMFlag=      100000 FMFlg1=           0
         NFxFlg=           0 DoJE=F BraDBF=F KetDBF=F FulRan=T
         wScrn=  0.000000 ICntrl=         0 IOpCl=  0 I1Cent=           0 NGrid=           0
         NMat0=    1 NMatS0=      1 NMatT0=    0 NMatD0=    1 NMtDS0=    0 NMtDT0=    0
 Symmetry not used in FoFCou.
 E= -1006.77014229273    
 DIIS: error= 1.80D-02 at cycle   1 NSaved=   1.
 NSaved= 1 IEnMin= 1 EnMin= -1006.77014229273     IErMin= 1 ErrMin= 1.80D-02
 ErrMax= 1.80D-02  0.00D+00 EMaxC= 1.00D-01 BMatC= 7.13D-01 BMatP= 7.13D-01
 IDIUse=3 WtCom= 8.20D-01 WtEn= 1.80D-01
 Coeff-Com:  0.100D+01
 Coeff-En:   0.100D+01
 Coeff:      0.100D+01
 Gap=     0.292 Goal=   None    Shift=    0.000
 GapD=    0.292 DampG=1.000 DampE=0.500 DampFc=0.5000 IDamp=-1.
 Damping current iteration by 5.00D-01
 RMSDP=4.87D-03 MaxDP=7.63D-01              OVMax= 1.88D-01

 Cycle   2  Pass 1  IDiag  1:
 RMSU=  2.43D-03    CP:  1.01D+00
 E= -1006.96242758077     Delta-E=       -0.192285288044 Rises=F Damp=T
 DIIS: error= 4.43D-03 at cycle   2 NSaved=   2.
 NSaved= 2 IEnMin= 2 EnMin= -1006.96242758077     IErMin= 2 ErrMin= 4.43D-03
 ErrMax= 4.43D-03  0.00D+00 EMaxC= 1.00D-01 BMatC= 5.03D-02 BMatP= 7.13D-01
 IDIUse=3 WtCom= 9.56D-01 WtEn= 4.43D-02
 Coeff-Com:  0.322D-01 0.968D+00
 Coeff-En:   0.112D+00 0.888D+00
 Coeff:      0.358D-01 0.964D+00
 Gap=     0.260 Goal=   None    Shift=    0.000
 RMSDP=1.74D-03 MaxDP=3.23D-01 DE=-1.92D-01 OVMax= 1.11D-01

 Cycle   3  Pass 1  IDiag  1:
 RMSU=  1.41D-03    CP:  9.19D-01  7.08D-01
 E= -1007.19542325889     Delta-E=       -0.232995678120 Rises=F Damp=F
 DIIS: error= 3.11D-03 at cycle   3 NSaved=   3.
 NSaved= 3 IEnMin= 3 EnMin= -1007.19542325889     IErMin= 3 ErrMin= 3.11D-03
 ErrMax= 3.11D-03  0.00D+00 EMaxC= 1.00D-01 BMatC= 1.88D-02 BMatP= 5.03D-02
 IDIUse=3 WtCom= 9.69D-01 WtEn= 3.11D-02
 Coeff-Com: -0.634D-01 0.350D+00 0.714D+00
 Coeff-En:   0.000D+00 0.000D+00 0.100D+01
 Coeff:     -0.614D-01 0.339D+00 0.723D+00
 Gap=     0.257 Goal=   None    Shift=    0.000
 RMSDP=3.95D-04 MaxDP=2.55D-02 DE=-2.33D-01 OVMax= 2.72D-02

 Cycle   4  Pass 1  IDiag  1:
 RMSU=  3.59D-04    CP:  9.16D-01  7.75D-01  9.85D-01
 E= -1007.20706579562     Delta-E=       -0.011642536726 Rises=F Damp=F
 DIIS: error= 1.39D-03 at cycle   4 NSaved=   4.
 NSaved= 4 IEnMin= 4 EnMin= -1007.20706579562     IErMin= 4 ErrMin= 1.39D-03
 ErrMax= 1.39D-03  0.00D+00 EMaxC= 1.00D-01 BMatC= 2.74D-03 BMatP= 1.88D-02
 IDIUse=3 WtCom= 9.86D-01 WtEn= 1.39D-02
 Coeff-Com: -0.292D-01 0.808D-01 0.339D+00 0.609D+00
 Coeff-En:   0.000D+00 0.000D+00 0.904D-01 0.910D+00
 Coeff:     -0.288D-01 0.797D-01 0.336D+00 0.613D+00
 Gap=     0.257 Goal=   None    Shift=    0.000
 RMSDP=1.38D-04 MaxDP=1.21D-02 DE=-1.16D-02 OVMax= 1.12D-02

 Cycle   5  Pass 1  IDiag  1:
 RMSU=  8.09D-05    CP:  9.13D-01  7.58D-01  1.01D+00  7.44D-01
 E= -1007.20954296623     Delta-E=       -0.002477170610 Rises=F Damp=F
 DIIS: error= 2.72D-04 at cycle   5 NSaved=   5.
 NSaved= 5 IEnMin= 5 EnMin= -1007.20954296623     IErMin= 5 ErrMin= 2.72D-04
 ErrMax= 2.72D-04  0.00D+00 EMaxC= 1.00D-01 BMatC= 8.53D-05 BMatP= 2.74D-03
 IDIUse=3 WtCom= 9.97D-01 WtEn= 2.72D-03
 Coeff-Com: -0.726D-02 0.135D-01 0.869D-01 0.228D+00 0.679D+00
 Coeff-En:   0.000D+00 0.000D+00 0.000D+00 0.000D+00 0.100D+01
 Coeff:     -0.724D-02 0.134D-01 0.867D-01 0.227D+00 0.680D+00
 Gap=     0.257 Goal=   None    Shift=    0.000
 RMSDP=3.38D-05 MaxDP=2.96D-03 DE=-2.48D-03 OVMax= 2.06D-03

 Cycle   6  Pass 1  IDiag  1:
 RMSU=  2.53D-05    CP:  9.13D-01  7.60D-01  1.01D+00  7.88D-01  8.12D-01
 E= -1007.20961370262     Delta-E=       -0.000070736393 Rises=F Damp=F
 DIIS: error= 8.71D-05 at cycle   6 NSaved=   6.
 NSaved= 6 IEnMin= 6 EnMin= -1007.20961370262     IErMin= 6 ErrMin= 8.71D-05
 ErrMax= 8.71D-05  0.00D+00 EMaxC= 1.00D-01 BMatC= 1.26D-05 BMatP= 8.53D-05
 IDIUse=1 WtCom= 1.00D+00 WtEn= 0.00D+00
 Coeff-Com: -0.119D-02 0.463D-03 0.151D-01 0.627D-01 0.328D+00 0.595D+00
 Coeff:     -0.119D-02 0.463D-03 0.151D-01 0.627D-01 0.328D+00 0.595D+00
 Gap=     0.257 Goal=   None    Shift=    0.000
 RMSDP=1.08D-05 MaxDP=1.52D-03 DE=-7.07D-05 OVMax= 1.12D-03

 Cycle   7  Pass 1  IDiag  1:
 RMSU=  7.58D-06    CP:  9.13D-01  7.58D-01  1.02D+00  7.94D-01  8.47D-01
                    CP:  9.69D-01
 E= -1007.20962424833     Delta-E=       -0.000010545706 Rises=F Damp=F
 DIIS: error= 3.17D-05 at cycle   7 NSaved=   7.
 NSaved= 7 IEnMin= 7 EnMin= -1007.20962424833     IErMin= 7 ErrMin= 3.17D-05
 ErrMax= 3.17D-05  0.00D+00 EMaxC= 1.00D-01 BMatC= 1.61D-06 BMatP= 1.26D-05
 IDIUse=1 WtCom= 1.00D+00 WtEn= 0.00D+00
 Coeff-Com:  0.521D-03-0.184D-02-0.639D-02-0.386D-02 0.586D-01 0.282D+00
 Coeff-Com:  0.671D+00
 Coeff:      0.521D-03-0.184D-02-0.639D-02-0.386D-02 0.586D-01 0.282D+00
 Coeff:      0.671D+00
 Gap=     0.257 Goal=   None    Shift=    0.000
 RMSDP=4.09D-06 MaxDP=5.94D-04 DE=-1.05D-05 OVMax= 2.98D-04

 Cycle   8  Pass 1  IDiag  1:
 RMSU=  2.85D-06    CP:  9.13D-01  7.57D-01  1.02D+00  7.96D-01  8.65D-01
                    CP:  9.99D-01  9.39D-01
 E= -1007.20962573849     Delta-E=       -0.000001490163 Rises=F Damp=F
 DIIS: error= 9.46D-06 at cycle   8 NSaved=   8.
 NSaved= 8 IEnMin= 8 EnMin= -1007.20962573849     IErMin= 8 ErrMin= 9.46D-06
 ErrMax= 9.46D-06  0.00D+00 EMaxC= 1.00D-01 BMatC= 1.54D-07 BMatP= 1.61D-06
 IDIUse=1 WtCom= 1.00D+00 WtEn= 0.00D+00
 Coeff-Com:  0.356D-03-0.732D-03-0.493D-02-0.107D-01-0.246D-01 0.209D-01
 Coeff-Com:  0.263D+00 0.757D+00
 Coeff:      0.356D-03-0.732D-03-0.493D-02-0.107D-01-0.246D-01 0.209D-01
 Coeff:      0.263D+00 0.757D+00
 Gap=     0.257 Goal=   None    Shift=    0.000
 RMSDP=1.52D-06 MaxDP=1.12D-04 DE=-1.49D-06 OVMax= 1.63D-04

 Cycle   9  Pass 1  IDiag  1:
 RMSU=  1.07D-06    CP:  9.13D-01  7.57D-01  1.02D+00  7.97D-01  8.73D-01
                    CP:  1.02D+00  1.00D+00  9.90D-01
 E= -1007.20962591526     Delta-E=       -0.000000176773 Rises=F Damp=F
 DIIS: error= 3.75D-06 at cycle   9 NSaved=   9.
 NSaved= 9 IEnMin= 9 EnMin= -1007.20962591526     IErMin= 9 ErrMin= 3.75D-06
 ErrMax= 3.75D-06  0.00D+00 EMaxC= 1.00D-01 BMatC= 1.44D-08 BMatP= 1.54D-07
 IDIUse=1 WtCom= 1.00D+00 WtEn= 0.00D+00
 Coeff-Com:  0.102D-03-0.161D-03-0.161D-02-0.415D-02-0.138D-01-0.101D-01
 Coeff-Com:  0.583D-01 0.297D+00 0.674D+00
 Coeff:      0.102D-03-0.161D-03-0.161D-02-0.415D-02-0.138D-01-0.101D-01
 Coeff:      0.583D-01 0.297D+00 0.674D+00
 Gap=     0.257 Goal=   None    Shift=    0.000
 RMSDP=4.26D-07 MaxDP=3.33D-05 DE=-1.77D-07 OVMax= 5.30D-05

 Cycle  10  Pass 1  IDiag  1:
 RMSU=  3.16D-07    CP:  9.13D-01  7.57D-01  1.02D+00  7.97D-01  8.72D-01
                    CP:  1.02D+00  1.02D+00  1.02D+00  9.45D-01
 E= -1007.20962593080     Delta-E=       -0.000000015542 Rises=F Damp=F
 DIIS: error= 1.45D-06 at cycle  10 NSaved=  10.
 NSaved=10 IEnMin=10 EnMin= -1007.20962593080     IErMin=10 ErrMin= 1.45D-06
 ErrMax= 1.45D-06  0.00D+00 EMaxC= 1.00D-01 BMatC= 2.00D-09 BMatP= 1.44D-08
 IDIUse=1 WtCom= 1.00D+00 WtEn= 0.00D+00
 Coeff-Com: -0.167D-04 0.486D-04 0.116D-03-0.259D-04-0.193D-02-0.729D-02
 Coeff-Com: -0.180D-01-0.372D-04 0.265D+00 0.762D+00
 Coeff:     -0.167D-04 0.486D-04 0.116D-03-0.259D-04-0.193D-02-0.729D-02
 Coeff:     -0.180D-01-0.372D-04 0.265D+00 0.762D+00
 Gap=     0.257 Goal=   None    Shift=    0.000
 RMSDP=1.83D-07 MaxDP=1.41D-05 DE=-1.55D-08 OVMax= 2.48D-05

 Cycle  11  Pass 1  IDiag  1:
 RMSU=  1.16D-07    CP:  9.13D-01  7.57D-01  1.02D+00  7.97D-01  8.72D-01
                    CP:  1.02D+00  1.03D+00  1.05D+00  1.04D+00  1.06D+00
 E= -1007.20962593333     Delta-E=       -0.000000002526 Rises=F Damp=F
 DIIS: error= 6.19D-07 at cycle  11 NSaved=  11.
 NSaved=11 IEnMin=11 EnMin= -1007.20962593333     IErMin=11 ErrMin= 6.19D-07
 ErrMax= 6.19D-07  0.00D+00 EMaxC= 1.00D-01 BMatC= 2.63D-10 BMatP= 2.00D-09
 IDIUse=1 WtCom= 1.00D+00 WtEn= 0.00D+00
 Coeff-Com: -0.178D-04 0.374D-04 0.236D-03 0.475D-03 0.905D-03-0.139D-02
 Coeff-Com: -0.140D-01-0.371D-01 0.150D-01 0.304D+00 0.732D+00
 Coeff:     -0.178D-04 0.374D-04 0.236D-03 0.475D-03 0.905D-03-0.139D-02
 Coeff:     -0.140D-01-0.371D-01 0.150D-01 0.304D+00 0.732D+00
 Gap=     0.257 Goal=   None    Shift=    0.000
 RMSDP=6.31D-08 MaxDP=6.07D-06 DE=-2.53D-09 OVMax= 7.39D-06

 Cycle  12  Pass 1  IDiag  1:
 RMSU=  4.02D-08    CP:  9.13D-01  7.57D-01  1.02D+00  7.97D-01  8.73D-01
                    CP:  1.02D+00  1.03D+00  1.05D+00  1.06D+00  1.15D+00
                    CP:  9.75D-01
 E= -1007.20962593364     Delta-E=       -0.000000000312 Rises=F Damp=F
 DIIS: error= 1.80D-07 at cycle  12 NSaved=  12.
 NSaved=12 IEnMin=12 EnMin= -1007.20962593364     IErMin=12 ErrMin= 1.80D-07
 ErrMax= 1.80D-07  0.00D+00 EMaxC= 1.00D-01 BMatC= 4.00D-11 BMatP= 2.63D-10
 IDIUse=1 WtCom= 1.00D+00 WtEn= 0.00D+00
 Coeff-Com: -0.578D-05 0.115D-04 0.929D-04 0.206D-03 0.575D-03 0.708D-04
 Coeff-Com: -0.444D-02-0.160D-01-0.179D-01 0.690D-01 0.342D+00 0.626D+00
 Coeff:     -0.578D-05 0.115D-04 0.929D-04 0.206D-03 0.575D-03 0.708D-04
 Coeff:     -0.444D-02-0.160D-01-0.179D-01 0.690D-01 0.342D+00 0.626D+00
 Gap=     0.257 Goal=   None    Shift=    0.000
 RMSDP=2.02D-08 MaxDP=1.90D-06 DE=-3.12D-10 OVMax= 1.85D-06

 Cycle  13  Pass 1  IDiag  1:
 RMSU=  1.52D-08    CP:  9.13D-01  7.57D-01  1.02D+00  7.97D-01  8.73D-01
                    CP:  1.02D+00  1.03D+00  1.05D+00  1.07D+00  1.15D+00
                    CP:  1.05D+00  9.23D-01
 E= -1007.20962593371     Delta-E=       -0.000000000070 Rises=F Damp=F
 DIIS: error= 5.80D-08 at cycle  13 NSaved=  13.
 NSaved=13 IEnMin=13 EnMin= -1007.20962593371     IErMin=13 ErrMin= 5.80D-08
 ErrMax= 5.80D-08  0.00D+00 EMaxC= 1.00D-01 BMatC= 7.30D-12 BMatP= 4.00D-11
 IDIUse=1 WtCom= 1.00D+00 WtEn= 0.00D+00
 Coeff-Com:  0.564D-06-0.139D-05 0.342D-05 0.116D-04 0.108D-03 0.219D-03
 Coeff-Com:  0.294D-03-0.887D-03-0.114D-01-0.231D-01 0.336D-01 0.325D+00
 Coeff-Com:  0.676D+00
 Coeff:      0.564D-06-0.139D-05 0.342D-05 0.116D-04 0.108D-03 0.219D-03
 Coeff:      0.294D-03-0.887D-03-0.114D-01-0.231D-01 0.336D-01 0.325D+00
 Coeff:      0.676D+00
 Gap=     0.257 Goal=   None    Shift=    0.000
 RMSDP=9.06D-09 MaxDP=1.19D-06 DE=-7.03D-11 OVMax= 8.17D-07

 Cycle  14  Pass 1  IDiag  1:
 RMSU=  5.75D-09    CP:  9.13D-01  7.57D-01  1.02D+00  7.97D-01  8.73D-01
                    CP:  1.02D+00  1.03D+00  1.05D+00  1.07D+00  1.16D+00
                    CP:  1.08D+00  1.02D+00  9.32D-01
 E= -1007.20962593370     Delta-E=        0.000000000009 Rises=F Damp=F
 DIIS: error= 1.27D-08 at cycle  14 NSaved=  14.
 NSaved=14 IEnMin=13 EnMin= -1007.20962593371     IErMin=14 ErrMin= 1.27D-08
 ErrMax= 1.27D-08  0.00D+00 EMaxC= 1.00D-01 BMatC= 2.79D-13 BMatP= 7.30D-12
 IDIUse=1 WtCom= 1.00D+00 WtEn= 0.00D+00
 Coeff-Com:  0.680D-06-0.148D-05-0.599D-05-0.122D-04-0.675D-05 0.619D-04
 Coeff-Com:  0.481D-03 0.104D-02-0.250D-02-0.147D-01-0.203D-01 0.522D-01
 Coeff-Com:  0.204D+00 0.780D+00
 Coeff:      0.680D-06-0.148D-05-0.599D-05-0.122D-04-0.675D-05 0.619D-04
 Coeff:      0.481D-03 0.104D-02-0.250D-02-0.147D-01-0.203D-01 0.522D-01
 Coeff:      0.204D+00 0.780D+00
 Gap=     0.257 Goal=   None    Shift=    0.000
 RMSDP=2.70D-09 MaxDP=3.74D-07 DE= 8.64D-12 OVMax= 2.60D-07

 SCF Done:  E(RM062X) =  -1007.20962593     A.U. after   14 cycles
            NFock= 14  Conv=0.27D-08     -V/T= 2.0035
[...]
 Precomputing XC quadrature grid using
 IXCGrd= 4 IRadAn=           5 IRanWt=          -1 IRanGd=           0 AccXCQ= 0.00D+00.
 Generated NRdTot=       0 NPtTot=           0 NUsed=           0 NTot=          32
 NSgBfM=   171   171   171   171   171 MxSgAt=     8 MxSgA2=     8.
 Leave Link  302 at Sun Nov 27 18:02:07 2022, MaxMem= 10485760000 cpu:               1.7 elap:               0.1
 (Enter /data0/home/software/g16/l303.exe)
 DipDrv:  MaxL=1.
 Leave Link  303 at Sun Nov 27 18:02:07 2022, MaxMem= 10485760000 cpu:               0.3 elap:               0.0
 (Enter /data0/home/software/g16/l401.exe)
 ExpMin= 3.48D-02 ExpMax= 7.75D+04 ExpMxC= 2.65D+03 IAcc=3 IRadAn=         5 AccDes= 0.00D+00
 Harris functional with IExCor= 1009 and IRadAn=       5 diagonalized for initial guess.
 HarFok:  IExCor= 1009 AccDes= 0.00D+00 IRadAn=         5 IDoV= 1 UseB2=F ITyADJ=14
 ICtDFT=  3500011 ScaDFX=  1.000000  1.000000  1.000000  1.000000
 FoFCou: FMM=F IPFlag=           0 FMFlag=      100000 FMFlg1=           0
         NFxFlg=           0 DoJE=T BraDBF=F KetDBF=T FulRan=T
         wScrn=  0.000000 ICntrl=       500 IOpCl=  0 I1Cent=   200000004 NGrid=           0
         NMat0=    1 NMatS0=      1 NMatT0=    0 NMatD0=    1 NMtDS0=    0 NMtDT0=    0
 Symmetry not used in FoFCou.
 Harris En= -643.939906644385    
 JPrj=0 DoOrth=F DoCkMO=F.
 Leave Link  401 at Sun Nov 27 18:02:08 2022, MaxMem= 10485760000 cpu:               4.3 elap:               0.3
 (Enter /data0/home/software/g16/l502.exe)
 Keep R1 ints in memory in canonical form, NReq=100992149.
 FoFCou: FMM=F IPFlag=           0 FMFlag=           0 FMFlg1=           0
         NFxFlg=           0 DoJE=F BraDBF=F KetDBF=F FulRan=T
         wScrn=  0.000000 ICntrl=       600 IOpCl=  0 I1Cent=           0 NGrid=           0
         NMat0=    1 NMatS0=  13041 NMatT0=    0 NMatD0=    1 NMtDS0=    0 NMtDT0=    0
 Symmetry not used in FoFCou.
 Two-electron integral symmetry not used.
 Closed shell SCF:
 Using DIIS extrapolation, IDIIS=  1040.
 NGot= 10485760000 LenX= 10400656371 LenY= 10400626689
 Requested convergence on RMS density matrix=1.00D-08 within 128 cycles.
 Requested convergence on MAX density matrix=1.00D-06.
 Requested convergence on             energy=1.00D-06.
 No special actions if energy rises.

 Cycle   1  Pass 1  IDiag  1:
 E= -643.843889994410    
 DIIS: error= 4.95D-02 at cycle   1 NSaved=   1.
 NSaved= 1 IEnMin= 1 EnMin= -643.843889994410     IErMin= 1 ErrMin= 4.95D-02
 ErrMax= 4.95D-02  0.00D+00 EMaxC= 1.00D-01 BMatC= 5.12D-01 BMatP= 5.12D-01
 IDIUse=3 WtCom= 5.05D-01 WtEn= 4.95D-01
 Coeff-Com:  0.100D+01
 Coeff-En:   0.100D+01
 Coeff:      0.100D+01
 Gap=     0.233 Goal=   None    Shift=    0.000
 GapD=    0.233 DampG=1.000 DampE=0.500 DampFc=0.5000 IDamp=-1.
 Damping current iteration by 5.00D-01
 RMSDP=7.87D-03 MaxDP=2.06D-01              OVMax= 2.77D-01

 Cycle   2  Pass 1  IDiag  1:
 E= -643.961017864258     Delta-E=       -0.117127869848 Rises=F Damp=T
 DIIS: error= 1.02D-02 at cycle   2 NSaved=   2.
 NSaved= 2 IEnMin= 2 EnMin= -643.961017864258     IErMin= 2 ErrMin= 1.02D-02
 ErrMax= 1.02D-02  0.00D+00 EMaxC= 1.00D-01 BMatC= 2.79D-02 BMatP= 5.12D-01
 IDIUse=3 WtCom= 8.98D-01 WtEn= 1.02D-01
 Coeff-Com:  0.771D-01 0.923D+00
 Coeff-En:   0.212D+00 0.788D+00
 Coeff:      0.908D-01 0.909D+00
 Gap=     0.338 Goal=   None    Shift=    0.000
 RMSDP=1.88D-03 MaxDP=7.07D-02 DE=-1.17D-01 OVMax= 1.82D-01

 Cycle   3  Pass 1  IDiag  1:
 E= -644.131853906137     Delta-E=       -0.170836041879 Rises=F Damp=F
 DIIS: error= 7.09D-03 at cycle   3 NSaved=   3.
 NSaved= 3 IEnMin= 3 EnMin= -644.131853906137     IErMin= 3 ErrMin= 7.09D-03
 ErrMax= 7.09D-03  0.00D+00 EMaxC= 1.00D-01 BMatC= 1.04D-02 BMatP= 2.79D-02
 IDIUse=3 WtCom= 9.29D-01 WtEn= 7.09D-02
 Coeff-Com: -0.126D-01 0.338D+00 0.675D+00
 Coeff-En:   0.000D+00 0.000D+00 0.100D+01
 Coeff:     -0.118D-01 0.314D+00 0.698D+00
 Gap=     0.327 Goal=   None    Shift=    0.000
 RMSDP=6.76D-04 MaxDP=1.51D-02 DE=-1.71D-01 OVMax= 3.59D-02

 Cycle   4  Pass 1  IDiag  1:
 E= -644.136462905555     Delta-E=       -0.004608999417 Rises=F Damp=F
 DIIS: error= 4.38D-03 at cycle   4 NSaved=   4.
 NSaved= 4 IEnMin= 4 EnMin= -644.136462905555     IErMin= 4 ErrMin= 4.38D-03
 ErrMax= 4.38D-03  0.00D+00 EMaxC= 1.00D-01 BMatC= 4.05D-03 BMatP= 1.04D-02
 IDIUse=3 WtCom= 9.56D-01 WtEn= 4.38D-02
 Coeff-Com: -0.207D-01 0.471D-01 0.405D+00 0.568D+00
 Coeff-En:   0.000D+00 0.000D+00 0.281D+00 0.719D+00
 Coeff:     -0.198D-01 0.450D-01 0.400D+00 0.575D+00
 Gap=     0.333 Goal=   None    Shift=    0.000
 RMSDP=2.68D-04 MaxDP=6.31D-03 DE=-4.61D-03 OVMax= 1.16D-02

 Cycle   5  Pass 1  IDiag  1:
 E= -644.139146508789     Delta-E=       -0.002683603234 Rises=F Damp=F
 DIIS: error= 2.26D-04 at cycle   5 NSaved=   5.
 NSaved= 5 IEnMin= 5 EnMin= -644.139146508789     IErMin= 5 ErrMin= 2.26D-04
 ErrMax= 2.26D-04  0.00D+00 EMaxC= 1.00D-01 BMatC= 1.73D-05 BMatP= 4.05D-03
 IDIUse=3 WtCom= 9.98D-01 WtEn= 2.26D-03
 Coeff-Com: -0.222D-02-0.393D-03 0.575D-01 0.118D+00 0.827D+00
 Coeff-En:   0.000D+00 0.000D+00 0.000D+00 0.000D+00 0.100D+01
 Coeff:     -0.221D-02-0.392D-03 0.573D-01 0.118D+00 0.827D+00
 Gap=     0.332 Goal=   None    Shift=    0.000
 RMSDP=2.91D-05 MaxDP=7.54D-04 DE=-2.68D-03 OVMax= 7.67D-04

 Cycle   6  Pass 1  IDiag  1:
 E= -644.139157966073     Delta-E=       -0.000011457284 Rises=F Damp=F
 DIIS: error= 8.39D-05 at cycle   6 NSaved=   6.
 NSaved= 6 IEnMin= 6 EnMin= -644.139157966073     IErMin= 6 ErrMin= 8.39D-05
 ErrMax= 8.39D-05  0.00D+00 EMaxC= 1.00D-01 BMatC= 1.61D-06 BMatP= 1.73D-05
 IDIUse=1 WtCom= 1.00D+00 WtEn= 0.00D+00
 Coeff-Com:  0.137D-04-0.175D-02 0.330D-02 0.150D-01 0.256D+00 0.728D+00
 Coeff:      0.137D-04-0.175D-02 0.330D-02 0.150D-01 0.256D+00 0.728D+00
 Gap=     0.332 Goal=   None    Shift=    0.000
 RMSDP=1.07D-05 MaxDP=2.33D-04 DE=-1.15D-05 OVMax= 2.93D-04

 Cycle   7  Pass 1  IDiag  1:
 E= -644.139159029205     Delta-E=       -0.000001063132 Rises=F Damp=F
 DIIS: error= 4.35D-05 at cycle   7 NSaved=   7.
 NSaved= 7 IEnMin= 7 EnMin= -644.139159029205     IErMin= 7 ErrMin= 4.35D-05
 ErrMax= 4.35D-05  0.00D+00 EMaxC= 1.00D-01 BMatC= 3.75D-07 BMatP= 1.61D-06
 IDIUse=1 WtCom= 1.00D+00 WtEn= 0.00D+00
 Coeff-Com:  0.386D-03-0.664D-03-0.904D-02-0.144D-01-0.242D-01 0.323D+00
 Coeff-Com:  0.725D+00
 Coeff:      0.386D-03-0.664D-03-0.904D-02-0.144D-01-0.242D-01 0.323D+00
 Coeff:      0.725D+00
 Gap=     0.332 Goal=   None    Shift=    0.000
 RMSDP=4.60D-06 MaxDP=9.97D-05 DE=-1.06D-06 OVMax= 1.27D-04

 Cycle   8  Pass 1  IDiag  1:
 E= -644.139159289026     Delta-E=       -0.000000259821 Rises=F Damp=F
 DIIS: error= 8.94D-06 at cycle   8 NSaved=   8.
 NSaved= 8 IEnMin= 8 EnMin= -644.139159289026     IErMin= 8 ErrMin= 8.94D-06
 ErrMax= 8.94D-06  0.00D+00 EMaxC= 1.00D-01 BMatC= 3.07D-08 BMatP= 3.75D-07
 IDIUse=1 WtCom= 1.00D+00 WtEn= 0.00D+00
 Coeff-Com:  0.143D-03-0.175D-03-0.382D-02-0.614D-02-0.179D-01 0.919D-01
 Coeff-Com:  0.307D+00 0.629D+00
 Coeff:      0.143D-03-0.175D-03-0.382D-02-0.614D-02-0.179D-01 0.919D-01
 Coeff:      0.307D+00 0.629D+00
 Gap=     0.332 Goal=   None    Shift=    0.000
 RMSDP=8.93D-07 MaxDP=2.69D-05 DE=-2.60D-07 OVMax= 3.69D-05

 Cycle   9  Pass 1  IDiag  1:
 E= -644.139159312648     Delta-E=       -0.000000023623 Rises=F Damp=F
 DIIS: error= 1.59D-06 at cycle   9 NSaved=   9.
 NSaved= 9 IEnMin= 9 EnMin= -644.139159312648     IErMin= 9 ErrMin= 1.59D-06
 ErrMax= 1.59D-06  0.00D+00 EMaxC= 1.00D-01 BMatC= 8.99D-10 BMatP= 3.07D-08
 IDIUse=1 WtCom= 1.00D+00 WtEn= 0.00D+00
 Coeff-Com: -0.270D-04 0.531D-04 0.279D-03 0.595D-03-0.701D-03-0.194D-01
 Coeff-Com: -0.294D-01 0.734D-01 0.975D+00
 Coeff:     -0.270D-04 0.531D-04 0.279D-03 0.595D-03-0.701D-03-0.194D-01
 Coeff:     -0.294D-01 0.734D-01 0.975D+00
 Gap=     0.332 Goal=   None    Shift=    0.000
 RMSDP=3.63D-07 MaxDP=9.21D-06 DE=-2.36D-08 OVMax= 1.26D-05

 Cycle  10  Pass 1  IDiag  1:
 E= -644.139159313794     Delta-E=       -0.000000001146 Rises=F Damp=F
 DIIS: error= 2.51D-07 at cycle  10 NSaved=  10.
 NSaved=10 IEnMin=10 EnMin= -644.139159313794     IErMin=10 ErrMin= 2.51D-07
 ErrMax= 2.51D-07  0.00D+00 EMaxC= 1.00D-01 BMatC= 1.91D-11 BMatP= 8.99D-10
 IDIUse=1 WtCom= 1.00D+00 WtEn= 0.00D+00
 Coeff-Com: -0.314D-05 0.503D-05 0.109D-03 0.175D-03 0.479D-03-0.376D-02
 Coeff-Com: -0.121D-01-0.173D-01 0.292D-01 0.100D+01
 Coeff:     -0.314D-05 0.503D-05 0.109D-03 0.175D-03 0.479D-03-0.376D-02
 Coeff:     -0.121D-01-0.173D-01 0.292D-01 0.100D+01
 Gap=     0.332 Goal=   None    Shift=    0.000
 RMSDP=7.28D-08 MaxDP=1.25D-06 DE=-1.15D-09 OVMax= 3.08D-06

 Cycle  11  Pass 1  IDiag  1:
 E= -644.139159313830     Delta-E=       -0.000000000035 Rises=F Damp=F
 DIIS: error= 2.47D-07 at cycle  11 NSaved=  11.
 NSaved=11 IEnMin=11 EnMin= -644.139159313830     IErMin=11 ErrMin= 2.47D-07
 ErrMax= 2.47D-07  0.00D+00 EMaxC= 1.00D-01 BMatC= 8.27D-12 BMatP= 1.91D-11
 IDIUse=1 WtCom= 1.00D+00 WtEn= 0.00D+00
 Coeff-Com:  0.381D-06-0.110D-05 0.327D-04 0.434D-04 0.250D-03-0.603D-03
 Coeff-Com: -0.364D-02-0.113D-01-0.444D-01 0.461D+00 0.599D+00
 Coeff:      0.381D-06-0.110D-05 0.327D-04 0.434D-04 0.250D-03-0.603D-03
 Coeff:     -0.364D-02-0.113D-01-0.444D-01 0.461D+00 0.599D+00
 Gap=     0.332 Goal=   None    Shift=    0.000
 RMSDP=1.72D-08 MaxDP=4.29D-07 DE=-3.55D-11 OVMax= 6.56D-07

 Cycle  12  Pass 1  IDiag  1:
 E= -644.139159313833     Delta-E=       -0.000000000003 Rises=F Damp=F
 DIIS: error= 7.66D-08 at cycle  12 NSaved=  12.
 NSaved=12 IEnMin=12 EnMin= -644.139159313833     IErMin=12 ErrMin= 7.66D-08
 ErrMax= 7.66D-08  0.00D+00 EMaxC= 1.00D-01 BMatC= 8.50D-13 BMatP= 8.27D-12
 IDIUse=1 WtCom= 1.00D+00 WtEn= 0.00D+00
 Coeff-Com:  0.725D-06-0.135D-05-0.573D-05-0.122D-04 0.110D-04 0.423D-03
 Coeff-Com:  0.873D-03-0.101D-02-0.232D-01-0.145D-02 0.239D+00 0.785D+00
 Coeff:      0.725D-06-0.135D-05-0.573D-05-0.122D-04 0.110D-04 0.423D-03
 Coeff:      0.873D-03-0.101D-02-0.232D-01-0.145D-02 0.239D+00 0.785D+00
 Gap=     0.332 Goal=   None    Shift=    0.000
 RMSDP=7.80D-09 MaxDP=1.60D-07 DE=-3.41D-12 OVMax= 3.12D-07

 SCF Done:  E(RM062X) =  -644.139159314     A.U. after   12 cycles
            NFock= 12  Conv=0.78D-08     -V/T= 2.0025
 KE= 6.425146350055D+02 PE=-2.087477249333D+03 EE= 5.209239890098D+02
 Leave Link  502 at Sun Nov 27 18:02:14 2022, MaxMem= 10485760000 cpu:              84.4 elap:               6.6
 (Enter /data0/home/software/g16/l601.exe)
 Copying SCF densities to generalized density rwf, IOpCl= 0 IROHF=0.

 **********************************************************************

            Population analysis using the SCF density.

 **********************************************************************

 Alpha  occ. eigenvalues --  -78.16751 -19.70026 -19.68225 -19.67861 -19.58057
 Alpha  occ. eigenvalues --   -6.97542  -5.09458  -5.09437  -5.09209  -1.24477
 Alpha  occ. eigenvalues --   -1.17426  -1.16355  -1.08490  -0.72860  -0.65890
 Alpha  occ. eigenvalues --   -0.63760  -0.58549  -0.52815  -0.51890  -0.50044
 Alpha  occ. eigenvalues --   -0.46298  -0.45210  -0.44785  -0.38083  -0.36886
 Alpha virt. eigenvalues --   -0.03655   0.01041   0.02674   0.04659   0.07988
 Alpha virt. eigenvalues --    0.10100   0.10530   0.12482   0.15701   0.16953
 Alpha virt. eigenvalues --    0.17777   0.18414   0.19643   0.20053   0.21489
 Alpha virt. eigenvalues --    0.23065   0.24205   0.25613   0.25899   0.27603
 Alpha virt. eigenvalues --    0.28391   0.29136   0.30076   0.32097   0.33971
 Alpha virt. eigenvalues --    0.34341   0.36672   0.38263   0.40451   0.42541
 Alpha virt. eigenvalues --    0.44205   0.45949   0.52041   0.57084   0.57742
 Alpha virt. eigenvalues --    0.73623   0.75820   0.77163   0.86161   0.97346
 Alpha virt. eigenvalues --    0.99863   1.01312   1.05632   1.05943   1.11569
 Alpha virt. eigenvalues --    1.13137   1.15710   1.18634   1.19684   1.20442
 Alpha virt. eigenvalues --    1.21332   1.23071   1.26010   1.27075   1.33013
 Alpha virt. eigenvalues --    1.34174   1.41896   1.43531   1.50170   1.52225
 Alpha virt. eigenvalues --    1.53047   1.55093   1.58066   1.59585   1.63733
 Alpha virt. eigenvalues --    1.66472   1.66827   1.70107   1.73622   1.82418
 Alpha virt. eigenvalues --    1.83685   1.84349   1.88099   1.91599   1.96432
 Alpha virt. eigenvalues --    1.98632   2.04510   2.09986   2.12748   2.14004
 Alpha virt. eigenvalues --    2.17664   2.21632   2.25814   2.37819   2.43398
 Alpha virt. eigenvalues --    2.45072   2.55715   2.61239   2.61580   2.72227
 Alpha virt. eigenvalues --    2.72253   2.79935   2.85951   2.93424   2.96027
 Alpha virt. eigenvalues --    5.01037   5.03779   5.06441   5.06837   5.10676
 Alpha virt. eigenvalues --    5.13521   5.17245   5.23736   5.35392   5.41018
 Alpha virt. eigenvalues --    5.51279   5.52311   6.71924   6.73980   6.75261
 Alpha virt. eigenvalues --    6.76064   6.78450   6.80620   6.82371   6.85850
 Alpha virt. eigenvalues --    6.91839   6.93401   6.94476   6.98635   6.99858
 Alpha virt. eigenvalues --    7.02012   7.10618   7.25071   7.25462   7.28356
 Alpha virt. eigenvalues --    7.31332   7.40687   7.64463  14.22803  14.24957
 Alpha virt. eigenvalues --   14.34594  49.97119  49.99871  50.00816  50.10260
 Alpha virt. eigenvalues --  163.85432
          Condensed to atoms (all electrons):
              26         27         28         29         30         31
    26  P   12.454957   0.547714   0.187508   0.041420   0.237277  -0.001680
    27  O    0.547714   8.158258  -0.033697   0.001729  -0.012135  -0.013905
    28  O    0.187508  -0.033697   8.086634   0.227007   0.007574   0.001978
    29  H    0.041420   0.001729   0.227007   0.449886  -0.013428   0.001279
    30  O    0.237277  -0.012135   0.007574  -0.013428   8.049235   0.254202
    31  H   -0.001680  -0.013905   0.001978   0.001279   0.254202   0.436854
    32  O    0.238100  -0.012641   0.009771  -0.013091   0.042625  -0.002404
    33  H    0.001293  -0.014722   0.001038   0.001862  -0.004858  -0.004068
              32         33
    26  P    0.238100   0.001293
    27  O   -0.012641  -0.014722
    28  O    0.009771   0.001038
    29  H   -0.013091   0.001862
    30  O    0.042625  -0.004858
    31  H   -0.002404  -0.004068
    32  O    8.041877   0.256478
    33  H    0.256478   0.457850
 Mulliken charges:
               1
     1  C    0.000000
     2  C    0.000000
     3  C    0.000000
     4  N    0.000000
     5  H    0.000000
     6  H    0.000000
     7  H    0.000000
     8  C    0.000000
     9  H    0.000000
    10  H    0.000000
    11  H    0.000000
    12  N    0.000000
    13  C    0.000000
    14  H    0.000000
    15  H    0.000000
    16  C    0.000000
    17  H    0.000000
    18  H    0.000000
    19  C    0.000000
    20  H    0.000000
    21  H    0.000000
    22  S    0.000000
    23  O    0.000000
    24  O    0.000000
    25  O    0.000000
    26  P    1.293411
    27  O   -0.620602
    28  O   -0.487811
    29  H    0.303337
    30  O   -0.560492
    31  H    0.327744
    32  O   -0.560715
    33  H    0.305128
 Sum of Mulliken charges =  -0.00000
 Mulliken charges with hydrogens summed into heavy atoms:
               1
     1  C    0.000000
     2  C    0.000000
     3  C    0.000000
     4  N    0.000000
     8  C    0.000000
    12  N    0.000000
    13  C    0.000000
    16  C    0.000000
    19  C    0.000000
    22  S    0.000000
    23  O    0.000000
    24  O    0.000000
    25  O    0.000000
    26  P    1.293411
    27  O   -0.620602
    28  O   -0.184474
    30  O   -0.232748
    32  O   -0.255587
         Mulliken charges condensed to fragments:
      1      0.000000
      2     -0.000000
 Electronic spatial extent (au):  <R**2>=         140978.9334
 Charge=             -0.0000 electrons
 Dipole moment (field-independent basis, Debye):
    X=             -4.2664    Y=             -3.4826    Z=             -0.4259  Tot=              5.5237
 Quadrupole moment (field-independent basis, Debye-Ang):
   XX=           -186.1238   YY=           -137.4711   ZZ=            -49.5662
   XY=           -128.0029   XZ=            -77.4612   YZ=            -60.7838
 Traceless Quadrupole moment (field-independent basis, Debye-Ang):
   XX=            -61.7368   YY=            -13.0841   ZZ=             74.8208
   XY=           -128.0029   XZ=            -77.4612   YZ=            -60.7838
 Octapole moment (field-independent basis, Debye-Ang**2):
  XXX=          -5971.7798  YYY=          -3761.2092  ZZZ=          -2007.0902  XYY=          -3485.1233
  XXY=          -3945.5222  XXZ=          -3159.8870  XZZ=          -2053.9664  YZZ=          -1566.6189
  YYZ=          -2251.7588  XYZ=          -2155.1480
 Hexadecapole moment (field-independent basis, Debye-Ang**3):
 XXXX=        -167883.4340 YYYY=         -87368.1830 ZZZZ=         -59493.3322 XXXY=        -109919.3715
 XXXZ=         -98886.0117 YYYX=         -83475.9748 YYYZ=         -60551.5980 ZZZX=         -55748.6829
 ZZZY=         -42139.4140 XXYY=         -87645.8777 XXZZ=         -65906.8003 YYZZ=         -44240.3406
 XXYZ=         -65183.5410 YYXZ=         -56849.9055 ZZXY=         -45728.6135
 N-N= 2.798994660035D+02 E-N=-2.087477253006D+03  KE= 6.425146350055D+02
 No NMR shielding tensors so no spin-rotation constants.
 Leave Link  601 at Sun Nov 27 18:02:14 2022, MaxMem= 10485760000 cpu:               1.2 elap:               0.1
 (Enter /data0/home/software/g16/l122.exe)
 CPIOFr:  IOpCl= 0 IRwI=-1 IRwCP=  731 ICalc=  4 LCPTot=      536908 Len1MO=     1413956 IndFrg=     7606688
 Restoring MOs from calculation   1 to rwf.
 CPIOFr:  IOpCl= 0 IRwI=-2 IRwCP=  731 ICalc=  0 LCPTot=      536908 Len1MO=     1413956 IndFrg=     1950864
 Counterpoise corrected energy =   -1651.418734536715
                   BSSE energy =       0.002910721971
              sum of fragments =   -1651.347682757494
           complexation energy =     -46.41 kcal/mole (raw)
           complexation energy =     -44.59 kcal/mole (corrected)
 Leave Link  122 at Sun Nov 27 18:02:14 2022, MaxMem= 10485760000 cpu:               0.3 elap:               0.0
 (Enter /data0/home/software/g16/l9999.exe)
 1\1\GINC-LOCALHOST\SP\RM062X\6-311+G(2d,p)\C7H15N2O7P1S1\WUHANYU\27-No
 v-2022\0\\#p M062X/6-311+G(2d,p) nosymm em=GD3 counterpoise=2\\Title C
 ard Required\\0,1\C,0,15.23507,18.766929,14.630815\C,0,14.252417,18.61
 7782,15.597688\C,0,15.896362,17.132374,16.037264\N,0,16.245842,17.8456
 78,14.923521\H,0,15.279797,19.43274,13.790558\H,0,13.321255,19.135692,
 15.721441\H,0,16.489198,16.353571,16.541216\C,0,17.428404,17.628886,14
 .109843\H,0,17.584238,18.45188,13.396053\H,0,18.340064,17.533815,14.74
 2187\H,0,17.332706,16.67436,13.536573\N,0,14.685137,17.61567,16.472307
 \C,0,13.85366,16.987529,17.500171\H,0,13.436133,17.780766,18.158452\H,
 0,14.501546,16.338169,18.148861\C,0,12.724085,16.159247,16.848352\H,0,
 11.756948,16.437568,17.313555\H,0,12.617755,16.434579,15.774296\C,0,12
 .933837,14.660229,16.972849\H,0,12.079074,14.118307,16.52458\H,0,12.95
 1764,14.345255,18.032012\S,0,14.454483,14.044488,16.184953\O,0,14.1008
 54,12.760469,15.605811\O,0,14.909648,15.099795,15.217819\O,0,15.44681,
 14.030367,17.309884\P,0,18.510158,14.270184,15.689006\O,0,18.779547,15
 .612746,16.210267\O,0,19.842853,13.593839,15.136182\H,0,19.585293,12.6
 57302,14.784054\O,0,17.931443,13.193779,16.677833\H,0,16.965273,13.523
 856,17.04156\O,0,17.596567,14.292199,14.375251\H,0,16.621796,14.559978
 ,14.604809\\Version=ES64L-G16RevA.03\HF=-644.1391593\RMSD=7.797e-09\Di
 pole=-2.4250251,3.856025,-0.25807\Quadrupole=-171.5008187,208.1654534,
 -36.6646347,35.0236963,-91.3106216,104.7630169\PG=C01 [X(C7H15N2O7P1S1
 )]\\@


 THERE ARE PEOPLE SO ADDICTED TO EXAGERATING THEY
 CAN'T TELL THE TRUTH WITHOUT LYING. -- FORTUNE COOKIE
 Job cpu time:       0 days  2 hours 47 minutes 21.9 seconds.
 Elapsed time:       0 days  0 hours 10 minutes 31.5 seconds.
 File lengths (MBytes):  RWF=    264 Int=      0 D2E=      0 Chk=     79 Scr=      1
 Normal termination of Gaussian 16 at Sun Nov 27 18:02:15 2022.
