 Entering Gaussian System, Link 0=g16
 Initial command:
 /data0/home/wuhanyu/software/g16/l1.exe "/data0/home/wuhanyu/software/g16/scratch/Gau-834802.inp" -scrdir="/data0/home/wuhanyu/software/g16/scratch/"
 Default is to use a total of  22 processors:
                               22 via shared-memory
                                1 via Linda
 Entering Link 1 = /data0/home/wuhanyu/software/g16/l1.exe PID=    834803.
  
 Copyright (c) 1988,1990,1992,1993,1995,1998,2003,2009,2016,
            Gaussian, Inc.  All Rights Reserved.
  
 This is part of the Gaussian(R) 16 program.  It is based on
 the Gaussian(R) 09 system (copyright 2009, Gaussian, Inc.),
 the Gaussian(R) 03 system (copyright 2003, Gaussian, Inc.),
 the Gaussian(R) 98 system (copyright 1998, Gaussian, Inc.),
 the Gaussian(R) 94 system (copyright 1995, Gaussian, Inc.),
 the Gaussian 92(TM) system (copyright 1992, Gaussian, Inc.),
 the Gaussian 90(TM) system (copyright 1990, Gaussian, Inc.),
 the Gaussian 88(TM) system (copyright 1988, Gaussian, Inc.),
 the Gaussian 86(TM) system (copyright 1986, Carnegie Mellon
 University), and the Gaussian 82(TM) system (copyright 1983,
 Carnegie Mellon University). Gaussian is a federally registered
 trademark of Gaussian, Inc.
  
 This software contains proprietary and confidential information,
 including trade secrets, belonging to Gaussian, Inc.
  
 This software is provided under written license and may be
 used, copied, transmitted, or stored only in accord with that
 written license.
  
 The following legend is applicable only to US Government
 contracts under FAR:
  
                    RESTRICTED RIGHTS LEGEND
  
 Use, reproduction and disclosure by the US Government is
 subject to restrictions as set forth in subparagraphs (a)
 and (c) of the Commercial Computer Software - Restricted
 Rights clause in FAR 52.227-19.
  
 Gaussian, Inc.
 340 Quinnipiac St., Bldg. 40, Wallingford CT 06492
  
  
 ---------------------------------------------------------------
 Warning -- This program may not be used in any manner that
 competes with the business of Gaussian, Inc. or will provide
 assistance to any competitor of Gaussian, Inc.  The licensee
 of this program is prohibited from giving any competitor of
 Gaussian, Inc. access to this program.  By using this program,
 the user acknowledges that Gaussian, Inc. is engaged in the
 business of creating and licensing software in the field of
 computational chemistry and represents and warrants to the
 licensee that it is not a competitor of Gaussian, Inc. and that
 it will not use this program in any manner prohibited above.
 ---------------------------------------------------------------
  

 Cite this work as:
 Gaussian 16, Revision A.03,
 M. J. Frisch, G. W. Trucks, H. B. Schlegel, G. E. Scuseria, 
 M. A. Robb, J. R. Cheeseman, G. Scalmani, V. Barone, 
 G. A. Petersson, H. Nakatsuji, X. Li, M. Caricato, A. V. Marenich, 
 J. Bloino, B. G. Janesko, R. Gomperts, B. Mennucci, H. P. Hratchian, 
 J. V. Ortiz, A. F. Izmaylov, J. L. Sonnenberg, D. Williams-Young, 
 F. Ding, F. Lipparini, F. Egidi, J. Goings, B. Peng, A. Petrone, 
 T. Henderson, D. Ranasinghe, V. G. Zakrzewski, J. Gao, N. Rega, 
 G. Zheng, W. Liang, M. Hada, M. Ehara, K. Toyota, R. Fukuda, 
 J. Hasegawa, M. Ishida, T. Nakajima, Y. Honda, O. Kitao, H. Nakai, 
 T. Vreven, K. Throssell, J. A. Montgomery, Jr., J. E. Peralta, 
 F. Ogliaro, M. J. Bearpark, J. J. Heyd, E. N. Brothers, K. N. Kudin, 
 V. N. Staroverov, T. A. Keith, R. Kobayashi, J. Normand, 
 K. Raghavachari, A. P. Rendell, J. C. Burant, S. S. Iyengar, 
 J. Tomasi, M. Cossi, J. M. Millam, M. Klene, C. Adamo, R. Cammi, 
 J. W. Ochterski, R. L. Martin, K. Morokuma, O. Farkas, 
 J. B. Foresman, and D. J. Fox, Gaussian, Inc., Wallingford CT, 2016.
 
 ******************************************
 Gaussian 16:  ES64L-G16RevA.03 25-Dec-2016
                22-May-2022 
 ******************************************
 %nproc=24
 Will use up to   24 processors via shared memory.
 %mem=100GB
 ---------------------------------------------------
 #p M062X/6-311+G(2d,p) nosymm em=GD3 counterpoise=4
 ---------------------------------------------------
 1/38=1,62=4,172=1/1;
 2/12=2,15=1,17=6,18=5,40=1/2;
 1/38=1,53=2,62=4,63=1/22;
 3/5=4,6=6,7=112,11=2,25=1,30=1,74=-55,124=31/1,2,3;
 4//1;
 5/5=2,38=5/2;
 6/7=2,8=2,9=2,10=2,28=1/1;
 1/53=2,62=4,63=1/22;
 3/5=7,6=11,7=112,11=2,25=1,30=1,74=-55,82=7,124=31/1,2,3;
 4//1;
 5/5=2,38=5/2;
 6/7=2,8=2,9=2,10=2,28=1/1;
 1/53=2,62=4,63=1/22(-4);
 99/5=1,9=1/99;
 Leave Link    1 at Sun May 22 21:44:47 2022, MaxMem= 13421772800 cpu:               0.8 elap:               0.1
 (Enter /data0/home/wuhanyu/software/g16/l101.exe)
 -------------------
 Title Card Required
 -------------------
 Symbolic Z-matrix:
 Charge =  0 Multiplicity = 1 in supermolecule
 Charge =  0 Multiplicity = 1 in fragment      1.
 Charge =  0 Multiplicity = 1 in fragment      2.
 Charge =  0 Multiplicity = 1 in fragment      3.
 Charge =  0 Multiplicity = 1 in fragment      4.
 C                     9.14548   1.3795    16.78606    
 C                     9.37377   0.9332    18.08457    
 C                     9.93245   3.11143   17.98872    
 N                     9.47998   2.73096   16.75541    
 H                     8.82104   0.83391   15.91337    
 H                     9.25379  -0.05287   18.50803    
 H                     10.30897   4.10044   18.26056    
 C                     9.37809   3.60502   15.60154    
 H                     10.23429   4.3146    15.55758    
 H                     9.41892   3.01663   14.65712    
 H                     8.43526   4.17796   15.62511    
 N                     9.85488   2.01952   18.81363    
 C                     10.24129   1.99191   20.22468    
 H                     9.36814   1.63269   20.81895    
 H                     10.46049   3.03609   20.56934    
 C                     11.46173   1.08904   20.47335    
 H                     11.44392   0.7499    21.52895    
 H                     11.39343   0.15681   19.86584    
 C                     12.78494   1.7941    20.18589    
 H                     13.63107   1.21744   20.61055    
 H                     12.82553   2.79534   20.65315    
 C                     12.97784   1.89943   18.67414    
 O                     12.63867   2.98126   18.12882    
 O                     13.41952   0.90682   18.07661    
 P                     12.40191   1.60852   14.85629    
 O                     11.14925   0.86264   15.02316    
 O                     13.72841   0.94258   15.39495    
 H                     13.67009   0.91335   16.46813    
 O                     12.6898   1.85509   13.30798    
 H                     13.58756   2.36203   13.24124    
 O                     12.3578   3.08731   15.4455    
 H                     12.54636   3.05473   16.49011    
 O                     11.29774  -0.97046   17.6473    
 H                     12.10655  -0.47934   17.86651    
 H                     11.16106  -0.74962   16.72148    
 O                     11.66087   4.91775   19.63979    
 H                     12.23624   5.6706    19.60911    
 H                     12.12288   4.2137    19.10651    
 
 ITRead=  0  0  0  0  0  0  0  0  0  0  0  0  0  0  0  0  0  0  0  0
 ITRead=  0  0  0  0  0  0  0  0  0  0  0  0  0  0  0  0  0  0
 MicOpt= -1 -1 -1 -1 -1 -1 -1 -1 -1 -1 -1 -1 -1 -1 -1 -1 -1 -1 -1 -1
 MicOpt= -1 -1 -1 -1 -1 -1 -1 -1 -1 -1 -1 -1 -1 -1 -1 -1 -1 -1
 NAtoms=     38 NQM=       38 NQMF=       0 NMMI=      0 NMMIF=      0
                NMic=       0 NMicF=      0.
                    Isotopes and Nuclear Properties:
 (Nuclear quadrupole moments (NQMom) in fm**2, nuclear magnetic moments (NMagM)
  in nuclear magnetons)

  Atom         1           2           3           4           5           6           7           8           9          10
 IAtWgt=          12          12          12          14           1           1           1          12           1           1
 AtmWgt=  12.0000000  12.0000000  12.0000000  14.0030740   1.0078250   1.0078250   1.0078250  12.0000000   1.0078250   1.0078250
 NucSpn=           0           0           0           2           1           1           1           0           1           1
 AtZEff=  -0.0000000  -0.0000000  -0.0000000  -0.0000000  -0.0000000  -0.0000000  -0.0000000  -0.0000000  -0.0000000  -0.0000000
 NQMom=    0.0000000   0.0000000   0.0000000   2.0440000   0.0000000   0.0000000   0.0000000   0.0000000   0.0000000   0.0000000
 NMagM=    0.0000000   0.0000000   0.0000000   0.4037610   2.7928460   2.7928460   2.7928460   0.0000000   2.7928460   2.7928460
 AtZNuc=   6.0000000   6.0000000   6.0000000   7.0000000   1.0000000   1.0000000   1.0000000   6.0000000   1.0000000   1.0000000

  Atom        11          12          13          14          15          16          17          18          19          20
 IAtWgt=           1          14          12           1           1          12           1           1          12           1
 AtmWgt=   1.0078250  14.0030740  12.0000000   1.0078250   1.0078250  12.0000000   1.0078250   1.0078250  12.0000000   1.0078250
 NucSpn=           1           2           0           1           1           0           1           1           0           1
 AtZEff=  -0.0000000  -0.0000000  -0.0000000  -0.0000000  -0.0000000  -0.0000000  -0.0000000  -0.0000000  -0.0000000  -0.0000000
 NQMom=    0.0000000   2.0440000   0.0000000   0.0000000   0.0000000   0.0000000   0.0000000   0.0000000   0.0000000   0.0000000
 NMagM=    2.7928460   0.4037610   0.0000000   2.7928460   2.7928460   0.0000000   2.7928460   2.7928460   0.0000000   2.7928460
 AtZNuc=   1.0000000   7.0000000   6.0000000   1.0000000   1.0000000   6.0000000   1.0000000   1.0000000   6.0000000   1.0000000

  Atom        21          22          23          24          25          26          27          28          29          30
 IAtWgt=           1          12          16          16          31          16          16           1          16           1
 AtmWgt=   1.0078250  12.0000000  15.9949146  15.9949146  30.9737634  15.9949146  15.9949146   1.0078250  15.9949146   1.0078250
 NucSpn=           1           0           0           0           1           0           0           1           0           1
 AtZEff=  -0.0000000  -0.0000000  -0.0000000  -0.0000000  -0.0000000  -0.0000000  -0.0000000  -0.0000000  -0.0000000  -0.0000000
 NQMom=    0.0000000   0.0000000   0.0000000   0.0000000   0.0000000   0.0000000   0.0000000   0.0000000   0.0000000   0.0000000
 NMagM=    2.7928460   0.0000000   0.0000000   0.0000000   1.1316000   0.0000000   0.0000000   2.7928460   0.0000000   2.7928460
 AtZNuc=   1.0000000   6.0000000   8.0000000   8.0000000  15.0000000   8.0000000   8.0000000   1.0000000   8.0000000   1.0000000

  Atom        31          32          33          34          35          36          37          38
 IAtWgt=          16           1          16           1           1          16           1           1
 AtmWgt=  15.9949146   1.0078250  15.9949146   1.0078250   1.0078250  15.9949146   1.0078250   1.0078250
 NucSpn=           0           1           0           1           1           0           1           1
 AtZEff=  -0.0000000  -0.0000000  -0.0000000  -0.0000000  -0.0000000  -0.0000000  -0.0000000  -0.0000000
 NQMom=    0.0000000   0.0000000   0.0000000   0.0000000   0.0000000   0.0000000   0.0000000   0.0000000
 NMagM=    0.0000000   2.7928460   0.0000000   2.7928460   2.7928460   0.0000000   2.7928460   2.7928460
 AtZNuc=   8.0000000   1.0000000   8.0000000   1.0000000   1.0000000   8.0000000   1.0000000   1.0000000
 Leave Link  101 at Sun May 22 21:44:47 2022, MaxMem= 13421772800 cpu:               2.1 elap:               0.1
 (Enter /data0/home/wuhanyu/software/g16/l202.exe)
                          Input orientation:                          
 ---------------------------------------------------------------------
 Center     Atomic      Atomic             Coordinates (Angstroms)
 Number     Number       Type             X           Y           Z
 ---------------------------------------------------------------------
      1          6           0        9.145479    1.379504   16.786063
      2          6           0        9.373766    0.933200   18.084569
      3          6           0        9.932450    3.111434   17.988718
      4          7           0        9.479984    2.730955   16.755414
      5          1           0        8.821035    0.833913   15.913372
      6          1           0        9.253789   -0.052866   18.508030
      7          1           0       10.308973    4.100437   18.260564
      8          6           0        9.378094    3.605017   15.601536
      9          1           0       10.234288    4.314602   15.557581
     10          1           0        9.418919    3.016635   14.657118
     11          1           0        8.435262    4.177961   15.625109
     12          7           0        9.854883    2.019522   18.813634
     13          6           0       10.241290    1.991912   20.224676
     14          1           0        9.368137    1.632690   20.818952
     15          1           0       10.460495    3.036086   20.569340
     16          6           0       11.461732    1.089042   20.473347
     17          1           0       11.443924    0.749895   21.528946
     18          1           0       11.393427    0.156810   19.865839
     19          6           0       12.784938    1.794095   20.185887
     20          1           0       13.631070    1.217437   20.610551
     21          1           0       12.825532    2.795341   20.653148
     22          6           0       12.977844    1.899428   18.674138
     23          8           0       12.638672    2.981263   18.128825
     24          8           0       13.419520    0.906822   18.076614
     25         15           0       12.401908    1.608519   14.856287
     26          8           0       11.149247    0.862638   15.023164
     27          8           0       13.728413    0.942577   15.394953
     28          1           0       13.670094    0.913349   16.468126
     29          8           0       12.689798    1.855086   13.307982
     30          1           0       13.587559    2.362027   13.241239
     31          8           0       12.357803    3.087310   15.445504
     32          1           0       12.546362    3.054729   16.490107
     33          8           0       11.297737   -0.970458   17.647298
     34          1           0       12.106548   -0.479341   17.866512
     35          1           0       11.161057   -0.749618   16.721483
     36          8           0       11.660870    4.917753   19.639794
     37          1           0       12.236236    5.670599   19.609106
     38          1           0       12.122884    4.213697   19.106511
 ---------------------------------------------------------------------
                    Distance matrix (angstroms):
                    1          2          3          4          5
     1  C    0.000000
     2  C    1.391912   0.000000
     3  C    2.250619   2.250782   0.000000
     4  N    1.392571   2.238271   1.367673   0.000000
     5  H    1.079131   2.242647   3.275577   2.177617   0.000000
     6  H    2.242451   1.079833   3.277661   3.297345   2.775951
     7  H    3.306259   3.307110   1.092610   2.197312   4.288758
     8  C    2.531822   3.647476   2.499915   1.451138   2.843690
     9  H    3.362956   4.308137   2.729312   2.124080   3.773469
    10  H    2.699514   4.011254   3.372278   2.118534   2.588419
    11  H    3.111846   4.178302   2.994278   2.112548   3.378546
    12  N    2.241411   1.393953   1.370684   2.209741   3.299398
    13  C    3.660588   2.540379   2.519567   3.627885   4.684595
    14  H    4.046959   2.822440   3.242739   4.210824   5.000208
    15  H    4.334365   3.431792   2.635170   3.949752   5.405130
    16  C    4.364110   3.176500   3.549951   4.521751   5.275580
    17  H    5.307937   4.022796   4.516042   5.528858   6.198490
    18  H    4.004157   2.802630   3.793131   4.467911   4.764207
    19  C    4.997635   4.097898   3.834009   4.854747   5.906679
    20  H    5.896906   4.958428   4.913351   5.863816   6.734019
    21  H    5.522837   4.688268   3.945760   5.137039   6.507586
    22  C    4.303739   3.777640   3.348609   4.075287   5.102569
    23  O    4.070754   3.854365   2.712971   3.453436   4.908533
    24  O    4.489585   4.045848   4.126463   4.537948   5.082420
    25  P    3.792204   4.477444   4.262523   3.661173   3.813148
    26  O    2.718465   3.539705   3.915634   3.045938   2.492763
    27  O    4.809301   5.118308   5.083394   4.806069   4.935881
    28  H    4.559663   4.590394   4.594971   4.576379   4.881335
    29  O    4.988529   5.887421   5.575901   4.791121   4.774744
    30  H    5.767426   6.576887   6.038211   5.418275   5.674080
    31  O    3.877206   4.528723   3.514379   3.181933   4.219648
    32  H    3.802627   4.136249   3.013567   3.094817   4.375238
    33  O    3.300949   2.741675   4.317687   4.219021   3.520839
    34  H    3.659317   3.083978   4.199441   4.294110   4.041533
    35  H    2.932556   2.807898   4.245360   3.865430   2.938761
    36  O    5.195207   4.850385   2.996043   4.225872   6.215194
    37  H    5.994652   5.741158   3.805577   4.937812   6.979655
    38  H    4.720389   4.400418   2.694893   3.835505   5.702743
                    6          7          8          9         10
     6  H    0.000000
     7  H    4.292386   0.000000
     8  C    4.673678   2.860491   0.000000
     9  H    5.361092   2.712483   1.112884   0.000000
    10  H    4.927335   3.866736   1.113457   1.777745   0.000000
    11  H    5.184700   3.234567   1.103518   1.805471   1.803681
    12  N    2.179335   2.200521   3.613682   4.001652   4.296618
    13  C    2.846603   2.882394   4.971985   5.213129   5.720494
    14  H    2.862610   3.676996   5.577778   5.968659   6.315543
    15  H    3.904710   2.546811   5.116087   5.177210   6.003301
    16  C    3.168823   3.910724   5.865682   6.006298   6.458887
    17  H    3.816680   4.816281   6.895909   7.058864   7.514039
    18  H    2.542766   4.393762   5.842600   6.098518   6.261634
    19  C    4.323827   3.893133   5.991853   5.854911   6.587259
    20  H    5.019448   4.987029   6.991321   6.831037   7.511504
    21  H    5.046896   3.709556   6.169213   5.915023   6.899736
    22  C    4.208043   3.484014   5.030717   4.803446   5.481838
    23  O    4.561487   2.587934   4.172245   3.764326   4.735062
    24  O    4.296561   4.461896   5.453383   5.301339   5.670015
    25  P    5.099616   4.709473   3.699304   3.537411   3.304646
    26  O    4.071265   4.655122   3.315440   3.610929   2.787064
    27  O    5.541156   5.465929   5.104561   4.858591   4.839200
    28  H    4.959690   4.966639   5.139778   4.919591   5.077012
    29  O    6.518201   5.936160   4.392042   4.139981   3.723978
    30  H    7.235493   6.242181   4.983535   4.519117   4.450931
    31  O    5.373516   3.626113   3.028371   2.455224   3.043614
    32  H    4.956833   3.038739   3.336210   2.793308   3.625217
    33  O    2.400116   5.202665   5.367042   5.781842   5.326166
    34  H    2.954938   4.935678   5.408933   5.640781   5.453935
    35  H    2.704604   5.159249   4.836950   5.278247   4.634793
    36  O    5.637551   2.097119   4.820982   4.366164   5.785124
    37  H    6.547168   2.828130   5.338185   4.718197   6.285140
    38  H    5.176239   2.004676   4.493241   4.021428   5.342423
                   11         12         13         14         15
    11  H    0.000000
    12  N    4.103763   0.000000
    13  C    5.403384   1.463254   0.000000
    14  H    5.858726   2.099491   1.115617   0.000000
    15  H    5.463595   2.117232   1.121224   1.795849   0.000000
    16  C    6.496642   2.490463   1.538340   2.190465   2.191500
    17  H    7.460494   3.392628   2.165653   2.364807   2.667329
    18  H    6.550129   2.635137   2.196311   2.681128   3.107331
    19  C    6.738189   3.243319   2.551623   3.478700   2.663196
    20  H    7.785612   4.258150   3.498474   4.288177   3.655370
    21  H    6.816692   3.579171   2.739962   3.651415   2.378735
    22  C    5.926495   3.128381   3.146657   4.207299   3.349750
    23  O    5.036798   3.023804   3.334494   4.444303   3.271632
    24  O    6.446166   3.806302   3.986570   4.945807   4.416251
    25  P    4.788256   4.724072   5.799557   6.690121   6.200484
    26  O    4.326594   4.169103   5.399572   6.111996   5.996526
    27  O    6.207909   5.277445   6.048748   6.993427   6.468102
    28  H    6.226703   4.613118   5.199198   6.160680   5.623833
    29  O    5.372700   6.194835   7.338567   8.215690   7.687124
    30  H    5.960421   6.715785   7.752606   8.703861   7.995871
    31  O    4.075304   4.330021   5.340413   6.318858   5.464073
    32  H    4.348680   3.703308   4.515522   5.555377   4.581630
    33  O    6.228100   3.518828   4.066275   4.534217   5.029085
    34  H    6.339771   3.494474   3.891942   4.547139   4.730010
    35  H    5.736988   3.708278   4.542501   5.067465   5.443193
    36  O    5.202839   3.513385   3.304215   4.175964   2.417773
    37  H    5.705051   4.431025   4.229831   5.098473   3.319031
    38  H    5.071488   3.169229   3.118817   4.145200   2.508022
                   16         17         18         19         20
    16  C    0.000000
    17  H    1.108886   0.000000
    18  H    1.114804   1.766416   0.000000
    19  C    1.526633   2.166213   2.172426   0.000000
    20  H    2.177461   2.417778   2.585841   1.108519   0.000000
    21  H    2.191742   2.619105   3.103647   1.105656   1.772142
    22  C    2.488468   3.438643   2.639554   1.527643   2.154417
    23  O    3.234574   4.238779   3.541947   2.379552   3.202327
    24  O    3.100075   3.980729   2.805155   2.374654   2.561654
    25  P    5.718842   6.795539   5.312260   5.346568   5.897062
    26  O    5.463827   6.513428   4.899930   5.495162   6.124069
    27  O    5.563217   6.548426   5.104744   4.956640   5.223743
    28  H    4.577065   5.531225   4.159329   3.921857   4.153755
    29  O    7.310091   8.387962   6.897116   6.878833   7.390541
    30  H    7.644803   8.710926   7.318642   7.013906   7.457797
    31  O    5.484088   6.580802   5.390474   4.932148   5.638736
    32  H    4.572368   5.649560   4.595950   3.912149   4.640075
    33  O    3.500712   4.248315   2.490344   4.037196   4.360298
    34  H    3.109856   3.919632   2.215973   3.317864   3.568329
    35  H    4.188981   5.043833   3.280637   4.594514   5.009503
    36  O    3.923454   4.581157   4.773804   3.364370   4.303068
    37  H    4.726249   5.341055   5.583736   3.957402   4.772746
    38  H    3.474022   4.281017   4.191303   2.730905   3.676185
                   21         22         23         24         25
    21  H    0.000000
    22  C    2.177691   0.000000
    23  O    2.538049   1.258082   0.000000
    24  O    3.249285   1.239911   2.217150   0.000000
    25  P    5.932251   3.871991   3.556682   3.449408   0.000000
    26  O    6.184011   4.212875   4.043772   3.805213   1.467428
    27  O    5.647702   3.497424   3.580200   2.699629   1.579005
    28  H    4.665789   2.513573   2.845702   1.627902   2.165544
    29  O    7.406346   5.374064   4.950900   4.916457   1.594028
    30  H    7.463568   5.486542   5.017204   5.052396   2.140543
    31  O    5.236752   3.495653   2.700064   3.578339   1.592465
    32  H    4.180446   2.508164   1.642959   2.809433   2.186723
    33  O    5.054754   3.480432   4.200723   2.865389   3.957279
    34  H    4.359567   2.658939   3.511089   1.920804   3.675303
    35  H    5.549342   3.759125   4.252462   3.111403   3.252611
    36  O    2.624492   3.431792   2.643694   4.650156   5.863626
    37  H    3.115189   3.955487   3.096081   5.142204   6.254377
    38  H    2.213037   2.504744   1.655536   3.698294   4.992916
                   26         27         28         29         30
    26  O    0.000000
    27  O    2.607051   0.000000
    28  H    2.906055   1.075154   0.000000
    29  O    2.510000   2.503366   3.440110   0.000000
    30  H    3.371764   2.583246   3.538118   1.033160   0.000000
    31  O    2.566738   2.545782   2.737512   2.489497   2.626237
    32  H    2.984814   2.656651   2.418422   3.403768   3.481246
    33  O    3.204430   3.826349   3.250731   5.362014   5.980142
    34  H    3.286634   3.280381   2.517885   5.154602   5.626714
    35  H    2.341751   3.348809   3.020748   4.557798   5.261401
    36  O    6.165954   6.172150   5.489236   7.108478   7.154395
    37  H    6.732674   6.506909   5.878191   7.380245   7.302222
    38  H    5.371340   5.201309   4.499692   6.285489   6.322608
                   31         32         33         34         35
    31  O    0.000000
    32  H    1.061985   0.000000
    33  O    4.736783   4.370387   0.000000
    34  H    4.318033   3.818059   0.971301   0.000000
    35  H    4.216911   4.055325   0.961554   1.509336   0.000000
    36  O    4.629072   3.765034   6.226792   5.698402   6.394173
    37  H    4.901402   4.082537   6.988069   6.393373   7.121346
    38  H    3.837565   2.892769   5.448452   4.854119   5.589988
                   36         37         38
    36  O    0.000000
    37  H    0.948032   0.000000
    38  H    0.996766   1.545320   0.000000
 Symmetry turned off by external request.
 Stoichiometry    C8H19N2O8P
 Framework group  C1[X(C8H19N2O8P)]
 Deg. of freedom   108
 Full point group                 C1      NOp   1
 Rotational constants (GHZ):           0.4539630           0.2780440           0.2568890
 Leave Link  202 at Sun May 22 21:44:47 2022, MaxMem= 13421772800 cpu:               0.1 elap:               0.0
 (Enter /data0/home/wuhanyu/software/g16/l122.exe)
 Counterpoise: doing full-system calculation.
 Leave Link  122 at Sun May 22 21:44:47 2022, MaxMem= 13421772800 cpu:               0.1 elap:               0.0
 (Enter /data0/home/wuhanyu/software/g16/l301.exe)
 Standard basis: 6-311+G(2d,p) (5D, 7F)
 Ernie: Thresh=  0.10000D-02 Tol=  0.10000D-05 Strict=F.
   635 basis functions,   964 primitive gaussians,   673 cartesian basis functions
    80 alpha electrons       80 beta electrons
       nuclear repulsion energy      1957.4430679003 Hartrees.
 IExCor= 4336 DFT=T Ex+Corr=M062X ExCW=0 ScaHFX=  0.540000
 ScaDFX=  1.000000  1.000000  1.000000  1.000000 ScalE2=  1.000000  1.000000
 IRadAn=      5 IRanWt=     -1 IRanGd=            0 ICorTp=0 IEmpDi=131
 NAtoms=   38 NActive=   38 NUniq=   38 SFac= 1.00D+00 NAtFMM=   60 NAOKFM=F Big=F
 Integral buffers will be    131072 words long.
 Raffenetti 2 integral format.
 Two-electron integral symmetry is turned off.
 R6Disp:  Grimme-D3 Dispersion energy=       -0.0032120722 Hartrees.
 Nuclear repulsion after empirical dispersion term =     1957.4398558281 Hartrees.
 Leave Link  301 at Sun May 22 21:44:47 2022, MaxMem= 13421772800 cpu:               1.8 elap:               0.1
 (Enter /data0/home/wuhanyu/software/g16/l302.exe)
 NPDir=0 NMtPBC=     1 NCelOv=     1 NCel=       1 NClECP=     1 NCelD=      1
         NCelK=      1 NCelE2=     1 NClLst=     1 CellRange=     0.0.
 One-electron integrals computed using PRISM.
 NBasis=   635 RedAO= T EigKep=  5.07D-06  NBF=   635
 NBsUse=   635 1.00D-06 EigRej= -1.00D+00 NBFU=   635
 Precomputing XC quadrature grid using
 IXCGrd= 4 IRadAn=           5 IRanWt=          -1 IRanGd=           0 AccXCQ= 0.00D+00.
 Generated NRdTot=       0 NPtTot=           0 NUsed=           0 NTot=          32
 NSgBfM=   672   672   672   672   672 MxSgAt=    38 MxSgA2=    38.
 Leave Link  302 at Sun May 22 21:44:48 2022, MaxMem= 13421772800 cpu:              19.3 elap:               0.8
 (Enter /data0/home/wuhanyu/software/g16/l303.exe)
 DipDrv:  MaxL=1.
 Leave Link  303 at Sun May 22 21:44:48 2022, MaxMem= 13421772800 cpu:               1.8 elap:               0.1
 (Enter /data0/home/wuhanyu/software/g16/l401.exe)
 ExpMin= 3.48D-02 ExpMax= 7.75D+04 ExpMxC= 2.65D+03 IAcc=3 IRadAn=         5 AccDes= 0.00D+00
 Harris functional with IExCor= 1009 and IRadAn=       5 diagonalized for initial guess.
 HarFok:  IExCor= 1009 AccDes= 0.00D+00 IRadAn=         5 IDoV= 1 UseB2=F ITyADJ=14
 ICtDFT=  3500011 ScaDFX=  1.000000  1.000000  1.000000  1.000000
 FoFCou: FMM=F IPFlag=           0 FMFlag=      100000 FMFlg1=           0
         NFxFlg=           0 DoJE=T BraDBF=F KetDBF=T FulRan=T
         wScrn=  0.000000 ICntrl=       500 IOpCl=  0 I1Cent=   200000004 NGrid=           0
         NMat0=    1 NMatS0=      1 NMatT0=    0 NMatD0=    1 NMtDS0=    0 NMtDT0=    0
 Symmetry not used in FoFCou.
 Harris En= -1368.46933771613    
 JPrj=0 DoOrth=F DoCkMO=F.
 Leave Link  401 at Sun May 22 21:44:51 2022, MaxMem= 13421772800 cpu:              70.9 elap:               3.0
 (Enter /data0/home/wuhanyu/software/g16/l502.exe)
 Two-electron integral symmetry not used.
 Closed shell SCF:
 Using DIIS extrapolation, IDIIS=  1040.
 NGot= 13421772800 LenX= 13420846075 LenY= 13420392473
 Requested convergence on RMS density matrix=1.00D-08 within 128 cycles.
 Requested convergence on MAX density matrix=1.00D-06.
 Requested convergence on             energy=1.00D-06.
 No special actions if energy rises.
 Fock matrices will be formed incrementally for  20 cycles.

 Cycle   1  Pass 1  IDiag  1:
 FoFJK:  IHMeth= 1 ICntrl=       0 DoSepK=F KAlg= 0 I1Cent=           0 FoldK=F
 IRaf= 860000000 NMat=       1 IRICut=       1 DoRegI=T DoRafI=F ISym2E= 0 IDoP0=0 IntGTp=1.
 FoFCou: FMM=F IPFlag=           0 FMFlag=      100000 FMFlg1=           0
         NFxFlg=           0 DoJE=F BraDBF=F KetDBF=F FulRan=T
         wScrn=  0.000000 ICntrl=         0 IOpCl=  0 I1Cent=           0 NGrid=           0
         NMat0=    1 NMatS0=      1 NMatT0=    0 NMatD0=    1 NMtDS0=    0 NMtDT0=    0
 Symmetry not used in FoFCou.
 E= -1368.37165831332    
 DIIS: error= 2.68D-02 at cycle   1 NSaved=   1.
 NSaved= 1 IEnMin= 1 EnMin= -1368.37165831332     IErMin= 1 ErrMin= 2.68D-02
 ErrMax= 2.68D-02  0.00D+00 EMaxC= 1.00D-01 BMatC= 1.13D+00 BMatP= 1.13D+00
 IDIUse=3 WtCom= 7.32D-01 WtEn= 2.68D-01
 Coeff-Com:  0.100D+01
 Coeff-En:   0.100D+01
 Coeff:      0.100D+01
 Gap=     0.300 Goal=   None    Shift=    0.000
 GapD=    0.300 DampG=1.000 DampE=0.500 DampFc=0.5000 IDamp=-1.
 Damping current iteration by 5.00D-01
 RMSDP=5.32D-03 MaxDP=4.93D-01              OVMax= 2.23D-01

 Cycle   2  Pass 1  IDiag  1:
 RMSU=  2.53D-03    CP:  9.49D-01
 E= -1368.67855620558     Delta-E=       -0.306897892263 Rises=F Damp=T
 DIIS: error= 5.05D-03 at cycle   2 NSaved=   2.
 NSaved= 2 IEnMin= 2 EnMin= -1368.67855620558     IErMin= 2 ErrMin= 5.05D-03
 ErrMax= 5.05D-03  0.00D+00 EMaxC= 1.00D-01 BMatC= 6.79D-02 BMatP= 1.13D+00
 IDIUse=3 WtCom= 9.49D-01 WtEn= 5.05D-02
 Coeff-Com:  0.129D-01 0.987D+00
 Coeff-En:   0.851D-01 0.915D+00
 Coeff:      0.165D-01 0.983D+00
 Gap=     0.348 Goal=   None    Shift=    0.000
 RMSDP=3.64D-03 MaxDP=9.18D-01 DE=-3.07D-01 OVMax= 1.18D-01

 Cycle   3  Pass 1  IDiag  1:
 RMSU=  2.14D-03    CP:  7.64D-01  9.70D-01
 E= -1369.03267931172     Delta-E=       -0.354123106132 Rises=F Damp=F
 DIIS: error= 3.91D-03 at cycle   3 NSaved=   3.
 NSaved= 3 IEnMin= 3 EnMin= -1369.03267931172     IErMin= 3 ErrMin= 3.91D-03
 ErrMax= 3.91D-03  0.00D+00 EMaxC= 1.00D-01 BMatC= 2.24D-02 BMatP= 6.79D-02
 IDIUse=3 WtCom= 9.61D-01 WtEn= 3.91D-02
 Coeff-Com: -0.541D-01 0.329D+00 0.725D+00
 Coeff-En:   0.000D+00 0.000D+00 0.100D+01
 Coeff:     -0.520D-01 0.316D+00 0.736D+00
 Gap=     0.297 Goal=   None    Shift=    0.000
 RMSDP=4.78D-04 MaxDP=2.53D-02 DE=-3.54D-01 OVMax= 4.06D-02

 Cycle   4  Pass 1  IDiag  1:
 RMSU=  4.08D-04    CP:  7.62D-01  1.06D+00  9.47D-01
 E= -1369.04424332335     Delta-E=       -0.011564011629 Rises=F Damp=F
 DIIS: error= 2.04D-03 at cycle   4 NSaved=   4.
 NSaved= 4 IEnMin= 4 EnMin= -1369.04424332335     IErMin= 4 ErrMin= 2.04D-03
 ErrMax= 2.04D-03  0.00D+00 EMaxC= 1.00D-01 BMatC= 7.05D-03 BMatP= 2.24D-02
 IDIUse=3 WtCom= 9.80D-01 WtEn= 2.04D-02
 Coeff-Com: -0.301D-01 0.821D-01 0.405D+00 0.543D+00
 Coeff-En:   0.000D+00 0.000D+00 0.224D+00 0.776D+00
 Coeff:     -0.295D-01 0.804D-01 0.401D+00 0.548D+00
 Gap=     0.296 Goal=   None    Shift=    0.000
 RMSDP=2.24D-04 MaxDP=3.73D-02 DE=-1.16D-02 OVMax= 1.41D-02

 Cycle   5  Pass 1  IDiag  1:
 RMSU=  1.28D-04    CP:  7.55D-01  1.04D+00  9.85D-01  7.00D-01
 E= -1369.04924754779     Delta-E=       -0.005004224442 Rises=F Damp=F
 DIIS: error= 4.03D-04 at cycle   5 NSaved=   5.
 NSaved= 5 IEnMin= 5 EnMin= -1369.04924754779     IErMin= 5 ErrMin= 4.03D-04
 ErrMax= 4.03D-04  0.00D+00 EMaxC= 1.00D-01 BMatC= 2.46D-04 BMatP= 7.05D-03
 IDIUse=3 WtCom= 9.96D-01 WtEn= 4.03D-03
 Coeff-Com: -0.102D-01 0.197D-01 0.142D+00 0.251D+00 0.598D+00
 Coeff-En:   0.000D+00 0.000D+00 0.000D+00 0.000D+00 0.100D+01
 Coeff:     -0.101D-01 0.196D-01 0.141D+00 0.250D+00 0.600D+00
 Gap=     0.294 Goal=   None    Shift=    0.000
 RMSDP=4.84D-05 MaxDP=6.85D-03 DE=-5.00D-03 OVMax= 2.46D-03

 Cycle   6  Pass 1  IDiag  1:
 RMSU=  4.06D-05    CP:  7.54D-01  1.04D+00  9.89D-01  7.28D-01  8.82D-01
 E= -1369.04942554747     Delta-E=       -0.000177999679 Rises=F Damp=F
 DIIS: error= 8.33D-05 at cycle   6 NSaved=   6.
 NSaved= 6 IEnMin= 6 EnMin= -1369.04942554747     IErMin= 6 ErrMin= 8.33D-05
 ErrMax= 8.33D-05  0.00D+00 EMaxC= 1.00D-01 BMatC= 1.77D-05 BMatP= 2.46D-04
 IDIUse=1 WtCom= 1.00D+00 WtEn= 0.00D+00
 Coeff-Com: -0.207D-02 0.247D-02 0.299D-01 0.660D-01 0.265D+00 0.639D+00
 Coeff:     -0.207D-02 0.247D-02 0.299D-01 0.660D-01 0.265D+00 0.639D+00
 Gap=     0.294 Goal=   None    Shift=    0.000
 RMSDP=1.47D-05 MaxDP=1.09D-03 DE=-1.78D-04 OVMax= 8.55D-04

 Cycle   7  Pass 1  IDiag  1:
 RMSU=  1.35D-05    CP:  7.55D-01  1.04D+00  9.89D-01  7.31D-01  8.96D-01
                    CP:  8.97D-01
 E= -1369.04943880824     Delta-E=       -0.000013260779 Rises=F Damp=F
 DIIS: error= 3.38D-05 at cycle   7 NSaved=   7.
 NSaved= 7 IEnMin= 7 EnMin= -1369.04943880824     IErMin= 7 ErrMin= 3.38D-05
 ErrMax= 3.38D-05  0.00D+00 EMaxC= 1.00D-01 BMatC= 2.30D-06 BMatP= 1.77D-05
 IDIUse=1 WtCom= 1.00D+00 WtEn= 0.00D+00
 Coeff-Com:  0.203D-03-0.104D-02-0.273D-02 0.139D-02 0.548D-01 0.294D+00
 Coeff-Com:  0.653D+00
 Coeff:      0.203D-03-0.104D-02-0.273D-02 0.139D-02 0.548D-01 0.294D+00
 Coeff:      0.653D+00
 Gap=     0.294 Goal=   None    Shift=    0.000
 RMSDP=5.06D-06 MaxDP=2.66D-04 DE=-1.33D-05 OVMax= 3.47D-04

 Cycle   8  Pass 1  IDiag  1:
 RMSU=  4.31D-06    CP:  7.55D-01  1.04D+00  9.89D-01  7.33D-01  9.06D-01
                    CP:  9.42D-01  9.58D-01
 E= -1369.04944053755     Delta-E=       -0.000001729302 Rises=F Damp=F
 DIIS: error= 1.19D-05 at cycle   8 NSaved=   8.
 NSaved= 8 IEnMin= 8 EnMin= -1369.04944053755     IErMin= 8 ErrMin= 1.19D-05
 ErrMax= 1.19D-05  0.00D+00 EMaxC= 1.00D-01 BMatC= 3.63D-07 BMatP= 2.30D-06
 IDIUse=1 WtCom= 1.00D+00 WtEn= 0.00D+00
 Coeff-Com:  0.441D-03-0.916D-03-0.642D-02-0.104D-01-0.177D-01 0.331D-01
 Coeff-Com:  0.312D+00 0.690D+00
 Coeff:      0.441D-03-0.916D-03-0.642D-02-0.104D-01-0.177D-01 0.331D-01
 Coeff:      0.312D+00 0.690D+00
 Gap=     0.294 Goal=   None    Shift=    0.000
 RMSDP=4.02D-06 MaxDP=8.50D-04 DE=-1.73D-06 OVMax= 1.70D-04

 Cycle   9  Pass 1  IDiag  1:
 RMSU=  2.31D-06    CP:  7.54D-01  1.04D+00  9.89D-01  7.34D-01  9.16D-01
                    CP:  9.72D-01  9.48D-01  8.87D-01
 E= -1369.04944085902     Delta-E=       -0.000000321477 Rises=F Damp=F
 DIIS: error= 3.43D-06 at cycle   9 NSaved=   9.
 NSaved= 9 IEnMin= 9 EnMin= -1369.04944085902     IErMin= 9 ErrMin= 3.43D-06
 ErrMax= 3.43D-06  0.00D+00 EMaxC= 1.00D-01 BMatC= 2.92D-08 BMatP= 3.63D-07
 IDIUse=1 WtCom= 1.00D+00 WtEn= 0.00D+00
 Coeff-Com:  0.140D-03-0.236D-03-0.219D-02-0.400D-02-0.115D-01-0.123D-01
 Coeff-Com:  0.629D-01 0.273D+00 0.694D+00
 Coeff:      0.140D-03-0.236D-03-0.219D-02-0.400D-02-0.115D-01-0.123D-01
 Coeff:      0.629D-01 0.273D+00 0.694D+00
 Gap=     0.294 Goal=   None    Shift=    0.000
 RMSDP=7.85D-07 MaxDP=5.32D-05 DE=-3.21D-07 OVMax= 5.73D-05

 Cycle  10  Pass 1  IDiag  1:
 RMSU=  5.39D-07    CP:  7.54D-01  1.04D+00  9.89D-01  7.35D-01  9.16D-01
                    CP:  9.74D-01  9.73D-01  9.45D-01  8.72D-01
 E= -1369.04944089012     Delta-E=       -0.000000031101 Rises=F Damp=F
 DIIS: error= 9.65D-07 at cycle  10 NSaved=  10.
 NSaved=10 IEnMin=10 EnMin= -1369.04944089012     IErMin=10 ErrMin= 9.65D-07
 ErrMax= 9.65D-07  0.00D+00 EMaxC= 1.00D-01 BMatC= 2.73D-09 BMatP= 2.92D-08
 IDIUse=1 WtCom= 1.00D+00 WtEn= 0.00D+00
 Coeff-Com: -0.144D-04 0.388D-04 0.114D-03 0.633D-04-0.160D-02-0.838D-02
 Coeff-Com: -0.206D-01-0.124D-01 0.198D+00 0.845D+00
 Coeff:     -0.144D-04 0.388D-04 0.114D-03 0.633D-04-0.160D-02-0.838D-02
 Coeff:     -0.206D-01-0.124D-01 0.198D+00 0.845D+00
 Gap=     0.294 Goal=   None    Shift=    0.000
 RMSDP=3.35D-07 MaxDP=5.56D-05 DE=-3.11D-08 OVMax= 4.07D-05

 Cycle  11  Pass 1  IDiag  1:
 RMSU=  1.78D-07    CP:  7.54D-01  1.04D+00  9.89D-01  7.35D-01  9.16D-01
                    CP:  9.76D-01  9.73D-01  9.60D-01  9.38D-01  1.23D+00
 E= -1369.04944089380     Delta-E=       -0.000000003680 Rises=F Damp=F
 DIIS: error= 4.54D-07 at cycle  11 NSaved=  11.
 NSaved=11 IEnMin=11 EnMin= -1369.04944089380     IErMin=11 ErrMin= 4.54D-07
 ErrMax= 4.54D-07  0.00D+00 EMaxC= 1.00D-01 BMatC= 4.89D-10 BMatP= 2.73D-09
 IDIUse=1 WtCom= 1.00D+00 WtEn= 0.00D+00
 Coeff-Com: -0.211D-04 0.428D-04 0.294D-03 0.493D-03 0.697D-03-0.161D-02
 Coeff-Com: -0.149D-01-0.387D-01-0.420D-02 0.351D+00 0.707D+00
 Coeff:     -0.211D-04 0.428D-04 0.294D-03 0.493D-03 0.697D-03-0.161D-02
 Coeff:     -0.149D-01-0.387D-01-0.420D-02 0.351D+00 0.707D+00
 Gap=     0.294 Goal=   None    Shift=    0.000
 RMSDP=1.08D-07 MaxDP=1.20D-05 DE=-3.68D-09 OVMax= 9.37D-06

 Cycle  12  Pass 1  IDiag  1:
 RMSU=  6.18D-08    CP:  7.54D-01  1.04D+00  9.89D-01  7.35D-01  9.16D-01
                    CP:  9.76D-01  9.70D-01  9.63D-01  9.63D-01  1.30D+00
                    CP:  9.33D-01
 E= -1369.04944089425     Delta-E=       -0.000000000443 Rises=F Damp=F
 DIIS: error= 1.72D-07 at cycle  12 NSaved=  12.
 NSaved=12 IEnMin=12 EnMin= -1369.04944089425     IErMin=12 ErrMin= 1.72D-07
 ErrMax= 1.72D-07  0.00D+00 EMaxC= 1.00D-01 BMatC= 3.99D-11 BMatP= 4.89D-10
 IDIUse=1 WtCom= 1.00D+00 WtEn= 0.00D+00
 Coeff-Com: -0.454D-05 0.834D-05 0.776D-04 0.143D-03 0.345D-03 0.342D-03
 Coeff-Com: -0.234D-02-0.105D-01-0.207D-01 0.176D-01 0.229D+00 0.786D+00
 Coeff:     -0.454D-05 0.834D-05 0.776D-04 0.143D-03 0.345D-03 0.342D-03
 Coeff:     -0.234D-02-0.105D-01-0.207D-01 0.176D-01 0.229D+00 0.786D+00
 Gap=     0.294 Goal=   None    Shift=    0.000
 RMSDP=3.10D-08 MaxDP=4.64D-06 DE=-4.43D-10 OVMax= 5.68D-06

 Cycle  13  Pass 1  IDiag  1:
 RMSU=  2.25D-08    CP:  7.54D-01  1.04D+00  9.89D-01  7.35D-01  9.16D-01
                    CP:  9.76D-01  9.70D-01  9.63D-01  9.65D-01  1.32D+00
                    CP:  1.00D+00  1.03D+00
 E= -1369.04944089442     Delta-E=       -0.000000000170 Rises=F Damp=F
 DIIS: error= 9.19D-08 at cycle  13 NSaved=  13.
 NSaved=13 IEnMin=13 EnMin= -1369.04944089442     IErMin=13 ErrMin= 9.19D-08
 ErrMax= 9.19D-08  0.00D+00 EMaxC= 1.00D-01 BMatC= 1.01D-11 BMatP= 3.99D-11
 IDIUse=1 WtCom= 1.00D+00 WtEn= 0.00D+00
 Coeff-Com:  0.537D-06-0.133D-05 0.202D-05 0.998D-05 0.799D-04 0.364D-03
 Coeff-Com:  0.655D-03-0.390D-03-0.958D-02-0.373D-01 0.197D-01 0.379D+00
 Coeff-Com:  0.648D+00
 Coeff:      0.537D-06-0.133D-05 0.202D-05 0.998D-05 0.799D-04 0.364D-03
 Coeff:      0.655D-03-0.390D-03-0.958D-02-0.373D-01 0.197D-01 0.379D+00
 Coeff:      0.648D+00
 Gap=     0.294 Goal=   None    Shift=    0.000
 RMSDP=1.18D-08 MaxDP=8.36D-07 DE=-1.70D-10 OVMax= 1.23D-06

 Cycle  14  Pass 1  IDiag  1:
 RMSU=  8.70D-09    CP:  7.54D-01  1.04D+00  9.89D-01  7.35D-01  9.16D-01
                    CP:  9.76D-01  9.70D-01  9.63D-01  9.65D-01  1.33D+00
                    CP:  1.02D+00  1.12D+00  9.71D-01
 E= -1369.04944089440     Delta-E=        0.000000000019 Rises=F Damp=F
 DIIS: error= 3.78D-08 at cycle  14 NSaved=  14.
 NSaved=14 IEnMin=13 EnMin= -1369.04944089442     IErMin=14 ErrMin= 3.78D-08
 ErrMax= 3.78D-08  0.00D+00 EMaxC= 1.00D-01 BMatC= 1.51D-12 BMatP= 1.01D-11
 IDIUse=1 WtCom= 1.00D+00 WtEn= 0.00D+00
 Coeff-Com:  0.104D-05-0.207D-05-0.113D-04-0.171D-04-0.130D-04 0.142D-03
 Coeff-Com:  0.736D-03 0.149D-02-0.157D-02-0.226D-01-0.249D-01 0.768D-01
 Coeff-Com:  0.324D+00 0.646D+00
 Coeff:      0.104D-05-0.207D-05-0.113D-04-0.171D-04-0.130D-04 0.142D-03
 Coeff:      0.736D-03 0.149D-02-0.157D-02-0.226D-01-0.249D-01 0.768D-01
 Coeff:      0.324D+00 0.646D+00
 Gap=     0.294 Goal=   None    Shift=    0.000
 RMSDP=5.56D-09 MaxDP=5.73D-07 DE= 1.86D-11 OVMax= 5.87D-07

 SCF Done:  E(RM062X) =  -1369.04944089     A.U. after   14 cycles
            NFock= 14  Conv=0.56D-08     -V/T= 2.0035
 KE= 1.364323499320D+03 PE=-7.138682212057D+03 EE= 2.447869416014D+03
 Leave Link  502 at Sun May 22 21:47:53 2022, MaxMem= 13421772800 cpu:            4357.9 elap:             182.1
 (Enter /data0/home/wuhanyu/software/g16/l601.exe)
 Copying SCF densities to generalized density rwf, IOpCl= 0 IROHF=0.

 **********************************************************************

            Population analysis using the SCF density.

 **********************************************************************

 Alpha  occ. eigenvalues --  -78.13550 -19.64899 -19.62619 -19.62440 -19.61546
 Alpha  occ. eigenvalues --  -19.61295 -19.60666 -19.58911 -19.56777 -14.86299
 Alpha  occ. eigenvalues --  -14.86163 -10.66377 -10.66366 -10.61868 -10.61230
 Alpha  occ. eigenvalues --  -10.61147 -10.60665 -10.56864 -10.55263  -6.94274
 Alpha  occ. eigenvalues --   -5.06212  -5.06146  -5.05986  -1.20892  -1.19824
 Alpha  occ. eigenvalues --   -1.18929  -1.13006  -1.12641  -1.11677  -1.10401
 Alpha  occ. eigenvalues --   -1.09843  -1.07933  -1.07090  -0.92966  -0.89521
 Alpha  occ. eigenvalues --   -0.86119  -0.81348  -0.74984  -0.72157  -0.70360
 Alpha  occ. eigenvalues --   -0.68637  -0.65249  -0.64185  -0.61997  -0.61376
 Alpha  occ. eigenvalues --   -0.60135  -0.59157  -0.58493  -0.57528  -0.56713
 Alpha  occ. eigenvalues --   -0.55565  -0.55492  -0.54759  -0.54138  -0.53548
 Alpha  occ. eigenvalues --   -0.52657  -0.52241  -0.50406  -0.49413  -0.48714
 Alpha  occ. eigenvalues --   -0.47997  -0.47403  -0.46747  -0.46252  -0.45735
 Alpha  occ. eigenvalues --   -0.44962  -0.43648  -0.43111  -0.42782  -0.42099
 Alpha  occ. eigenvalues --   -0.40354  -0.39609  -0.38339  -0.37806  -0.36733
 Alpha  occ. eigenvalues --   -0.36183  -0.35804  -0.35036  -0.34891  -0.31375
 Alpha virt. eigenvalues --   -0.01996   0.00256   0.00600   0.01553   0.01950
 Alpha virt. eigenvalues --    0.02271   0.02662   0.03129   0.03938   0.04150
 Alpha virt. eigenvalues --    0.04979   0.05454   0.05747   0.06253   0.06363
 Alpha virt. eigenvalues --    0.06709   0.07179   0.07838   0.08282   0.08499
 Alpha virt. eigenvalues --    0.09255   0.09698   0.10100   0.10728   0.11000
 Alpha virt. eigenvalues --    0.11805   0.12568   0.12639   0.13204   0.13334
 Alpha virt. eigenvalues --    0.13816   0.14244   0.15155   0.15524   0.15765
 Alpha virt. eigenvalues --    0.16000   0.16277   0.16432   0.16851   0.17247
 Alpha virt. eigenvalues --    0.17612   0.17931   0.18133   0.18906   0.19292
 Alpha virt. eigenvalues --    0.19637   0.20026   0.20392   0.20659   0.21045
 Alpha virt. eigenvalues --    0.21793   0.22137   0.22234   0.22575   0.23046
 Alpha virt. eigenvalues --    0.23424   0.23633   0.23844   0.23921   0.24792
 Alpha virt. eigenvalues --    0.25059   0.25159   0.25864   0.26306   0.26416
 Alpha virt. eigenvalues --    0.27095   0.27525   0.27704   0.27984   0.28607
 Alpha virt. eigenvalues --    0.28822   0.29089   0.29314   0.29947   0.30095
 Alpha virt. eigenvalues --    0.30704   0.31025   0.31456   0.31653   0.31818
 Alpha virt. eigenvalues --    0.32459   0.33038   0.33129   0.33527   0.33827
 Alpha virt. eigenvalues --    0.34058   0.34890   0.35177   0.35338   0.35604
 Alpha virt. eigenvalues --    0.36294   0.36996   0.37518   0.38135   0.38415
 Alpha virt. eigenvalues --    0.39120   0.39681   0.40113   0.40628   0.41337
 Alpha virt. eigenvalues --    0.42111   0.42353   0.42853   0.43422   0.44462
 Alpha virt. eigenvalues --    0.44919   0.45226   0.45545   0.46014   0.46541
 Alpha virt. eigenvalues --    0.47544   0.48220   0.49105   0.49639   0.50610
 Alpha virt. eigenvalues --    0.51283   0.51757   0.52702   0.53263   0.54301
 Alpha virt. eigenvalues --    0.54933   0.55205   0.56281   0.56954   0.57349
 Alpha virt. eigenvalues --    0.57962   0.58920   0.59048   0.59772   0.60741
 Alpha virt. eigenvalues --    0.61476   0.61804   0.62621   0.63183   0.64341
 Alpha virt. eigenvalues --    0.64371   0.64742   0.65261   0.65821   0.66108
 Alpha virt. eigenvalues --    0.67149   0.67633   0.68416   0.69103   0.69562
 Alpha virt. eigenvalues --    0.70509   0.70586   0.70890   0.72687   0.73493
 Alpha virt. eigenvalues --    0.73635   0.73919   0.75450   0.76046   0.76816
 Alpha virt. eigenvalues --    0.77024   0.78082   0.78374   0.78923   0.79612
 Alpha virt. eigenvalues --    0.80111   0.80785   0.81789   0.82166   0.82853
 Alpha virt. eigenvalues --    0.83898   0.85170   0.86600   0.87614   0.88070
 Alpha virt. eigenvalues --    0.88276   0.89583   0.89744   0.91026   0.92000
 Alpha virt. eigenvalues --    0.92730   0.93206   0.94065   0.95245   0.97206
 Alpha virt. eigenvalues --    0.98918   0.99717   1.00656   1.01305   1.03755
 Alpha virt. eigenvalues --    1.05736   1.06176   1.07536   1.08178   1.09146
 Alpha virt. eigenvalues --    1.10389   1.11449   1.11932   1.12602   1.12985
 Alpha virt. eigenvalues --    1.13650   1.14542   1.15228   1.16095   1.17190
 Alpha virt. eigenvalues --    1.17714   1.18421   1.18859   1.19500   1.20487
 Alpha virt. eigenvalues --    1.20793   1.21817   1.22194   1.23088   1.24534
 Alpha virt. eigenvalues --    1.24920   1.25092   1.25531   1.25821   1.26462
 Alpha virt. eigenvalues --    1.26817   1.27945   1.28699   1.28941   1.29772
 Alpha virt. eigenvalues --    1.30421   1.30546   1.31102   1.32170   1.32717
 Alpha virt. eigenvalues --    1.33407   1.34344   1.34515   1.35063   1.35584
 Alpha virt. eigenvalues --    1.36064   1.36902   1.37634   1.39257   1.39752
 Alpha virt. eigenvalues --    1.40119   1.40589   1.41087   1.41519   1.42510
 Alpha virt. eigenvalues --    1.42629   1.43168   1.43600   1.44590   1.45012
 Alpha virt. eigenvalues --    1.45490   1.46414   1.46605   1.48252   1.48938
 Alpha virt. eigenvalues --    1.49945   1.50827   1.50999   1.51603   1.52820
 Alpha virt. eigenvalues --    1.53403   1.54000   1.56050   1.56488   1.58466
 Alpha virt. eigenvalues --    1.58783   1.60295   1.60797   1.62346   1.63081
 Alpha virt. eigenvalues --    1.64126   1.65168   1.67194   1.67597   1.69031
 Alpha virt. eigenvalues --    1.69803   1.70814   1.71486   1.72651   1.73456
 Alpha virt. eigenvalues --    1.75078   1.76122   1.77388   1.77740   1.78103
 Alpha virt. eigenvalues --    1.79302   1.80593   1.81403   1.81652   1.83654
 Alpha virt. eigenvalues --    1.84089   1.84859   1.85819   1.87109   1.87432
 Alpha virt. eigenvalues --    1.88681   1.89410   1.91035   1.92231   1.93004
 Alpha virt. eigenvalues --    1.93585   1.95342   1.95394   1.96877   1.98348
 Alpha virt. eigenvalues --    1.99501   2.00025   2.01761   2.02077   2.03899
 Alpha virt. eigenvalues --    2.04756   2.06132   2.06261   2.06613   2.09349
 Alpha virt. eigenvalues --    2.10256   2.11701   2.12357   2.14024   2.15146
 Alpha virt. eigenvalues --    2.16648   2.17476   2.18552   2.18767   2.19904
 Alpha virt. eigenvalues --    2.21265   2.21886   2.22971   2.24174   2.25136
 Alpha virt. eigenvalues --    2.26776   2.27424   2.28626   2.29212   2.29584
 Alpha virt. eigenvalues --    2.31922   2.32217   2.32586   2.32993   2.34894
 Alpha virt. eigenvalues --    2.35289   2.36138   2.37430   2.38132   2.39038
 Alpha virt. eigenvalues --    2.40405   2.42620   2.43778   2.44315   2.46466
 Alpha virt. eigenvalues --    2.47100   2.48909   2.51781   2.53403   2.54198
 Alpha virt. eigenvalues --    2.55434   2.57285   2.58615   2.59781   2.60329
 Alpha virt. eigenvalues --    2.63384   2.67109   2.68832   2.69479   2.69604
 Alpha virt. eigenvalues --    2.71050   2.73398   2.74301   2.76128   2.77169
 Alpha virt. eigenvalues --    2.78572   2.81004   2.81815   2.83901   2.85278
 Alpha virt. eigenvalues --    2.86078   2.86826   2.88252   2.90399   2.91637
 Alpha virt. eigenvalues --    2.91918   2.94478   2.95700   2.98309   2.98481
 Alpha virt. eigenvalues --    3.00768   3.01864   3.02440   3.04564   3.05577
 Alpha virt. eigenvalues --    3.06920   3.10156   3.10811   3.11940   3.13423
 Alpha virt. eigenvalues --    3.14284   3.16878   3.18605   3.21515   3.22761
 Alpha virt. eigenvalues --    3.25542   3.26644   3.28374   3.29851   3.32923
 Alpha virt. eigenvalues --    3.34787   3.35534   3.36646   3.39402   3.40301
 Alpha virt. eigenvalues --    3.40757   3.42871   3.43628   3.45220   3.46033
 Alpha virt. eigenvalues --    3.47693   3.50204   3.51148   3.53573   3.54366
 Alpha virt. eigenvalues --    3.55649   3.57162   3.57515   3.58438   3.59228
 Alpha virt. eigenvalues --    3.61412   3.62230   3.64107   3.64982   3.67977
 Alpha virt. eigenvalues --    3.68481   3.69495   3.70709   3.71993   3.72884
 Alpha virt. eigenvalues --    3.74660   3.75732   3.76356   3.82832   3.85630
 Alpha virt. eigenvalues --    3.88948   3.92729   3.94824   3.96471   3.98598
 Alpha virt. eigenvalues --    4.03745   4.05537   4.06909   4.10627   4.16639
 Alpha virt. eigenvalues --    4.18028   4.19191   4.19398   4.23625   4.27037
 Alpha virt. eigenvalues --    4.40020   4.41014   4.50968   4.54729   4.97304
 Alpha virt. eigenvalues --    5.02359   5.05356   5.06917   5.09409   5.11502
 Alpha virt. eigenvalues --    5.12349   5.12902   5.16018   5.16546   5.19445
 Alpha virt. eigenvalues --    5.20071   5.20931   5.25888   5.28433   5.28859
 Alpha virt. eigenvalues --    5.32600   5.33555   5.35747   5.36788   5.37893
 Alpha virt. eigenvalues --    5.45336   5.46129   5.47583   5.48845   5.56086
 Alpha virt. eigenvalues --    5.56951   5.59003   5.60792   5.63252   5.64690
 Alpha virt. eigenvalues --    5.67452   5.68636   5.85635   5.93015   6.00271
 Alpha virt. eigenvalues --    6.01257   6.23536   6.77237   6.79293   6.80126
 Alpha virt. eigenvalues --    6.80802   6.81681   6.83389   6.84029   6.85538
 Alpha virt. eigenvalues --    6.86065   6.86518   6.88243   6.88590   6.90015
 Alpha virt. eigenvalues --    6.92038   6.93444   6.95615   6.96345   6.97079
 Alpha virt. eigenvalues --    6.98028   7.01359   7.01638   7.03567   7.04316
 Alpha virt. eigenvalues --    7.05728   7.07210   7.08115   7.09942   7.13656
 Alpha virt. eigenvalues --    7.18821   7.21344   7.23568   7.28104   7.29818
 Alpha virt. eigenvalues --    7.32230   7.32366   7.36491   7.39040   7.39649
 Alpha virt. eigenvalues --    7.44297   7.47427   7.73151  14.31121  14.35143
 Alpha virt. eigenvalues --   14.42711  23.93131  23.97719  24.03100  24.04836
 Alpha virt. eigenvalues --   24.05885  24.12424  24.18790  24.24701  35.61309
 Alpha virt. eigenvalues --   35.71088  50.05625  50.06317  50.09633  50.11528
 Alpha virt. eigenvalues --   50.12288  50.16743  50.18355  50.20837 163.98856
          Condensed to atoms (all electrons):
               1          2          3          4          5          6
     1  C    9.750321  -3.768283  -0.388136   0.010301   0.345509  -0.012462
     2  C   -3.768283  10.343680  -0.408936   0.205061   0.045257   0.389734
     3  C   -0.388136  -0.408936   6.967211   0.086547  -0.002084   0.007447
     4  N    0.010301   0.205061   0.086547   6.410624  -0.028624   0.009337
     5  H    0.345509   0.045257  -0.002084  -0.028624   0.453956  -0.001600
     6  H   -0.012462   0.389734   0.007447   0.009337  -0.001600   0.445098
     7  H   -0.007039   0.030610   0.351769  -0.015450   0.000081  -0.000092
     8  C    0.030465  -0.136893  -0.102575   0.111020  -0.002831  -0.000692
     9  H   -0.023998   0.000096   0.052693  -0.040650  -0.000046   0.000012
    10  H    0.005356   0.024011  -0.017927  -0.044973   0.001688  -0.000027
    11  H   -0.010500   0.008685  -0.014220  -0.053354   0.000443   0.000002
    12  N    0.372102  -0.251328   0.136146  -0.098228   0.000795  -0.037484
    13  C   -0.120086  -0.050560  -0.220399  -0.012254   0.000930   0.009646
    14  H    0.011722  -0.029520   0.003516  -0.003230  -0.000016   0.000712
    15  H   -0.010847   0.009758   0.002724   0.002779   0.000020  -0.000058
    16  C    0.102836  -0.148642  -0.028705   0.001412  -0.000668  -0.005354
    17  H    0.003237  -0.001084  -0.001754  -0.000331  -0.000001  -0.000038
    18  H   -0.024630   0.025068   0.005961   0.001037   0.000044  -0.000232
    19  C   -0.120252   0.150146   0.211725  -0.005252  -0.000075  -0.002254
    20  H    0.000631   0.001307  -0.000375  -0.000007  -0.000000  -0.000001
    21  H   -0.000655   0.000288  -0.007733   0.000255   0.000001  -0.000002
    22  C    0.155642  -0.145189  -0.344927   0.065506   0.000383   0.001599
    23  O   -0.112735   0.139379  -0.055495   0.040641   0.000565  -0.000775
    24  O    0.071573  -0.102850   0.061737  -0.020044  -0.000385   0.000272
    25  P   -0.175557   0.148218  -0.013561   0.024069   0.002742   0.000522
    26  O    0.084171  -0.029988  -0.027214   0.000939  -0.018277  -0.000510
    27  O    0.019702  -0.021040  -0.000708   0.008893  -0.000272   0.000094
    28  H   -0.008523   0.010722  -0.004019  -0.000741   0.000052  -0.000043
    29  O   -0.001977  -0.000729  -0.001468  -0.002246   0.000107  -0.000000
    30  H   -0.000451   0.000364   0.001612   0.000106  -0.000008   0.000000
    31  O    0.015106   0.007868  -0.006429  -0.006601  -0.000139  -0.000017
    32  H    0.034932  -0.038525   0.047694  -0.001745  -0.000214   0.000028
    33  O    0.138892  -0.227644   0.057354  -0.014127  -0.006678  -0.019034
    34  H   -0.047002   0.061378  -0.016219   0.001070   0.000570   0.001421
    35  H   -0.007556   0.029454  -0.001424  -0.001623   0.001201   0.000521
    36  O   -0.001113   0.000505  -0.043228   0.012169   0.000005   0.000005
    37  H    0.000733  -0.001202   0.012681  -0.000800  -0.000000  -0.000000
    38  H   -0.000916  -0.010133   0.057320  -0.012745   0.000001   0.000024
               7          8          9         10         11         12
     1  C   -0.007039   0.030465  -0.023998   0.005356  -0.010500   0.372102
     2  C    0.030610  -0.136893   0.000096   0.024011   0.008685  -0.251328
     3  C    0.351769  -0.102575   0.052693  -0.017927  -0.014220   0.136146
     4  N   -0.015450   0.111020  -0.040650  -0.044973  -0.053354  -0.098228
     5  H    0.000081  -0.002831  -0.000046   0.001688   0.000443   0.000795
     6  H   -0.000092  -0.000692   0.000012  -0.000027   0.000002  -0.037484
     7  H    0.403745   0.001593   0.000820   0.000062   0.000413  -0.023866
     8  C    0.001593   5.507682   0.397789   0.399774   0.424789  -0.054947
     9  H    0.000820   0.397789   0.444503  -0.018389  -0.024949   0.001902
    10  H    0.000062   0.399774  -0.018389   0.447529  -0.019463   0.000425
    11  H    0.000413   0.424789  -0.024949  -0.019463   0.505860  -0.007947
    12  N   -0.023866  -0.054947   0.001902   0.000425  -0.007947   6.520606
    13  C   -0.005974  -0.017667  -0.000631   0.001150  -0.001463   0.103090
    14  H    0.000329   0.000004   0.000002  -0.000002  -0.000012  -0.048771
    15  H    0.001890   0.000172   0.000003   0.000000  -0.000004  -0.049127
    16  C    0.002033  -0.001552   0.000340  -0.000046   0.000014   0.029096
    17  H   -0.000068   0.000074  -0.000000  -0.000000  -0.000000  -0.002061
    18  H    0.000010  -0.000295  -0.000001   0.000000   0.000001  -0.003574
    19  C    0.000097  -0.001655   0.000234  -0.000205   0.000046  -0.007113
    20  H    0.000014   0.000029  -0.000000  -0.000000  -0.000000   0.001996
    21  H    0.000201  -0.000107  -0.000000   0.000000  -0.000000   0.004313
    22  C    0.009178   0.021260  -0.001473  -0.000803  -0.000037  -0.026651
    23  O   -0.015100  -0.014115  -0.001641   0.000653   0.000341   0.031371
    24  O   -0.001162  -0.001762   0.000048  -0.000009   0.000002   0.026490
    25  P    0.000040  -0.009863  -0.000725   0.001475   0.002369  -0.001698
    26  O    0.000574  -0.028122  -0.000297   0.005484   0.000936  -0.008376
    27  O   -0.000131  -0.000174   0.000160  -0.000284   0.000023  -0.001804
    28  H    0.000055   0.000891  -0.000063  -0.000003  -0.000002  -0.001059
    29  O    0.000035   0.000662   0.000326   0.001202  -0.000137   0.000244
    30  H   -0.000003  -0.001466   0.000051   0.000131   0.000004  -0.000040
    31  O   -0.001227  -0.017720  -0.008219  -0.003523   0.001670  -0.010002
    32  H    0.001281   0.011308   0.002025  -0.000775  -0.000204  -0.008629
    33  O   -0.000260  -0.006260   0.000065   0.000041   0.000022   0.050951
    34  H    0.000053   0.000325  -0.000009  -0.000004  -0.000001  -0.009133
    35  H    0.000012   0.000374  -0.000012  -0.000034  -0.000009  -0.006978
    36  O   -0.004230  -0.001649  -0.000415  -0.000026   0.000061   0.013659
    37  H   -0.002169  -0.000272  -0.000004   0.000001  -0.000001  -0.002031
    38  H   -0.005744  -0.001139   0.000183   0.000024  -0.000039  -0.009855
              13         14         15         16         17         18
     1  C   -0.120086   0.011722  -0.010847   0.102836   0.003237  -0.024630
     2  C   -0.050560  -0.029520   0.009758  -0.148642  -0.001084   0.025068
     3  C   -0.220399   0.003516   0.002724  -0.028705  -0.001754   0.005961
     4  N   -0.012254  -0.003230   0.002779   0.001412  -0.000331   0.001037
     5  H    0.000930  -0.000016   0.000020  -0.000668  -0.000001   0.000044
     6  H    0.009646   0.000712  -0.000058  -0.005354  -0.000038  -0.000232
     7  H   -0.005974   0.000329   0.001890   0.002033  -0.000068   0.000010
     8  C   -0.017667   0.000004   0.000172  -0.001552   0.000074  -0.000295
     9  H   -0.000631   0.000002   0.000003   0.000340  -0.000000  -0.000001
    10  H    0.001150  -0.000002   0.000000  -0.000046  -0.000000   0.000000
    11  H   -0.001463  -0.000012  -0.000004   0.000014  -0.000000   0.000001
    12  N    0.103090  -0.048771  -0.049127   0.029096  -0.002061  -0.003574
    13  C    6.258452   0.453884   0.448730  -0.119095  -0.024247  -0.025321
    14  H    0.453884   0.501745  -0.021492  -0.058885  -0.005744  -0.002465
    15  H    0.448730  -0.021492   0.408984  -0.043192  -0.000954   0.002615
    16  C   -0.119095  -0.058885  -0.043192   5.690815   0.437094   0.415600
    17  H   -0.024247  -0.005744  -0.000954   0.437094   0.512023  -0.027036
    18  H   -0.025321  -0.002465   0.002615   0.415600  -0.027036   0.472001
    19  C   -0.181198   0.000541  -0.008302  -0.045664  -0.057757   0.001749
    20  H    0.009426  -0.000104   0.000089  -0.036520  -0.007162  -0.002771
    21  H   -0.015274  -0.000114  -0.000397   0.005401  -0.003275   0.003539
    22  C    0.094177   0.009877   0.006200  -0.057752   0.012109  -0.032211
    23  O   -0.049303   0.000101  -0.004212   0.031572  -0.001825   0.001015
    24  O    0.012749  -0.000274  -0.000722   0.008530  -0.000683  -0.004659
    25  P   -0.006827   0.000069   0.000353   0.006879  -0.000003   0.000174
    26  O   -0.002701   0.000015  -0.000010   0.003118  -0.000014  -0.000180
    27  O    0.000647  -0.000002  -0.000014  -0.005488  -0.000007   0.000030
    28  H    0.000677   0.000003   0.000010   0.005783  -0.000005   0.000338
    29  O   -0.000161  -0.000000   0.000000   0.000011   0.000000  -0.000009
    30  H    0.000008  -0.000000  -0.000000  -0.000025   0.000000   0.000000
    31  O   -0.003617  -0.000002  -0.000077  -0.002341  -0.000005   0.000074
    32  H   -0.003697  -0.000005   0.000078   0.000236  -0.000001   0.000059
    33  O    0.014261  -0.000252  -0.000498  -0.044153   0.000586   0.000591
    34  H    0.001260   0.000047   0.000078   0.011086   0.000072   0.004482
    35  H   -0.001809   0.000011   0.000025   0.004788  -0.000004   0.000248
    36  O   -0.020277   0.000273   0.005550   0.029761   0.000068  -0.000319
    37  H    0.006708  -0.000036   0.000135  -0.006120   0.000008   0.000020
    38  H    0.003666   0.000101  -0.001075  -0.010303  -0.000084   0.000316
              19         20         21         22         23         24
     1  C   -0.120252   0.000631  -0.000655   0.155642  -0.112735   0.071573
     2  C    0.150146   0.001307   0.000288  -0.145189   0.139379  -0.102850
     3  C    0.211725  -0.000375  -0.007733  -0.344927  -0.055495   0.061737
     4  N   -0.005252  -0.000007   0.000255   0.065506   0.040641  -0.020044
     5  H   -0.000075  -0.000000   0.000001   0.000383   0.000565  -0.000385
     6  H   -0.002254  -0.000001  -0.000002   0.001599  -0.000775   0.000272
     7  H    0.000097   0.000014   0.000201   0.009178  -0.015100  -0.001162
     8  C   -0.001655   0.000029  -0.000107   0.021260  -0.014115  -0.001762
     9  H    0.000234  -0.000000  -0.000000  -0.001473  -0.001641   0.000048
    10  H   -0.000205  -0.000000   0.000000  -0.000803   0.000653  -0.000009
    11  H    0.000046  -0.000000  -0.000000  -0.000037   0.000341   0.000002
    12  N   -0.007113   0.001996   0.004313  -0.026651   0.031371   0.026490
    13  C   -0.181198   0.009426  -0.015274   0.094177  -0.049303   0.012749
    14  H    0.000541  -0.000104  -0.000114   0.009877   0.000101  -0.000274
    15  H   -0.008302   0.000089  -0.000397   0.006200  -0.004212  -0.000722
    16  C   -0.045664  -0.036520   0.005401  -0.057752   0.031572   0.008530
    17  H   -0.057757  -0.007162  -0.003275   0.012109  -0.001825  -0.000683
    18  H    0.001749  -0.002771   0.003539  -0.032211   0.001015  -0.004659
    19  C    6.981177   0.471691   0.462340  -1.230654  -0.005078  -0.133580
    20  H    0.471691   0.489122  -0.028667  -0.098411   0.013345  -0.002616
    21  H    0.462340  -0.028667   0.485307  -0.102045   0.000655   0.005586
    22  C   -1.230654  -0.098411  -0.102045   6.650714  -0.035946   0.368260
    23  O   -0.005078   0.013345   0.000655  -0.035946   8.847093  -0.017209
    24  O   -0.133580  -0.002616   0.005586   0.368260  -0.017209   8.312224
    25  P   -0.043780   0.000105   0.000195  -0.022663   0.034708   0.054712
    26  O   -0.003218   0.000013   0.000017   0.027936  -0.010709  -0.005379
    27  O    0.023448   0.000002  -0.000079  -0.001924  -0.013076  -0.012020
    28  H    0.006335  -0.000190   0.000182   0.005177   0.003880   0.033630
    29  O   -0.003256   0.000002  -0.000001  -0.006551   0.004637   0.008477
    30  H   -0.000089  -0.000000  -0.000000  -0.001781   0.000115   0.000059
    31  O   -0.024069   0.000073   0.000038  -0.025950   0.054355  -0.011155
    32  H    0.040696  -0.000157   0.000011   0.017882  -0.063422  -0.013316
    33  O    0.045423   0.000147  -0.000273  -0.046642  -0.006992   0.043402
    34  H   -0.022983  -0.000020   0.000075   0.048529  -0.002621  -0.006699
    35  H   -0.002549  -0.000002   0.000007  -0.005194   0.000518  -0.003112
    36  O   -0.032996   0.001127   0.002492   0.006336  -0.011729  -0.000378
    37  H    0.005721  -0.000068   0.000111  -0.003355   0.000574   0.000120
    38  H    0.014313  -0.000962  -0.006977   0.022622  -0.024602   0.003095
              25         26         27         28         29         30
     1  C   -0.175557   0.084171   0.019702  -0.008523  -0.001977  -0.000451
     2  C    0.148218  -0.029988  -0.021040   0.010722  -0.000729   0.000364
     3  C   -0.013561  -0.027214  -0.000708  -0.004019  -0.001468   0.001612
     4  N    0.024069   0.000939   0.008893  -0.000741  -0.002246   0.000106
     5  H    0.002742  -0.018277  -0.000272   0.000052   0.000107  -0.000008
     6  H    0.000522  -0.000510   0.000094  -0.000043  -0.000000   0.000000
     7  H    0.000040   0.000574  -0.000131   0.000055   0.000035  -0.000003
     8  C   -0.009863  -0.028122  -0.000174   0.000891   0.000662  -0.001466
     9  H   -0.000725  -0.000297   0.000160  -0.000063   0.000326   0.000051
    10  H    0.001475   0.005484  -0.000284  -0.000003   0.001202   0.000131
    11  H    0.002369   0.000936   0.000023  -0.000002  -0.000137   0.000004
    12  N   -0.001698  -0.008376  -0.001804  -0.001059   0.000244  -0.000040
    13  C   -0.006827  -0.002701   0.000647   0.000677  -0.000161   0.000008
    14  H    0.000069   0.000015  -0.000002   0.000003  -0.000000  -0.000000
    15  H    0.000353  -0.000010  -0.000014   0.000010   0.000000  -0.000000
    16  C    0.006879   0.003118  -0.005488   0.005783   0.000011  -0.000025
    17  H   -0.000003  -0.000014  -0.000007  -0.000005   0.000000   0.000000
    18  H    0.000174  -0.000180   0.000030   0.000338  -0.000009   0.000000
    19  C   -0.043780  -0.003218   0.023448   0.006335  -0.003256  -0.000089
    20  H    0.000105   0.000013   0.000002  -0.000190   0.000002  -0.000000
    21  H    0.000195   0.000017  -0.000079   0.000182  -0.000001  -0.000000
    22  C   -0.022663   0.027936  -0.001924   0.005177  -0.006551  -0.001781
    23  O    0.034708  -0.010709  -0.013076   0.003880   0.004637   0.000115
    24  O    0.054712  -0.005379  -0.012020   0.033630   0.008477   0.000059
    25  P   12.575626   0.451288   0.245531   0.001773   0.203376   0.011538
    26  O    0.451288   8.328260  -0.019519   0.001385  -0.026734  -0.007743
    27  O    0.245531  -0.019519   8.192977   0.209119  -0.009312  -0.004430
    28  H    0.001773   0.001385   0.209119   0.260206  -0.007271   0.000322
    29  O    0.203376  -0.026734  -0.009312  -0.007271   8.031140   0.238913
    30  H    0.011538  -0.007743  -0.004430   0.000322   0.238913   0.461123
    31  O    0.305534  -0.045282  -0.009667  -0.009752   0.033973  -0.008967
    32  H    0.007639  -0.005755   0.007433   0.004643  -0.010045   0.001508
    33  O   -0.041613   0.006207   0.019241  -0.017219   0.000853   0.000007
    34  H    0.009363  -0.005160  -0.008602   0.012810  -0.000552   0.000013
    35  H    0.019036   0.013559  -0.004436   0.000299   0.000657  -0.000007
    36  O   -0.000873  -0.000132   0.000040   0.000028   0.000017  -0.000001
    37  H    0.000302  -0.000006   0.000002  -0.000002  -0.000000   0.000000
    38  H    0.001864  -0.000119  -0.000023  -0.000056  -0.000026   0.000003
              31         32         33         34         35         36
     1  C    0.015106   0.034932   0.138892  -0.047002  -0.007556  -0.001113
     2  C    0.007868  -0.038525  -0.227644   0.061378   0.029454   0.000505
     3  C   -0.006429   0.047694   0.057354  -0.016219  -0.001424  -0.043228
     4  N   -0.006601  -0.001745  -0.014127   0.001070  -0.001623   0.012169
     5  H   -0.000139  -0.000214  -0.006678   0.000570   0.001201   0.000005
     6  H   -0.000017   0.000028  -0.019034   0.001421   0.000521   0.000005
     7  H   -0.001227   0.001281  -0.000260   0.000053   0.000012  -0.004230
     8  C   -0.017720   0.011308  -0.006260   0.000325   0.000374  -0.001649
     9  H   -0.008219   0.002025   0.000065  -0.000009  -0.000012  -0.000415
    10  H   -0.003523  -0.000775   0.000041  -0.000004  -0.000034  -0.000026
    11  H    0.001670  -0.000204   0.000022  -0.000001  -0.000009   0.000061
    12  N   -0.010002  -0.008629   0.050951  -0.009133  -0.006978   0.013659
    13  C   -0.003617  -0.003697   0.014261   0.001260  -0.001809  -0.020277
    14  H   -0.000002  -0.000005  -0.000252   0.000047   0.000011   0.000273
    15  H   -0.000077   0.000078  -0.000498   0.000078   0.000025   0.005550
    16  C   -0.002341   0.000236  -0.044153   0.011086   0.004788   0.029761
    17  H   -0.000005  -0.000001   0.000586   0.000072  -0.000004   0.000068
    18  H    0.000074   0.000059   0.000591   0.004482   0.000248  -0.000319
    19  C   -0.024069   0.040696   0.045423  -0.022983  -0.002549  -0.032996
    20  H    0.000073  -0.000157   0.000147  -0.000020  -0.000002   0.001127
    21  H    0.000038   0.000011  -0.000273   0.000075   0.000007   0.002492
    22  C   -0.025950   0.017882  -0.046642   0.048529  -0.005194   0.006336
    23  O    0.054355  -0.063422  -0.006992  -0.002621   0.000518  -0.011729
    24  O   -0.011155  -0.013316   0.043402  -0.006699  -0.003112  -0.000378
    25  P    0.305534   0.007639  -0.041613   0.009363   0.019036  -0.000873
    26  O   -0.045282  -0.005755   0.006207  -0.005160   0.013559  -0.000132
    27  O   -0.009667   0.007433   0.019241  -0.008602  -0.004436   0.000040
    28  H   -0.009752   0.004643  -0.017219   0.012810   0.000299   0.000028
    29  O    0.033973  -0.010045   0.000853  -0.000552   0.000657   0.000017
    30  H   -0.008967   0.001508   0.000007   0.000013  -0.000007  -0.000001
    31  O    8.282088   0.156745  -0.002277   0.000374   0.000504   0.001205
    32  H    0.156745   0.353770  -0.000509   0.000708  -0.000016  -0.008788
    33  O   -0.002277  -0.000509   7.999302   0.268102   0.310488  -0.000083
    34  H    0.000374   0.000708   0.268102   0.398742  -0.015482   0.000055
    35  H    0.000504  -0.000016   0.310488  -0.015482   0.382173  -0.000001
    36  O    0.001205  -0.008788  -0.000083   0.000055  -0.000001   8.265116
    37  H   -0.000045  -0.000001  -0.000001   0.000001   0.000000   0.248422
    38  H   -0.003490   0.008866   0.000024  -0.000130   0.000011   0.213659
              37         38
     1  C    0.000733  -0.000916
     2  C   -0.001202  -0.010133
     3  C    0.012681   0.057320
     4  N   -0.000800  -0.012745
     5  H   -0.000000   0.000001
     6  H   -0.000000   0.000024
     7  H   -0.002169  -0.005744
     8  C   -0.000272  -0.001139
     9  H   -0.000004   0.000183
    10  H    0.000001   0.000024
    11  H   -0.000001  -0.000039
    12  N   -0.002031  -0.009855
    13  C    0.006708   0.003666
    14  H   -0.000036   0.000101
    15  H    0.000135  -0.001075
    16  C   -0.006120  -0.010303
    17  H    0.000008  -0.000084
    18  H    0.000020   0.000316
    19  C    0.005721   0.014313
    20  H   -0.000068  -0.000962
    21  H    0.000111  -0.006977
    22  C   -0.003355   0.022622
    23  O    0.000574  -0.024602
    24  O    0.000120   0.003095
    25  P    0.000302   0.001864
    26  O   -0.000006  -0.000119
    27  O    0.000002  -0.000023
    28  H   -0.000002  -0.000056
    29  O   -0.000000  -0.000026
    30  H    0.000000   0.000003
    31  O   -0.000045  -0.003490
    32  H   -0.000001   0.008866
    33  O   -0.000001   0.000024
    34  H    0.000001  -0.000130
    35  H    0.000000   0.000011
    36  O    0.248422   0.213659
    37  H    0.443425  -0.004644
    38  H   -0.004644   0.395294
 Mulliken charges:
               1
     1  C   -0.310513
     2  C   -0.259043
     3  C   -0.356601
     4  N    0.371255
     5  H    0.207568
     6  H    0.214201
     7  H    0.277620
     8  C   -0.506455
     9  H    0.220269
    10  H    0.217489
    11  H    0.186662
    12  N    0.377517
    13  C   -0.536900
    14  H    0.187974
    15  H    0.250787
    16  C   -0.171899
    17  H    0.168871
    18  H    0.188730
    19  C   -0.483699
    20  H    0.188914
    21  H    0.194583
    22  C    0.666774
    23  O   -0.758933
    24  O   -0.672950
    25  P    1.207662
    26  O   -0.678457
    27  O   -0.614330
    28  H    0.490628
    29  O   -0.454160
    30  H    0.309132
    31  O   -0.659036
    32  H    0.458262
    33  O   -0.521445
    34  H    0.314003
    35  H    0.286362
    36  O   -0.674313
    37  H    0.301791
    38  H    0.371677
 Sum of Mulliken charges =  -0.00000
 Mulliken charges with hydrogens summed into heavy atoms:
               1
     1  C   -0.102945
     2  C   -0.044842
     3  C   -0.078981
     4  N    0.371255
     8  C    0.117964
    12  N    0.377517
    13  C   -0.098138
    16  C    0.185703
    19  C   -0.100202
    22  C    0.666774
    23  O   -0.758933
    24  O   -0.672950
    25  P    1.207662
    26  O   -0.678457
    27  O   -0.123703
    29  O   -0.145027
    31  O   -0.200774
    33  O    0.078920
    36  O   -0.000845
         Mulliken charges condensed to fragments:
      1     -0.137776
      2      0.059701
      3      0.078920
      4     -0.000845
 Electronic spatial extent (au):  <R**2>=         252946.4483
 Charge=             -0.0000 electrons
 Dipole moment (field-independent basis, Debye):
    X=             -4.0927    Y=              4.7252    Z=              3.6254  Tot=              7.2264
 Quadrupole moment (field-independent basis, Debye-Ang):
   XX=           -206.8684   YY=           -108.9432   ZZ=              9.3846
   XY=             50.9313   XZ=            -28.4485   YZ=             79.6451
 Traceless Quadrupole moment (field-independent basis, Debye-Ang):
   XX=           -104.7261   YY=             -6.8009   ZZ=            111.5270
   XY=             50.9313   XZ=            -28.4485   YZ=             79.6451
 Octapole moment (field-independent basis, Debye-Ang**2):
  XXX=          -5504.1834  YYY=           -622.7935  ZZZ=          -2730.2575  XYY=          -1244.1915
  XXY=            343.2854  XXZ=          -3103.4007  XZZ=          -1075.4331  YZZ=           1126.3125
  YYZ=          -1913.4386  XYZ=            865.7434
 Hexadecapole moment (field-independent basis, Debye-Ang**3):
 XXXX=        -115660.9797 YYYY=          -3619.6155 ZZZZ=        -133935.0110 XXXY=          -1032.8035
 XXXZ=         -89961.2442 YYYX=          -6954.4984 YYYZ=         -10912.1078 ZZZX=         -50970.3116
 ZZZY=          11265.2069 XXYY=         -15050.4209 XXZZ=         -61089.5034 YYZZ=         -34786.7653
 XXYZ=           5769.4805 YYXZ=         -21721.9046 ZZXY=          12351.3364
 N-N= 1.957439855828D+03 E-N=-7.138682214577D+03  KE= 1.364323499320D+03
 No NMR shielding tensors so no spin-rotation constants.
 Leave Link  601 at Sun May 22 21:47:54 2022, MaxMem= 13421772800 cpu:               4.6 elap:               0.3
 (Enter /data0/home/wuhanyu/software/g16/l122.exe)
 CPIOFr:  IOpCl= 0 IRwI=-1 IRwCP=  731 ICalc= -1 LCPTot=      618574 Len1MO=     1626011 IndFrg=      618574
 CPIOFr:  IOpCl= 0 IRwI=-1 IRwCP=  731 ICalc=  0 LCPTot=      618574 Len1MO=     1626011 IndFrg=     2244585
 Counterpoise: doing calculation for fragment   1 using the basis set of the full-system, NewBq=T
 Leave Link  122 at Sun May 22 21:47:54 2022, MaxMem= 13421772800 cpu:               0.6 elap:               0.0
 (Enter /data0/home/wuhanyu/software/g16/l301.exe)
 Basis read from rwf:  (5D, 7F)
 No pseudopotential information found on rwf file.
   635 basis functions,   964 primitive gaussians,   673 cartesian basis functions
    45 alpha electrons       45 beta electrons
       nuclear repulsion energy       729.9414989084 Hartrees.
 IExCor= 4336 DFT=T Ex+Corr=M062X ExCW=0 ScaHFX=  0.540000
 ScaDFX=  1.000000  1.000000  1.000000  1.000000 ScalE2=  1.000000  1.000000
 IRadAn=      5 IRanWt=     -1 IRanGd=            0 ICorTp=0 IEmpDi=131
 NAtoms=   38 NActive=   38 NUniq=   38 SFac= 1.00D+00 NAtFMM=   60 NAOKFM=F Big=F
 Integral buffers will be    131072 words long.
 Raffenetti 2 integral format.
 Two-electron integral symmetry is turned off.
 R6Disp:  Grimme-D3 Dispersion energy=       -0.0009940478 Hartrees.
 Nuclear repulsion after empirical dispersion term =      729.9405048605 Hartrees.
 No density basis found on file   718.
 Leave Link  301 at Sun May 22 21:47:54 2022, MaxMem= 13421772800 cpu:               1.3 elap:               0.1
 (Enter /data0/home/wuhanyu/software/g16/l302.exe)
 NPDir=0 NMtPBC=     1 NCelOv=     1 NCel=       1 NClECP=     1 NCelD=      1
         NCelK=      1 NCelE2=     1 NClLst=     1 CellRange=     0.0.
 One-electron integrals computed using PRISM.
 NBasis=   635 RedAO= T EigKep=  5.07D-06  NBF=   635
 NBsUse=   635 1.00D-06 EigRej= -1.00D+00 NBFU=   635
 Precomputing XC quadrature grid using
 IXCGrd= 4 IRadAn=           5 IRanWt=          -1 IRanGd=           0 AccXCQ= 0.00D+00.
 Generated NRdTot=       0 NPtTot=           0 NUsed=           0 NTot=          32
 NSgBfM=   672   672   672   672   672 MxSgAt=    38 MxSgA2=    38.
 Leave Link  302 at Sun May 22 21:47:55 2022, MaxMem= 13421772800 cpu:              18.5 elap:               0.8
 (Enter /data0/home/wuhanyu/software/g16/l303.exe)
 DipDrv:  MaxL=1.
 Leave Link  303 at Sun May 22 21:47:55 2022, MaxMem= 13421772800 cpu:               1.6 elap:               0.1
 (Enter /data0/home/wuhanyu/software/g16/l401.exe)
 ExpMin= 3.48D-02 ExpMax= 7.75D+04 ExpMxC= 2.65D+03 IAcc=3 IRadAn=         5 AccDes= 0.00D+00
 Harris functional with IExCor= 1009 and IRadAn=       5 diagonalized for initial guess.
 HarFok:  IExCor= 1009 AccDes= 0.00D+00 IRadAn=         5 IDoV= 1 UseB2=F ITyADJ=14
 ICtDFT=  3500011 ScaDFX=  1.000000  1.000000  1.000000  1.000000
 FoFCou: FMM=F IPFlag=           0 FMFlag=      100000 FMFlg1=           0
         NFxFlg=           0 DoJE=T BraDBF=F KetDBF=T FulRan=T
         wScrn=  0.000000 ICntrl=       500 IOpCl=  0 I1Cent=   200000004 NGrid=           0
         NMat0=    1 NMatS0=      1 NMatT0=    0 NMatD0=    1 NMtDS0=    0 NMtDT0=    0
 Symmetry not used in FoFCou.
 Harris En= -571.693299334074    
 JPrj=0 DoOrth=F DoCkMO=F.
 Leave Link  401 at Sun May 22 21:47:58 2022, MaxMem= 13421772800 cpu:              70.7 elap:               3.0
 (Enter /data0/home/wuhanyu/software/g16/l502.exe)
 Two-electron integral symmetry not used.
 Closed shell SCF:
 Using DIIS extrapolation, IDIIS=  1040.
 NGot= 13421772800 LenX= 13420846075 LenY= 13420392473
 Requested convergence on RMS density matrix=1.00D-08 within 128 cycles.
 Requested convergence on MAX density matrix=1.00D-06.
 Requested convergence on             energy=1.00D-06.
 No special actions if energy rises.
 Fock matrices will be formed incrementally for  20 cycles.

 Cycle   1  Pass 1  IDiag  1:
 FoFJK:  IHMeth= 1 ICntrl=       0 DoSepK=F KAlg= 0 I1Cent=           0 FoldK=F
 IRaf= 860000000 NMat=       1 IRICut=       1 DoRegI=T DoRafI=F ISym2E= 0 IDoP0=0 IntGTp=1.
 FoFCou: FMM=F IPFlag=           0 FMFlag=      100000 FMFlg1=           0
         NFxFlg=           0 DoJE=F BraDBF=F KetDBF=F FulRan=T
         wScrn=  0.000000 ICntrl=         0 IOpCl=  0 I1Cent=           0 NGrid=           0
         NMat0=    1 NMatS0=      1 NMatT0=    0 NMatD0=    1 NMtDS0=    0 NMtDT0=    0
 Symmetry not used in FoFCou.
 E= -571.581531940953    
 DIIS: error= 1.14D-02 at cycle   1 NSaved=   1.
 NSaved= 1 IEnMin= 1 EnMin= -571.581531940953     IErMin= 1 ErrMin= 1.14D-02
 ErrMax= 1.14D-02  0.00D+00 EMaxC= 1.00D-01 BMatC= 4.65D-01 BMatP= 4.65D-01
 IDIUse=3 WtCom= 8.86D-01 WtEn= 1.14D-01
 Coeff-Com:  0.100D+01
 Coeff-En:   0.100D+01
 Coeff:      0.100D+01
 Gap=     0.366 Goal=   None    Shift=    0.000
 GapD=    0.366 DampG=1.000 DampE=0.500 DampFc=0.5000 IDamp=-1.
 Damping current iteration by 5.00D-01
 RMSDP=9.99D-03 MaxDP=1.13D+00              OVMax= 4.07D-01

 Cycle   2  Pass 1  IDiag  1:
 RMSU=  4.93D-03    CP:  1.08D+00
 E= -571.691214376303     Delta-E=       -0.109682435350 Rises=F Damp=T
 DIIS: error= 4.53D-03 at cycle   2 NSaved=   2.
 NSaved= 2 IEnMin= 2 EnMin= -571.691214376303     IErMin= 2 ErrMin= 4.53D-03
 ErrMax= 4.53D-03  0.00D+00 EMaxC= 1.00D-01 BMatC= 5.04D-02 BMatP= 4.65D-01
 IDIUse=3 WtCom= 9.55D-01 WtEn= 4.53D-02
 Coeff-Com:  0.593D-01 0.941D+00
 Coeff-En:   0.239D+00 0.761D+00
 Coeff:      0.675D-01 0.933D+00
 Gap=     0.213 Goal=   None    Shift=    0.000
 RMSDP=6.10D-03 MaxDP=1.09D+00 DE=-1.10D-01 OVMax= 3.58D-01

 Cycle   3  Pass 1  IDiag  1:
 RMSU=  2.57D-03    CP:  7.55D-01  1.12D-01
 E= -571.892955161125     Delta-E=       -0.201740784822 Rises=F Damp=F
 DIIS: error= 3.74D-03 at cycle   3 NSaved=   3.
 NSaved= 3 IEnMin= 3 EnMin= -571.892955161125     IErMin= 3 ErrMin= 3.74D-03
 ErrMax= 3.74D-03  0.00D+00 EMaxC= 1.00D-01 BMatC= 3.34D-02 BMatP= 5.04D-02
 IDIUse=3 WtCom= 9.63D-01 WtEn= 3.74D-02
 Coeff-Com: -0.826D-01 0.451D+00 0.631D+00
 Coeff-En:   0.000D+00 0.000D+00 0.100D+01
[...]
    22  C    0.000000
    23  O    0.000000
    24  O    0.000000
    25  P    0.000000
    26  O    0.000000
    27  O    0.000000
    29  O    0.000000
    31  O    0.000000
    33  O   -0.000000
    36  O    0.000000
         Mulliken charges condensed to fragments:
      1      0.000000
      2      0.000000
      3     -0.000000
      4      0.000000
 Electronic spatial extent (au):  <R**2>=          15708.1030
 Charge=             -0.0000 electrons
 Dipole moment (field-independent basis, Debye):
    X=              1.1871    Y=              1.2604    Z=             -1.2565  Tot=              2.1393
 Quadrupole moment (field-independent basis, Debye-Ang):
   XX=             20.9669   YY=             -9.4087   ZZ=            -49.5274
   XY=             14.0839   XZ=              7.6854   YZ=             23.2397
 Traceless Quadrupole moment (field-independent basis, Debye-Ang):
   XX=             33.6233   YY=              3.2477   ZZ=            -36.8710
   XY=             14.0839   XZ=              7.6854   YZ=             23.2397
 Octapole moment (field-independent basis, Debye-Ang**2):
  XXX=            256.2422  YYY=             23.1538  ZZZ=          -1448.7918  XYY=           -107.0308
  XXY=            163.3890  XXZ=            231.2472  XZZ=           -157.4139  YZZ=            432.8620
  YYZ=           -166.4677  XYZ=            259.1437
 Hexadecapole moment (field-independent basis, Debye-Ang**3):
 XXXX=           2363.3587 YYYY=            -48.7409 ZZZZ=         -37353.1528 XXXY=           1962.6011
 XXXZ=           3086.2497 YYYX=            263.0926 YYYZ=            408.3135 ZZZX=          -8997.2584
 ZZZY=           8131.3228 XXYY=          -1225.8678 XXZZ=            958.2619 YYZZ=          -2952.8461
 XXYZ=           2995.2766 YYXZ=          -1893.1350 ZZXY=           4818.7514
 N-N= 9.111789915484D+00 E-N=-1.990738459211D+02  KE= 7.620009473563D+01
 No NMR shielding tensors so no spin-rotation constants.
 Leave Link  601 at Sun May 22 21:58:20 2022, MaxMem= 13421772800 cpu:               1.8 elap:               0.1
 (Enter /data0/home/wuhanyu/software/g16/l122.exe)
 CPIOFr:  IOpCl= 0 IRwI=-1 IRwCP=  731 ICalc=  7 LCPTot=      618574 Len1MO=     1626011 IndFrg=    13626662
 Counterpoise: doing calculation for fragment   4 using the basis set of the fragment.
 Leave Link  122 at Sun May 22 21:58:20 2022, MaxMem= 13421772800 cpu:               0.3 elap:               0.0
 (Enter /data0/home/wuhanyu/software/g16/l301.exe)
 Basis read from rwf:  (5D, 7F)
 No pseudopotential information found on rwf file.
    39 basis functions,    58 primitive gaussians,    41 cartesian basis functions
     5 alpha electrons        5 beta electrons
       nuclear repulsion energy         9.0550706014 Hartrees.
 IExCor= 4336 DFT=T Ex+Corr=M062X ExCW=0 ScaHFX=  0.540000
 ScaDFX=  1.000000  1.000000  1.000000  1.000000 ScalE2=  1.000000  1.000000
 IRadAn=      5 IRanWt=     -1 IRanGd=            0 ICorTp=0 IEmpDi=131
 NAtoms=   38 NActive=    3 NUniq=    3 SFac= 1.00D+00 NAtFMM=   60 NAOKFM=F Big=F
 Integral buffers will be    131072 words long.
 Raffenetti 2 integral format.
 Two-electron integral symmetry is turned off.
 R6Disp:  Grimme-D3 Dispersion energy=       -0.0000000085 Hartrees.
 Nuclear repulsion after empirical dispersion term =        9.0550705929 Hartrees.
 No density basis found on file   718.
 Leave Link  301 at Sun May 22 21:58:20 2022, MaxMem= 13421772800 cpu:               1.3 elap:               0.1
 (Enter /data0/home/wuhanyu/software/g16/l302.exe)
 NPDir=0 NMtPBC=     1 NCelOv=     1 NCel=       1 NClECP=     1 NCelD=      1
         NCelK=      1 NCelE2=     1 NClLst=     1 CellRange=     0.0.
 One-electron integrals computed using PRISM.
 NBasis=    39 RedAO= T EigKep=  3.15D-03  NBF=    39
 NBsUse=    39 1.00D-06 EigRej= -1.00D+00 NBFU=    39
 Precomputing XC quadrature grid using
 IXCGrd= 4 IRadAn=           5 IRanWt=          -1 IRanGd=           0 AccXCQ= 0.00D+00.
 Generated NRdTot=       0 NPtTot=           0 NUsed=           0 NTot=          32
 NSgBfM=    41    41    41    41    41 MxSgAt=     3 MxSgA2=     3.
 Leave Link  302 at Sun May 22 21:58:20 2022, MaxMem= 13421772800 cpu:               2.3 elap:               0.1
 (Enter /data0/home/wuhanyu/software/g16/l303.exe)
 DipDrv:  MaxL=1.
 Leave Link  303 at Sun May 22 21:58:20 2022, MaxMem= 13421772800 cpu:               0.4 elap:               0.0
 (Enter /data0/home/wuhanyu/software/g16/l401.exe)
 ExpMin= 8.45D-02 ExpMax= 8.59D+03 ExpMxC= 1.30D+03 IAcc=3 IRadAn=         5 AccDes= 0.00D+00
 Harris functional with IExCor= 1009 and IRadAn=       5 diagonalized for initial guess.
 HarFok:  IExCor= 1009 AccDes= 0.00D+00 IRadAn=         5 IDoV= 1 UseB2=F ITyADJ=14
 ICtDFT=  3500011 ScaDFX=  1.000000  1.000000  1.000000  1.000000
 FoFCou: FMM=F IPFlag=           0 FMFlag=      100000 FMFlg1=           0
         NFxFlg=           0 DoJE=T BraDBF=F KetDBF=T FulRan=T
         wScrn=  0.000000 ICntrl=       500 IOpCl=  0 I1Cent=   200000004 NGrid=           0
         NMat0=    1 NMatS0=      1 NMatT0=    0 NMatD0=    1 NMtDS0=    0 NMtDT0=    0
 Symmetry not used in FoFCou.
 Harris En= -76.4154351327556    
 JPrj=0 DoOrth=F DoCkMO=F.
 Leave Link  401 at Sun May 22 21:58:21 2022, MaxMem= 13421772800 cpu:               2.9 elap:               0.1
 (Enter /data0/home/wuhanyu/software/g16/l502.exe)
 Keep R1 ints in memory in canonical form, NReq=21044467.
 FoFCou: FMM=F IPFlag=           0 FMFlag=           0 FMFlg1=           0
         NFxFlg=           0 DoJE=F BraDBF=F KetDBF=F FulRan=T
         wScrn=  0.000000 ICntrl=       600 IOpCl=  0 I1Cent=           0 NGrid=           0
         NMat0=    1 NMatS0=    780 NMatT0=    0 NMatD0=    1 NMtDS0=    0 NMtDT0=    0
 Symmetry not used in FoFCou.
 Two-electron integral symmetry not used.
 Closed shell SCF:
 Using DIIS extrapolation, IDIIS=  1040.
 NGot= 13421772800 LenX= 13421462309 LenY= 13421460187
 Requested convergence on RMS density matrix=1.00D-08 within 128 cycles.
 Requested convergence on MAX density matrix=1.00D-06.
 Requested convergence on             energy=1.00D-06.
 No special actions if energy rises.
 Integral accuracy reduced to 1.0D-05 until final iterations.

 Cycle   1  Pass 0  IDiag  1:
 E= -76.3452568745894    
 DIIS: error= 6.99D-02 at cycle   1 NSaved=   1.
 NSaved= 1 IEnMin= 1 EnMin= -76.3452568745894     IErMin= 1 ErrMin= 6.99D-02
 ErrMax= 6.99D-02  0.00D+00 EMaxC= 1.00D-01 BMatC= 1.20D-01 BMatP= 1.20D-01
 IDIUse=3 WtCom= 3.01D-01 WtEn= 6.99D-01
 Coeff-Com:  0.100D+01
 Coeff-En:   0.100D+01
 Coeff:      0.100D+01
 Gap=     0.323 Goal=   None    Shift=    0.000
 GapD=    0.323 DampG=1.000 DampE=0.500 DampFc=0.5000 IDamp=-1.
 Damping current iteration by 5.00D-01
 RMSDP=7.88D-03 MaxDP=1.01D-01              OVMax= 1.68D-01

 Cycle   2  Pass 0  IDiag  1:
 E= -76.3764975905930     Delta-E=       -0.031240716004 Rises=F Damp=T
 DIIS: error= 1.09D-02 at cycle   2 NSaved=   2.
 NSaved= 2 IEnMin= 2 EnMin= -76.3764975905930     IErMin= 2 ErrMin= 1.09D-02
 ErrMax= 1.09D-02  0.00D+00 EMaxC= 1.00D-01 BMatC= 4.92D-03 BMatP= 1.20D-01
 IDIUse=3 WtCom= 8.91D-01 WtEn= 1.09D-01
 Coeff-Com:  0.847D-01 0.915D+00
 Coeff-En:   0.191D+00 0.809D+00
 Coeff:      0.964D-01 0.904D+00
 Gap=     0.455 Goal=   None    Shift=    0.000
 RMSDP=9.52D-04 MaxDP=1.42D-02 DE=-3.12D-02 OVMax= 1.01D-01

 Cycle   3  Pass 0  IDiag  1:
 E= -76.4205744440140     Delta-E=       -0.044076853421 Rises=F Damp=F
 DIIS: error= 2.24D-03 at cycle   3 NSaved=   3.
 NSaved= 3 IEnMin= 3 EnMin= -76.4205744440140     IErMin= 3 ErrMin= 2.24D-03
 ErrMax= 2.24D-03  0.00D+00 EMaxC= 1.00D-01 BMatC= 9.68D-05 BMatP= 4.92D-03
 IDIUse=3 WtCom= 9.78D-01 WtEn= 2.24D-02
 Coeff-Com: -0.203D-01 0.419D-01 0.978D+00
 Coeff-En:   0.000D+00 0.000D+00 0.100D+01
 Coeff:     -0.198D-01 0.410D-01 0.979D+00
 Gap=     0.460 Goal=   None    Shift=    0.000
 RMSDP=1.18D-04 MaxDP=1.03D-03 DE=-4.41D-02 OVMax= 3.40D-03

 Cycle   4  Pass 0  IDiag  1:
 E= -76.4206566603267     Delta-E=       -0.000082216313 Rises=F Damp=F
 DIIS: error= 4.25D-04 at cycle   4 NSaved=   4.
 NSaved= 4 IEnMin= 4 EnMin= -76.4206566603267     IErMin= 4 ErrMin= 4.25D-04
 ErrMax= 4.25D-04  0.00D+00 EMaxC= 1.00D-01 BMatC= 3.52D-06 BMatP= 9.68D-05
 IDIUse=3 WtCom= 9.96D-01 WtEn= 4.25D-03
 Coeff-Com: -0.211D-02-0.201D-02 0.167D+00 0.837D+00
 Coeff-En:   0.000D+00 0.000D+00 0.000D+00 0.100D+01
 Coeff:     -0.210D-02-0.200D-02 0.167D+00 0.837D+00
 Gap=     0.460 Goal=   None    Shift=    0.000
 RMSDP=2.26D-05 MaxDP=3.57D-04 DE=-8.22D-05 OVMax= 5.47D-04

 Cycle   5  Pass 0  IDiag  1:
 E= -76.4206588304859     Delta-E=       -0.000002170159 Rises=F Damp=F
 DIIS: error= 9.32D-05 at cycle   5 NSaved=   5.
 NSaved= 5 IEnMin= 5 EnMin= -76.4206588304859     IErMin= 5 ErrMin= 9.32D-05
 ErrMax= 9.32D-05  0.00D+00 EMaxC= 1.00D-01 BMatC= 8.98D-08 BMatP= 3.52D-06
 IDIUse=1 WtCom= 1.00D+00 WtEn= 0.00D+00
 Coeff-Com:  0.121D-02-0.186D-02-0.372D-01-0.736D-01 0.111D+01
 Coeff:      0.121D-02-0.186D-02-0.372D-01-0.736D-01 0.111D+01
 Gap=     0.460 Goal=   None    Shift=    0.000
 RMSDP=9.32D-06 MaxDP=1.06D-04 DE=-2.17D-06 OVMax= 2.12D-04

 Initial convergence to 1.0D-05 achieved.  Increase integral accuracy.
 Cycle   6  Pass 1  IDiag  1:
 E= -76.4206661668606     Delta-E=       -0.000007336375 Rises=F Damp=F
 DIIS: error= 2.43D-05 at cycle   1 NSaved=   1.
 NSaved= 1 IEnMin= 1 EnMin= -76.4206661668606     IErMin= 1 ErrMin= 2.43D-05
 ErrMax= 2.43D-05  0.00D+00 EMaxC= 1.00D-01 BMatC= 1.76D-08 BMatP= 1.76D-08
 IDIUse=1 WtCom= 1.00D+00 WtEn= 0.00D+00
 Coeff-Com:  0.100D+01
 Coeff:      0.100D+01
 Gap=     0.460 Goal=   None    Shift=    0.000
 RMSDP=9.32D-06 MaxDP=1.06D-04 DE=-7.34D-06 OVMax= 4.82D-05

 Cycle   7  Pass 1  IDiag  1:
 E= -76.4206661804172     Delta-E=       -0.000000013557 Rises=F Damp=F
 DIIS: error= 9.86D-06 at cycle   2 NSaved=   2.
 NSaved= 2 IEnMin= 2 EnMin= -76.4206661804172     IErMin= 2 ErrMin= 9.86D-06
 ErrMax= 9.86D-06  0.00D+00 EMaxC= 1.00D-01 BMatC= 1.32D-09 BMatP= 1.76D-08
 IDIUse=1 WtCom= 1.00D+00 WtEn= 0.00D+00
 Coeff-Com:  0.526D-01 0.947D+00
 Coeff:      0.526D-01 0.947D+00
 Gap=     0.460 Goal=   None    Shift=    0.000
 RMSDP=7.62D-07 MaxDP=1.32D-05 DE=-1.36D-08 OVMax= 2.05D-05

 Cycle   8  Pass 1  IDiag  1:
 E= -76.4206661806577     Delta-E=       -0.000000000240 Rises=F Damp=F
 DIIS: error= 7.02D-06 at cycle   3 NSaved=   3.
 NSaved= 3 IEnMin= 3 EnMin= -76.4206661806577     IErMin= 3 ErrMin= 7.02D-06
 ErrMax= 7.02D-06  0.00D+00 EMaxC= 1.00D-01 BMatC= 1.23D-09 BMatP= 1.32D-09
 IDIUse=1 WtCom= 1.00D+00 WtEn= 0.00D+00
 Coeff-Com: -0.488D-01 0.505D+00 0.544D+00
 Coeff:     -0.488D-01 0.505D+00 0.544D+00
 Gap=     0.460 Goal=   None    Shift=    0.000
 RMSDP=3.96D-07 MaxDP=5.31D-06 DE=-2.40D-10 OVMax= 9.64D-06

 Cycle   9  Pass 1  IDiag  1:
 E= -76.4206661814698     Delta-E=       -0.000000000812 Rises=F Damp=F
 DIIS: error= 6.85D-07 at cycle   4 NSaved=   4.
 NSaved= 4 IEnMin= 4 EnMin= -76.4206661814698     IErMin= 4 ErrMin= 6.85D-07
 ErrMax= 6.85D-07  0.00D+00 EMaxC= 1.00D-01 BMatC= 5.88D-12 BMatP= 1.23D-09
 IDIUse=1 WtCom= 1.00D+00 WtEn= 0.00D+00
 Coeff-Com: -0.152D-02-0.241D-01 0.248D-01 0.100D+01
 Coeff:     -0.152D-02-0.241D-01 0.248D-01 0.100D+01
 Gap=     0.460 Goal=   None    Shift=    0.000
 RMSDP=7.04D-08 MaxDP=5.59D-07 DE=-8.12D-10 OVMax= 1.62D-06

 Cycle  10  Pass 1  IDiag  1:
 E= -76.4206661814794     Delta-E=       -0.000000000010 Rises=F Damp=F
 DIIS: error= 9.06D-08 at cycle   5 NSaved=   5.
 NSaved= 5 IEnMin= 5 EnMin= -76.4206661814794     IErMin= 5 ErrMin= 9.06D-08
 ErrMax= 9.06D-08  0.00D+00 EMaxC= 1.00D-01 BMatC= 3.56D-13 BMatP= 5.88D-12
 IDIUse=1 WtCom= 1.00D+00 WtEn= 0.00D+00
 Coeff-Com:  0.368D-02-0.454D-01-0.432D-01 0.825D-01 0.100D+01
 Coeff:      0.368D-02-0.454D-01-0.432D-01 0.825D-01 0.100D+01
 Gap=     0.460 Goal=   None    Shift=    0.000
 RMSDP=2.61D-08 MaxDP=2.16D-07 DE=-9.59D-12 OVMax= 5.66D-07

 Cycle  11  Pass 1  IDiag  1:
 E= -76.4206661814804     Delta-E=       -0.000000000001 Rises=F Damp=F
 DIIS: error= 9.22D-09 at cycle   6 NSaved=   6.
 NSaved= 6 IEnMin= 6 EnMin= -76.4206661814804     IErMin= 6 ErrMin= 9.22D-09
 ErrMax= 9.22D-09  0.00D+00 EMaxC= 1.00D-01 BMatC= 3.45D-15 BMatP= 3.56D-13
 IDIUse=1 WtCom= 1.00D+00 WtEn= 0.00D+00
 Coeff-Com: -0.768D-04 0.211D-02 0.348D-03-0.212D-01-0.357D-01 0.105D+01
 Coeff:     -0.768D-04 0.211D-02 0.348D-03-0.212D-01-0.357D-01 0.105D+01
 Gap=     0.460 Goal=   None    Shift=    0.000
 RMSDP=3.28D-09 MaxDP=3.14D-08 DE=-9.81D-13 OVMax= 5.72D-08

 SCF Done:  E(RM062X) =  -76.4206661815     A.U. after   11 cycles
            NFock= 11  Conv=0.33D-08     -V/T= 2.0032
 KE= 7.617771158902D+01 PE=-1.989554150718D+02 EE= 3.730196670833D+01
 Leave Link  502 at Sun May 22 21:58:21 2022, MaxMem= 13421772800 cpu:               8.6 elap:               0.4
 (Enter /data0/home/wuhanyu/software/g16/l601.exe)
 Copying SCF densities to generalized density rwf, IOpCl= 0 IROHF=0.

 **********************************************************************

            Population analysis using the SCF density.

 **********************************************************************

 Alpha  occ. eigenvalues --  -19.62634  -1.13078  -0.60701  -0.47246  -0.39917
 Alpha virt. eigenvalues --    0.06132   0.13233   0.17401   0.17959   0.18968
 Alpha virt. eigenvalues --    0.23238   0.49907   0.53919   0.97765   1.00516
 Alpha virt. eigenvalues --    1.06027   1.19226   1.19572   1.32675   1.34118
 Alpha virt. eigenvalues --    1.68548   1.73454   1.75912   2.05923   2.10127
 Alpha virt. eigenvalues --    2.34277   2.42870   2.53900   2.87208   3.01053
 Alpha virt. eigenvalues --    5.05677   5.45904   5.91615   6.78150   6.80427
 Alpha virt. eigenvalues --    6.86875   6.91391   7.10061  49.95544
          Condensed to atoms (all electrons):
              36         37         38
    36  O    7.920778   0.324436   0.316189
    37  H    0.324436   0.422858  -0.024283
    38  H    0.316189  -0.024283   0.423680
 Mulliken charges:
               1
     1  C    0.000000
     2  C    0.000000
     3  C    0.000000
     4  N    0.000000
     5  H    0.000000
     6  H    0.000000
     7  H    0.000000
     8  C    0.000000
     9  H    0.000000
    10  H    0.000000
    11  H    0.000000
    12  N    0.000000
    13  C    0.000000
    14  H    0.000000
    15  H    0.000000
    16  C    0.000000
    17  H    0.000000
    18  H    0.000000
    19  C    0.000000
    20  H    0.000000
    21  H    0.000000
    22  C    0.000000
    23  O    0.000000
    24  O    0.000000
    25  P    0.000000
    26  O    0.000000
    27  O    0.000000
    28  H    0.000000
    29  O    0.000000
    30  H    0.000000
    31  O    0.000000
    32  H    0.000000
    33  O    0.000000
    34  H    0.000000
    35  H    0.000000
    36  O   -0.561403
    37  H    0.276989
    38  H    0.284414
 Sum of Mulliken charges =  -0.00000
 Mulliken charges with hydrogens summed into heavy atoms:
               1
     1  C    0.000000
     2  C    0.000000
     3  C    0.000000
     4  N    0.000000
     8  C    0.000000
    12  N    0.000000
    13  C    0.000000
    16  C    0.000000
    19  C    0.000000
    22  C    0.000000
    23  O    0.000000
    24  O    0.000000
    25  P    0.000000
    26  O    0.000000
    27  O    0.000000
    29  O    0.000000
    31  O    0.000000
    33  O    0.000000
    36  O   -0.000000
         Mulliken charges condensed to fragments:
      1      0.000000
      2      0.000000
      3      0.000000
      4     -0.000000
 Electronic spatial extent (au):  <R**2>=          19519.0726
 Charge=             -0.0000 electrons
 Dipole moment (field-independent basis, Debye):
    X=              1.8516    Y=              0.1140    Z=             -0.9961  Tot=              2.1057
 Quadrupole moment (field-independent basis, Debye-Ang):
   XX=             36.8773   YY=             -3.5749   ZZ=            -46.1124
   XY=             10.7771   XZ=             24.0683   YZ=             -1.6620
 Traceless Quadrupole moment (field-independent basis, Debye-Ang):
   XX=             41.1473   YY=              0.6951   ZZ=            -41.8424
   XY=             10.7771   XZ=             24.0683   YZ=             -1.6620
 Octapole moment (field-independent basis, Debye-Ang**2):
  XXX=            533.9448  YYY=            -60.8421  ZZZ=          -1563.7496  XYY=              7.1389
  XXY=            205.0346  XXZ=            572.9297  XZZ=            149.5428  YZZ=           -144.0242
  YYZ=            -84.8216  XYZ=            163.1411
 Hexadecapole moment (field-independent basis, Debye-Ang**3):
 XXXX=           6554.6916 YYYY=           -630.4483 ZZZZ=         -46319.9777 XXXY=           2953.5093
 XXXZ=           8629.5644 YYYX=           -454.1083 YYYZ=          -1245.5890 ZZZX=          -5007.4499
 ZZZY=          -5696.2886 XXYY=            500.2119 XXZZ=           7323.4924 YYZZ=          -2127.9903
 XXYZ=           3426.0070 YYXZ=            -43.6572 ZZXY=           1844.7553
 N-N= 9.055070592926D+00 E-N=-1.989554148993D+02  KE= 7.617771158902D+01
 No NMR shielding tensors so no spin-rotation constants.
 Leave Link  601 at Sun May 22 21:58:21 2022, MaxMem= 13421772800 cpu:               1.8 elap:               0.1
 (Enter /data0/home/wuhanyu/software/g16/l122.exe)
 CPIOFr:  IOpCl= 0 IRwI=-1 IRwCP=  731 ICalc=  8 LCPTot=      618574 Len1MO=     1626011 IndFrg=    15252673
 Restoring MOs from calculation   1 to rwf.
 CPIOFr:  IOpCl= 0 IRwI=-2 IRwCP=  731 ICalc=  0 LCPTot=      618574 Len1MO=     1626011 IndFrg=     2244585
 Counterpoise corrected energy =   -1369.042707356777
                   BSSE energy =       0.006733537621
              sum of fragments =   -1368.896528980599
           complexation energy =     -95.95 kcal/mole (raw)
           complexation energy =     -91.73 kcal/mole (corrected)
 Leave Link  122 at Sun May 22 21:58:21 2022, MaxMem= 13421772800 cpu:               0.6 elap:               0.0
 (Enter /data0/home/wuhanyu/software/g16/l9999.exe)
 1\1\GINC-LOCALHOST\SP\RM062X\6-311+G(2d,p)\C8H19N2O8P1\WUHANYU\22-May-
 2022\0\\#p M062X/6-311+G(2d,p) nosymm em=GD3 counterpoise=4\\Title Car
 d Required\\0,1\C,0,9.145479,1.379504,16.786063\C,0,9.373766,0.9332,18
 .084569\C,0,9.93245,3.111434,17.988718\N,0,9.479984,2.730955,16.755414
 \H,0,8.821035,0.833913,15.913372\H,0,9.253789,-0.052866,18.50803\H,0,1
 0.308973,4.100437,18.260564\C,0,9.378094,3.605017,15.601536\H,0,10.234
 288,4.314602,15.557581\H,0,9.418919,3.016635,14.657118\H,0,8.435262,4.
 177961,15.625109\N,0,9.854883,2.019522,18.813634\C,0,10.24129,1.991912
 ,20.224676\H,0,9.368137,1.63269,20.818952\H,0,10.460495,3.036086,20.56
 934\C,0,11.461732,1.089042,20.473347\H,0,11.443924,0.749895,21.528946\
 H,0,11.393427,0.15681,19.865839\C,0,12.784938,1.794095,20.185887\H,0,1
 3.63107,1.217437,20.610551\H,0,12.825532,2.795341,20.653148\C,0,12.977
 844,1.899428,18.674138\O,0,12.638672,2.981263,18.128825\O,0,13.41952,0
 .906822,18.076614\P,0,12.401908,1.608519,14.856287\O,0,11.149247,0.862
 638,15.023164\O,0,13.728413,0.942577,15.394953\H,0,13.670094,0.913349,
 16.468126\O,0,12.689798,1.855086,13.307982\H,0,13.587559,2.362027,13.2
 41239\O,0,12.357803,3.08731,15.445504\H,0,12.546362,3.054729,16.490107
 \O,0,11.297737,-0.970458,17.647298\H,0,12.106548,-0.479341,17.866512\H
 ,0,11.161057,-0.749618,16.721483\O,0,11.66087,4.917753,19.639794\H,0,1
 2.236236,5.670599,19.609106\H,0,12.122884,4.213697,19.106511\\Version=
 ES64L-G16RevA.03\HF=-76.4206662\RMSD=3.277e-09\Dipole=-1.5507114,1.893
 052,1.4100285\Quadrupole=-75.6700269,-5.5330307,81.2030577,38.8766886,
 -19.3033404,60.3096717\PG=C01 [X(C8H19N2O8P1)]\\@


 ERROR IS A HARDY PLANT... IT FLOURISHETH IN EVERY SOIL.
            MARTIN FARQUHAR TUPPER
 Job cpu time:       0 days  5 hours 23 minutes 28.3 seconds.
 Elapsed time:       0 days  0 hours 13 minutes 34.0 seconds.
 File lengths (MBytes):  RWF=    364 Int=      0 D2E=      0 Chk=    139 Scr=      1
 Normal termination of Gaussian 16 at Sun May 22 21:58:21 2022.
