 Entering Gaussian System, Link 0=g16
 Initial command:
 /data0/home/software/g16/l1.exe "/data0/home/software/g16/scratch/Gau-395489.inp" -scrdir="/data0/home/software/g16/scratch/"
 Default is to use a total of  22 processors:
                               22 via shared-memory
                                1 via Linda
 Entering Link 1 = /data0/home/software/g16/l1.exe PID=    395490.
  
 Copyright (c) 1988,1990,1992,1993,1995,1998,2003,2009,2016,
            Gaussian, Inc.  All Rights Reserved.
  
 This is part of the Gaussian(R) 16 program.  It is based on
 the Gaussian(R) 09 system (copyright 2009, Gaussian, Inc.),
 the Gaussian(R) 03 system (copyright 2003, Gaussian, Inc.),
 the Gaussian(R) 98 system (copyright 1998, Gaussian, Inc.),
 the Gaussian(R) 94 system (copyright 1995, Gaussian, Inc.),
 the Gaussian 92(TM) system (copyright 1992, Gaussian, Inc.),
 the Gaussian 90(TM) system (copyright 1990, Gaussian, Inc.),
 the Gaussian 88(TM) system (copyright 1988, Gaussian, Inc.),
 the Gaussian 86(TM) system (copyright 1986, Carnegie Mellon
 University), and the Gaussian 82(TM) system (copyright 1983,
 Carnegie Mellon University). Gaussian is a federally registered
 trademark of Gaussian, Inc.
  
 This software contains proprietary and confidential information,
 including trade secrets, belonging to Gaussian, Inc.
  
 This software is provided under written license and may be
 used, copied, transmitted, or stored only in accord with that
 written license.
  
 The following legend is applicable only to US Government
 contracts under FAR:
  
                    RESTRICTED RIGHTS LEGEND
  
 Use, reproduction and disclosure by the US Government is
 subject to restrictions as set forth in subparagraphs (a)
 and (c) of the Commercial Computer Software - Restricted
 Rights clause in FAR 52.227-19.
  
 Gaussian, Inc.
 340 Quinnipiac St., Bldg. 40, Wallingford CT 06492
  
  
 ---------------------------------------------------------------
 Warning -- This program may not be used in any manner that
 competes with the business of Gaussian, Inc. or will provide
 assistance to any competitor of Gaussian, Inc.  The licensee
 of this program is prohibited from giving any competitor of
 Gaussian, Inc. access to this program.  By using this program,
 the user acknowledges that Gaussian, Inc. is engaged in the
 business of creating and licensing software in the field of
 computational chemistry and represents and warrants to the
 licensee that it is not a competitor of Gaussian, Inc. and that
 it will not use this program in any manner prohibited above.
 ---------------------------------------------------------------
  

 Cite this work as:
 Gaussian 16, Revision A.03,
 M. J. Frisch, G. W. Trucks, H. B. Schlegel, G. E. Scuseria, 
 M. A. Robb, J. R. Cheeseman, G. Scalmani, V. Barone, 
 G. A. Petersson, H. Nakatsuji, X. Li, M. Caricato, A. V. Marenich, 
 J. Bloino, B. G. Janesko, R. Gomperts, B. Mennucci, H. P. Hratchian, 
 J. V. Ortiz, A. F. Izmaylov, J. L. Sonnenberg, D. Williams-Young, 
 F. Ding, F. Lipparini, F. Egidi, J. Goings, B. Peng, A. Petrone, 
 T. Henderson, D. Ranasinghe, V. G. Zakrzewski, J. Gao, N. Rega, 
 G. Zheng, W. Liang, M. Hada, M. Ehara, K. Toyota, R. Fukuda, 
 J. Hasegawa, M. Ishida, T. Nakajima, Y. Honda, O. Kitao, H. Nakai, 
 T. Vreven, K. Throssell, J. A. Montgomery, Jr., J. E. Peralta, 
 F. Ogliaro, M. J. Bearpark, J. J. Heyd, E. N. Brothers, K. N. Kudin, 
 V. N. Staroverov, T. A. Keith, R. Kobayashi, J. Normand, 
 K. Raghavachari, A. P. Rendell, J. C. Burant, S. S. Iyengar, 
 J. Tomasi, M. Cossi, J. M. Millam, M. Klene, C. Adamo, R. Cammi, 
 J. W. Ochterski, R. L. Martin, K. Morokuma, O. Farkas, 
 J. B. Foresman, and D. J. Fox, Gaussian, Inc., Wallingford CT, 2016.
 
 ******************************************
 Gaussian 16:  ES64L-G16RevA.03 25-Dec-2016
                20-Feb-2023 
 ******************************************
 %nproc=24
 Will use up to   24 processors via shared memory.
 %mem=50GB
 ---------------------------------------------------
 #p M062X/6-311+G(2d,p) nosymm em=GD3 counterpoise=3
 ---------------------------------------------------
 1/38=1,62=3,172=1/1;
 2/12=2,15=1,17=6,18=5,40=1/2;
 1/38=1,53=2,62=3,63=1/22;
 3/5=4,6=6,7=112,11=2,25=1,30=1,74=-55,124=31/1,2,3;
 4//1;
 5/5=2,38=5/2;
 6/7=2,8=2,9=2,10=2,28=1/1;
 1/53=2,62=3,63=1/22;
 3/5=7,6=11,7=112,11=2,25=1,30=1,74=-55,82=7,124=31/1,2,3;
 4//1;
 5/5=2,38=5/2;
 6/7=2,8=2,9=2,10=2,28=1/1;
 1/53=2,62=3,63=1/22(-4);
 99/5=1,9=1/99;
 Leave Link    1 at Mon Feb 20 09:40:39 2023, MaxMem=  6710886400 cpu:               0.7 elap:               0.0
 (Enter /data0/home/software/g16/l101.exe)
 -------------------
 Title Card Required
 -------------------
 Symbolic Z-matrix:
 Charge =  0 Multiplicity = 1 in supermolecule
 Charge =  0 Multiplicity = 1 in fragment      1.
 Charge =  0 Multiplicity = 1 in fragment      2.
 Charge =  0 Multiplicity = 1 in fragment      3.
 O                     11.07164   12.19606   12.77658    
 H                     10.8456   12.0056   11.83791    
 H                     11.48911   13.04811   12.75981    
 O                     5.56548   8.63476   9.15259    
 H                     6.2249    9.00626   8.5378     
 H                     4.78472   8.5023    8.62413    
 O                     7.59527   9.6927    7.54973    
 H                     7.91282   10.56857   7.84512    
 H                     8.37859   9.30599   7.14133    
 
 ITRead=  0  0  0  0  0  0  0  0  0
 MicOpt= -1 -1 -1 -1 -1 -1 -1 -1 -1
 NAtoms=      9 NQM=        9 NQMF=       0 NMMI=      0 NMMIF=      0
                NMic=       0 NMicF=      0.
                    Isotopes and Nuclear Properties:
 (Nuclear quadrupole moments (NQMom) in fm**2, nuclear magnetic moments (NMagM)
  in nuclear magnetons)

  Atom         1           2           3           4           5           6           7           8           9
 IAtWgt=          16           1           1          16           1           1          16           1           1
 AtmWgt=  15.9949146   1.0078250   1.0078250  15.9949146   1.0078250   1.0078250  15.9949146   1.0078250   1.0078250
 NucSpn=           0           1           1           0           1           1           0           1           1
 AtZEff=  -0.0000000  -0.0000000  -0.0000000  -0.0000000  -0.0000000  -0.0000000  -0.0000000  -0.0000000  -0.0000000
 NQMom=    0.0000000   0.0000000   0.0000000   0.0000000   0.0000000   0.0000000   0.0000000   0.0000000   0.0000000
 NMagM=    0.0000000   2.7928460   2.7928460   0.0000000   2.7928460   2.7928460   0.0000000   2.7928460   2.7928460
 AtZNuc=   8.0000000   1.0000000   1.0000000   8.0000000   1.0000000   1.0000000   8.0000000   1.0000000   1.0000000
 Leave Link  101 at Mon Feb 20 09:40:40 2023, MaxMem=  6710886400 cpu:               2.0 elap:               0.1
 (Enter /data0/home/software/g16/l202.exe)
                          Input orientation:                          
 ---------------------------------------------------------------------
 Center     Atomic      Atomic             Coordinates (Angstroms)
 Number     Number       Type             X           Y           Z
 ---------------------------------------------------------------------
      1          8           0       11.071644   12.196057   12.776578
      2          1           0       10.845600   12.005602   11.837911
      3          1           0       11.489115   13.048109   12.759811
      4          8           0        5.565483    8.634762    9.152588
      5          1           0        6.224900    9.006261    8.537799
      6          1           0        4.784715    8.502299    8.624128
      7          8           0        7.595271    9.692701    7.549733
      8          1           0        7.912823   10.568569    7.845122
      9          1           0        8.378589    9.305995    7.141335
 ---------------------------------------------------------------------
                    Distance matrix (angstroms):
                    1          2          3          4          5
     1  O    0.000000
     2  H    0.984106   0.000000
     3  H    0.948976   1.533242   0.000000
     4  O    7.492258   6.815655   8.220651   0.000000
     5  H    7.185609   6.421655   7.865995   0.975094   0.000000
     6  H    8.391196   7.702977   9.094902   0.952058   1.528255
     7  O    6.758097   5.856844   7.318859   2.794355   1.823565
     8  H    6.078332   5.158353   6.564461   3.310450   2.402018
     9  H    6.881930   5.952466   7.432769   3.522678   2.584246
                    6          7          8          9
     6  H    0.000000
     7  O    3.235832   0.000000
     8  H    3.829018   0.977363   0.000000
     9  H    3.969954   0.964322   1.518666   0.000000
 Symmetry turned off by external request.
 Stoichiometry    H6O3
 Framework group  C1[X(H6O3)]
 Deg. of freedom    21
 Full point group                 C1      NOp   1
 Rotational constants (GHZ):           7.5055760           0.8479881           0.7645982
 Leave Link  202 at Mon Feb 20 09:40:40 2023, MaxMem=  6710886400 cpu:               0.1 elap:               0.0
 (Enter /data0/home/software/g16/l122.exe)
 Counterpoise: doing full-system calculation.
 Leave Link  122 at Mon Feb 20 09:40:40 2023, MaxMem=  6710886400 cpu:               0.0 elap:               0.0
 (Enter /data0/home/software/g16/l301.exe)
 Standard basis: 6-311+G(2d,p) (5D, 7F)
 Ernie: Thresh=  0.10000D-02 Tol=  0.10000D-05 Strict=F.
   117 basis functions,   174 primitive gaussians,   123 cartesian basis functions
    15 alpha electrons       15 beta electrons
       nuclear repulsion energy        61.2333557940 Hartrees.
 IExCor= 4336 DFT=T Ex+Corr=M062X ExCW=0 ScaHFX=  0.540000
 ScaDFX=  1.000000  1.000000  1.000000  1.000000 ScalE2=  1.000000  1.000000
 IRadAn=      5 IRanWt=     -1 IRanGd=            0 ICorTp=0 IEmpDi=131
 NAtoms=    9 NActive=    9 NUniq=    9 SFac= 1.00D+00 NAtFMM=   60 NAOKFM=F Big=F
 Integral buffers will be    131072 words long.
 Raffenetti 2 integral format.
 Two-electron integral symmetry is turned off.
 R6Disp:  Grimme-D3 Dispersion energy=       -0.0000580134 Hartrees.
 Nuclear repulsion after empirical dispersion term =       61.2332977805 Hartrees.
 Leave Link  301 at Mon Feb 20 09:40:40 2023, MaxMem=  6710886400 cpu:               1.1 elap:               0.1
 (Enter /data0/home/software/g16/l302.exe)
 NPDir=0 NMtPBC=     1 NCelOv=     1 NCel=       1 NClECP=     1 NCelD=      1
         NCelK=      1 NCelE2=     1 NClLst=     1 CellRange=     0.0.
 One-electron integrals computed using PRISM.
 NBasis=   117 RedAO= T EigKep=  1.70D-03  NBF=   117
 NBsUse=   117 1.00D-06 EigRej= -1.00D+00 NBFU=   117
 Precomputing XC quadrature grid using
 IXCGrd= 4 IRadAn=           5 IRanWt=          -1 IRanGd=           0 AccXCQ= 0.00D+00.
 Generated NRdTot=       0 NPtTot=           0 NUsed=           0 NTot=          32
 NSgBfM=   111   111   111   111   111 MxSgAt=     9 MxSgA2=     9.
 Leave Link  302 at Mon Feb 20 09:40:40 2023, MaxMem=  6710886400 cpu:               2.6 elap:               0.1
 (Enter /data0/home/software/g16/l303.exe)
 DipDrv:  MaxL=1.
 Leave Link  303 at Mon Feb 20 09:40:40 2023, MaxMem=  6710886400 cpu:               0.5 elap:               0.0
 (Enter /data0/home/software/g16/l401.exe)
 ExpMin= 8.45D-02 ExpMax= 8.59D+03 ExpMxC= 1.30D+03 IAcc=3 IRadAn=         5 AccDes= 0.00D+00
 Harris functional with IExCor= 1009 and IRadAn=       5 diagonalized for initial guess.
 HarFok:  IExCor= 1009 AccDes= 0.00D+00 IRadAn=         5 IDoV= 1 UseB2=F ITyADJ=14
 ICtDFT=  3500011 ScaDFX=  1.000000  1.000000  1.000000  1.000000
 FoFCou: FMM=F IPFlag=           0 FMFlag=      100000 FMFlg1=           0
         NFxFlg=           0 DoJE=T BraDBF=F KetDBF=T FulRan=T
         wScrn=  0.000000 ICntrl=       500 IOpCl=  0 I1Cent=   200000004 NGrid=           0
         NMat0=    1 NMatS0=      1 NMatT0=    0 NMatD0=    1 NMtDS0=    0 NMtDT0=    0
 Symmetry not used in FoFCou.
 Harris En= -229.252503417493    
 JPrj=0 DoOrth=F DoCkMO=F.
 Leave Link  401 at Mon Feb 20 09:40:40 2023, MaxMem=  6710886400 cpu:               4.3 elap:               0.2
 (Enter /data0/home/software/g16/l502.exe)
 Keep R1 ints in memory in canonical form, NReq=46556122.
 FoFCou: FMM=F IPFlag=           0 FMFlag=           0 FMFlg1=           0
         NFxFlg=           0 DoJE=F BraDBF=F KetDBF=F FulRan=T
         wScrn=  0.000000 ICntrl=       600 IOpCl=  0 I1Cent=           0 NGrid=           0
         NMat0=    1 NMatS0=   6903 NMatT0=    0 NMatD0=    1 NMtDS0=    0 NMtDT0=    0
 Symmetry not used in FoFCou.
 Two-electron integral symmetry not used.
 Closed shell SCF:
 Using DIIS extrapolation, IDIIS=  1040.
 NGot=  6710886400 LenX=  6687023004 LenY=  6687007434
 Requested convergence on RMS density matrix=1.00D-08 within 128 cycles.
 Requested convergence on MAX density matrix=1.00D-06.
 Requested convergence on             energy=1.00D-06.
 No special actions if energy rises.
 Integral accuracy reduced to 1.0D-05 until final iterations.

 Cycle   1  Pass 0  IDiag  1:
 E= -229.056028672062    
 DIIS: error= 7.04D-02 at cycle   1 NSaved=   1.
 NSaved= 1 IEnMin= 1 EnMin= -229.056028672062     IErMin= 1 ErrMin= 7.04D-02
 ErrMax= 7.04D-02  0.00D+00 EMaxC= 1.00D-01 BMatC= 3.50D-01 BMatP= 3.50D-01
 IDIUse=3 WtCom= 2.96D-01 WtEn= 7.04D-01
 Coeff-Com:  0.100D+01
 Coeff-En:   0.100D+01
 Coeff:      0.100D+01
 Gap=     0.304 Goal=   None    Shift=    0.000
 GapD=    0.304 DampG=1.000 DampE=0.500 DampFc=0.5000 IDamp=-1.
 Damping current iteration by 5.00D-01
 RMSDP=4.99D-03 MaxDP=1.06D-01              OVMax= 1.84D-01

 Cycle   2  Pass 0  IDiag  1:
 E= -229.147986336408     Delta-E=       -0.091957664347 Rises=F Damp=T
 DIIS: error= 1.09D-02 at cycle   2 NSaved=   2.
 NSaved= 2 IEnMin= 2 EnMin= -229.147986336408     IErMin= 2 ErrMin= 1.09D-02
 ErrMax= 1.09D-02  0.00D+00 EMaxC= 1.00D-01 BMatC= 1.35D-02 BMatP= 3.50D-01
 IDIUse=3 WtCom= 8.91D-01 WtEn= 1.09D-01
 Coeff-Com:  0.721D-01 0.928D+00
 Coeff-En:   0.172D+00 0.828D+00
 Coeff:      0.830D-01 0.917D+00
 Gap=     0.396 Goal=   None    Shift=    0.000
 RMSDP=6.12D-04 MaxDP=1.49D-02 DE=-9.20D-02 OVMax= 1.08D-01

 Cycle   3  Pass 0  IDiag  1:
 E= -229.272559275047     Delta-E=       -0.124572938639 Rises=F Damp=F
 DIIS: error= 2.92D-03 at cycle   3 NSaved=   3.
 NSaved= 3 IEnMin= 3 EnMin= -229.272559275047     IErMin= 3 ErrMin= 2.92D-03
 ErrMax= 2.92D-03  0.00D+00 EMaxC= 1.00D-01 BMatC= 3.56D-04 BMatP= 1.35D-02
 IDIUse=3 WtCom= 9.71D-01 WtEn= 2.92D-02
 Coeff-Com: -0.228D-01 0.475D-01 0.975D+00
 Coeff-En:   0.000D+00 0.000D+00 0.100D+01
 Coeff:     -0.222D-01 0.461D-01 0.976D+00
 Gap=     0.401 Goal=   None    Shift=    0.000
 RMSDP=9.15D-05 MaxDP=1.87D-03 DE=-1.25D-01 OVMax= 5.25D-03

 Cycle   4  Pass 0  IDiag  1:
 E= -229.272810633575     Delta-E=       -0.000251358528 Rises=F Damp=F
 DIIS: error= 1.44D-03 at cycle   4 NSaved=   4.
 NSaved= 4 IEnMin= 4 EnMin= -229.272810633575     IErMin= 4 ErrMin= 1.44D-03
 ErrMax= 1.44D-03  0.00D+00 EMaxC= 1.00D-01 BMatC= 6.70D-05 BMatP= 3.56D-04
 IDIUse=3 WtCom= 9.86D-01 WtEn= 1.44D-02
 Coeff-Com: -0.936D-02 0.115D-01 0.430D+00 0.568D+00
 Coeff-En:   0.000D+00 0.000D+00 0.000D+00 0.100D+01
 Coeff:     -0.922D-02 0.113D-01 0.424D+00 0.574D+00
 Gap=     0.402 Goal=   None    Shift=    0.000
 RMSDP=3.47D-05 MaxDP=1.18D-03 DE=-2.51D-04 OVMax= 1.63D-03

 Cycle   5  Pass 0  IDiag  1:
 E= -229.272850686738     Delta-E=       -0.000040053163 Rises=F Damp=F
 DIIS: error= 2.07D-04 at cycle   5 NSaved=   5.
 NSaved= 5 IEnMin= 5 EnMin= -229.272850686738     IErMin= 5 ErrMin= 2.07D-04
 ErrMax= 2.07D-04  0.00D+00 EMaxC= 1.00D-01 BMatC= 4.63D-06 BMatP= 6.70D-05
 IDIUse=3 WtCom= 9.98D-01 WtEn= 2.07D-03
 Coeff-Com:  0.398D-03-0.315D-02 0.202D-01 0.193D+00 0.790D+00
 Coeff-En:   0.000D+00 0.000D+00 0.000D+00 0.000D+00 0.100D+01
 Coeff:      0.397D-03-0.315D-02 0.202D-01 0.192D+00 0.790D+00
 Gap=     0.403 Goal=   None    Shift=    0.000
 RMSDP=1.08D-05 MaxDP=4.14D-04 DE=-4.01D-05 OVMax= 5.39D-04

 Cycle   6  Pass 0  IDiag  1:
 E= -229.272853957619     Delta-E=       -0.000003270882 Rises=F Damp=F
 DIIS: error= 4.69D-05 at cycle   6 NSaved=   6.
 NSaved= 6 IEnMin= 6 EnMin= -229.272853957619     IErMin= 6 ErrMin= 4.69D-05
 ErrMax= 4.69D-05  0.00D+00 EMaxC= 1.00D-01 BMatC= 9.85D-08 BMatP= 4.63D-06
 IDIUse=1 WtCom= 1.00D+00 WtEn= 0.00D+00
 Coeff-Com:  0.651D-03-0.996D-03-0.215D-01-0.237D-01 0.797D-01 0.966D+00
 Coeff:      0.651D-03-0.996D-03-0.215D-01-0.237D-01 0.797D-01 0.966D+00
 Gap=     0.403 Goal=   None    Shift=    0.000
 RMSDP=3.06D-06 MaxDP=5.74D-05 DE=-3.27D-06 OVMax= 1.23D-04

 Initial convergence to 1.0D-05 achieved.  Increase integral accuracy.
 Cycle   7  Pass 1  IDiag  1:
 E= -229.272823301829     Delta-E=        0.000030655791 Rises=F Damp=F
 DIIS: error= 1.66D-05 at cycle   1 NSaved=   1.
 NSaved= 1 IEnMin= 1 EnMin= -229.272823301829     IErMin= 1 ErrMin= 1.66D-05
 ErrMax= 1.66D-05  0.00D+00 EMaxC= 1.00D-01 BMatC= 4.83D-08 BMatP= 4.83D-08
 IDIUse=1 WtCom= 1.00D+00 WtEn= 0.00D+00
 Coeff-Com:  0.100D+01
 Coeff:      0.100D+01
 Gap=     0.403 Goal=   None    Shift=    0.000
 RMSDP=3.06D-06 MaxDP=5.74D-05 DE= 3.07D-05 OVMax= 4.23D-05

 Cycle   8  Pass 1  IDiag  1:
 E= -229.272823335795     Delta-E=       -0.000000033966 Rises=F Damp=F
 DIIS: error= 1.45D-05 at cycle   2 NSaved=   2.
 NSaved= 2 IEnMin= 2 EnMin= -229.272823335795     IErMin= 2 ErrMin= 1.45D-05
 ErrMax= 1.45D-05  0.00D+00 EMaxC= 1.00D-01 BMatC= 7.58D-09 BMatP= 4.83D-08
 IDIUse=1 WtCom= 1.00D+00 WtEn= 0.00D+00
 Coeff-Com:  0.169D+00 0.831D+00
 Coeff:      0.169D+00 0.831D+00
 Gap=     0.403 Goal=   None    Shift=    0.000
 RMSDP=6.36D-07 MaxDP=2.45D-05 DE=-3.40D-08 OVMax= 3.39D-05

 Cycle   9  Pass 1  IDiag  1:
 E= -229.272823337944     Delta-E=       -0.000000002149 Rises=F Damp=F
 DIIS: error= 1.09D-05 at cycle   3 NSaved=   3.
 NSaved= 3 IEnMin= 3 EnMin= -229.272823337944     IErMin= 3 ErrMin= 1.09D-05
 ErrMax= 1.09D-05  0.00D+00 EMaxC= 1.00D-01 BMatC= 4.72D-09 BMatP= 7.58D-09
 IDIUse=1 WtCom= 1.00D+00 WtEn= 0.00D+00
 Coeff-Com: -0.454D-01 0.443D+00 0.603D+00
 Coeff:     -0.454D-01 0.443D+00 0.603D+00
 Gap=     0.403 Goal=   None    Shift=    0.000
 RMSDP=2.75D-07 MaxDP=1.05D-05 DE=-2.15D-09 OVMax= 1.43D-05

 Cycle  10  Pass 1  IDiag  1:
 E= -229.272823341006     Delta-E=       -0.000000003062 Rises=F Damp=F
 DIIS: error= 3.13D-07 at cycle   4 NSaved=   4.
 NSaved= 4 IEnMin= 4 EnMin= -229.272823341006     IErMin= 4 ErrMin= 3.13D-07
 ErrMax= 3.13D-07  0.00D+00 EMaxC= 1.00D-01 BMatC= 9.69D-12 BMatP= 4.72D-09
 IDIUse=1 WtCom= 1.00D+00 WtEn= 0.00D+00
 Coeff-Com: -0.414D-02 0.114D-01 0.347D-01 0.958D+00
 Coeff:     -0.414D-02 0.114D-01 0.347D-01 0.958D+00
 Gap=     0.403 Goal=   None    Shift=    0.000
 RMSDP=3.60D-08 MaxDP=7.32D-07 DE=-3.06D-09 OVMax= 1.39D-06

 Cycle  11  Pass 1  IDiag  1:
 E= -229.272823341018     Delta-E=       -0.000000000012 Rises=F Damp=F
 DIIS: error= 2.34D-07 at cycle   5 NSaved=   5.
 NSaved= 5 IEnMin= 5 EnMin= -229.272823341018     IErMin= 5 ErrMin= 2.34D-07
 ErrMax= 2.34D-07  0.00D+00 EMaxC= 1.00D-01 BMatC= 3.23D-12 BMatP= 9.69D-12
 IDIUse=1 WtCom= 1.00D+00 WtEn= 0.00D+00
 Coeff-Com:  0.984D-03-0.242D-01-0.258D-01 0.358D+00 0.691D+00
 Coeff:      0.984D-03-0.242D-01-0.258D-01 0.358D+00 0.691D+00
 Gap=     0.403 Goal=   None    Shift=    0.000
 RMSDP=1.44D-08 MaxDP=4.10D-07 DE=-1.21D-11 OVMax= 6.43D-07

 Cycle  12  Pass 1  IDiag  1:
 E= -229.272823341021     Delta-E=       -0.000000000003 Rises=F Damp=F
 DIIS: error= 7.84D-08 at cycle   6 NSaved=   6.
 NSaved= 6 IEnMin= 6 EnMin= -229.272823341021     IErMin= 6 ErrMin= 7.84D-08
 ErrMax= 7.84D-08  0.00D+00 EMaxC= 1.00D-01 BMatC= 4.98D-13 BMatP= 3.23D-12
 IDIUse=1 WtCom= 1.00D+00 WtEn= 0.00D+00
 Coeff-Com:  0.140D-02-0.147D-01-0.198D-01 0.206D-01 0.291D+00 0.722D+00
 Coeff:      0.140D-02-0.147D-01-0.198D-01 0.206D-01 0.291D+00 0.722D+00
 Gap=     0.403 Goal=   None    Shift=    0.000
 RMSDP=5.05D-09 MaxDP=1.25D-07 DE=-2.56D-12 OVMax= 2.36D-07

 SCF Done:  E(RM062X) =  -229.272823341     A.U. after   12 cycles
            NFock= 12  Conv=0.50D-08     -V/T= 2.0029
 KE= 2.286122194971D+02 PE=-6.650274744785D+02 EE= 1.459091338598D+02
 Leave Link  502 at Mon Feb 20 09:40:42 2023, MaxMem=  6710886400 cpu:              36.6 elap:               1.9
 (Enter /data0/home/software/g16/l601.exe)
 Copying SCF densities to generalized density rwf, IOpCl= 0 IROHF=0.

 **********************************************************************

            Population analysis using the SCF density.

 **********************************************************************

 Alpha  occ. eigenvalues --  -19.65978 -19.62751 -19.58765  -1.16681  -1.13525
 Alpha  occ. eigenvalues --   -1.09941  -0.63605  -0.61099  -0.58746  -0.51350
 Alpha  occ. eigenvalues --   -0.47536  -0.43934  -0.43037  -0.40146  -0.36703
 Alpha virt. eigenvalues --    0.03568   0.05955   0.09713   0.11126   0.13027
 Alpha virt. eigenvalues --    0.15374   0.15709   0.16396   0.17310   0.17832
 Alpha virt. eigenvalues --    0.18809   0.19768   0.20792   0.23020   0.24174
 Alpha virt. eigenvalues --    0.25172   0.30310   0.32684   0.48010   0.51053
 Alpha virt. eigenvalues --    0.52065   0.53770   0.55651   0.64224   0.94662
 Alpha virt. eigenvalues --    0.97497   0.99052   1.00118   1.00713   1.05628
 Alpha virt. eigenvalues --    1.05883   1.09219   1.09843   1.17029   1.18869
 Alpha virt. eigenvalues --    1.19144   1.19579   1.24476   1.25180   1.31075
 Alpha virt. eigenvalues --    1.32488   1.33688   1.35679   1.36975   1.46170
 Alpha virt. eigenvalues --    1.67353   1.69012   1.71394   1.71881   1.73915
 Alpha virt. eigenvalues --    1.75775   1.75853   1.80463   2.00296   2.02674
 Alpha virt. eigenvalues --    2.06764   2.09840   2.12515   2.15552   2.19249
 Alpha virt. eigenvalues --    2.32754   2.34450   2.35097   2.42738   2.45062
 Alpha virt. eigenvalues --    2.53239   2.53972   2.56525   2.63651   2.87006
 Alpha virt. eigenvalues --    2.88152   2.93033   3.00253   3.01436   3.13332
 Alpha virt. eigenvalues --    5.04660   5.05533   5.09880   5.47052   5.50840
 Alpha virt. eigenvalues --    5.52554   5.86621   5.93233   5.99871   6.76617
 Alpha virt. eigenvalues --    6.78004   6.79073   6.80173   6.81708   6.83804
 Alpha virt. eigenvalues --    6.84776   6.86762   6.90275   6.91295   6.95508
 Alpha virt. eigenvalues --    6.99738   7.07693   7.09426   7.19253  49.93939
 Alpha virt. eigenvalues --   49.95836  50.03135
          Condensed to atoms (all electrons):
               1          2          3          4          5          6
     1  O    7.912842   0.317308   0.324728   0.000000  -0.000000   0.000000
     2  H    0.317308   0.429158  -0.025059  -0.000000  -0.000000  -0.000000
     3  H    0.324728  -0.025059   0.424044   0.000000  -0.000000  -0.000000
     4  O    0.000000  -0.000000   0.000000   8.057057   0.286517   0.300473
     5  H   -0.000000  -0.000000  -0.000000   0.286517   0.388227  -0.019733
     6  H    0.000000  -0.000000  -0.000000   0.300473  -0.019733   0.450878
     7  O   -0.000001   0.000004   0.000000   0.019145  -0.084334   0.001718
     8  H    0.000000   0.000001   0.000000  -0.001742   0.008191   0.000208
     9  H   -0.000000  -0.000000   0.000000  -0.000438   0.004687   0.000015
               7          8          9
     1  O   -0.000001   0.000000  -0.000000
     2  H    0.000004   0.000001  -0.000000
     3  H    0.000000   0.000000   0.000000
     4  O    0.019145  -0.001742  -0.000438
     5  H   -0.084334   0.008191   0.004687
     6  H    0.001718   0.000208   0.000015
     7  O    8.066527   0.307303   0.315849
     8  H    0.307303   0.411210  -0.022833
     9  H    0.315849  -0.022833   0.396048
 Mulliken charges:
               1
     1  O   -0.554876
     2  H    0.278588
     3  H    0.276287
     4  O   -0.661012
     5  H    0.416447
     6  H    0.266441
     7  O   -0.626209
     8  H    0.297662
     9  H    0.306672
 Sum of Mulliken charges =  -0.00000
 Mulliken charges with hydrogens summed into heavy atoms:
               1
     1  O   -0.000001
     4  O    0.021876
     7  O   -0.021875
         Mulliken charges condensed to fragments:
      1     -0.000001
      2      0.021876
      3     -0.021875
 Electronic spatial extent (au):  <R**2>=          29791.0229
 Charge=             -0.0000 electrons
 Dipole moment (field-independent basis, Debye):
    X=              2.5171    Y=              2.6654    Z=             -4.2067  Tot=              5.5800
 Quadrupole moment (field-independent basis, Debye-Ang):
   XX=             22.9554   YY=             38.5560   ZZ=           -106.5008
   XY=             50.5775   XZ=            -12.4690   YZ=            -14.0762
 Traceless Quadrupole moment (field-independent basis, Debye-Ang):
   XX=             37.9519   YY=             53.5524   ZZ=            -91.5043
   XY=             50.5775   XZ=            -12.4690   YZ=            -14.0762
 Octapole moment (field-independent basis, Debye-Ang**2):
  XXX=             54.7596  YYY=            376.6293  ZZZ=          -1959.8268  XYY=            669.8567
  XXY=            479.7373  XXZ=           -120.0444  XZZ=           -695.8828  YZZ=           -787.0115
  YYZ=              3.6040  XYZ=            143.8816
 Hexadecapole moment (field-independent basis, Debye-Ang**3):
 XXXX=          -2465.1820 YYYY=           2375.7011 ZZZZ=         -31991.5501 XXXY=           2944.4483
 XXXZ=          -2965.0190 YYYX=           7484.4120 YYYZ=            220.4669 ZZZX=         -15160.0526
 ZZZY=         -17161.5400 XXYY=           6753.6986 XXZZ=          -6608.4072 YYZZ=          -6439.7493
 XXYZ=           1455.9734 YYXZ=           3307.9342 ZZXY=          -4311.0494
 N-N= 6.123329778055D+01 E-N=-6.650274703110D+02  KE= 2.286122194971D+02
 No NMR shielding tensors so no spin-rotation constants.
 Leave Link  601 at Mon Feb 20 09:40:42 2023, MaxMem=  6710886400 cpu:               1.9 elap:               0.1
 (Enter /data0/home/software/g16/l122.exe)
 CPIOFr:  IOpCl= 0 IRwI=-1 IRwCP=  731 ICalc= -1 LCPTot=       22668 Len1MO=       57607 IndFrg=       22668
 CPIOFr:  IOpCl= 0 IRwI=-1 IRwCP=  731 ICalc=  0 LCPTot=       22668 Len1MO=       57607 IndFrg=       80275
 Counterpoise: doing calculation for fragment   1 using the basis set of the full-system, NewBq=T
 Leave Link  122 at Mon Feb 20 09:40:42 2023, MaxMem=  6710886400 cpu:               0.1 elap:               0.0
 (Enter /data0/home/software/g16/l301.exe)
 Basis read from rwf:  (5D, 7F)
 No pseudopotential information found on rwf file.
   117 basis functions,   174 primitive gaussians,   123 cartesian basis functions
     5 alpha electrons        5 beta electrons
       nuclear repulsion energy         9.1079630027 Hartrees.
 IExCor= 4336 DFT=T Ex+Corr=M062X ExCW=0 ScaHFX=  0.540000
 ScaDFX=  1.000000  1.000000  1.000000  1.000000 ScalE2=  1.000000  1.000000
 IRadAn=      5 IRanWt=     -1 IRanGd=            0 ICorTp=0 IEmpDi=131
 NAtoms=    9 NActive=    9 NUniq=    9 SFac= 1.00D+00 NAtFMM=   60 NAOKFM=F Big=F
 Integral buffers will be    131072 words long.
 Raffenetti 2 integral format.
 Two-electron integral symmetry is turned off.
 R6Disp:  Grimme-D3 Dispersion energy=       -0.0000000080 Hartrees.
 Nuclear repulsion after empirical dispersion term =        9.1079629947 Hartrees.
 No density basis found on file   718.
 Leave Link  301 at Mon Feb 20 09:40:42 2023, MaxMem=  6710886400 cpu:               1.2 elap:               0.1
 (Enter /data0/home/software/g16/l302.exe)
 NPDir=0 NMtPBC=     1 NCelOv=     1 NCel=       1 NClECP=     1 NCelD=      1
         NCelK=      1 NCelE2=     1 NClLst=     1 CellRange=     0.0.
 One-electron integrals computed using PRISM.
 NBasis=   117 RedAO= T EigKep=  1.70D-03  NBF=   117
 NBsUse=   117 1.00D-06 EigRej= -1.00D+00 NBFU=   117
 Precomputing XC quadrature grid using
 IXCGrd= 4 IRadAn=           5 IRanWt=          -1 IRanGd=           0 AccXCQ= 0.00D+00.
 Generated NRdTot=       0 NPtTot=           0 NUsed=           0 NTot=          32
 NSgBfM=   111   111   111   111   111 MxSgAt=     9 MxSgA2=     9.
 Leave Link  302 at Mon Feb 20 09:40:42 2023, MaxMem=  6710886400 cpu:               2.7 elap:               0.1
 (Enter /data0/home/software/g16/l303.exe)
 DipDrv:  MaxL=1.
 Leave Link  303 at Mon Feb 20 09:40:42 2023, MaxMem=  6710886400 cpu:               0.5 elap:               0.0
 (Enter /data0/home/software/g16/l401.exe)
 ExpMin= 8.45D-02 ExpMax= 8.59D+03 ExpMxC= 1.30D+03 IAcc=3 IRadAn=         5 AccDes= 0.00D+00
 Harris functional with IExCor= 1009 and IRadAn=       5 diagonalized for initial guess.
 HarFok:  IExCor= 1009 AccDes= 0.00D+00 IRadAn=         5 IDoV= 1 UseB2=F ITyADJ=14
 ICtDFT=  3500011 ScaDFX=  1.000000  1.000000  1.000000  1.000000
 FoFCou: FMM=F IPFlag=           0 FMFlag=      100000 FMFlg1=           0
         NFxFlg=           0 DoJE=T BraDBF=F KetDBF=T FulRan=T
         wScrn=  0.000000 ICntrl=       500 IOpCl=  0 I1Cent=   200000004 NGrid=           0
         NMat0=    1 NMatS0=      1 NMatT0=    0 NMatD0=    1 NMtDS0=    0 NMtDT0=    0
 Symmetry not used in FoFCou.
 Harris En= -76.4163504511107    
 JPrj=0 DoOrth=F DoCkMO=F.
 Leave Link  401 at Mon Feb 20 09:40:43 2023, MaxMem=  6710886400 cpu:               4.2 elap:               0.2
 (Enter /data0/home/software/g16/l502.exe)
 Keep R1 ints in memory in canonical form, NReq=46556122.
 FoFCou: FMM=F IPFlag=           0 FMFlag=           0 FMFlg1=           0
         NFxFlg=           0 DoJE=F BraDBF=F KetDBF=F FulRan=T
         wScrn=  0.000000 ICntrl=       600 IOpCl=  0 I1Cent=           0 NGrid=           0
         NMat0=    1 NMatS0=   6903 NMatT0=    0 NMatD0=    1 NMtDS0=    0 NMtDT0=    0
 Symmetry not used in FoFCou.
 Two-electron integral symmetry not used.
 Closed shell SCF:
 Using DIIS extrapolation, IDIIS=  1040.
 NGot=  6710886400 LenX=  6687023004 LenY=  6687007434
 Requested convergence on RMS density matrix=1.00D-08 within 128 cycles.
 Requested convergence on MAX density matrix=1.00D-06.
 Requested convergence on             energy=1.00D-06.
 No special actions if energy rises.
 Integral accuracy reduced to 1.0D-05 until final iterations.

 Cycle   1  Pass 0  IDiag  1:
 E= -76.3456375088162    
 DIIS: error= 7.04D-02 at cycle   1 NSaved=   1.
 NSaved= 1 IEnMin= 1 EnMin= -76.3456375088162     IErMin= 1 ErrMin= 7.04D-02
 ErrMax= 7.04D-02  0.00D+00 EMaxC= 1.00D-01 BMatC= 1.21D-01 BMatP= 1.21D-01
 IDIUse=3 WtCom= 2.96D-01 WtEn= 7.04D-01
 Coeff-Com:  0.100D+01
 Coeff-En:   0.100D+01
 Coeff:      0.100D+01
 Gap=     0.324 Goal=   None    Shift=    0.000
 GapD=    0.324 DampG=1.000 DampE=0.500 DampFc=0.5000 IDamp=-1.
 Damping current iteration by 5.00D-01
 RMSDP=2.63D-03 MaxDP=1.01D-01              OVMax= 1.69D-01

 Cycle   2  Pass 0  IDiag  1:
 E= -76.3772185312969     Delta-E=       -0.031581022481 Rises=F Damp=T
 DIIS: error= 1.03D-02 at cycle   2 NSaved=   2.
 NSaved= 2 IEnMin= 2 EnMin= -76.3772185312969     IErMin= 2 ErrMin= 1.03D-02
 ErrMax= 1.03D-02  0.00D+00 EMaxC= 1.00D-01 BMatC= 4.83D-03 BMatP= 1.21D-01
 IDIUse=3 WtCom= 8.97D-01 WtEn= 1.03D-01
 Coeff-Com:  0.819D-01 0.918D+00
 Coeff-En:   0.187D+00 0.813D+00
 Coeff:      0.928D-01 0.907D+00
 Gap=     0.471 Goal=   None    Shift=    0.000
 RMSDP=3.14D-04 MaxDP=1.40D-02 DE=-3.16D-02 OVMax= 1.01D-01

 Cycle   3  Pass 0  IDiag  1:
 E= -76.4213038820172     Delta-E=       -0.044085350720 Rises=F Damp=F
 DIIS: error= 2.21D-03 at cycle   3 NSaved=   3.
 NSaved= 3 IEnMin= 3 EnMin= -76.4213038820172     IErMin= 3 ErrMin= 2.21D-03
 ErrMax= 2.21D-03  0.00D+00 EMaxC= 1.00D-01 BMatC= 1.01D-04 BMatP= 4.83D-03
 IDIUse=3 WtCom= 9.78D-01 WtEn= 2.21D-02
 Coeff-Com: -0.212D-01 0.424D-01 0.979D+00
 Coeff-En:   0.000D+00 0.000D+00 0.100D+01
 Coeff:     -0.207D-01 0.414D-01 0.979D+00
 Gap=     0.461 Goal=   None    Shift=    0.000
 RMSDP=3.96D-05 MaxDP=1.09D-03 DE=-4.41D-02 OVMax= 3.41D-03

 Cycle   4  Pass 0  IDiag  1:
 E= -76.4213884601225     Delta-E=       -0.000084578105 Rises=F Damp=F
 DIIS: error= 4.13D-04 at cycle   4 NSaved=   4.
 NSaved= 4 IEnMin= 4 EnMin= -76.4213884601225     IErMin= 4 ErrMin= 4.13D-04
 ErrMax= 4.13D-04  0.00D+00 EMaxC= 1.00D-01 BMatC= 3.34D-06 BMatP= 1.01D-04
 IDIUse=3 WtCom= 9.96D-01 WtEn= 4.13D-03
 Coeff-Com: -0.215D-02-0.172D-02 0.164D+00 0.840D+00
 Coeff-En:   0.000D+00 0.000D+00 0.000D+00 0.100D+01
 Coeff:     -0.214D-02-0.172D-02 0.163D+00 0.841D+00
 Gap=     0.462 Goal=   None    Shift=    0.000
 RMSDP=7.39D-06 MaxDP=3.53D-04 DE=-8.46D-05 OVMax= 5.33D-04

 Initial convergence to 1.0D-05 achieved.  Increase integral accuracy.
 Cycle   5  Pass 1  IDiag  1:
 E= -76.4213784367160     Delta-E=        0.000010023406 Rises=F Damp=F
 DIIS: error= 8.98D-05 at cycle   1 NSaved=   1.
 NSaved= 1 IEnMin= 1 EnMin= -76.4213784367160     IErMin= 1 ErrMin= 8.98D-05
 ErrMax= 8.98D-05  0.00D+00 EMaxC= 1.00D-01 BMatC= 9.83D-08 BMatP= 9.83D-08
 IDIUse=1 WtCom= 1.00D+00 WtEn= 0.00D+00
 Coeff-Com:  0.100D+01
 Coeff:      0.100D+01
 Gap=     0.462 Goal=   None    Shift=    0.000
 RMSDP=7.39D-06 MaxDP=3.53D-04 DE= 1.00D-05 OVMax= 2.27D-04

 Cycle   6  Pass 1  IDiag  1:
 E= -76.4213785472875     Delta-E=       -0.000000110572 Rises=F Damp=F
 DIIS: error= 4.30D-05 at cycle   2 NSaved=   2.
 NSaved= 2 IEnMin= 2 EnMin= -76.4213785472875     IErMin= 2 ErrMin= 4.30D-05
 ErrMax= 4.30D-05  0.00D+00 EMaxC= 1.00D-01 BMatC= 5.80D-08 BMatP= 9.83D-08
 IDIUse=1 WtCom= 1.00D+00 WtEn= 0.00D+00
 Coeff-Com:  0.411D+00 0.589D+00
 Coeff:      0.411D+00 0.589D+00
 Gap=     0.462 Goal=   None    Shift=    0.000
 RMSDP=1.10D-06 MaxDP=4.42D-05 DE=-1.11D-07 OVMax= 7.98D-05

 Cycle   7  Pass 1  IDiag  1:
 E= -76.4213785853357     Delta-E=       -0.000000038048 Rises=F Damp=F
 DIIS: error= 2.42D-05 at cycle   3 NSaved=   3.
 NSaved= 3 IEnMin= 3 EnMin= -76.4213785853357     IErMin= 3 ErrMin= 2.42D-05
 ErrMax= 2.42D-05  0.00D+00 EMaxC= 1.00D-01 BMatC= 5.77D-09 BMatP= 5.80D-08
 IDIUse=1 WtCom= 1.00D+00 WtEn= 0.00D+00
 Coeff-Com: -0.122D+00 0.167D+00 0.955D+00
 Coeff:     -0.122D+00 0.167D+00 0.955D+00
 Gap=     0.462 Goal=   None    Shift=    0.000
 RMSDP=5.26D-07 MaxDP=2.06D-05 DE=-3.80D-08 OVMax= 4.31D-05

 Cycle   8  Pass 1  IDiag  1:
 E= -76.4213785910182     Delta-E=       -0.000000005682 Rises=F Damp=F
 DIIS: error= 1.78D-06 at cycle   4 NSaved=   4.
 NSaved= 4 IEnMin= 4 EnMin= -76.4213785910182     IErMin= 4 ErrMin= 1.78D-06
 ErrMax= 1.78D-06  0.00D+00 EMaxC= 1.00D-01 BMatC= 7.48D-11 BMatP= 5.77D-09
 IDIUse=1 WtCom= 1.00D+00 WtEn= 0.00D+00
 Coeff-Com: -0.332D-01 0.132D-01 0.169D+00 0.851D+00
 Coeff:     -0.332D-01 0.132D-01 0.169D+00 0.851D+00
 Gap=     0.462 Goal=   None    Shift=    0.000
 RMSDP=6.41D-08 MaxDP=2.04D-06 DE=-5.68D-09 OVMax= 4.92D-06

 Cycle   9  Pass 1  IDiag  1:
 E= -76.4213785911049     Delta-E=       -0.000000000087 Rises=F Damp=F
 DIIS: error= 3.55D-07 at cycle   5 NSaved=   5.
 NSaved= 5 IEnMin= 5 EnMin= -76.4213785911049     IErMin= 5 ErrMin= 3.55D-07
 ErrMax= 3.55D-07  0.00D+00 EMaxC= 1.00D-01 BMatC= 1.43D-12 BMatP= 7.48D-11
 IDIUse=1 WtCom= 1.00D+00 WtEn= 0.00D+00
 Coeff-Com:  0.594D-02-0.687D-02-0.458D-01-0.983D-01 0.115D+01
 Coeff:      0.594D-02-0.687D-02-0.458D-01-0.983D-01 0.115D+01
 Gap=     0.462 Goal=   None    Shift=    0.000
 RMSDP=2.18D-08 MaxDP=6.50D-07 DE=-8.67D-11 OVMax= 1.48D-06

 Cycle  10  Pass 1  IDiag  1:
 E= -76.4213785911085     Delta-E=       -0.000000000004 Rises=F Damp=F
 DIIS: error= 2.53D-08 at cycle   6 NSaved=   6.
 NSaved= 6 IEnMin= 6 EnMin= -76.4213785911085     IErMin= 6 ErrMin= 2.53D-08
 ErrMax= 2.53D-08  0.00D+00 EMaxC= 1.00D-01 BMatC= 2.18D-14 BMatP= 1.43D-12
 IDIUse=1 WtCom= 1.00D+00 WtEn= 0.00D+00
 Coeff-Com: -0.528D-03 0.111D-02 0.545D-02 0.243D-02-0.174D+00 0.117D+01
 Coeff:     -0.528D-03 0.111D-02 0.545D-02 0.243D-02-0.174D+00 0.117D+01
 Gap=     0.462 Goal=   None    Shift=    0.000
 RMSDP=2.15D-09 MaxDP=4.21D-08 DE=-3.58D-12 OVMax= 1.49D-07

 SCF Done:  E(RM062X) =  -76.4213785911     A.U. after   10 cycles
            NFock= 10  Conv=0.22D-08     -V/T= 2.0029
 KE= 7.619734524701D+01 PE=-1.990689516603D+02 EE= 3.734226482751D+01
 Leave Link  502 at Mon Feb 20 09:40:44 2023, MaxMem=  6710886400 cpu:              30.6 elap:               1.6
 (Enter /data0/home/software/g16/l601.exe)
 Copying SCF densities to generalized density rwf, IOpCl= 0 IROHF=0.

 **********************************************************************

            Population analysis using the SCF density.

 **********************************************************************

 Alpha  occ. eigenvalues --  -19.62560  -1.13333  -0.60909  -0.47370  -0.39971
 Alpha virt. eigenvalues --    0.06216   0.08067   0.12808   0.13339   0.16755
 Alpha virt. eigenvalues --    0.16854   0.17414   0.17970   0.18891   0.19543
 Alpha virt. eigenvalues --    0.22505   0.22928   0.23667   0.29683   0.32233
 Alpha virt. eigenvalues --    0.32515   0.34031   0.37670   0.50831   0.53936
 Alpha virt. eigenvalues --    0.60350   0.64207   0.78840   0.79849   0.81892
 Alpha virt. eigenvalues --    0.82400   0.85260   0.93007   0.97797   1.00304
 Alpha virt. eigenvalues --    1.04207   1.06046   1.06473   1.14762   1.19030
 Alpha virt. eigenvalues --    1.19784   1.23061   1.32661   1.33848   1.69239
 Alpha virt. eigenvalues --    1.73975   1.76024   1.84008   1.88731   1.92004
 Alpha virt. eigenvalues --    1.92787   1.99871   2.06989   2.08798   2.10007
 Alpha virt. eigenvalues --    2.19573   2.26379   2.32676   2.34955   2.36823
 Alpha virt. eigenvalues --    2.42937   2.52375   2.53946   2.54340   2.58988
 Alpha virt. eigenvalues --    2.67667   2.69040   2.70871   2.72567   2.75730
 Alpha virt. eigenvalues --    2.80044   2.81189   2.82877   2.88329   2.96567
 Alpha virt. eigenvalues --    3.01593   3.02791   3.03768   3.18357   3.21327
 Alpha virt. eigenvalues --    3.60934   3.62106   3.65398   3.82954   4.66990
 Alpha virt. eigenvalues --    4.77354   5.05711   5.23820   5.38268   5.47245
 Alpha virt. eigenvalues --    5.93427   6.78178   6.80346   6.86936   6.91471
 Alpha virt. eigenvalues --    7.09592  10.25943  10.28275  10.29858  10.30298
 Alpha virt. eigenvalues --   10.35161  10.37129  10.44109  10.48154  10.59006
 Alpha virt. eigenvalues --   10.68278  13.40068  13.41748  13.80441  13.89451
 Alpha virt. eigenvalues --   14.27508  14.37219  18.40174  18.47871  49.96028
 Alpha virt. eigenvalues --  139.75595 139.77026
          Condensed to atoms (all electrons):
               1          2          3          4          5          6
     1  O    7.915304   0.318796   0.324746   0.000000  -0.000000   0.000000
     2  H    0.318796   0.423712  -0.024621   0.000000  -0.000000   0.000000
     3  H    0.324746  -0.024621   0.423141  -0.000000   0.000000  -0.000000
     4  O    0.000000   0.000000  -0.000000   0.000000  -0.000000  -0.000000
     5  H   -0.000000  -0.000000   0.000000  -0.000000   0.000000  -0.000000
     6  H    0.000000   0.000000  -0.000000  -0.000000  -0.000000   0.000000
     7  O    0.000000   0.000000  -0.000000  -0.000000   0.000000   0.000000
     8  H    0.000000   0.000000   0.000000   0.000000  -0.000000   0.000000
     9  H   -0.000000  -0.000000  -0.000000  -0.000000  -0.000000   0.000000
               7          8          9
     1  O    0.000000   0.000000  -0.000000
     2  H    0.000000   0.000000  -0.000000
     3  H   -0.000000   0.000000  -0.000000
     4  O   -0.000000   0.000000  -0.000000
     5  H    0.000000  -0.000000  -0.000000
     6  H    0.000000   0.000000   0.000000
     7  O    0.000000  -0.000000  -0.000000
     8  H   -0.000000   0.000000  -0.000000
     9  H   -0.000000  -0.000000   0.000000
 Mulliken charges:
               1
     1  O   -0.558846
     2  H    0.282113
     3  H    0.276734
     4  O   -0.000000
     5  H    0.000000
     6  H   -0.000000
     7  O   -0.000000
     8  H   -0.000000
     9  H    0.000000
 Sum of Mulliken charges =   0.00000
 Mulliken charges with hydrogens summed into heavy atoms:
               1
     1  O    0.000001
     4  O   -0.000000
     7  O   -0.000001
         Mulliken charges condensed to fragments:
      1      0.000001
      2     -0.000000
      3     -0.000001
 Electronic spatial extent (au):  <R**2>=          15528.9933
 Charge=             -0.0000 electrons
 Dipole moment (field-independent basis, Debye):
    X=              0.3510    Y=              1.1969    Z=             -1.6955  Tot=              2.1048
 Quadrupole moment (field-independent basis, Debye-Ang):
   XX=              0.6813   YY=             23.6274   ZZ=            -48.6574
   XY=             18.6788   XZ=            -13.6821   YZ=             -4.8457
 Traceless Quadrupole moment (field-independent basis, Debye-Ang):
   XX=              8.7976   YY=             31.7436   ZZ=            -40.5412
   XY=             18.6788   XZ=            -13.6821   YZ=             -4.8457
 Octapole moment (field-independent basis, Debye-Ang**2):
  XXX=           -106.5278  YYY=            330.8440  ZZZ=          -1035.1258  XYY=            342.3152
  XXY=            180.4407  XXZ=           -185.3959  XZZ=           -466.4455  YZZ=           -384.8701
  YYZ=             63.2110  XYZ=             22.9855
 Hexadecapole moment (field-independent basis, Debye-Ang**3):
 XXXX=          -3320.9240 YYYY=           3731.6748 ZZZZ=         -19395.0949 XXXY=            747.4795
 XXXZ=          -3428.7146 YYYX=           4831.5783 YYYZ=           1404.9263 ZZZX=         -10450.4025
 ZZZY=          -9887.2130 XXYY=           3627.1833 XXZZ=          -5515.7100 YYZZ=          -3052.9044
 XXYZ=              2.3111 YYXZ=           1818.9003 ZZXY=          -3194.7901
 N-N= 9.107962994688D+00 E-N=-1.990689516748D+02  KE= 7.619734524701D+01
 No NMR shielding tensors so no spin-rotation constants.
 Leave Link  601 at Mon Feb 20 09:40:44 2023, MaxMem=  6710886400 cpu:               1.9 elap:               0.1
 (Enter /data0/home/software/g16/l122.exe)
 CPIOFr:  IOpCl= 0 IRwI=-1 IRwCP=  731 ICalc=  1 LCPTot=       22668 Len1MO=       57607 IndFrg=      137882
 Counterpoise: doing calculation for fragment   2 using the basis set of the full-system, NewBq=T
 Leave Link  122 at Mon Feb 20 09:40:44 2023, MaxMem=  6710886400 cpu:               0.1 elap:               0.0
 (Enter /data0/home/software/g16/l301.exe)
 Basis read from rwf:  (5D, 7F)
 No pseudopotential information found on rwf file.
   117 basis functions,   174 primitive gaussians,   123 cartesian basis functions
     5 alpha electrons        5 beta electrons
       nuclear repulsion energy         9.1344066468 Hartrees.
 IExCor= 4336 DFT=T Ex+Corr=M062X ExCW=0 ScaHFX=  0.540000
 ScaDFX=  1.000000  1.000000  1.000000  1.000000 ScalE2=  1.000000  1.000000
 IRadAn=      5 IRanWt=     -1 IRanGd=            0 ICorTp=0 IEmpDi=131
 NAtoms=    9 NActive=    9 NUniq=    9 SFac= 1.00D+00 NAtFMM=   60 NAOKFM=F Big=F
 Integral buffers will be    131072 words long.
 Raffenetti 2 integral format.
 Two-electron integral symmetry is turned off.
 R6Disp:  Grimme-D3 Dispersion energy=       -0.0000000078 Hartrees.
 Nuclear repulsion after empirical dispersion term =        9.1344066390 Hartrees.
 No density basis found on file   718.
 Leave Link  301 at Mon Feb 20 09:40:44 2023, MaxMem=  6710886400 cpu:               1.3 elap:               0.1
 (Enter /data0/home/software/g16/l302.exe)
 NPDir=0 NMtPBC=     1 NCelOv=     1 NCel=       1 NClECP=     1 NCelD=      1
         NCelK=      1 NCelE2=     1 NClLst=     1 CellRange=     0.0.
 One-electron integrals computed using PRISM.
 NBasis=   117 RedAO= T EigKep=  1.70D-03  NBF=   117
 NBsUse=   117 1.00D-06 EigRej= -1.00D+00 NBFU=   117
 Precomputing XC quadrature grid using
 IXCGrd= 4 IRadAn=           5 IRanWt=          -1 IRanGd=           0 AccXCQ= 0.00D+00.
 Generated NRdTot=       0 NPtTot=           0 NUsed=           0 NTot=          32
 NSgBfM=   111   111   111   111   111 MxSgAt=     9 MxSgA2=     9.
 Leave Link  302 at Mon Feb 20 09:40:44 2023, MaxMem=  6710886400 cpu:               2.7 elap:               0.1
 (Enter /data0/home/software/g16/l303.exe)
 DipDrv:  MaxL=1.
 Leave Link  303 at Mon Feb 20 09:40:44 2023, MaxMem=  6710886400 cpu:               0.5 elap:               0.0
 (Enter /data0/home/software/g16/l401.exe)
 ExpMin= 8.45D-02 ExpMax= 8.59D+03 ExpMxC= 1.30D+03 IAcc=3 IRadAn=         5 AccDes= 0.00D+00
 Harris functional with IExCor= 1009 and IRadAn=       5 diagonalized for initial guess.
 HarFok:  IExCor= 1009 AccDes= 0.00D+00 IRadAn=         5 IDoV= 1 UseB2=F ITyADJ=14
 ICtDFT=  3500011 ScaDFX=  1.000000  1.000000  1.000000  1.000000
 FoFCou: FMM=F IPFlag=           0 FMFlag=      100000 FMFlg1=           0
         NFxFlg=           0 DoJE=T BraDBF=F KetDBF=T FulRan=T
         wScrn=  0.000000 ICntrl=       500 IOpCl=  0 I1Cent=   200000004 NGrid=           0
         NMat0=    1 NMatS0=      1 NMatT0=    0 NMatD0=    1 NMtDS0=    0 NMtDT0=    0
 Symmetry not used in FoFCou.
 Harris En= -76.4170876120905    
 JPrj=0 DoOrth=F DoCkMO=F.
 Leave Link  401 at Mon Feb 20 09:40:45 2023, MaxMem=  6710886400 cpu:               3.7 elap:               0.2
 (Enter /data0/home/software/g16/l502.exe)
 Keep R1 ints in memory in canonical form, NReq=46556122.
 FoFCou: FMM=F IPFlag=           0 FMFlag=           0 FMFlg1=           0
         NFxFlg=           0 DoJE=F BraDBF=F KetDBF=F FulRan=T
         wScrn=  0.000000 ICntrl=       600 IOpCl=  0 I1Cent=           0 NGrid=           0
         NMat0=    1 NMatS0=   6903 NMatT0=    0 NMatD0=    1 NMtDS0=    0 NMtDT0=    0
 Symmetry not used in FoFCou.
 Two-electron integral symmetry not used.
 Closed shell SCF:
 Using DIIS extrapolation, IDIIS=  1040.
 NGot=  6710886400 LenX=  6687023004 LenY=  6687007434
 Requested convergence on RMS density matrix=1.00D-08 within 128 cycles.
 Requested convergence on MAX density matrix=1.00D-06.
 Requested convergence on             energy=1.00D-06.
 No special actions if energy rises.
 Integral accuracy reduced to 1.0D-05 until final iterations.

 Cycle   1  Pass 0  IDiag  1:
 E= -76.3461087223940    
 DIIS: error= 5.21D-02 at cycle   1 NSaved=   1.
 NSaved= 1 IEnMin= 1 EnMin= -76.3461087223940     IErMin= 1 ErrMin= 5.21D-02
 ErrMax= 5.21D-02  0.00D+00 EMaxC= 1.00D-01 BMatC= 1.22D-01 BMatP= 1.22D-01
 IDIUse=3 WtCom= 4.79D-01 WtEn= 5.21D-01
 Coeff-Com:  0.100D+01
 Coeff-En:   0.100D+01
 Coeff:      0.100D+01
 Gap=     0.296 Goal=   None    Shift=    0.000
 GapD=    0.296 DampG=1.000 DampE=0.500 DampFc=0.5000 IDamp=-1.
 Damping current iteration by 5.00D-01
 RMSDP=2.85D-03 MaxDP=1.01D-01              OVMax= 1.70D-01

 Cycle   2  Pass 0  IDiag  1:
 E= -76.3777033795190     Delta-E=       -0.031594657125 Rises=F Damp=T
 DIIS: error= 7.57D-03 at cycle   2 NSaved=   2.
 NSaved= 2 IEnMin= 2 EnMin= -76.3777033795190     IErMin= 2 ErrMin= 7.57D-03
 ErrMax= 7.57D-03  0.00D+00 EMaxC= 1.00D-01 BMatC= 4.86D-03 BMatP= 1.22D-01
 IDIUse=3 WtCom= 9.24D-01 WtEn= 7.57D-02
 Coeff-Com:  0.820D-01 0.918D+00
 Coeff-En:   0.188D+00 0.812D+00
 Coeff:      0.900D-01 0.910D+00
 Gap=     0.424 Goal=   None    Shift=    0.000
 RMSDP=3.53D-04 MaxDP=1.41D-02 DE=-3.16D-02 OVMax= 1.02D-01

 Cycle   3  Pass 0  IDiag  1:
 E= -76.4219336409996     Delta-E=       -0.044230261481 Rises=F Damp=F
 DIIS: error= 1.66D-03 at cycle   3 NSaved=   3.
 NSaved= 3 IEnMin= 3 EnMin= -76.4219336409996     IErMin= 3 ErrMin= 1.66D-03
 ErrMax= 1.66D-03  0.00D+00 EMaxC= 1.00D-01 BMatC= 1.28D-04 BMatP= 4.86D-03
 IDIUse=3 WtCom= 9.83D-01 WtEn= 1.66D-02
 Coeff-Com: -0.249D-01 0.477D-01 0.977D+00
 Coeff-En:   0.000D+00 0.000D+00 0.100D+01
 Coeff:     -0.244D-01 0.469D-01 0.978D+00
 Gap=     0.426 Goal=   None    Shift=    0.000
 RMSDP=5.04D-05 MaxDP=1.15D-03 DE=-4.42D-02 OVMax= 3.68D-03

 Cycle   4  Pass 0  IDiag  1:
 E= -76.4220377973707     Delta-E=       -0.000104156371 Rises=F Damp=F
 DIIS: error= 2.94D-04 at cycle   4 NSaved=   4.
 NSaved= 4 IEnMin= 4 EnMin= -76.4220377973707     IErMin= 4 ErrMin= 2.94D-04
 ErrMax= 2.94D-04  0.00D+00 EMaxC= 1.00D-01 BMatC= 3.06D-06 BMatP= 1.28D-04
 IDIUse=3 WtCom= 9.97D-01 WtEn= 2.94D-03
 Coeff-Com: -0.265D-02-0.513D-03 0.156D+00 0.847D+00
 Coeff-En:   0.000D+00 0.000D+00 0.000D+00 0.100D+01
 Coeff:     -0.265D-02-0.512D-03 0.156D+00 0.847D+00
 Gap=     0.426 Goal=   None    Shift=    0.000
 RMSDP=7.70D-06 MaxDP=3.38D-04 DE=-1.04D-04 OVMax= 5.22D-04

 Initial convergence to 1.0D-05 achieved.  Increase integral accuracy.
 Cycle   5  Pass 1  IDiag  1:
 E= -76.4220379498126     Delta-E=       -0.000000152442 Rises=F Damp=F
 DIIS: error= 6.16D-05 at cycle   1 NSaved=   1.
 NSaved= 1 IEnMin= 1 EnMin= -76.4220379498126     IErMin= 1 ErrMin= 6.16D-05
 ErrMax= 6.16D-05  0.00D+00 EMaxC= 1.00D-01 BMatC= 9.81D-08 BMatP= 9.81D-08
 IDIUse=1 WtCom= 1.00D+00 WtEn= 0.00D+00
 Coeff-Com:  0.100D+01
 Coeff:      0.100D+01
 Gap=     0.427 Goal=   None    Shift=    0.000
 RMSDP=7.70D-06 MaxDP=3.38D-04 DE=-1.52D-07 OVMax= 2.20D-04

 Cycle   6  Pass 1  IDiag  1:
 E= -76.4220380473629     Delta-E=       -0.000000097550 Rises=F Damp=F
 DIIS: error= 2.82D-05 at cycle   2 NSaved=   2.
 NSaved= 2 IEnMin= 2 EnMin= -76.4220380473629     IErMin= 2 ErrMin= 2.82D-05
 ErrMax= 2.82D-05  0.00D+00 EMaxC= 1.00D-01 BMatC= 6.24D-08 BMatP= 9.81D-08
 IDIUse=1 WtCom= 1.00D+00 WtEn= 0.00D+00
 Coeff-Com:  0.426D+00 0.574D+00
 Coeff:      0.426D+00 0.574D+00
 Gap=     0.426 Goal=   None    Shift=    0.000
 RMSDP=1.14D-06 MaxDP=4.37D-05 DE=-9.76D-08 OVMax= 7.99D-05

 Cycle   7  Pass 1  IDiag  1:
 E= -76.4220380882580     Delta-E=       -0.000000040895 Rises=F Damp=F
 DIIS: error= 1.66D-05 at cycle   3 NSaved=   3.
 NSaved= 3 IEnMin= 3 EnMin= -76.4220380882580     IErMin= 3 ErrMin= 1.66D-05
 ErrMax= 1.66D-05  0.00D+00 EMaxC= 1.00D-01 BMatC= 5.09D-09 BMatP= 6.24D-08
 IDIUse=1 WtCom= 1.00D+00 WtEn= 0.00D+00
 Coeff-Com: -0.103D+00 0.153D+00 0.951D+00
 Coeff:     -0.103D+00 0.153D+00 0.951D+00
 Gap=     0.426 Goal=   None    Shift=    0.000
 RMSDP=5.33D-07 MaxDP=1.95D-05 DE=-4.09D-08 OVMax= 3.95D-05

 Cycle   8  Pass 1  IDiag  1:
 E= -76.4220380932837     Delta-E=       -0.000000005026 Rises=F Damp=F
 DIIS: error= 1.72D-06 at cycle   4 NSaved=   4.
 NSaved= 4 IEnMin= 4 EnMin= -76.4220380932837     IErMin= 4 ErrMin= 1.72D-06
 ErrMax= 1.72D-06  0.00D+00 EMaxC= 1.00D-01 BMatC= 8.25D-11 BMatP= 5.09D-09
 IDIUse=1 WtCom= 1.00D+00 WtEn= 0.00D+00
 Coeff-Com: -0.332D-01 0.960D-02 0.164D+00 0.860D+00
 Coeff:     -0.332D-01 0.960D-02 0.164D+00 0.860D+00
 Gap=     0.426 Goal=   None    Shift=    0.000
 RMSDP=7.92D-08 MaxDP=2.29D-06 DE=-5.03D-09 OVMax= 5.65D-06

 Cycle   9  Pass 1  IDiag  1:
 E= -76.4220380933903     Delta-E=       -0.000000000107 Rises=F Damp=F
 DIIS: error= 3.20D-07 at cycle   5 NSaved=   5.
 NSaved= 5 IEnMin= 5 EnMin= -76.4220380933903     IErMin= 5 ErrMin= 3.20D-07
 ErrMax= 3.20D-07  0.00D+00 EMaxC= 1.00D-01 BMatC= 1.71D-12 BMatP= 8.25D-11
 IDIUse=1 WtCom= 1.00D+00 WtEn= 0.00D+00
 Coeff-Com:  0.518D-02-0.552D-02-0.463D-01-0.107D+00 0.115D+01
 Coeff:      0.518D-02-0.552D-02-0.463D-01-0.107D+00 0.115D+01
 Gap=     0.426 Goal=   None    Shift=    0.000
 RMSDP=2.16D-08 MaxDP=7.23D-07 DE=-1.07D-10 OVMax= 1.61D-06

 Cycle  10  Pass 1  IDiag  1:
 E= -76.4220380933950     Delta-E=       -0.000000000005 Rises=F Damp=F
 DIIS: error= 2.26D-08 at cycle   6 NSaved=   6.
 NSaved= 6 IEnMin= 6 EnMin= -76.4220380933950     IErMin= 6 ErrMin= 2.26D-08
 ErrMax= 2.26D-08  0.00D+00 EMaxC= 1.00D-01 BMatC= 2.40D-14 BMatP= 1.71D-12
 IDIUse=1 WtCom= 1.00D+00 WtEn= 0.00D+00
 Coeff-Com: -0.235D-03 0.701D-03 0.511D-02 0.156D-02-0.155D+00 0.115D+01
 Coeff:     -0.235D-03 0.701D-03 0.511D-02 0.156D-02-0.155D+00 0.115D+01
 Gap=     0.426 Goal=   None    Shift=    0.000
 RMSDP=2.11D-09 MaxDP=4.65D-08 DE=-4.75D-12 OVMax= 1.58D-07

 SCF Done:  E(RM062X) =  -76.4220380934     A.U. after   10 cycles
            NFock= 10  Conv=0.21D-08     -V/T= 2.0029
 KE= 7.620396462967D+01 PE=-1.991219629066D+02 EE= 3.736155354459D+01
 Leave Link  502 at Mon Feb 20 09:40:46 2023, MaxMem=  6710886400 cpu:              30.7 elap:               1.6
 (Enter /data0/home/software/g16/l601.exe)
 Copying SCF densities to generalized density rwf, IOpCl= 0 IROHF=0.

 **********************************************************************

            Population analysis using the SCF density.

 **********************************************************************

 Alpha  occ. eigenvalues --  -19.62549  -1.13461  -0.61039  -0.47429  -0.40010
 Alpha virt. eigenvalues --    0.02637   0.09495   0.10712   0.12524   0.12678
 Alpha virt. eigenvalues --    0.16028   0.18090   0.19123   0.19187   0.19317
 Alpha virt. eigenvalues --    0.20798   0.22199   0.23708   0.27623   0.29114
 Alpha virt. eigenvalues --    0.30406   0.32200   0.33488   0.51308   0.54080
 Alpha virt. eigenvalues --    0.56626   0.61693   0.70076   0.71580   0.79488
 Alpha virt. eigenvalues --    0.80667   0.81483   0.81715   0.95214   0.99839
 Alpha virt. eigenvalues --    1.04146   1.04997   1.07049   1.08647   1.13144
 Alpha virt. eigenvalues --    1.20803   1.22153   1.34078   1.38087   1.67942
 Alpha virt. eigenvalues --    1.69376   1.75155   1.78268   1.85968   1.86162
 Alpha virt. eigenvalues --    1.89722   1.99155   2.04881   2.07670   2.09730
 Alpha virt. eigenvalues --    2.20957   2.22394   2.28000   2.32473   2.39263
 Alpha virt. eigenvalues --    2.42220   2.43907   2.47535   2.52801   2.54245
 Alpha virt. eigenvalues --    2.57636   2.59083   2.60183   2.61638   2.69887
 Alpha virt. eigenvalues --    2.71803   2.74260   2.75855   2.78885   2.83028
 Alpha virt. eigenvalues --    2.90377   3.01453   3.01790   3.11282   3.21873
 Alpha virt. eigenvalues --    3.48718   3.50634   3.60170   3.65393   4.49011
 Alpha virt. eigenvalues --    4.65397   5.04052   5.06768   5.28930   5.49599
 Alpha virt. eigenvalues --    5.98665   6.78379   6.80707   6.89520   6.92272
 Alpha virt. eigenvalues --    7.12685   9.77803   9.80703   9.85065   9.98011
 Alpha virt. eigenvalues --   10.07656  10.26006  10.29698  10.34937  10.43382
 Alpha virt. eigenvalues --   10.59229  12.80593  13.27669  13.39702  13.64471
 Alpha virt. eigenvalues --   13.79032  14.31724  17.61607  18.40085  49.98977
 Alpha virt. eigenvalues --  135.72994 139.76145
          Condensed to atoms (all electrons):
               1          2          3          4          5          6
     1  O    0.000001  -0.000001  -0.000000   0.000000  -0.000000  -0.000000
     2  H   -0.000001   0.000000   0.000000  -0.000000   0.000000   0.000000
     3  H   -0.000000   0.000000   0.000000  -0.000000   0.000000   0.000000
     4  O    0.000000  -0.000000  -0.000000   8.000324   0.285844   0.303100
     5  H   -0.000000   0.000000   0.000000   0.285844   0.384751  -0.017448
     6  H   -0.000000   0.000000   0.000000   0.303100  -0.017448   0.436636
     7  O    0.000000  -0.000000  -0.000000   0.016178   0.001483  -0.001007
     8  H   -0.000000   0.000000   0.000000  -0.001255   0.001469   0.000273
     9  H   -0.000000   0.000000   0.000000  -0.000742   0.000456   0.000121
               7          8          9
     1  O    0.000000  -0.000000  -0.000000
     2  H   -0.000000   0.000000   0.000000
     3  H   -0.000000   0.000000   0.000000
     4  O    0.016178  -0.001255  -0.000742
     5  H    0.001483   0.001469   0.000456
     6  H   -0.001007   0.000273   0.000121
     7  O    0.005880  -0.001802  -0.002265
     8  H   -0.001802   0.002219  -0.000854
     9  H   -0.002265  -0.000854   0.003085
 Mulliken charges:
               1
     1  O   -0.000000
     2  H    0.000000
     3  H    0.000000
     4  O   -0.603450
     5  H    0.343445
     6  H    0.278325
     7  O   -0.018468
     8  H   -0.000050
     9  H    0.000198
 Sum of Mulliken charges =  -0.00000
 Mulliken charges with hydrogens summed into heavy atoms:
               1
     1  O    0.000000
     4  O    0.018320
     7  O   -0.018320
         Mulliken charges condensed to fragments:
      1      0.000000
      2      0.018320
      3     -0.018320
 Electronic spatial extent (au):  <R**2>=           6739.6208
 Charge=              0.0000 electrons
 Dipole moment (field-independent basis, Debye):
    X=             -0.2493    Y=              0.4109    Z=             -2.0178  Tot=              2.0743
 Quadrupole moment (field-independent basis, Debye-Ang):
   XX=             -7.5001   YY=             -0.1998   ZZ=            -42.9408
   XY=              1.1317   XZ=            -13.4654   YZ=            -14.0704
 Traceless Quadrupole moment (field-independent basis, Debye-Ang):
   XX=              9.3801   YY=             16.6804   ZZ=            -26.0606
   XY=              1.1317   XZ=            -13.4654   YZ=            -14.0704
 Octapole moment (field-independent basis, Debye-Ang**2):
  XXX=           -102.3985  YYY=            -97.3803  ZZZ=           -671.1328  XYY=             -2.3123
  XXY=            -40.8788  XXZ=           -131.3118  XZZ=           -258.9546  YZZ=           -343.7421
  YYZ=           -158.9805  XYZ=            -88.9106
 Hexadecapole moment (field-independent basis, Debye-Ang**3):
 XXXX=          -1064.2477 YYYY=          -2223.2565 ZZZZ=          -9183.5129 XXXY=           -719.4661
 XXXZ=          -1291.8420 YYYX=           -475.2435 YYYZ=          -2272.7204 ZZZX=          -3912.7982
 ZZZY=          -5580.1662 XXYY=           -373.3135 XXZZ=          -1962.5346 YYZZ=          -3342.0599
 XXYZ=           -932.7454 YYXZ=           -899.8095 ZZXY=          -2009.5519
 N-N= 9.134406638983D+00 E-N=-1.991219625025D+02  KE= 7.620396462967D+01
 No NMR shielding tensors so no spin-rotation constants.
 Leave Link  601 at Mon Feb 20 09:40:46 2023, MaxMem=  6710886400 cpu:               1.8 elap:               0.1
 (Enter /data0/home/software/g16/l122.exe)
 CPIOFr:  IOpCl= 0 IRwI=-1 IRwCP=  731 ICalc=  2 LCPTot=       22668 Len1MO=       57607 IndFrg=      195489
 Counterpoise: doing calculation for fragment   3 using the basis set of the full-system, NewBq=T
 Leave Link  122 at Mon Feb 20 09:40:46 2023, MaxMem=  6710886400 cpu:               0.1 elap:               0.0
 (Enter /data0/home/software/g16/l301.exe)
 Basis read from rwf:  (5D, 7F)
 No pseudopotential information found on rwf file.
   117 basis functions,   174 primitive gaussians,   123 cartesian basis functions
     5 alpha electrons        5 beta electrons
       nuclear repulsion energy         9.0699614919 Hartrees.
 IExCor= 4336 DFT=T Ex+Corr=M062X ExCW=0 ScaHFX=  0.540000
 ScaDFX=  1.000000  1.000000  1.000000  1.000000 ScalE2=  1.000000  1.000000
 IRadAn=      5 IRanWt=     -1 IRanGd=            0 ICorTp=0 IEmpDi=131
 NAtoms=    9 NActive=    9 NUniq=    9 SFac= 1.00D+00 NAtFMM=   60 NAOKFM=F Big=F
 Integral buffers will be    131072 words long.
 Raffenetti 2 integral format.
 Two-electron integral symmetry is turned off.
 R6Disp:  Grimme-D3 Dispersion energy=       -0.0000000075 Hartrees.
 Nuclear repulsion after empirical dispersion term =        9.0699614845 Hartrees.
 No density basis found on file   718.
 Leave Link  301 at Mon Feb 20 09:40:46 2023, MaxMem=  6710886400 cpu:               1.2 elap:               0.1
 (Enter /data0/home/software/g16/l302.exe)
 NPDir=0 NMtPBC=     1 NCelOv=     1 NCel=       1 NClECP=     1 NCelD=      1
         NCelK=      1 NCelE2=     1 NClLst=     1 CellRange=     0.0.
 One-electron integrals computed using PRISM.
 NBasis=   117 RedAO= T EigKep=  1.70D-03  NBF=   117
 NBsUse=   117 1.00D-06 EigRej= -1.00D+00 NBFU=   117
 Precomputing XC quadrature grid using
 IXCGrd= 4 IRadAn=           5 IRanWt=          -1 IRanGd=           0 AccXCQ= 0.00D+00.
 Generated NRdTot=       0 NPtTot=           0 NUsed=           0 NTot=          32
 NSgBfM=   111   111   111   111   111 MxSgAt=     9 MxSgA2=     9.
 Leave Link  302 at Mon Feb 20 09:40:47 2023, MaxMem=  6710886400 cpu:               2.7 elap:               0.1
 (Enter /data0/home/software/g16/l303.exe)
 DipDrv:  MaxL=1.
 Leave Link  303 at Mon Feb 20 09:40:47 2023, MaxMem=  6710886400 cpu:               0.5 elap:               0.0
 (Enter /data0/home/software/g16/l401.exe)
 ExpMin= 8.45D-02 ExpMax= 8.59D+03 ExpMxC= 1.30D+03 IAcc=3 IRadAn=         5 AccDes= 0.00D+00
 Harris functional with IExCor= 1009 and IRadAn=       5 diagonalized for initial guess.
 HarFok:  IExCor= 1009 AccDes= 0.00D+00 IRadAn=         5 IDoV= 1 UseB2=F ITyADJ=14
 ICtDFT=  3500011 ScaDFX=  1.000000  1.000000  1.000000  1.000000
 FoFCou: FMM=F IPFlag=           0 FMFlag=      100000 FMFlg1=           0
         NFxFlg=           0 DoJE=T BraDBF=F KetDBF=T FulRan=T
         wScrn=  0.000000 ICntrl=       500 IOpCl=  0 I1Cent=   200000004 NGrid=           0
         NMat0=    1 NMatS0=      1 NMatT0=    0 NMatD0=    1 NMtDS0=    0 NMtDT0=    0
 Symmetry not used in FoFCou.
 Harris En= -76.4165168547810    
 JPrj=0 DoOrth=F DoCkMO=F.
 Leave Link  401 at Mon Feb 20 09:40:47 2023, MaxMem=  6710886400 cpu:               4.2 elap:               0.2
 (Enter /data0/home/software/g16/l502.exe)
 Keep R1 ints in memory in canonical form, NReq=46556122.
 FoFCou: FMM=F IPFlag=           0 FMFlag=           0 FMFlg1=           0
         NFxFlg=           0 DoJE=F BraDBF=F KetDBF=F FulRan=T
         wScrn=  0.000000 ICntrl=       600 IOpCl=  0 I1Cent=           0 NGrid=           0
         NMat0=    1 NMatS0=   6903 NMatT0=    0 NMatD0=    1 NMtDS0=    0 NMtDT0=    0
 Symmetry not used in FoFCou.
 Two-electron integral symmetry not used.
 Closed shell SCF:
 Using DIIS extrapolation, IDIIS=  1040.
 NGot=  6710886400 LenX=  6687023004 LenY=  6687007434
 Requested convergence on RMS density matrix=1.00D-08 within 128 cycles.
 Requested convergence on MAX density matrix=1.00D-06.
 Requested convergence on             energy=1.00D-06.
 No special actions if energy rises.
 Integral accuracy reduced to 1.0D-05 until final iterations.

 Cycle   1  Pass 0  IDiag  1:
 E= -76.3477397000054    
 DIIS: error= 4.70D-02 at cycle   1 NSaved=   1.
 NSaved= 1 IEnMin= 1 EnMin= -76.3477397000054     IErMin= 1 ErrMin= 4.70D-02
 ErrMax= 4.70D-02  0.00D+00 EMaxC= 1.00D-01 BMatC= 1.19D-01 BMatP= 1.19D-01
 IDIUse=3 WtCom= 5.30D-01 WtEn= 4.70D-01
 Coeff-Com:  0.100D+01
 Coeff-En:   0.100D+01
 Coeff:      0.100D+01
 Gap=     0.317 Goal=   None    Shift=    0.000
 GapD=    0.317 DampG=1.000 DampE=0.500 DampFc=0.5000 IDamp=-1.
 Damping current iteration by 5.00D-01
 RMSDP=3.37D-03 MaxDP=9.93D-02              OVMax= 1.69D-01

 Cycle   2  Pass 0  IDiag  1:
 E= -76.3785055248092     Delta-E=       -0.030765824804 Rises=F Damp=T
 DIIS: error= 9.61D-03 at cycle   2 NSaved=   2.
 NSaved= 2 IEnMin= 2 EnMin= -76.3785055248092     IErMin= 2 ErrMin= 9.61D-03
 ErrMax= 9.61D-03  0.00D+00 EMaxC= 1.00D-01 BMatC= 4.95D-03 BMatP= 1.19D-01
 IDIUse=3 WtCom= 9.04D-01 WtEn= 9.61D-02
 Coeff-Com:  0.871D-01 0.913D+00
 Coeff-En:   0.196D+00 0.804D+00
 Coeff:      0.976D-01 0.902D+00
 Gap=     0.449 Goal=   None    Shift=    0.000
 RMSDP=4.54D-04 MaxDP=1.43D-02 DE=-3.08D-02 OVMax= 1.02D-01

 Cycle   3  Pass 0  IDiag  1:
 E= -76.4224144887065     Delta-E=       -0.043908963897 Rises=F Damp=F
 DIIS: error= 1.53D-03 at cycle   3 NSaved=   3.
 NSaved= 3 IEnMin= 3 EnMin= -76.4224144887065     IErMin= 3 ErrMin= 1.53D-03
 ErrMax= 1.53D-03  0.00D+00 EMaxC= 1.00D-01 BMatC= 1.05D-04 BMatP= 4.95D-03
 IDIUse=3 WtCom= 9.85D-01 WtEn= 1.53D-02
 Coeff-Com: -0.225D-01 0.413D-01 0.981D+00
 Coeff-En:   0.000D+00 0.000D+00 0.100D+01
 Coeff:     -0.221D-01 0.407D-01 0.981D+00
 Gap=     0.452 Goal=   None    Shift=    0.000
 RMSDP=4.60D-05 MaxDP=1.08D-03 DE=-4.39D-02 OVMax= 3.50D-03

 Cycle   4  Pass 0  IDiag  1:
 E= -76.4225026579462     Delta-E=       -0.000088169240 Rises=F Damp=F
 DIIS: error= 1.77D-04 at cycle   4 NSaved=   4.
 NSaved= 4 IEnMin= 4 EnMin= -76.4225026579462     IErMin= 4 ErrMin= 1.77D-04
 ErrMax= 1.77D-04  0.00D+00 EMaxC= 1.00D-01 BMatC= 2.88D-06 BMatP= 1.05D-04
 IDIUse=3 WtCom= 9.98D-01 WtEn= 1.77D-03
 Coeff-Com: -0.207D-02-0.155D-02 0.149D+00 0.854D+00
 Coeff-En:   0.000D+00 0.000D+00 0.000D+00 0.100D+01
 Coeff:     -0.207D-02-0.155D-02 0.149D+00 0.855D+00
 Gap=     0.452 Goal=   None    Shift=    0.000
 RMSDP=9.90D-06 MaxDP=3.38D-04 DE=-8.82D-05 OVMax= 5.28D-04

 Initial convergence to 1.0D-05 achieved.  Increase integral accuracy.
 Cycle   5  Pass 1  IDiag  1:
 E= -76.4224875016327     Delta-E=        0.000015156313 Rises=F Damp=F
 DIIS: error= 3.69D-05 at cycle   1 NSaved=   1.
 NSaved= 1 IEnMin= 1 EnMin= -76.4224875016327     IErMin= 1 ErrMin= 3.69D-05
 ErrMax= 3.69D-05  0.00D+00 EMaxC= 1.00D-01 BMatC= 8.66D-08 BMatP= 8.66D-08
 IDIUse=1 WtCom= 1.00D+00 WtEn= 0.00D+00
 Coeff-Com:  0.100D+01
 Coeff:      0.100D+01
 Gap=     0.452 Goal=   None    Shift=    0.000
 RMSDP=9.90D-06 MaxDP=3.38D-04 DE= 1.52D-05 OVMax= 2.25D-04

 Cycle   6  Pass 1  IDiag  1:
 E= -76.4224876156537     Delta-E=       -0.000000114021 Rises=F Damp=F
 DIIS: error= 3.37D-05 at cycle   2 NSaved=   2.
 NSaved= 2 IEnMin= 2 EnMin= -76.4224876156537     IErMin= 2 ErrMin= 3.37D-05
 ErrMax= 3.37D-05  0.00D+00 EMaxC= 1.00D-01 BMatC= 4.47D-08 BMatP= 8.66D-08
 IDIUse=1 WtCom= 1.00D+00 WtEn= 0.00D+00
 Coeff-Com:  0.384D+00 0.616D+00
 Coeff:      0.384D+00 0.616D+00
 Gap=     0.452 Goal=   None    Shift=    0.000
 RMSDP=1.04D-06 MaxDP=4.11D-05 DE=-1.14D-07 OVMax= 7.62D-05

 Cycle   7  Pass 1  IDiag  1:
 E= -76.4224876451306     Delta-E=       -0.000000029477 Rises=F Damp=F
 DIIS: error= 1.11D-05 at cycle   3 NSaved=   3.
 NSaved= 3 IEnMin= 3 EnMin= -76.4224876451306     IErMin= 3 ErrMin= 1.11D-05
 ErrMax= 1.11D-05  0.00D+00 EMaxC= 1.00D-01 BMatC= 6.26D-09 BMatP= 4.47D-08
 IDIUse=1 WtCom= 1.00D+00 WtEn= 0.00D+00
 Coeff-Com: -0.120D+00 0.208D+00 0.912D+00
 Coeff:     -0.120D+00 0.208D+00 0.912D+00
 Gap=     0.452 Goal=   None    Shift=    0.000
 RMSDP=1.01D-06 MaxDP=2.27D-05 DE=-2.95D-08 OVMax= 4.51D-05

 Cycle   8  Pass 1  IDiag  1:
 E= -76.4224876511851     Delta-E=       -0.000000006055 Rises=F Damp=F
 DIIS: error= 1.57D-06 at cycle   4 NSaved=   4.
 NSaved= 4 IEnMin= 4 EnMin= -76.4224876511851     IErMin= 4 ErrMin= 1.57D-06
 ErrMax= 1.57D-06  0.00D+00 EMaxC= 1.00D-01 BMatC= 9.29D-11 BMatP= 6.26D-09
 IDIUse=1 WtCom= 1.00D+00 WtEn= 0.00D+00
 Coeff-Com: -0.340D-01 0.113D-01 0.163D+00 0.860D+00
 Coeff:     -0.340D-01 0.113D-01 0.163D+00 0.860D+00
 Gap=     0.452 Goal=   None    Shift=    0.000
 RMSDP=1.33D-07 MaxDP=2.98D-06 DE=-6.05D-09 OVMax= 5.75D-06

 Cycle   9  Pass 1  IDiag  1:
 E= -76.4224876512934     Delta-E=       -0.000000000108 Rises=F Damp=F
 DIIS: error= 1.25D-07 at cycle   5 NSaved=   5.
 NSaved= 5 IEnMin= 5 EnMin= -76.4224876512934     IErMin= 5 ErrMin= 1.25D-07
 ErrMax= 1.25D-07  0.00D+00 EMaxC= 1.00D-01 BMatC= 1.43D-12 BMatP= 9.29D-11
 IDIUse=1 WtCom= 1.00D+00 WtEn= 0.00D+00
 Coeff-Com:  0.569D-02-0.808D-02-0.408D-01-0.897D-01 0.113D+01
 Coeff:      0.569D-02-0.808D-02-0.408D-01-0.897D-01 0.113D+01
 Gap=     0.452 Goal=   None    Shift=    0.000
 RMSDP=2.84D-08 MaxDP=6.66D-07 DE=-1.08D-10 OVMax= 1.54D-06

 Cycle  10  Pass 1  IDiag  1:
 E= -76.4224876512976     Delta-E=       -0.000000000004 Rises=F Damp=F
 DIIS: error= 3.29D-08 at cycle   6 NSaved=   6.
 NSaved= 6 IEnMin= 6 EnMin= -76.4224876512976     IErMin= 6 ErrMin= 3.29D-08
 ErrMax= 3.29D-08  0.00D+00 EMaxC= 1.00D-01 BMatC= 2.54D-14 BMatP= 1.43D-12
 IDIUse=1 WtCom= 1.00D+00 WtEn= 0.00D+00
 Coeff-Com: -0.879D-03 0.198D-02 0.656D-02 0.510D-02-0.220D+00 0.121D+01
 Coeff:     -0.879D-03 0.198D-02 0.656D-02 0.510D-02-0.220D+00 0.121D+01
 Gap=     0.452 Goal=   None    Shift=    0.000
 RMSDP=2.75D-09 MaxDP=5.72D-08 DE=-4.28D-12 OVMax= 1.44D-07

 SCF Done:  E(RM062X) =  -76.4224876513     A.U. after   10 cycles
            NFock= 10  Conv=0.28D-08     -V/T= 2.0032
 KE= 7.617886241176D+01 PE=-1.989786141723D+02 EE= 3.730730262481D+01
 Leave Link  502 at Mon Feb 20 09:40:48 2023, MaxMem=  6710886400 cpu:              30.8 elap:               1.6
 (Enter /data0/home/software/g16/l601.exe)
 Copying SCF densities to generalized density rwf, IOpCl= 0 IROHF=0.

 **********************************************************************

            Population analysis using the SCF density.

 **********************************************************************

 Alpha  occ. eigenvalues --  -19.62765  -1.13251  -0.60347  -0.47765  -0.39998
 Alpha virt. eigenvalues --    0.05246   0.09583   0.10160   0.12978   0.15378
 Alpha virt. eigenvalues --    0.15890   0.17274   0.18439   0.18602   0.18803
 Alpha virt. eigenvalues --    0.20334   0.22192   0.24554   0.29306   0.29818
 Alpha virt. eigenvalues --    0.30392   0.31513   0.38024   0.51247   0.54325
 Alpha virt. eigenvalues --    0.56091   0.59850   0.75780   0.76720   0.78657
 Alpha virt. eigenvalues --    0.80102   0.80956   0.87569   0.97037   0.99487
 Alpha virt. eigenvalues --    1.02802   1.03592   1.06172   1.08337   1.12451
 Alpha virt. eigenvalues --    1.20332   1.25886   1.40235   1.57870   1.69680
 Alpha virt. eigenvalues --    1.74234   1.75057   1.80427   1.84851   1.85488
 Alpha virt. eigenvalues --    1.89018   1.91975   1.98580   2.06831   2.07506
 Alpha virt. eigenvalues --    2.13677   2.20384   2.26023   2.31708   2.35734
 Alpha virt. eigenvalues --    2.38599   2.49551   2.52092   2.53037   2.54897
 Alpha virt. eigenvalues --    2.59548   2.60470   2.67256   2.69180   2.69224
 Alpha virt. eigenvalues --    2.73627   2.75168   2.78326   2.80130   2.87349
 Alpha virt. eigenvalues --    2.91181   3.00308   3.00882   3.03301   3.10581
 Alpha virt. eigenvalues --    3.48650   3.59668   3.63939   3.64498   4.55832
 Alpha virt. eigenvalues --    4.64709   5.08136   5.10635   5.28301   5.55123
 Alpha virt. eigenvalues --    5.90098   6.80185   6.83767   6.88067   7.01296
 Alpha virt. eigenvalues --    7.11749   9.73338   9.85412   9.86202   9.88961
 Alpha virt. eigenvalues --   10.04896  10.25288  10.28924  10.34200  10.42564
 Alpha virt. eigenvalues --   10.58412  12.89889  13.27257  13.38956  13.78246
 Alpha virt. eigenvalues --   13.80535  14.30823  17.81255  18.39336  49.97525
 Alpha virt. eigenvalues --  136.73631 139.75094
          Condensed to atoms (all electrons):
               1          2          3          4          5          6
     1  O    0.000005  -0.000004  -0.000002   0.000000   0.000000   0.000000
     2  H   -0.000004   0.000003   0.000001  -0.000000  -0.000000  -0.000000
     3  H   -0.000002   0.000001   0.000001   0.000000  -0.000000  -0.000000
     4  O    0.000000  -0.000000   0.000000   0.028713  -0.036067  -0.003661
     5  H    0.000000  -0.000000  -0.000000  -0.036067   0.053388   0.002787
     6  H    0.000000  -0.000000  -0.000000  -0.003661   0.002787   0.001476
     7  O   -0.000001   0.000003   0.000000   0.053194  -0.120503   0.000244
     8  H    0.000000   0.000000  -0.000000  -0.003074   0.009395  -0.000042
     9  H   -0.000000   0.000000   0.000000  -0.001418   0.004978  -0.000070
               7          8          9
     1  O   -0.000001   0.000000  -0.000000
     2  H    0.000003   0.000000   0.000000
     3  H    0.000000  -0.000000   0.000000
     4  O    0.053194  -0.003074  -0.001418
     5  H   -0.120503   0.009395   0.004978
     6  H    0.000244  -0.000042  -0.000070
     7  O    8.056232   0.307323   0.319403
     8  H    0.307323   0.431996  -0.025468
     9  H    0.319403  -0.025468   0.414151
 Mulliken charges:
               1
     1  O    0.000002
     2  H   -0.000004
     3  H   -0.000000
     4  O   -0.037686
     5  H    0.086022
     6  H   -0.000734
     7  O   -0.615895
     8  H    0.279871
     9  H    0.288425
 Sum of Mulliken charges =  -0.00000
 Mulliken charges with hydrogens summed into heavy atoms:
               1
     1  O   -0.000002
     4  O    0.047602
     7  O   -0.047600
         Mulliken charges condensed to fragments:
      1     -0.000002
      2      0.047602
      3     -0.047600
 Electronic spatial extent (au):  <R**2>=           7527.0359
 Charge=             -0.0000 electrons
 Dipole moment (field-independent basis, Debye):
    X=              1.8720    Y=              0.8261    Z=             -0.1751  Tot=              2.0536
 Quadrupole moment (field-independent basis, Debye-Ang):
   XX=             22.6107   YY=             10.8513   ZZ=             -9.6856
   XY=             24.2784   XZ=             12.1467   YZ=              5.7459
 Traceless Quadrupole moment (field-independent basis, Debye-Ang):
   XX=             14.6853   YY=              2.9258   ZZ=            -17.6111
   XY=             24.2784   XZ=             12.1467   YZ=              5.7459
 Octapole moment (field-independent basis, Debye-Ang**2):
  XXX=            190.6805  YYY=             83.2745  ZZZ=           -189.3498  XYY=            255.7555
  XXY=            264.1018  XXZ=            150.2549  XZZ=             22.9951  YZZ=            -28.8054
  YYZ=             89.2709  XYZ=            173.6695
 Hexadecapole moment (field-independent basis, Debye-Ang**3):
 XXXX=           1240.5639 YYYY=            114.1402 ZZZZ=          -2714.6705 XXXY=           2172.2048
 XXXZ=           1240.3029 YYYX=           2303.3525 YYYZ=            821.5878 ZZZX=           -750.0710
 ZZZY=          -1278.7408 XXYY=           2698.2454 XXZZ=            567.9255 YYZZ=             61.0683
 XXYZ=           1872.5665 YYXZ=           1934.0614 ZZXY=            716.0184
 N-N= 9.069961484466D+00 E-N=-1.989786146193D+02  KE= 7.617886241176D+01
 No NMR shielding tensors so no spin-rotation constants.
 Leave Link  601 at Mon Feb 20 09:40:49 2023, MaxMem=  6710886400 cpu:               1.8 elap:               0.1
 (Enter /data0/home/software/g16/l122.exe)
 CPIOFr:  IOpCl= 0 IRwI=-1 IRwCP=  731 ICalc=  3 LCPTot=       22668 Len1MO=       57607 IndFrg=      253096
 Counterpoise: doing calculation for fragment   1 using the basis set of the fragment.
 Leave Link  122 at Mon Feb 20 09:40:49 2023, MaxMem=  6710886400 cpu:               0.1 elap:               0.0
 (Enter /data0/home/software/g16/l301.exe)
 Basis read from rwf:  (5D, 7F)
 No pseudopotential information found on rwf file.
    39 basis functions,    58 primitive gaussians,    41 cartesian basis functions
     5 alpha electrons        5 beta electrons
       nuclear repulsion energy         9.1079630027 Hartrees.
 IExCor= 4336 DFT=T Ex+Corr=M062X ExCW=0 ScaHFX=  0.540000
 ScaDFX=  1.000000  1.000000  1.000000  1.000000 ScalE2=  1.000000  1.000000
 IRadAn=      5 IRanWt=     -1 IRanGd=            0 ICorTp=0 IEmpDi=131
 NAtoms=    9 NActive=    3 NUniq=    3 SFac= 1.00D+00 NAtFMM=   60 NAOKFM=F Big=F
 Integral buffers will be    131072 words long.
 Raffenetti 2 integral format.
 Two-electron integral symmetry is turned off.
 R6Disp:  Grimme-D3 Dispersion energy=       -0.0000000080 Hartrees.
 Nuclear repulsion after empirical dispersion term =        9.1079629947 Hartrees.
 No density basis found on file   718.
 Leave Link  301 at Mon Feb 20 09:40:49 2023, MaxMem=  6710886400 cpu:               1.3 elap:               0.1
 (Enter /data0/home/software/g16/l302.exe)
 NPDir=0 NMtPBC=     1 NCelOv=     1 NCel=       1 NClECP=     1 NCelD=      1
         NCelK=      1 NCelE2=     1 NClLst=     1 CellRange=     0.0.
 One-electron integrals computed using PRISM.
 NBasis=    39 RedAO= T EigKep=  3.07D-03  NBF=    39
 NBsUse=    39 1.00D-06 EigRej= -1.00D+00 NBFU=    39
 Precomputing XC quadrature grid using
 IXCGrd= 4 IRadAn=           5 IRanWt=          -1 IRanGd=           0 AccXCQ= 0.00D+00.
 Generated NRdTot=       0 NPtTot=           0 NUsed=           0 NTot=          32
 NSgBfM=    41    41    41    41    41 MxSgAt=     3 MxSgA2=     3.
 Leave Link  302 at Mon Feb 20 09:40:49 2023, MaxMem=  6710886400 cpu:               2.2 elap:               0.1
 (Enter /data0/home/software/g16/l303.exe)
 DipDrv:  MaxL=1.
 Leave Link  303 at Mon Feb 20 09:40:49 2023, MaxMem=  6710886400 cpu:               0.4 elap:               0.0
 (Enter /data0/home/software/g16/l401.exe)
 ExpMin= 8.45D-02 ExpMax= 8.59D+03 ExpMxC= 1.30D+03 IAcc=3 IRadAn=         5 AccDes= 0.00D+00
 Harris functional with IExCor= 1009 and IRadAn=       5 diagonalized for initial guess.
 HarFok:  IExCor= 1009 AccDes= 0.00D+00 IRadAn=         5 IDoV= 1 UseB2=F ITyADJ=14
 ICtDFT=  3500011 ScaDFX=  1.000000  1.000000  1.000000  1.000000
 FoFCou: FMM=F IPFlag=           0 FMFlag=      100000 FMFlg1=           0
         NFxFlg=           0 DoJE=T BraDBF=F KetDBF=T FulRan=T
         wScrn=  0.000000 ICntrl=       500 IOpCl=  0 I1Cent=   200000004 NGrid=           0
         NMat0=    1 NMatS0=      1 NMatT0=    0 NMatD0=    1 NMtDS0=    0 NMtDT0=    0
 Symmetry not used in FoFCou.
 Harris En= -76.4163504198278    
 JPrj=0 DoOrth=F DoCkMO=F.
 Leave Link  401 at Mon Feb 20 09:40:49 2023, MaxMem=  6710886400 cpu:               2.9 elap:               0.1
 (Enter /data0/home/software/g16/l502.exe)
 Keep R1 ints in memory in canonical form, NReq=21036630.
 FoFCou: FMM=F IPFlag=           0 FMFlag=           0 FMFlg1=           0
         NFxFlg=           0 DoJE=F BraDBF=F KetDBF=F FulRan=T
         wScrn=  0.000000 ICntrl=       600 IOpCl=  0 I1Cent=           0 NGrid=           0
         NMat0=    1 NMatS0=    780 NMatT0=    0 NMatD0=    1 NMtDS0=    0 NMtDT0=    0
 Symmetry not used in FoFCou.
 Two-electron integral symmetry not used.
 Closed shell SCF:
 Using DIIS extrapolation, IDIIS=  1040.
 NGot=  6710886400 LenX=  6710576844 LenY=  6710574722
 Requested convergence on RMS density matrix=1.00D-08 within 128 cycles.
 Requested convergence on MAX density matrix=1.00D-06.
 Requested convergence on             energy=1.00D-06.
 No special actions if energy rises.
 Integral accuracy reduced to 1.0D-05 until final iterations.

 Cycle   1  Pass 0  IDiag  1:
 E= -76.3456374545243    
 DIIS: error= 7.04D-02 at cycle   1 NSaved=   1.
 NSaved= 1 IEnMin= 1 EnMin= -76.3456374545243     IErMin= 1 ErrMin= 7.04D-02
 ErrMax= 7.04D-02  0.00D+00 EMaxC= 1.00D-01 BMatC= 1.21D-01 BMatP= 1.21D-01
 IDIUse=3 WtCom= 2.96D-01 WtEn= 7.04D-01
 Coeff-Com:  0.100D+01
 Coeff-En:   0.100D+01
 Coeff:      0.100D+01
 Gap=     0.325 Goal=   None    Shift=    0.000
 GapD=    0.325 DampG=1.000 DampE=0.500 DampFc=0.5000 IDamp=-1.
 Damping current iteration by 5.00D-01
 RMSDP=7.88D-03 MaxDP=1.01D-01              OVMax= 1.69D-01

 Cycle   2  Pass 0  IDiag  1:
 E= -76.3772187837706     Delta-E=       -0.031581329246 Rises=F Damp=T
 DIIS: error= 1.13D-02 at cycle   2 NSaved=   2.
 NSaved= 2 IEnMin= 2 EnMin= -76.3772187837706     IErMin= 2 ErrMin= 1.13D-02
 ErrMax= 1.13D-02  0.00D+00 EMaxC= 1.00D-01 BMatC= 4.83D-03 BMatP= 1.21D-01
 IDIUse=3 WtCom= 8.87D-01 WtEn= 1.13D-01
 Coeff-Com:  0.819D-01 0.918D+00
 Coeff-En:   0.187D+00 0.813D+00
 Coeff:      0.938D-01 0.906D+00
 Gap=     0.457 Goal=   None    Shift=    0.000
 RMSDP=9.40D-04 MaxDP=1.39D-02 DE=-3.16D-02 OVMax= 1.01D-01

 Cycle   3  Pass 0  IDiag  1:
 E= -76.4213093376396     Delta-E=       -0.044090553869 Rises=F Damp=F
 DIIS: error= 2.19D-03 at cycle   3 NSaved=   3.
 NSaved= 3 IEnMin= 3 EnMin= -76.4213093376396     IErMin= 3 ErrMin= 2.19D-03
 ErrMax= 2.19D-03  0.00D+00 EMaxC= 1.00D-01 BMatC= 9.30D-05 BMatP= 4.83D-03
 IDIUse=3 WtCom= 9.78D-01 WtEn= 2.19D-02
 Coeff-Com: -0.201D-01 0.403D-01 0.980D+00
 Coeff-En:   0.000D+00 0.000D+00 0.100D+01
 Coeff:     -0.197D-01 0.394D-01 0.980D+00
 Gap=     0.462 Goal=   None    Shift=    0.000
 RMSDP=1.16D-04 MaxDP=1.06D-03 DE=-4.41D-02 OVMax= 3.33D-03

 Cycle   4  Pass 0  IDiag  1:
 E= -76.4213884002273     Delta-E=       -0.000079062588 Rises=F Damp=F
 DIIS: error= 4.14D-04 at cycle   4 NSaved=   4.
 NSaved= 4 IEnMin= 4 EnMin= -76.4213884002273     IErMin= 4 ErrMin= 4.14D-04
 ErrMax= 4.14D-04  0.00D+00 EMaxC= 1.00D-01 BMatC= 3.34D-06 BMatP= 9.30D-05
 IDIUse=3 WtCom= 9.96D-01 WtEn= 4.14D-03
 Coeff-Com: -0.196D-02-0.210D-02 0.164D+00 0.840D+00
 Coeff-En:   0.000D+00 0.000D+00 0.000D+00 0.100D+01
 Coeff:     -0.195D-02-0.209D-02 0.164D+00 0.841D+00
 Gap=     0.462 Goal=   None    Shift=    0.000
 RMSDP=2.22D-05 MaxDP=3.54D-04 DE=-7.91D-05 OVMax= 5.34D-04

 Cycle   5  Pass 0  IDiag  1:
 E= -76.4213904580894     Delta-E=       -0.000002057862 Rises=F Damp=F
 DIIS: error= 8.96D-05 at cycle   5 NSaved=   5.
[...]
 DIIS: error= 9.69D-09 at cycle   6 NSaved=   6.
 NSaved= 6 IEnMin= 6 EnMin= -76.4217648524842     IErMin= 6 ErrMin= 9.69D-09
 ErrMax= 9.69D-09  0.00D+00 EMaxC= 1.00D-01 BMatC= 3.16D-15 BMatP= 1.06D-13
 IDIUse=1 WtCom= 1.00D+00 WtEn= 0.00D+00
 Coeff-Com:  0.177D-04 0.156D-02-0.586D-03-0.461D-01 0.218D-01 0.102D+01
 Coeff:      0.177D-04 0.156D-02-0.586D-03-0.461D-01 0.218D-01 0.102D+01
 Gap=     0.463 Goal=   None    Shift=    0.000
 RMSDP=2.22D-09 MaxDP=2.17D-08 DE=-3.13D-13 OVMax= 5.80D-08

 SCF Done:  E(RM062X) =  -76.4217648525     A.U. after   11 cycles
            NFock= 11  Conv=0.22D-08     -V/T= 2.0028
 KE= 7.620703122396D+01 PE=-1.991259045233D+02 EE= 3.736270180785D+01
 Leave Link  502 at Mon Feb 20 09:40:50 2023, MaxMem=  6710886400 cpu:               8.8 elap:               0.4
 (Enter /data0/home/software/g16/l601.exe)
 Copying SCF densities to generalized density rwf, IOpCl= 0 IROHF=0.

 **********************************************************************

            Population analysis using the SCF density.

 **********************************************************************

 Alpha  occ. eigenvalues --  -19.62518  -1.13454  -0.61034  -0.47412  -0.39995
 Alpha virt. eigenvalues --    0.06346   0.13373   0.17376   0.17947   0.18958
 Alpha virt. eigenvalues --    0.23204   0.51297   0.53771   0.97749   1.00180
 Alpha virt. eigenvalues --    1.06050   1.19008   1.19868   1.32687   1.33692
 Alpha virt. eigenvalues --    1.69476   1.74138   1.76081   2.07739   2.09720
 Alpha virt. eigenvalues --    2.35074   2.43142   2.54351   2.88995   3.01670
 Alpha virt. eigenvalues --    5.05727   5.47840   5.94397   6.78177   6.80324
 Alpha virt. eigenvalues --    6.86919   6.91532   7.09355  49.96272
          Condensed to atoms (all electrons):
               4          5          6
     4  O    7.912516   0.320732   0.324644
     5  H    0.320732   0.423370  -0.024819
     6  H    0.324644  -0.024819   0.423002
 Mulliken charges:
               1
     1  O    0.000000
     2  H    0.000000
     3  H    0.000000
     4  O   -0.557891
     5  H    0.280718
     6  H    0.277174
     7  O    0.000000
     8  H    0.000000
     9  H    0.000000
 Sum of Mulliken charges =  -0.00000
 Mulliken charges with hydrogens summed into heavy atoms:
               1
     1  O    0.000000
     4  O   -0.000000
     7  O    0.000000
         Mulliken charges condensed to fragments:
      1      0.000000
      2     -0.000000
      3      0.000000
 Electronic spatial extent (au):  <R**2>=           6739.6652
 Charge=             -0.0000 electrons
 Dipole moment (field-independent basis, Debye):
    X=             -0.2302    Y=              0.4236    Z=             -2.0466  Tot=              2.1026
 Quadrupole moment (field-independent basis, Debye-Ang):
   XX=             -7.2732   YY=              0.0216   ZZ=            -43.4488
   XY=              1.3773   XZ=            -13.4727   YZ=            -14.2142
 Traceless Quadrupole moment (field-independent basis, Debye-Ang):
   XX=              9.6269   YY=             16.9217   ZZ=            -26.5487
   XY=              1.3773   XZ=            -13.4727   YZ=            -14.2142
 Octapole moment (field-independent basis, Debye-Ang**2):
  XXX=           -100.3160  YYY=            -94.4072  ZZZ=           -677.9626  XYY=              0.5552
  XXY=            -38.4080  XXZ=           -130.4095  XZZ=           -260.5494  YZZ=           -347.2652
  YYZ=           -159.3328  XYZ=            -88.2945
 Hexadecapole moment (field-independent basis, Debye-Ang**3):
 XXXX=          -1046.7704 YYYY=          -2186.9473 ZZZZ=          -9266.2365 XXXY=           -698.2473
 XXXZ=          -1280.5095 YYYX=           -443.1797 YYYZ=          -2267.5983 ZZZX=          -3940.8096
 ZZZY=          -5632.0005 XXYY=           -347.0827 XXZZ=          -1964.0031 YYZZ=          -3365.4416
 XXYZ=           -920.5987 YYXZ=           -888.4147 ZZXY=          -2017.5825
 N-N= 9.134406638983D+00 E-N=-1.991259045236D+02  KE= 7.620703122396D+01
 No NMR shielding tensors so no spin-rotation constants.
 Leave Link  601 at Mon Feb 20 09:40:50 2023, MaxMem=  6710886400 cpu:               1.8 elap:               0.1
 (Enter /data0/home/software/g16/l122.exe)
 CPIOFr:  IOpCl= 0 IRwI=-1 IRwCP=  731 ICalc=  5 LCPTot=       22668 Len1MO=       57607 IndFrg=      368310
 Counterpoise: doing calculation for fragment   3 using the basis set of the fragment.
 Leave Link  122 at Mon Feb 20 09:40:50 2023, MaxMem=  6710886400 cpu:               0.1 elap:               0.0
 (Enter /data0/home/software/g16/l301.exe)
 Basis read from rwf:  (5D, 7F)
 No pseudopotential information found on rwf file.
    39 basis functions,    58 primitive gaussians,    41 cartesian basis functions
     5 alpha electrons        5 beta electrons
       nuclear repulsion energy         9.0699614919 Hartrees.
 IExCor= 4336 DFT=T Ex+Corr=M062X ExCW=0 ScaHFX=  0.540000
 ScaDFX=  1.000000  1.000000  1.000000  1.000000 ScalE2=  1.000000  1.000000
 IRadAn=      5 IRanWt=     -1 IRanGd=            0 ICorTp=0 IEmpDi=131
 NAtoms=    9 NActive=    3 NUniq=    3 SFac= 1.00D+00 NAtFMM=   60 NAOKFM=F Big=F
 Integral buffers will be    131072 words long.
 Raffenetti 2 integral format.
 Two-electron integral symmetry is turned off.
 R6Disp:  Grimme-D3 Dispersion energy=       -0.0000000075 Hartrees.
 Nuclear repulsion after empirical dispersion term =        9.0699614845 Hartrees.
 No density basis found on file   718.
 Leave Link  301 at Mon Feb 20 09:40:50 2023, MaxMem=  6710886400 cpu:               1.3 elap:               0.1
 (Enter /data0/home/software/g16/l302.exe)
 NPDir=0 NMtPBC=     1 NCelOv=     1 NCel=       1 NClECP=     1 NCelD=      1
         NCelK=      1 NCelE2=     1 NClLst=     1 CellRange=     0.0.
 One-electron integrals computed using PRISM.
 NBasis=    39 RedAO= T EigKep=  3.04D-03  NBF=    39
 NBsUse=    39 1.00D-06 EigRej= -1.00D+00 NBFU=    39
 Precomputing XC quadrature grid using
 IXCGrd= 4 IRadAn=           5 IRanWt=          -1 IRanGd=           0 AccXCQ= 0.00D+00.
 Generated NRdTot=       0 NPtTot=           0 NUsed=           0 NTot=          32
 NSgBfM=    41    41    41    41    41 MxSgAt=     3 MxSgA2=     3.
 Leave Link  302 at Mon Feb 20 09:40:51 2023, MaxMem=  6710886400 cpu:               2.3 elap:               0.1
 (Enter /data0/home/software/g16/l303.exe)
 DipDrv:  MaxL=1.
 Leave Link  303 at Mon Feb 20 09:40:51 2023, MaxMem=  6710886400 cpu:               0.4 elap:               0.0
 (Enter /data0/home/software/g16/l401.exe)
 ExpMin= 8.45D-02 ExpMax= 8.59D+03 ExpMxC= 1.30D+03 IAcc=3 IRadAn=         5 AccDes= 0.00D+00
 Harris functional with IExCor= 1009 and IRadAn=       5 diagonalized for initial guess.
 HarFok:  IExCor= 1009 AccDes= 0.00D+00 IRadAn=         5 IDoV= 1 UseB2=F ITyADJ=14
 ICtDFT=  3500011 ScaDFX=  1.000000  1.000000  1.000000  1.000000
 FoFCou: FMM=F IPFlag=           0 FMFlag=      100000 FMFlg1=           0
         NFxFlg=           0 DoJE=T BraDBF=F KetDBF=T FulRan=T
         wScrn=  0.000000 ICntrl=       500 IOpCl=  0 I1Cent=   200000004 NGrid=           0
         NMat0=    1 NMatS0=      1 NMatT0=    0 NMatD0=    1 NMtDS0=    0 NMtDT0=    0
 Symmetry not used in FoFCou.
 Harris En= -76.4160560608739    
 JPrj=0 DoOrth=F DoCkMO=F.
 Leave Link  401 at Mon Feb 20 09:40:51 2023, MaxMem=  6710886400 cpu:               2.9 elap:               0.1
 (Enter /data0/home/software/g16/l502.exe)
 Keep R1 ints in memory in canonical form, NReq=21036630.
 FoFCou: FMM=F IPFlag=           0 FMFlag=           0 FMFlg1=           0
         NFxFlg=           0 DoJE=F BraDBF=F KetDBF=F FulRan=T
         wScrn=  0.000000 ICntrl=       600 IOpCl=  0 I1Cent=           0 NGrid=           0
         NMat0=    1 NMatS0=    780 NMatT0=    0 NMatD0=    1 NMtDS0=    0 NMtDT0=    0
 Symmetry not used in FoFCou.
 Two-electron integral symmetry not used.
 Closed shell SCF:
 Using DIIS extrapolation, IDIIS=  1040.
 NGot=  6710886400 LenX=  6710576844 LenY=  6710574722
 Requested convergence on RMS density matrix=1.00D-08 within 128 cycles.
 Requested convergence on MAX density matrix=1.00D-06.
 Requested convergence on             energy=1.00D-06.
 No special actions if energy rises.
 Integral accuracy reduced to 1.0D-05 until final iterations.

 Cycle   1  Pass 0  IDiag  1:
 E= -76.3468204640167    
 DIIS: error= 6.96D-02 at cycle   1 NSaved=   1.
 NSaved= 1 IEnMin= 1 EnMin= -76.3468204640167     IErMin= 1 ErrMin= 6.96D-02
 ErrMax= 6.96D-02  0.00D+00 EMaxC= 1.00D-01 BMatC= 1.20D-01 BMatP= 1.20D-01
 IDIUse=3 WtCom= 3.04D-01 WtEn= 6.96D-01
 Coeff-Com:  0.100D+01
 Coeff-En:   0.100D+01
 Coeff:      0.100D+01
 Gap=     0.324 Goal=   None    Shift=    0.000
 GapD=    0.324 DampG=1.000 DampE=0.500 DampFc=0.5000 IDamp=-1.
 Damping current iteration by 5.00D-01
 RMSDP=7.96D-03 MaxDP=1.00D-01              OVMax= 1.67D-01

 Cycle   2  Pass 0  IDiag  1:
 E= -76.3778948400666     Delta-E=       -0.031074376050 Rises=F Damp=T
 DIIS: error= 1.12D-02 at cycle   2 NSaved=   2.
 NSaved= 2 IEnMin= 2 EnMin= -76.3778948400666     IErMin= 2 ErrMin= 1.12D-02
 ErrMax= 1.12D-02  0.00D+00 EMaxC= 1.00D-01 BMatC= 4.87D-03 BMatP= 1.20D-01
 IDIUse=3 WtCom= 8.88D-01 WtEn= 1.12D-01
 Coeff-Com:  0.842D-01 0.916D+00
 Coeff-En:   0.190D+00 0.810D+00
 Coeff:      0.961D-01 0.904D+00
 Gap=     0.456 Goal=   None    Shift=    0.000
 RMSDP=9.53D-04 MaxDP=1.42D-02 DE=-3.11D-02 OVMax= 1.00D-01

 Cycle   3  Pass 0  IDiag  1:
 E= -76.4215994106511     Delta-E=       -0.043704570584 Rises=F Damp=F
 DIIS: error= 2.17D-03 at cycle   3 NSaved=   3.
 NSaved= 3 IEnMin= 3 EnMin= -76.4215994106511     IErMin= 3 ErrMin= 2.17D-03
 ErrMax= 2.17D-03  0.00D+00 EMaxC= 1.00D-01 BMatC= 9.12D-05 BMatP= 4.87D-03
 IDIUse=3 WtCom= 9.78D-01 WtEn= 2.17D-02
 Coeff-Com: -0.199D-01 0.397D-01 0.980D+00
 Coeff-En:   0.000D+00 0.000D+00 0.100D+01
 Coeff:     -0.195D-01 0.389D-01 0.981D+00
 Gap=     0.461 Goal=   None    Shift=    0.000
 RMSDP=1.15D-04 MaxDP=1.00D-03 DE=-4.37D-02 OVMax= 3.33D-03

 Cycle   4  Pass 0  IDiag  1:
 E= -76.4216773521848     Delta-E=       -0.000077941534 Rises=F Damp=F
 DIIS: error= 4.17D-04 at cycle   4 NSaved=   4.
 NSaved= 4 IEnMin= 4 EnMin= -76.4216773521848     IErMin= 4 ErrMin= 4.17D-04
 ErrMax= 4.17D-04  0.00D+00 EMaxC= 1.00D-01 BMatC= 3.32D-06 BMatP= 9.12D-05
 IDIUse=3 WtCom= 9.96D-01 WtEn= 4.17D-03
 Coeff-Com: -0.193D-02-0.225D-02 0.163D+00 0.841D+00
 Coeff-En:   0.000D+00 0.000D+00 0.000D+00 0.100D+01
 Coeff:     -0.192D-02-0.224D-02 0.162D+00 0.842D+00
 Gap=     0.461 Goal=   None    Shift=    0.000
 RMSDP=2.23D-05 MaxDP=3.56D-04 DE=-7.79D-05 OVMax= 5.42D-04

 Cycle   5  Pass 0  IDiag  1:
 E= -76.4216794085830     Delta-E=       -0.000002056398 Rises=F Damp=F
 DIIS: error= 8.99D-05 at cycle   5 NSaved=   5.
 NSaved= 5 IEnMin= 5 EnMin= -76.4216794085830     IErMin= 5 ErrMin= 8.99D-05
 ErrMax= 8.99D-05  0.00D+00 EMaxC= 1.00D-01 BMatC= 8.38D-08 BMatP= 3.32D-06
 IDIUse=1 WtCom= 1.00D+00 WtEn= 0.00D+00
 Coeff-Com:  0.119D-02-0.181D-02-0.370D-01-0.659D-01 0.110D+01
 Coeff:      0.119D-02-0.181D-02-0.370D-01-0.659D-01 0.110D+01
 Gap=     0.462 Goal=   None    Shift=    0.000
 RMSDP=9.07D-06 MaxDP=1.03D-04 DE=-2.06D-06 OVMax= 2.06D-04

 Initial convergence to 1.0D-05 achieved.  Increase integral accuracy.
 Cycle   6  Pass 1  IDiag  1:
 E= -76.4216643979667     Delta-E=        0.000015010616 Rises=F Damp=F
 DIIS: error= 1.29D-05 at cycle   1 NSaved=   1.
 NSaved= 1 IEnMin= 1 EnMin= -76.4216643979667     IErMin= 1 ErrMin= 1.29D-05
 ErrMax= 1.29D-05  0.00D+00 EMaxC= 1.00D-01 BMatC= 1.57D-08 BMatP= 1.57D-08
 IDIUse=1 WtCom= 1.00D+00 WtEn= 0.00D+00
 Coeff-Com:  0.100D+01
 Coeff:      0.100D+01
 Gap=     0.462 Goal=   None    Shift=    0.000
 RMSDP=9.07D-06 MaxDP=1.03D-04 DE= 1.50D-05 OVMax= 5.97D-05

 Cycle   7  Pass 1  IDiag  1:
 E= -76.4216644120597     Delta-E=       -0.000000014093 Rises=F Damp=F
 DIIS: error= 1.45D-05 at cycle   2 NSaved=   2.
 NSaved= 2 IEnMin= 2 EnMin= -76.4216644120597     IErMin= 1 ErrMin= 1.29D-05
 ErrMax= 1.45D-05  0.00D+00 EMaxC= 1.00D-01 BMatC= 3.14D-09 BMatP= 1.57D-08
 IDIUse=1 WtCom= 1.00D+00 WtEn= 0.00D+00
 Coeff-Com:  0.186D+00 0.814D+00
 Coeff:      0.186D+00 0.814D+00
 Gap=     0.462 Goal=   None    Shift=    0.000
 RMSDP=1.05D-06 MaxDP=1.72D-05 DE=-1.41D-08 OVMax= 2.76D-05

 Cycle   8  Pass 1  IDiag  1:
 E= -76.4216644132260     Delta-E=       -0.000000001166 Rises=F Damp=F
 DIIS: error= 8.14D-06 at cycle   3 NSaved=   3.
 NSaved= 3 IEnMin= 3 EnMin= -76.4216644132260     IErMin= 3 ErrMin= 8.14D-06
 ErrMax= 8.14D-06  0.00D+00 EMaxC= 1.00D-01 BMatC= 1.85D-09 BMatP= 3.14D-09
 IDIUse=1 WtCom= 1.00D+00 WtEn= 0.00D+00
 Coeff-Com: -0.518D-01 0.440D+00 0.612D+00
 Coeff:     -0.518D-01 0.440D+00 0.612D+00
 Gap=     0.462 Goal=   None    Shift=    0.000
 RMSDP=4.89D-07 MaxDP=6.82D-06 DE=-1.17D-09 OVMax= 1.23D-05

 Cycle   9  Pass 1  IDiag  1:
 E= -76.4216644144651     Delta-E=       -0.000000001239 Rises=F Damp=F
 DIIS: error= 5.57D-07 at cycle   4 NSaved=   4.
 NSaved= 4 IEnMin= 4 EnMin= -76.4216644144651     IErMin= 4 ErrMin= 5.57D-07
 ErrMax= 5.57D-07  0.00D+00 EMaxC= 1.00D-01 BMatC= 5.27D-12 BMatP= 1.85D-09
 IDIUse=1 WtCom= 1.00D+00 WtEn= 0.00D+00
 Coeff-Com: -0.399D-02-0.168D-01-0.155D-01 0.104D+01
 Coeff:     -0.399D-02-0.168D-01-0.155D-01 0.104D+01
 Gap=     0.462 Goal=   None    Shift=    0.000
 RMSDP=8.82D-08 MaxDP=8.40D-07 DE=-1.24D-09 OVMax= 2.00D-06

 Cycle  10  Pass 1  IDiag  1:
 E= -76.4216644144767     Delta-E=       -0.000000000012 Rises=F Damp=F
 DIIS: error= 1.08D-07 at cycle   5 NSaved=   5.
 NSaved= 5 IEnMin= 5 EnMin= -76.4216644144767     IErMin= 5 ErrMin= 1.08D-07
 ErrMax= 1.08D-07  0.00D+00 EMaxC= 1.00D-01 BMatC= 4.38D-13 BMatP= 5.27D-12
 IDIUse=1 WtCom= 1.00D+00 WtEn= 0.00D+00
 Coeff-Com:  0.306D-02-0.321D-01-0.413D-01 0.104D+00 0.966D+00
 Coeff:      0.306D-02-0.321D-01-0.413D-01 0.104D+00 0.966D+00
 Gap=     0.462 Goal=   None    Shift=    0.000
 RMSDP=2.60D-08 MaxDP=2.24D-07 DE=-1.16D-11 OVMax= 5.89D-07

 Cycle  11  Pass 1  IDiag  1:
 E= -76.4216644144774     Delta-E=       -0.000000000001 Rises=F Damp=F
 DIIS: error= 2.94D-08 at cycle   6 NSaved=   6.
 NSaved= 6 IEnMin= 6 EnMin= -76.4216644144774     IErMin= 6 ErrMin= 2.94D-08
 ErrMax= 2.94D-08  0.00D+00 EMaxC= 1.00D-01 BMatC= 1.12D-14 BMatP= 4.38D-13
 IDIUse=1 WtCom= 1.00D+00 WtEn= 0.00D+00
 Coeff-Com:  0.191D-03-0.908D-03 0.510D-03-0.240D-01-0.628D-02 0.103D+01
 Coeff:      0.191D-03-0.908D-03 0.510D-03-0.240D-01-0.628D-02 0.103D+01
 Gap=     0.462 Goal=   None    Shift=    0.000
 RMSDP=3.87D-09 MaxDP=2.99D-08 DE=-6.68D-13 OVMax= 7.94D-08

 SCF Done:  E(RM062X) =  -76.4216644145     A.U. after   11 cycles
            NFock= 11  Conv=0.39D-08     -V/T= 2.0031
 KE= 7.618394992732D+01 PE=-1.989841740674D+02 EE= 3.730859824111D+01
 Leave Link  502 at Mon Feb 20 09:40:51 2023, MaxMem=  6710886400 cpu:               8.7 elap:               0.4
 (Enter /data0/home/software/g16/l601.exe)
 Copying SCF densities to generalized density rwf, IOpCl= 0 IROHF=0.

 **********************************************************************

            Population analysis using the SCF density.

 **********************************************************************

 Alpha  occ. eigenvalues --  -19.62716  -1.13261  -0.60355  -0.47699  -0.39983
 Alpha virt. eigenvalues --    0.06171   0.13268   0.17429   0.17944   0.18896
 Alpha virt. eigenvalues --    0.23426   0.50773   0.53198   0.98180   1.00295
 Alpha virt. eigenvalues --    1.06002   1.17475   1.20101   1.31877   1.34125
 Alpha virt. eigenvalues --    1.70378   1.74210   1.75135   2.07228   2.09388
 Alpha virt. eigenvalues --    2.36298   2.39255   2.54820   2.87456   3.00846
 Alpha virt. eigenvalues --    5.05602   5.48520   5.89832   6.78507   6.80048
 Alpha virt. eigenvalues --    6.87360   6.91614   7.09679  49.95276
          Condensed to atoms (all electrons):
               7          8          9
     7  O    7.920206   0.315586   0.317746
     8  H    0.315586   0.430309  -0.023618
     9  H    0.317746  -0.023618   0.430058
 Mulliken charges:
               1
     1  O    0.000000
     2  H    0.000000
     3  H    0.000000
     4  O    0.000000
     5  H    0.000000
     6  H    0.000000
     7  O   -0.553538
     8  H    0.277724
     9  H    0.275814
 Sum of Mulliken charges =  -0.00000
 Mulliken charges with hydrogens summed into heavy atoms:
               1
     1  O    0.000000
     4  O    0.000000
     7  O   -0.000000
         Mulliken charges condensed to fragments:
      1      0.000000
      2      0.000000
      3     -0.000000
 Electronic spatial extent (au):  <R**2>=           7525.9947
 Charge=             -0.0000 electrons
 Dipole moment (field-independent basis, Debye):
    X=              1.9491    Y=              0.8583    Z=             -0.2035  Tot=              2.1395
 Quadrupole moment (field-independent basis, Debye-Ang):
   XX=             23.7780   YY=             11.4895   ZZ=            -10.0908
   XY=             25.2691   XZ=             12.5291   YZ=              5.7096
 Traceless Quadrupole moment (field-independent basis, Debye-Ang):
   XX=             15.3858   YY=              3.0973   ZZ=            -18.4830
   XY=             25.2691   XZ=             12.5291   YZ=              5.7096
 Octapole moment (field-independent basis, Debye-Ang**2):
  XXX=            204.0540  YYY=             92.7636  ZZZ=           -193.6910  XYY=            267.8707
  XXY=            277.2895  XXZ=            157.6440  XZZ=             24.6245  YZZ=            -30.9273
  YYZ=             91.3134  XYZ=            179.1351
 Hexadecapole moment (field-independent basis, Debye-Ang**3):
 XXXX=           1378.1062 YYYY=            239.8540 ZZZZ=          -2756.0139 XXXY=           2316.6330
 XXXZ=           1330.9944 YYYX=           2446.8601 YYYZ=            865.4770 ZZZX=           -745.5492
 ZZZY=          -1306.9696 XXYY=           2845.9095 XXZZ=            615.4556 YYZZ=             58.4426
 XXYZ=           1957.4424 YYXZ=           2005.1233 ZZXY=            744.7747
 N-N= 9.069961484466D+00 E-N=-1.989841745463D+02  KE= 7.618394992732D+01
 No NMR shielding tensors so no spin-rotation constants.
 Leave Link  601 at Mon Feb 20 09:40:51 2023, MaxMem=  6710886400 cpu:               1.8 elap:               0.1
 (Enter /data0/home/software/g16/l122.exe)
 CPIOFr:  IOpCl= 0 IRwI=-1 IRwCP=  731 ICalc=  6 LCPTot=       22668 Len1MO=       57607 IndFrg=      425917
 Restoring MOs from calculation   1 to rwf.
 CPIOFr:  IOpCl= 0 IRwI=-2 IRwCP=  731 ICalc=  0 LCPTot=       22668 Len1MO=       57607 IndFrg=       80275
 Counterpoise corrected energy =    -229.271726804349
                   BSSE energy =       0.001096536672
              sum of fragments =    -229.264807799130
           complexation energy =      -5.03 kcal/mole (raw)
           complexation energy =      -4.34 kcal/mole (corrected)
 Leave Link  122 at Mon Feb 20 09:40:51 2023, MaxMem=  6710886400 cpu:               0.1 elap:               0.0
 (Enter /data0/home/software/g16/l9999.exe)
 1\1\GINC-LOCALHOST\SP\RM062X\6-311+G(2d,p)\H6O3\WUHANYU\20-Feb-2023\0\
 \#p M062X/6-311+G(2d,p) nosymm em=GD3 counterpoise=3\\Title Card Requi
 red\\0,1\O,0,11.071644,12.196057,12.776578\H,0,10.8456,12.005602,11.83
 7911\H,0,11.489115,13.048109,12.759811\O,0,5.565483,8.634762,9.152588\
 H,0,6.2249,9.006261,8.537799\H,0,4.784715,8.502299,8.624128\O,0,7.5952
 71,9.692701,7.549733\H,0,7.912823,10.568569,7.845122\H,0,8.378589,9.30
 5995,7.141335\\Version=ES64L-G16RevA.03\HF=-76.4216644\RMSD=3.871e-09\
 Dipole=1.0281438,1.0663253,-1.6775444\Quadrupole=28.9205853,40.1219046
 ,-69.0424899,38.5221672,-8.9916979,-10.5993693\PG=C01 [X(H6O3)]\\@


 DESK:  A WASTEBASKET WITH DRAWERS.
 Job cpu time:       0 days  0 hours  3 minutes 46.3 seconds.
 Elapsed time:       0 days  0 hours  0 minutes 11.6 seconds.
 File lengths (MBytes):  RWF=     15 Int=      0 D2E=      0 Chk=      5 Scr=      1
 Normal termination of Gaussian 16 at Mon Feb 20 09:40:51 2023.
