Title Card Required                                                     
SP        RM062X                                                      6-311+G(2d,p)       
Number of atoms                            I               15
Info1-9                                    I   N=           9
          24          24           0           0           0         110
           1          18        -502
Full Title                                 C   N=           2
Title Card Required     
Route                                      C   N=           3
#p 6-311+g(2d,p) nosymm em=gd3 m062x
Charge                                     I                0
Multiplicity                               I                1
Number of electrons                        I               62
Number of alpha electrons                  I               31
Number of beta electrons                   I               31
Number of basis functions                  I              279
Number of independent functions            I              279
Number of point charges in /Mol/           I                0
Number of translation vectors              I                0
Atomic numbers                             I   N=          15
           6           6           6           6           6           6
           1           1           1           1           1           6
           1           7           7
Nuclear charges                            R   N=          15
  6.00000000E+00  6.00000000E+00  6.00000000E+00  6.00000000E+00  6.00000000E+00
  6.00000000E+00  1.00000000E+00  1.00000000E+00  1.00000000E+00  1.00000000E+00
  1.00000000E+00  6.00000000E+00  1.00000000E+00  7.00000000E+00  7.00000000E+00
Current cartesian coordinates              R   N=          45
  1.69104845E+01  2.00796931E+01  9.57880441E+00  1.94151539E+01  1.91277965E+01
  9.15972362E+00  2.11754149E+01  2.05547230E+01  7.80096708E+00  2.04020917E+01
  2.28829960E+01  6.89637975E+00  1.79344231E+01  2.38053864E+01  7.31593296E+00
  1.61540724E+01  2.24327895E+01  8.65480014E+00  2.30739982E+01  1.98299771E+01
  7.48619351E+00  2.17196145E+01  2.40511359E+01  5.82877519E+00  1.74321528E+01
  2.56540507E+01  6.55719469E+00  1.42598185E+01  2.31481624E+01  8.97339474E+00
  1.38799477E+01  1.83099060E+01  1.15786562E+01  1.73881071E+01  1.62403592E+01
  1.13606442E+01  1.69091862E+01  1.45360133E+01  1.24053774E+01  1.56563866E+01
  1.82168162E+01  1.09781239E+01  1.96154913E+01  1.67482534E+01  1.02960292E+01
Number of symbols in /Mol/                 I                0
Force Field                                I                0
Atom Types                                 C   N=          15
                                                            
                                                            
                                                            
Int Atom Types                             I   N=          15
           0           0           0           0           0           0
           0           0           0           0           0           0
           0           0           0
MM charges                                 R   N=          15
  0.00000000E+00  0.00000000E+00  0.00000000E+00  0.00000000E+00  0.00000000E+00
  0.00000000E+00  0.00000000E+00  0.00000000E+00  0.00000000E+00  0.00000000E+00
  0.00000000E+00  0.00000000E+00  0.00000000E+00  0.00000000E+00  0.00000000E+00
Integer atomic weights                     I   N=          15
          12          12          12          12          12          12
           1           1           1           1           1          12
           1          14          14
Real atomic weights                        R   N=          15
  1.20000000E+01  1.20000000E+01  1.20000000E+01  1.20000000E+01  1.20000000E+01
  1.20000000E+01  1.00782504E+00  1.00782504E+00  1.00782504E+00  1.00782504E+00
  1.00782504E+00  1.20000000E+01  1.00782504E+00  1.40030740E+01  1.40030740E+01
Atom fragment info                         I   N=          15
           0           0           0           0           0           0
           0           0           0           0           0           0
           0           0           0
Atom residue num                           I   N=          15
           0           0           0           0           0           0
           0           0           0           0           0           0
           0           0           0
Nuclear spins                              I   N=          15
           0           0           0           0           0           0
           1           1           1           1           1           0
           1           2           2
Nuclear ZEff                               R   N=          15
 -3.60000000E+00 -3.60000000E+00 -3.60000000E+00 -3.60000000E+00 -3.60000000E+00
 -3.60000000E+00 -1.00000000E+00 -1.00000000E+00 -1.00000000E+00 -1.00000000E+00
 -1.00000000E+00 -3.60000000E+00 -1.00000000E+00 -4.55000000E+00 -4.55000000E+00
Nuclear ZNuc                               R   N=          15
  6.00000000E+00  6.00000000E+00  6.00000000E+00  6.00000000E+00  6.00000000E+00
  6.00000000E+00  1.00000000E+00  1.00000000E+00  1.00000000E+00  1.00000000E+00
  1.00000000E+00  6.00000000E+00  1.00000000E+00  7.00000000E+00  7.00000000E+00
Nuclear QMom                               R   N=          15
  0.00000000E+00  0.00000000E+00  0.00000000E+00  0.00000000E+00  0.00000000E+00
  0.00000000E+00  0.00000000E+00  0.00000000E+00  0.00000000E+00  0.00000000E+00
  0.00000000E+00  0.00000000E+00  0.00000000E+00  2.04400000E+00  2.04400000E+00
Nuclear GFac                               R   N=          15
  0.00000000E+00  0.00000000E+00  0.00000000E+00  0.00000000E+00  0.00000000E+00
  0.00000000E+00  2.79284600E+00  2.79284600E+00  2.79284600E+00  2.79284600E+00
  2.79284600E+00  0.00000000E+00  2.79284600E+00  4.03761000E-01  4.03761000E-01
MicOpt                                     I   N=          15
          -1          -1          -1          -1          -1          -1
          -1          -1          -1          -1          -1          -1
          -1          -1          -1
Number of residues                         I                0
Number of secondary structures             I                0
Number of contracted shells                I               87
Number of primitive shells                 I              162
Pure/Cartesian d shells                    I                0
Pure/Cartesian f shells                    I                0
Highest angular momentum                   I                2
Largest degree of contraction              I                6
Shell types                                I   N=          87
           0          -1          -1          -1          -1          -2
          -2           0          -1          -1          -1          -1
          -2          -2           0          -1          -1          -1
          -1          -2          -2           0          -1          -1
          -1          -1          -2          -2           0          -1
          -1          -1          -1          -2          -2           0
          -1          -1          -1          -1          -2          -2
           0           0           0           1           0           0
           0           1           0           0           0           1
           0           0           0           1           0           0
           0           1           0          -1          -1          -1
          -1          -2          -2           0           0           0
           1           0          -1          -1          -1          -1
          -2          -2           0          -1          -1          -1
          -1          -2          -2
Number of primitives per shell             I   N=          87
           6           3           1           1           1           1
           1           6           3           1           1           1
           1           1           6           3           1           1
           1           1           1           6           3           1
           1           1           1           1           6           3
           1           1           1           1           1           6
           3           1           1           1           1           1
           3           1           1           1           3           1
           1           1           3           1           1           1
           3           1           1           1           3           1
           1           1           6           3           1           1
           1           1           1           3           1           1
           1           6           3           1           1           1
           1           1           6           3           1           1
           1           1           1
Shell to atom map                          I   N=          87
           1           1           1           1           1           1
           1           2           2           2           2           2
           2           2           3           3           3           3
           3           3           3           4           4           4
           4           4           4           4           5           5
           5           5           5           5           5           6
           6           6           6           6           6           6
           7           7           7           7           8           8
           8           8           9           9           9           9
          10          10          10          10          11          11
          11          11          12          12          12          12
          12          12          12          13          13          13
          13          14          14          14          14          14
          14          14          15          15          15          15
          15          15          15
Primitive exponents                        R   N=         162
  4.56324000E+03  6.82024000E+02  1.54973000E+02  4.44553000E+01  1.30290000E+01
  1.82773000E+00  2.09642000E+01  4.80331000E+00  1.45933000E+00  4.83456000E-01
  1.45585000E-01  4.38000000E-02  1.25200000E+00  3.13000000E-01  4.56324000E+03
  6.82024000E+02  1.54973000E+02  4.44553000E+01  1.30290000E+01  1.82773000E+00
  2.09642000E+01  4.80331000E+00  1.45933000E+00  4.83456000E-01  1.45585000E-01
  4.38000000E-02  1.25200000E+00  3.13000000E-01  4.56324000E+03  6.82024000E+02
  1.54973000E+02  4.44553000E+01  1.30290000E+01  1.82773000E+00  2.09642000E+01
  4.80331000E+00  1.45933000E+00  4.83456000E-01  1.45585000E-01  4.38000000E-02
  1.25200000E+00  3.13000000E-01  4.56324000E+03  6.82024000E+02  1.54973000E+02
  4.44553000E+01  1.30290000E+01  1.82773000E+00  2.09642000E+01  4.80331000E+00
  1.45933000E+00  4.83456000E-01  1.45585000E-01  4.38000000E-02  1.25200000E+00
  3.13000000E-01  4.56324000E+03  6.82024000E+02  1.54973000E+02  4.44553000E+01
  1.30290000E+01  1.82773000E+00  2.09642000E+01  4.80331000E+00  1.45933000E+00
  4.83456000E-01  1.45585000E-01  4.38000000E-02  1.25200000E+00  3.13000000E-01
  4.56324000E+03  6.82024000E+02  1.54973000E+02  4.44553000E+01  1.30290000E+01
  1.82773000E+00  2.09642000E+01  4.80331000E+00  1.45933000E+00  4.83456000E-01
  1.45585000E-01  4.38000000E-02  1.25200000E+00  3.13000000E-01  3.38650000E+01
  5.09479000E+00  1.15879000E+00  3.25840000E-01  1.02741000E-01  7.50000000E-01
  3.38650000E+01  5.09479000E+00  1.15879000E+00  3.25840000E-01  1.02741000E-01
  7.50000000E-01  3.38650000E+01  5.09479000E+00  1.15879000E+00  3.25840000E-01
  1.02741000E-01  7.50000000E-01  3.38650000E+01  5.09479000E+00  1.15879000E+00
  3.25840000E-01  1.02741000E-01  7.50000000E-01  3.38650000E+01  5.09479000E+00
  1.15879000E+00  3.25840000E-01  1.02741000E-01  7.50000000E-01  4.56324000E+03
  6.82024000E+02  1.54973000E+02  4.44553000E+01  1.30290000E+01  1.82773000E+00
  2.09642000E+01  4.80331000E+00  1.45933000E+00  4.83456000E-01  1.45585000E-01
  4.38000000E-02  1.25200000E+00  3.13000000E-01  3.38650000E+01  5.09479000E+00
  1.15879000E+00  3.25840000E-01  1.02741000E-01  7.50000000E-01  6.29348000E+03
  9.49044000E+02  2.18776000E+02  6.36916000E+01  1.88282000E+01  2.72023000E+00
  3.06331000E+01  7.02614000E+00  2.11205000E+00  6.84009000E-01  2.00878000E-01
  6.39000000E-02  1.82600000E+00  4.56500000E-01  6.29348000E+03  9.49044000E+02
  2.18776000E+02  6.36916000E+01  1.88282000E+01  2.72023000E+00  3.06331000E+01
  7.02614000E+00  2.11205000E+00  6.84009000E-01  2.00878000E-01  6.39000000E-02
  1.82600000E+00  4.56500000E-01
Contraction coefficients                   R   N=         162
  1.96665025E-03  1.52306019E-02  7.61269097E-02  2.60801033E-01  6.16462078E-01
  2.21006028E-01  1.14660081E-01  9.19999648E-01 -3.03068213E-03  1.00000000E+00
  1.00000000E+00  1.00000000E+00  1.00000000E+00  1.00000000E+00  1.96665025E-03
  1.52306019E-02  7.61269097E-02  2.60801033E-01  6.16462078E-01  2.21006028E-01
  1.14660081E-01  9.19999648E-01 -3.03068213E-03  1.00000000E+00  1.00000000E+00
  1.00000000E+00  1.00000000E+00  1.00000000E+00  1.96665025E-03  1.52306019E-02
  7.61269097E-02  2.60801033E-01  6.16462078E-01  2.21006028E-01  1.14660081E-01
  9.19999648E-01 -3.03068213E-03  1.00000000E+00  1.00000000E+00  1.00000000E+00
  1.00000000E+00  1.00000000E+00  1.96665025E-03  1.52306019E-02  7.61269097E-02
  2.60801033E-01  6.16462078E-01  2.21006028E-01  1.14660081E-01  9.19999648E-01
 -3.03068213E-03  1.00000000E+00  1.00000000E+00  1.00000000E+00  1.00000000E+00
  1.00000000E+00  1.96665025E-03  1.52306019E-02  7.61269097E-02  2.60801033E-01
  6.16462078E-01  2.21006028E-01  1.14660081E-01  9.19999648E-01 -3.03068213E-03
  1.00000000E+00  1.00000000E+00  1.00000000E+00  1.00000000E+00  1.00000000E+00
  1.96665025E-03  1.52306019E-02  7.61269097E-02  2.60801033E-01  6.16462078E-01
  2.21006028E-01  1.14660081E-01  9.19999648E-01 -3.03068213E-03  1.00000000E+00
  1.00000000E+00  1.00000000E+00  1.00000000E+00  1.00000000E+00  2.54938145E-02
  1.90373109E-01  8.52161486E-01  1.00000000E+00  1.00000000E+00  1.00000000E+00
  2.54938145E-02  1.90373109E-01  8.52161486E-01  1.00000000E+00  1.00000000E+00
  1.00000000E+00  2.54938145E-02  1.90373109E-01  8.52161486E-01  1.00000000E+00
  1.00000000E+00  1.00000000E+00  2.54938145E-02  1.90373109E-01  8.52161486E-01
  1.00000000E+00  1.00000000E+00  1.00000000E+00  2.54938145E-02  1.90373109E-01
  8.52161486E-01  1.00000000E+00  1.00000000E+00  1.00000000E+00  1.96665025E-03
  1.52306019E-02  7.61269097E-02  2.60801033E-01  6.16462078E-01  2.21006028E-01
  1.14660081E-01  9.19999648E-01 -3.03068213E-03  1.00000000E+00  1.00000000E+00
  1.00000000E+00  1.00000000E+00  1.00000000E+00  2.54938145E-02  1.90373109E-01
  8.52161486E-01  1.00000000E+00  1.00000000E+00  1.00000000E+00  1.96978815E-03
  1.49612859E-02  7.35005308E-02  2.48936766E-01  6.02459433E-01  2.56201759E-01
  1.11906080E-01  9.21666655E-01 -2.56919183E-03  1.00000000E+00  1.00000000E+00
  1.00000000E+00  1.00000000E+00  1.00000000E+00  1.96978815E-03  1.49612859E-02
  7.35005308E-02  2.48936766E-01  6.02459433E-01  2.56201759E-01  1.11906080E-01
  9.21666655E-01 -2.56919183E-03  1.00000000E+00  1.00000000E+00  1.00000000E+00
  1.00000000E+00  1.00000000E+00
P(S=P) Contraction coefficients            R   N=         162
  0.00000000E+00  0.00000000E+00  0.00000000E+00  0.00000000E+00  0.00000000E+00
  0.00000000E+00  4.02486927E-02  2.37593957E-01  8.15853851E-01  1.00000000E+00
  1.00000000E+00  1.00000000E+00  0.00000000E+00  0.00000000E+00  0.00000000E+00
  0.00000000E+00  0.00000000E+00  0.00000000E+00  0.00000000E+00  0.00000000E+00
  4.02486927E-02  2.37593957E-01  8.15853851E-01  1.00000000E+00  1.00000000E+00
  1.00000000E+00  0.00000000E+00  0.00000000E+00  0.00000000E+00  0.00000000E+00
  0.00000000E+00  0.00000000E+00  0.00000000E+00  0.00000000E+00  4.02486927E-02
  2.37593957E-01  8.15853851E-01  1.00000000E+00  1.00000000E+00  1.00000000E+00
  0.00000000E+00  0.00000000E+00  0.00000000E+00  0.00000000E+00  0.00000000E+00
  0.00000000E+00  0.00000000E+00  0.00000000E+00  4.02486927E-02  2.37593957E-01
  8.15853851E-01  1.00000000E+00  1.00000000E+00  1.00000000E+00  0.00000000E+00
  0.00000000E+00  0.00000000E+00  0.00000000E+00  0.00000000E+00  0.00000000E+00
  0.00000000E+00  0.00000000E+00  4.02486927E-02  2.37593957E-01  8.15853851E-01
  1.00000000E+00  1.00000000E+00  1.00000000E+00  0.00000000E+00  0.00000000E+00
  0.00000000E+00  0.00000000E+00  0.00000000E+00  0.00000000E+00  0.00000000E+00
  0.00000000E+00  4.02486927E-02  2.37593957E-01  8.15853851E-01  1.00000000E+00
  1.00000000E+00  1.00000000E+00  0.00000000E+00  0.00000000E+00  0.00000000E+00
  0.00000000E+00  0.00000000E+00  0.00000000E+00  0.00000000E+00  0.00000000E+00
  0.00000000E+00  0.00000000E+00  0.00000000E+00  0.00000000E+00  0.00000000E+00
  0.00000000E+00  0.00000000E+00  0.00000000E+00  0.00000000E+00  0.00000000E+00
  0.00000000E+00  0.00000000E+00  0.00000000E+00  0.00000000E+00  0.00000000E+00
  0.00000000E+00  0.00000000E+00  0.00000000E+00  0.00000000E+00  0.00000000E+00
  0.00000000E+00  0.00000000E+00  0.00000000E+00  0.00000000E+00  0.00000000E+00
  0.00000000E+00  0.00000000E+00  0.00000000E+00  0.00000000E+00  0.00000000E+00
  4.02486927E-02  2.37593957E-01  8.15853851E-01  1.00000000E+00  1.00000000E+00
  1.00000000E+00  0.00000000E+00  0.00000000E+00  0.00000000E+00  0.00000000E+00
  0.00000000E+00  0.00000000E+00  0.00000000E+00  0.00000000E+00  0.00000000E+00
  0.00000000E+00  0.00000000E+00  0.00000000E+00  0.00000000E+00  0.00000000E+00
  3.83119186E-02  2.37403116E-01  8.17592398E-01  1.00000000E+00  1.00000000E+00
  1.00000000E+00  0.00000000E+00  0.00000000E+00  0.00000000E+00  0.00000000E+00
  0.00000000E+00  0.00000000E+00  0.00000000E+00  0.00000000E+00  3.83119186E-02
  2.37403116E-01  8.17592398E-01  1.00000000E+00  1.00000000E+00  1.00000000E+00
  0.00000000E+00  0.00000000E+00
Coordinates of each shell                  R   N=         261
  1.69104845E+01  2.00796931E+01  9.57880441E+00  1.69104845E+01  2.00796931E+01
  9.57880441E+00  1.69104845E+01  2.00796931E+01  9.57880441E+00  1.69104845E+01
  2.00796931E+01  9.57880441E+00  1.69104845E+01  2.00796931E+01  9.57880441E+00
  1.69104845E+01  2.00796931E+01  9.57880441E+00  1.69104845E+01  2.00796931E+01
  9.57880441E+00  1.94151539E+01  1.91277965E+01  9.15972362E+00  1.94151539E+01
  1.91277965E+01  9.15972362E+00  1.94151539E+01  1.91277965E+01  9.15972362E+00
  1.94151539E+01  1.91277965E+01  9.15972362E+00  1.94151539E+01  1.91277965E+01
  9.15972362E+00  1.94151539E+01  1.91277965E+01  9.15972362E+00  1.94151539E+01
  1.91277965E+01  9.15972362E+00  2.11754149E+01  2.05547230E+01  7.80096708E+00
  2.11754149E+01  2.05547230E+01  7.80096708E+00  2.11754149E+01  2.05547230E+01
  7.80096708E+00  2.11754149E+01  2.05547230E+01  7.80096708E+00  2.11754149E+01
  2.05547230E+01  7.80096708E+00  2.11754149E+01  2.05547230E+01  7.80096708E+00
  2.11754149E+01  2.05547230E+01  7.80096708E+00  2.04020917E+01  2.28829960E+01
  6.89637975E+00  2.04020917E+01  2.28829960E+01  6.89637975E+00  2.04020917E+01
  2.28829960E+01  6.89637975E+00  2.04020917E+01  2.28829960E+01  6.89637975E+00
  2.04020917E+01  2.28829960E+01  6.89637975E+00  2.04020917E+01  2.28829960E+01
  6.89637975E+00  2.04020917E+01  2.28829960E+01  6.89637975E+00  1.79344231E+01
  2.38053864E+01  7.31593296E+00  1.79344231E+01  2.38053864E+01  7.31593296E+00
  1.79344231E+01  2.38053864E+01  7.31593296E+00  1.79344231E+01  2.38053864E+01
  7.31593296E+00  1.79344231E+01  2.38053864E+01  7.31593296E+00  1.79344231E+01
  2.38053864E+01  7.31593296E+00  1.79344231E+01  2.38053864E+01  7.31593296E+00
  1.61540724E+01  2.24327895E+01  8.65480014E+00  1.61540724E+01  2.24327895E+01
  8.65480014E+00  1.61540724E+01  2.24327895E+01  8.65480014E+00  1.61540724E+01
  2.24327895E+01  8.65480014E+00  1.61540724E+01  2.24327895E+01  8.65480014E+00
  1.61540724E+01  2.24327895E+01  8.65480014E+00  1.61540724E+01  2.24327895E+01
  8.65480014E+00  2.30739982E+01  1.98299771E+01  7.48619351E+00  2.30739982E+01
  1.98299771E+01  7.48619351E+00  2.30739982E+01  1.98299771E+01  7.48619351E+00
  2.30739982E+01  1.98299771E+01  7.48619351E+00  2.17196145E+01  2.40511359E+01
  5.82877519E+00  2.17196145E+01  2.40511359E+01  5.82877519E+00  2.17196145E+01
  2.40511359E+01  5.82877519E+00  2.17196145E+01  2.40511359E+01  5.82877519E+00
  1.74321528E+01  2.56540507E+01  6.55719469E+00  1.74321528E+01  2.56540507E+01
  6.55719469E+00  1.74321528E+01  2.56540507E+01  6.55719469E+00  1.74321528E+01
  2.56540507E+01  6.55719469E+00  1.42598185E+01  2.31481624E+01  8.97339474E+00
  1.42598185E+01  2.31481624E+01  8.97339474E+00  1.42598185E+01  2.31481624E+01
  8.97339474E+00  1.42598185E+01  2.31481624E+01  8.97339474E+00  1.38799477E+01
  1.83099060E+01  1.15786562E+01  1.38799477E+01  1.83099060E+01  1.15786562E+01
  1.38799477E+01  1.83099060E+01  1.15786562E+01  1.38799477E+01  1.83099060E+01
  1.15786562E+01  1.73881071E+01  1.62403592E+01  1.13606442E+01  1.73881071E+01
  1.62403592E+01  1.13606442E+01  1.73881071E+01  1.62403592E+01  1.13606442E+01
  1.73881071E+01  1.62403592E+01  1.13606442E+01  1.73881071E+01  1.62403592E+01
  1.13606442E+01  1.73881071E+01  1.62403592E+01  1.13606442E+01  1.73881071E+01
  1.62403592E+01  1.13606442E+01  1.69091862E+01  1.45360133E+01  1.24053774E+01
  1.69091862E+01  1.45360133E+01  1.24053774E+01  1.69091862E+01  1.45360133E+01
  1.24053774E+01  1.69091862E+01  1.45360133E+01  1.24053774E+01  1.56563866E+01
  1.82168162E+01  1.09781239E+01  1.56563866E+01  1.82168162E+01  1.09781239E+01
  1.56563866E+01  1.82168162E+01  1.09781239E+01  1.56563866E+01  1.82168162E+01
  1.09781239E+01  1.56563866E+01  1.82168162E+01  1.09781239E+01  1.56563866E+01
  1.82168162E+01  1.09781239E+01  1.56563866E+01  1.82168162E+01  1.09781239E+01
  1.96154913E+01  1.67482534E+01  1.02960292E+01  1.96154913E+01  1.67482534E+01
  1.02960292E+01  1.96154913E+01  1.67482534E+01  1.02960292E+01  1.96154913E+01
  1.67482534E+01  1.02960292E+01  1.96154913E+01  1.67482534E+01  1.02960292E+01
  1.96154913E+01  1.67482534E+01  1.02960292E+01  1.96154913E+01  1.67482534E+01
  1.02960292E+01
Num ILSW                                   I              100
ILSW                                       I   N=         100
           0           0           0           0           2           0
           0           0           0           0        4336          -1
           5           0           0           0           0           0
           0           0           0           0           0           0
           1           1           0           0           0           0
           0           0      100000           0          -1           0
           0           0           0           0           0           0
           0           0           0           1           0           0
           0 -2000000000           1           0           0           0
           0           0         131          52           0           0
           0           0          55           0           0           0
           0           0           0          15           0           1
           0           0           0           0           0           0
           0           0           0           0           0           0
           0           0           0           0           0           0
           0           0           0           0           0           0
           0           0           0           0
Num RLSW                                   I               52
RLSW                                       R   N=          52
  1.00000000E+00  1.00000000E+00  1.00000000E+00  1.00000000E+00  5.40000000E-01
  0.00000000E+00  0.00000000E+00  1.00000000E+00  0.00000000E+00  0.00000000E+00
  0.00000000E+00  0.00000000E+00  1.00000000E+00  0.00000000E+00  0.00000000E+00
  0.00000000E+00  0.00000000E+00  1.00000000E+00  0.00000000E+00  0.00000000E+00
  0.00000000E+00  0.00000000E+00  1.00000000E+00  0.00000000E+00  0.00000000E+00
  0.00000000E+00  0.00000000E+00  1.00000000E+00  0.00000000E+00  0.00000000E+00
  0.00000000E+00  0.00000000E+00  1.00000000E+00  0.00000000E+00  0.00000000E+00
  0.00000000E+00  0.00000000E+00  0.00000000E+00  1.00000000E+00  1.00000000E+00
  0.00000000E+00  1.00000000E+00  0.00000000E+00  0.00000000E+00  0.00000000E+00
  0.00000000E+00  0.00000000E+00  0.00000000E+00  0.00000000E+00  0.00000000E+00
  0.00000000E+00  0.00000000E+00
MxBond                                     I                3
NBond                                      I   N=          15
           3           3           3           3           3           3
           1           1           1           1           1           3
           1           3           2
IBond                                      I   N=          45
           2           6          14           1           3          15
           2           4           7           3           5           8
           4           6           9           1           5          10
           3           0           0           4           0           0
           5           0           0           6           0           0
          14           0           0          13          14          15
          12           0           0           1          11          12
           2          12           0
RBond                                      R   N=          45
  1.00000000E+00  1.50000000E+00  1.00000000E+00  1.00000000E+00  1.50000000E+00
  1.00000000E+00  1.50000000E+00  1.50000000E+00  1.00000000E+00  1.50000000E+00
  1.50000000E+00  1.00000000E+00  1.50000000E+00  1.50000000E+00  1.00000000E+00
  1.50000000E+00  1.50000000E+00  1.00000000E+00  1.00000000E+00  0.00000000E+00
  0.00000000E+00  1.00000000E+00  0.00000000E+00  0.00000000E+00  1.00000000E+00
  0.00000000E+00  0.00000000E+00  1.00000000E+00  0.00000000E+00  0.00000000E+00
  1.00000000E+00  0.00000000E+00  0.00000000E+00  1.00000000E+00  1.00000000E+00
  1.50000000E+00  1.00000000E+00  0.00000000E+00  0.00000000E+00  1.00000000E+00
  1.00000000E+00  1.00000000E+00  1.00000000E+00  1.50000000E+00  0.00000000E+00
Virial Ratio                               R      2.004891569413023E+00
SCF Energy                                 R     -3.798169994996761E+02
Total Energy                               R     -3.798169994996761E+02
RMS Density                                R      2.119013622049866E-09
Job Status                                 I                1
Nuclear derivative order                   I                0
External E-field                           R   N=          35
  0.00000000E+00  0.00000000E+00  0.00000000E+00  0.00000000E+00  0.00000000E+00
  0.00000000E+00  0.00000000E+00  0.00000000E+00  0.00000000E+00  0.00000000E+00
  0.00000000E+00  0.00000000E+00  0.00000000E+00  0.00000000E+00  0.00000000E+00
  0.00000000E+00  0.00000000E+00  0.00000000E+00  0.00000000E+00  0.00000000E+00
  0.00000000E+00  0.00000000E+00  0.00000000E+00  0.00000000E+00  0.00000000E+00
  0.00000000E+00  0.00000000E+00  0.00000000E+00  0.00000000E+00  0.00000000E+00
  0.00000000E+00  0.00000000E+00  0.00000000E+00  0.00000000E+00  0.00000000E+00
IOpCl                                      I                0
IROHF                                      I                0
Alpha Orbital Energies                     R   N=         279
 -1.48103339E+01 -1.47423918E+01 -1.06229865E+01 -1.05881666E+01 -1.05702207E+01
 -1.05526155E+01 -1.05460552E+01 -1.05449626E+01 -1.05413011E+01 -1.12106444E+00
 -9.82046404E-01 -9.50853173E-01 -8.45128032E-01 -8.33210098E-01 -7.18713301E-01
 -7.09729674E-01 -6.80590499E-01 -6.27003399E-01 -5.73266778E-01 -5.59798881E-01
 -5.16691311E-01 -5.13515891E-01 -5.07868467E-01 -4.86882460E-01 -4.31654320E-01
 -4.21819504E-01 -4.14445158E-01 -3.73145746E-01 -3.44073774E-01 -2.86752589E-01
 -2.81333891E-01 -1.33115850E-03  1.55814810E-03  1.79637604E-02  2.85006858E-02
  3.71157372E-02  3.85429320E-02  4.65606344E-02  5.69847412E-02  5.79355568E-02
  6.62086674E-02  6.84187981E-02  8.97071267E-02  9.01372988E-02  9.77485497E-02
  1.05900587E-01  1.09034444E-01  1.28274976E-01  1.34329176E-01  1.36885747E-01
  1.45600846E-01  1.53410655E-01  1.65443918E-01  1.66668396E-01  1.77019069E-01
  1.81466994E-01  1.84515525E-01  1.92402455E-01  1.98395734E-01  2.03178052E-01
  2.10155197E-01  2.17110771E-01  2.21494823E-01  2.30746733E-01  2.34247829E-01
  2.34826109E-01  2.45358841E-01  2.49165076E-01  2.58853928E-01  2.61401908E-01
  2.69175928E-01  2.71126794E-01  2.72870026E-01  2.75696703E-01  2.90953120E-01
  3.00180412E-01  3.16510790E-01  3.37024695E-01  3.54632969E-01  3.66448946E-01
  3.82175016E-01  3.93256842E-01  4.37832542E-01  4.56866703E-01  4.70369602E-01
  4.95180959E-01  5.23003347E-01  5.40171507E-01  5.48781282E-01  5.56108855E-01
  5.57859472E-01  5.61423394E-01  5.67745601E-01  5.75858045E-01  5.92544887E-01
  5.94438320E-01  6.09156409E-01  6.14826656E-01  6.50799185E-01  6.51209653E-01
  6.63624154E-01  6.73169429E-01  6.75308465E-01  6.96689737E-01  7.11731280E-01
  7.13892740E-01  7.21643272E-01  7.40208781E-01  7.44119258E-01  7.57157956E-01
  7.72033923E-01  7.81470320E-01  7.85539738E-01  8.15756128E-01  8.31539969E-01
  8.35295693E-01  8.48172032E-01  8.53032367E-01  8.54756596E-01  8.58778121E-01
  8.71235902E-01  8.75453652E-01  8.85424090E-01  8.85762484E-01  9.00959638E-01
  9.33860493E-01  9.34071138E-01  9.47970380E-01  9.65136365E-01  9.73112596E-01
  9.98310121E-01  1.02226806E+00  1.02679457E+00  1.07869509E+00  1.10877097E+00
  1.14146947E+00  1.17493157E+00  1.17925352E+00  1.20414554E+00  1.23031473E+00
  1.23065956E+00  1.26509857E+00  1.26742902E+00  1.33344822E+00  1.34427925E+00