 Entering Gaussian System, Link 0=g16
 Initial command:
 /data0/home/software/g16/l1.exe "/data0/home/software/g16/scratch/Gau-2920312.inp" -scrdir="/data0/home/software/g16/scratch/"
 Default is to use a total of  22 processors:
                               22 via shared-memory
                                1 via Linda
 Entering Link 1 = /data0/home/software/g16/l1.exe PID=   2920313.
  
 Copyright (c) 1988,1990,1992,1993,1995,1998,2003,2009,2016,
            Gaussian, Inc.  All Rights Reserved.
  
 This is part of the Gaussian(R) 16 program.  It is based on
 the Gaussian(R) 09 system (copyright 2009, Gaussian, Inc.),
 the Gaussian(R) 03 system (copyright 2003, Gaussian, Inc.),
 the Gaussian(R) 98 system (copyright 1998, Gaussian, Inc.),
 the Gaussian(R) 94 system (copyright 1995, Gaussian, Inc.),
 the Gaussian 92(TM) system (copyright 1992, Gaussian, Inc.),
 the Gaussian 90(TM) system (copyright 1990, Gaussian, Inc.),
 the Gaussian 88(TM) system (copyright 1988, Gaussian, Inc.),
 the Gaussian 86(TM) system (copyright 1986, Carnegie Mellon
 University), and the Gaussian 82(TM) system (copyright 1983,
 Carnegie Mellon University). Gaussian is a federally registered
 trademark of Gaussian, Inc.
  
 This software contains proprietary and confidential information,
 including trade secrets, belonging to Gaussian, Inc.
  
 This software is provided under written license and may be
 used, copied, transmitted, or stored only in accord with that
 written license.
  
 The following legend is applicable only to US Government
 contracts under FAR:
  
                    RESTRICTED RIGHTS LEGEND
  
 Use, reproduction and disclosure by the US Government is
 subject to restrictions as set forth in subparagraphs (a)
 and (c) of the Commercial Computer Software - Restricted
 Rights clause in FAR 52.227-19.
  
 Gaussian, Inc.
 340 Quinnipiac St., Bldg. 40, Wallingford CT 06492
  
  
 ---------------------------------------------------------------
 Warning -- This program may not be used in any manner that
 competes with the business of Gaussian, Inc. or will provide
 assistance to any competitor of Gaussian, Inc.  The licensee
 of this program is prohibited from giving any competitor of
 Gaussian, Inc. access to this program.  By using this program,
 the user acknowledges that Gaussian, Inc. is engaged in the
 business of creating and licensing software in the field of
 computational chemistry and represents and warrants to the
 licensee that it is not a competitor of Gaussian, Inc. and that
 it will not use this program in any manner prohibited above.
 ---------------------------------------------------------------
  

 Cite this work as:
 Gaussian 16, Revision A.03,
 M. J. Frisch, G. W. Trucks, H. B. Schlegel, G. E. Scuseria, 
 M. A. Robb, J. R. Cheeseman, G. Scalmani, V. Barone, 
 G. A. Petersson, H. Nakatsuji, X. Li, M. Caricato, A. V. Marenich, 
 J. Bloino, B. G. Janesko, R. Gomperts, B. Mennucci, H. P. Hratchian, 
 J. V. Ortiz, A. F. Izmaylov, J. L. Sonnenberg, D. Williams-Young, 
 F. Ding, F. Lipparini, F. Egidi, J. Goings, B. Peng, A. Petrone, 
 T. Henderson, D. Ranasinghe, V. G. Zakrzewski, J. Gao, N. Rega, 
 G. Zheng, W. Liang, M. Hada, M. Ehara, K. Toyota, R. Fukuda, 
 J. Hasegawa, M. Ishida, T. Nakajima, Y. Honda, O. Kitao, H. Nakai, 
 T. Vreven, K. Throssell, J. A. Montgomery, Jr., J. E. Peralta, 
 F. Ogliaro, M. J. Bearpark, J. J. Heyd, E. N. Brothers, K. N. Kudin, 
 V. N. Staroverov, T. A. Keith, R. Kobayashi, J. Normand, 
 K. Raghavachari, A. P. Rendell, J. C. Burant, S. S. Iyengar, 
 J. Tomasi, M. Cossi, J. M. Millam, M. Klene, C. Adamo, R. Cammi, 
 J. W. Ochterski, R. L. Martin, K. Morokuma, O. Farkas, 
 J. B. Foresman, and D. J. Fox, Gaussian, Inc., Wallingford CT, 2016.
 
 ******************************************
 Gaussian 16:  ES64L-G16RevA.03 25-Dec-2016
                 8-Jun-2023 
 ******************************************
 %chk=BI.chk
 %nprocshared=16
 Will use up to   16 processors via shared memory.
 %mem=50GB
 ------------------------------------
 #p 6-311+g(2d,p) nosymm em=gd3 m062x
 ------------------------------------
 1/38=1,172=1/1;
 2/12=2,15=1,17=6,18=5,40=1/2;
 3/5=4,6=6,7=112,11=2,25=1,30=1,74=-55,124=31/1,2,3;
 4//1;
 5/5=2,38=5/2;
 6/7=2,8=2,9=2,10=2,28=1/1;
 99/5=1,9=1/99;
 Leave Link    1 at Thu Jun  8 15:30:33 2023, MaxMem=  6710886400 cpu:               0.4 elap:               0.0
 (Enter /data0/home/software/g16/l101.exe)
 -------------------
 Title Card Required
 -------------------
 Symbolic Z-matrix:
 Charge =  0 Multiplicity = 1
 C                     8.94864   10.62572   5.06888 
 C                     10.27406   10.12199   4.84712 
 C                     11.20555   10.87709   4.12809 
 C                     10.79632   12.10916   3.64941 
 C                     9.49049   12.59727   3.87143 
 C                     8.54837   11.87092   4.57992 
 H                     12.21023   10.49357   3.96152 
 H                     11.49352   12.72731   3.08446 
 H                     9.2247    13.57554   3.46992 
 H                     7.54597   12.24948   4.74852 
 H                     7.34495   9.68919   6.12716 
 C                     9.20139   8.59403   6.01179 
 H                     8.94796   7.69213   6.56464 
 N                     8.285     9.63992   5.80937 
 N                     10.38007   8.86279   5.44842 
 
 ITRead=  0  0  0  0  0  0  0  0  0  0  0  0  0  0  0
 MicOpt= -1 -1 -1 -1 -1 -1 -1 -1 -1 -1 -1 -1 -1 -1 -1
 NAtoms=     15 NQM=       15 NQMF=       0 NMMI=      0 NMMIF=      0
                NMic=       0 NMicF=      0.
                    Isotopes and Nuclear Properties:
 (Nuclear quadrupole moments (NQMom) in fm**2, nuclear magnetic moments (NMagM)
  in nuclear magnetons)

  Atom         1           2           3           4           5           6           7           8           9          10
 IAtWgt=          12          12          12          12          12          12           1           1           1           1
 AtmWgt=  12.0000000  12.0000000  12.0000000  12.0000000  12.0000000  12.0000000   1.0078250   1.0078250   1.0078250   1.0078250
 NucSpn=           0           0           0           0           0           0           1           1           1           1
 AtZEff=  -0.0000000  -0.0000000  -0.0000000  -0.0000000  -0.0000000  -0.0000000  -0.0000000  -0.0000000  -0.0000000  -0.0000000
 NQMom=    0.0000000   0.0000000   0.0000000   0.0000000   0.0000000   0.0000000   0.0000000   0.0000000   0.0000000   0.0000000
 NMagM=    0.0000000   0.0000000   0.0000000   0.0000000   0.0000000   0.0000000   2.7928460   2.7928460   2.7928460   2.7928460
 AtZNuc=   6.0000000   6.0000000   6.0000000   6.0000000   6.0000000   6.0000000   1.0000000   1.0000000   1.0000000   1.0000000

  Atom        11          12          13          14          15
 IAtWgt=           1          12           1          14          14
 AtmWgt=   1.0078250  12.0000000   1.0078250  14.0030740  14.0030740
 NucSpn=           1           0           1           2           2
 AtZEff=  -0.0000000  -0.0000000  -0.0000000  -0.0000000  -0.0000000
 NQMom=    0.0000000   0.0000000   0.0000000   2.0440000   2.0440000
 NMagM=    2.7928460   0.0000000   2.7928460   0.4037610   0.4037610
 AtZNuc=   1.0000000   6.0000000   1.0000000   7.0000000   7.0000000
 Leave Link  101 at Thu Jun  8 15:30:33 2023, MaxMem=  6710886400 cpu:               1.9 elap:               0.1
 (Enter /data0/home/software/g16/l202.exe)
                          Input orientation:                          
 ---------------------------------------------------------------------
 Center     Atomic      Atomic             Coordinates (Angstroms)
 Number     Number       Type             X           Y           Z
 ---------------------------------------------------------------------
      1          6           0        8.948643   10.625716    5.068885
      2          6           0       10.274057   10.121994    4.847117
      3          6           0       11.205547   10.877091    4.128094
      4          6           0       10.796322   12.109160    3.649407
      5          6           0        9.490488   12.597268    3.871425
      6          6           0        8.548367   11.870921    4.579923
      7          1           0       12.210234   10.493572    3.961523
      8          1           0       11.493525   12.727313    3.084455
      9          1           0        9.224698   13.575539    3.469918
     10          1           0        7.545971   12.249480    4.748516
     11          1           0        7.344952    9.689185    6.127161
     12          6           0        9.201390    8.594028    6.011794
     13          1           0        8.947956    7.692127    6.564643
     14          7           0        8.285003    9.639924    5.809373
     15          7           0       10.380071    8.862794    5.448424
 ---------------------------------------------------------------------
                    Distance matrix (angstroms):
                    1          2          3          4          5
     1  C    0.000000
     2  C    1.435144   0.000000
     3  C    2.458026   1.398156   0.000000
     4  C    2.762144   2.378255   1.383691   0.000000
     5  C    2.369499   2.773614   2.442604   1.411646   0.000000
     6  C    1.396367   2.471466   2.872708   2.444569   1.384609
     7  H    3.446983   2.161279   1.088223   2.169490   3.439575
     8  H    3.851116   3.373687   2.143697   1.089668   2.156013
     9  H    3.366654   3.863263   3.411536   2.156962   1.090351
    10  H    2.169501   3.460978   3.957382   3.434023   2.161340
    11  H    2.137490   3.225755   4.506837   4.889530   4.260119
    12  C    2.254044   2.200402   3.574542   4.525575   4.548702
    13  H    3.292907   3.257713   4.601900   5.605822   5.622115
    14  N    1.400188   2.261562   3.589827   4.131501   3.735602
    15  N    2.302375   1.399426   2.545992   3.734785   4.150251
                    6          7          8          9         10
     6  C    0.000000
     7  H    3.960906   0.000000
     8  H    3.412299   2.504500   0.000000
     9  H    2.143655   4.318984   2.452681   0.000000
    10  H    1.084679   5.045584   4.310523   2.492262   0.000000
    11  H    2.932938   5.385907   5.974859   5.069333   2.914821
    12  C    3.635206   4.106704   5.559428   5.592596   4.206972
    13  H    4.643394   5.026608   6.629082   6.653454   5.102288
    14  N    2.560909   4.421618   5.220322   4.673879   2.912279
    15  N    3.627432   2.867021   4.665044   5.240166   4.471201
                   11         12         13         14         15
    11  H    0.000000
    12  C    2.158481   0.000000
    13  H    2.597932   1.087794   0.000000
    14  N    0.993535   1.405218   2.191769   0.000000
    15  N    3.218005   1.333758   2.160407   2.263521   0.000000
 Symmetry turned off by external request.
 Stoichiometry    C7H6N2
 Framework group  C1[X(C7H6N2)]
 Deg. of freedom    39
 Full point group                 C1      NOp   1
 Rotational constants (GHZ):           3.8921208           1.6562450           1.1618389
 Leave Link  202 at Thu Jun  8 15:30:33 2023, MaxMem=  6710886400 cpu:               0.1 elap:               0.0
 (Enter /data0/home/software/g16/l301.exe)
 Standard basis: 6-311+G(2d,p) (5D, 7F)
 Ernie: Thresh=  0.10000D-02 Tol=  0.10000D-05 Strict=F.
   279 basis functions,   426 primitive gaussians,   297 cartesian basis functions
    31 alpha electrons       31 beta electrons
       nuclear repulsion energy       401.4993307802 Hartrees.
 IExCor= 4336 DFT=T Ex+Corr=M062X ExCW=0 ScaHFX=  0.540000
 ScaDFX=  1.000000  1.000000  1.000000  1.000000 ScalE2=  1.000000  1.000000
 IRadAn=      5 IRanWt=     -1 IRanGd=            0 ICorTp=0 IEmpDi=131
 NAtoms=   15 NActive=   15 NUniq=   15 SFac= 1.00D+00 NAtFMM=   60 NAOKFM=F Big=F
 Integral buffers will be    131072 words long.
 Raffenetti 2 integral format.
 Two-electron integral symmetry is turned off.
 R6Disp:  Grimme-D3 Dispersion energy=       -0.0002903237 Hartrees.
 Nuclear repulsion after empirical dispersion term =      401.4990404565 Hartrees.
 Leave Link  301 at Thu Jun  8 15:30:33 2023, MaxMem=  6710886400 cpu:               1.5 elap:               0.1
 (Enter /data0/home/software/g16/l302.exe)
 NPDir=0 NMtPBC=     1 NCelOv=     1 NCel=       1 NClECP=     1 NCelD=      1
         NCelK=      1 NCelE2=     1 NClLst=     1 CellRange=     0.0.
 One-electron integrals computed using PRISM.
 NBasis=   279 RedAO= T EigKep=  1.43D-06  NBF=   279
 NBsUse=   279 1.00D-06 EigRej= -1.00D+00 NBFU=   279
 Precomputing XC quadrature grid using
 IXCGrd= 4 IRadAn=           5 IRanWt=          -1 IRanGd=           0 AccXCQ= 0.00D+00.
 Generated NRdTot=       0 NPtTot=           0 NUsed=           0 NTot=          32
 NSgBfM=   297   297   297   297   297 MxSgAt=    15 MxSgA2=    15.
 Leave Link  302 at Thu Jun  8 15:30:33 2023, MaxMem=  6710886400 cpu:               2.8 elap:               0.2
 (Enter /data0/home/software/g16/l303.exe)
 DipDrv:  MaxL=1.
 Leave Link  303 at Thu Jun  8 15:30:33 2023, MaxMem=  6710886400 cpu:               0.6 elap:               0.1
 (Enter /data0/home/software/g16/l401.exe)
 ExpMin= 4.38D-02 ExpMax= 6.29D+03 ExpMxC= 9.49D+02 IAcc=3 IRadAn=         5 AccDes= 0.00D+00
 Harris functional with IExCor= 1009 and IRadAn=       5 diagonalized for initial guess.
 HarFok:  IExCor= 1009 AccDes= 0.00D+00 IRadAn=         5 IDoV= 1 UseB2=F ITyADJ=14
 ICtDFT=  3500011 ScaDFX=  1.000000  1.000000  1.000000  1.000000
 FoFCou: FMM=F IPFlag=           0 FMFlag=      100000 FMFlg1=           0
         NFxFlg=           0 DoJE=T BraDBF=F KetDBF=T FulRan=T
         wScrn=  0.000000 ICntrl=       500 IOpCl=  0 I1Cent=   200000004 NGrid=           0
         NMat0=    1 NMatS0=      1 NMatT0=    0 NMatD0=    1 NMtDS0=    0 NMtDT0=    0
 Symmetry not used in FoFCou.
 Harris En= -379.613211072633    
 JPrj=0 DoOrth=F DoCkMO=F.
 Leave Link  401 at Thu Jun  8 15:30:34 2023, MaxMem=  6710886400 cpu:              10.7 elap:               0.7
 (Enter /data0/home/software/g16/l502.exe)
 Two-electron integral symmetry not used.
 Closed shell SCF:
 Using DIIS extrapolation, IDIIS=  1040.
 NGot=  6710886400 LenX=  6710703138 LenY=  6710614488
 Requested convergence on RMS density matrix=1.00D-08 within 128 cycles.
 Requested convergence on MAX density matrix=1.00D-06.
 Requested convergence on             energy=1.00D-06.
 No special actions if energy rises.
 Fock matrices will be formed incrementally for  20 cycles.

 Cycle   1  Pass 1  IDiag  1:
 FoFJK:  IHMeth= 1 ICntrl=       0 DoSepK=F KAlg= 0 I1Cent=           0 FoldK=F
 IRaf= 960000000 NMat=       1 IRICut=       1 DoRegI=T DoRafI=F ISym2E= 0 IDoP0=0 IntGTp=1.
 FoFCou: FMM=F IPFlag=           0 FMFlag=      100000 FMFlg1=           0
         NFxFlg=           0 DoJE=F BraDBF=F KetDBF=F FulRan=T
         wScrn=  0.000000 ICntrl=         0 IOpCl=  0 I1Cent=           0 NGrid=           0
         NMat0=    1 NMatS0=      1 NMatT0=    0 NMatD0=    1 NMtDS0=    0 NMtDT0=    0
 Symmetry not used in FoFCou.
 E= -379.611794662386    
 DIIS: error= 3.11D-02 at cycle   1 NSaved=   1.
 NSaved= 1 IEnMin= 1 EnMin= -379.611794662386     IErMin= 1 ErrMin= 3.11D-02
 ErrMax= 3.11D-02  0.00D+00 EMaxC= 1.00D-01 BMatC= 2.49D-01 BMatP= 2.49D-01
 IDIUse=3 WtCom= 6.89D-01 WtEn= 3.11D-01
 Coeff-Com:  0.100D+01
 Coeff-En:   0.100D+01
 Coeff:      0.100D+01
 Gap=     0.310 Goal=   None    Shift=    0.000
 GapD=    0.310 DampG=1.000 DampE=0.500 DampFc=0.5000 IDamp=-1.
 Damping current iteration by 5.00D-01
 RMSDP=1.30D-02 MaxDP=1.44D+00              OVMax= 2.13D-01

 Cycle   2  Pass 1  IDiag  1:
 RMSU=  6.31D-03    CP:  1.07D+00
 E= -379.708503760441     Delta-E=       -0.096709098055 Rises=F Damp=T
 DIIS: error= 7.78D-03 at cycle   2 NSaved=   2.
 NSaved= 2 IEnMin= 2 EnMin= -379.708503760441     IErMin= 2 ErrMin= 7.78D-03
 ErrMax= 7.78D-03  0.00D+00 EMaxC= 1.00D-01 BMatC= 2.61D-02 BMatP= 2.49D-01
 IDIUse=3 WtCom= 9.22D-01 WtEn= 7.78D-02
 Coeff-Com: -0.940D-01 0.109D+01
 Coeff-En:   0.000D+00 0.100D+01
 Coeff:     -0.866D-01 0.109D+01
 Gap=     0.304 Goal=   None    Shift=    0.000
 RMSDP=4.44D-03 MaxDP=3.06D-01 DE=-9.67D-02 OVMax= 1.72D-01

 Cycle   3  Pass 1  IDiag  1:
 RMSU=  3.57D-03    CP:  9.67D-01  1.18D+00
 E= -379.800449182765     Delta-E=       -0.091945422324 Rises=F Damp=F
 DIIS: error= 7.60D-03 at cycle   3 NSaved=   3.
 NSaved= 3 IEnMin= 3 EnMin= -379.800449182765     IErMin= 3 ErrMin= 7.60D-03
 ErrMax= 7.60D-03  0.00D+00 EMaxC= 1.00D-01 BMatC= 1.72D-02 BMatP= 2.61D-02
 IDIUse=3 WtCom= 9.24D-01 WtEn= 7.60D-02
 Coeff-Com: -0.137D+00 0.535D+00 0.602D+00
 Coeff-En:   0.000D+00 0.000D+00 0.100D+01
 Coeff:     -0.126D+00 0.494D+00 0.632D+00
 Gap=     0.281 Goal=   None    Shift=    0.000
 RMSDP=1.17D-03 MaxDP=1.13D-01 DE=-9.19D-02 OVMax= 6.04D-02

 Cycle   4  Pass 1  IDiag  1:
 RMSU=  1.10D-03    CP:  9.50D-01  1.17D+00  9.63D-01
 E= -379.814572916190     Delta-E=       -0.014123733425 Rises=F Damp=F
 DIIS: error= 3.14D-03 at cycle   4 NSaved=   4.
 NSaved= 4 IEnMin= 4 EnMin= -379.814572916190     IErMin= 4 ErrMin= 3.14D-03
 ErrMax= 3.14D-03  0.00D+00 EMaxC= 1.00D-01 BMatC= 2.72D-03 BMatP= 1.72D-02
 IDIUse=3 WtCom= 9.69D-01 WtEn= 3.14D-02
 Coeff-Com: -0.554D-01 0.144D+00 0.340D+00 0.572D+00
 Coeff-En:   0.000D+00 0.000D+00 0.950D-01 0.905D+00
 Coeff:     -0.536D-01 0.139D+00 0.332D+00 0.582D+00
 Gap=     0.279 Goal=   None    Shift=    0.000
 RMSDP=5.31D-04 MaxDP=4.97D-02 DE=-1.41D-02 OVMax= 1.40D-02

 Cycle   5  Pass 1  IDiag  1:
 RMSU=  2.83D-04    CP:  9.43D-01  1.12D+00  9.57D-01  7.58D-01
 E= -379.816894067005     Delta-E=       -0.002321150816 Rises=F Damp=F
 DIIS: error= 6.81D-04 at cycle   5 NSaved=   5.
 NSaved= 5 IEnMin= 5 EnMin= -379.816894067005     IErMin= 5 ErrMin= 6.81D-04
 ErrMax= 6.81D-04  0.00D+00 EMaxC= 1.00D-01 BMatC= 1.01D-04 BMatP= 2.72D-03
 IDIUse=3 WtCom= 9.93D-01 WtEn= 6.81D-03
 Coeff-Com: -0.185D-01 0.397D-01 0.122D+00 0.266D+00 0.591D+00
 Coeff-En:   0.000D+00 0.000D+00 0.000D+00 0.000D+00 0.100D+01
 Coeff:     -0.184D-01 0.394D-01 0.121D+00 0.264D+00 0.594D+00
 Gap=     0.280 Goal=   None    Shift=    0.000
 RMSDP=9.84D-05 MaxDP=8.74D-03 DE=-2.32D-03 OVMax= 4.00D-03

 Cycle   6  Pass 1  IDiag  1:
 RMSU=  8.58D-05    CP:  9.44D-01  1.12D+00  9.55D-01  7.75D-01  8.63D-01
 E= -379.816986141189     Delta-E=       -0.000092074183 Rises=F Damp=F
 DIIS: error= 2.46D-04 at cycle   6 NSaved=   6.
 NSaved= 6 IEnMin= 6 EnMin= -379.816986141189     IErMin= 6 ErrMin= 2.46D-04
 ErrMax= 2.46D-04  0.00D+00 EMaxC= 1.00D-01 BMatC= 1.14D-05 BMatP= 1.01D-04
 IDIUse=3 WtCom= 9.98D-01 WtEn= 2.46D-03
 Coeff-Com: -0.247D-02 0.281D-02 0.195D-01 0.557D-01 0.286D+00 0.639D+00
 Coeff-En:   0.000D+00 0.000D+00 0.000D+00 0.000D+00 0.201D-01 0.980D+00
 Coeff:     -0.247D-02 0.281D-02 0.194D-01 0.556D-01 0.285D+00 0.640D+00
 Gap=     0.280 Goal=   None    Shift=    0.000
 RMSDP=5.30D-05 MaxDP=4.23D-03 DE=-9.21D-05 OVMax= 1.45D-03

 Cycle   7  Pass 1  IDiag  1:
 RMSU=  3.78D-05    CP:  9.44D-01  1.12D+00  9.58D-01  7.84D-01  8.53D-01
                    CP:  8.65D-01
 E= -379.816998622825     Delta-E=       -0.000012481636 Rises=F Damp=F
 DIIS: error= 6.90D-05 at cycle   7 NSaved=   7.
 NSaved= 7 IEnMin= 7 EnMin= -379.816998622825     IErMin= 7 ErrMin= 6.90D-05
 ErrMax= 6.90D-05  0.00D+00 EMaxC= 1.00D-01 BMatC= 4.03D-07 BMatP= 1.14D-05
 IDIUse=1 WtCom= 1.00D+00 WtEn= 0.00D+00
 Coeff-Com:  0.134D-02-0.334D-02-0.653D-02-0.156D-01-0.145D-02 0.102D+00
 Coeff-Com:  0.924D+00
 Coeff:      0.134D-02-0.334D-02-0.653D-02-0.156D-01-0.145D-02 0.102D+00
 Coeff:      0.924D+00
 Gap=     0.280 Goal=   None    Shift=    0.000
 RMSDP=1.71D-05 MaxDP=1.37D-03 DE=-1.25D-05 OVMax= 4.58D-04

 Cycle   8  Pass 1  IDiag  1:
 RMSU=  5.40D-06    CP:  9.44D-01  1.11D+00  9.59D-01  7.84D-01  8.67D-01
                    CP:  9.25D-01  1.16D+00
 E= -379.816999259549     Delta-E=       -0.000000636724 Rises=F Damp=F
 DIIS: error= 3.15D-05 at cycle   8 NSaved=   8.
 NSaved= 8 IEnMin= 8 EnMin= -379.816999259549     IErMin= 8 ErrMin= 3.15D-05
 ErrMax= 3.15D-05  0.00D+00 EMaxC= 1.00D-01 BMatC= 1.75D-07 BMatP= 4.03D-07
 IDIUse=1 WtCom= 1.00D+00 WtEn= 0.00D+00
 Coeff-Com:  0.993D-03-0.206D-02-0.536D-02-0.148D-01-0.328D-01-0.204D-01
 Coeff-Com:  0.493D+00 0.581D+00
 Coeff:      0.993D-03-0.206D-02-0.536D-02-0.148D-01-0.328D-01-0.204D-01
 Coeff:      0.493D+00 0.581D+00
 Gap=     0.280 Goal=   None    Shift=    0.000
 RMSDP=5.17D-06 MaxDP=4.45D-04 DE=-6.37D-07 OVMax= 2.12D-04

 Cycle   9  Pass 1  IDiag  1:
 RMSU=  3.62D-06    CP:  9.44D-01  1.11D+00  9.59D-01  7.83D-01  8.67D-01
                    CP:  9.47D-01  1.17D+00  1.18D+00
 E= -379.816999475782     Delta-E=       -0.000000216234 Rises=F Damp=F
 DIIS: error= 1.42D-05 at cycle   9 NSaved=   9.
 NSaved= 9 IEnMin= 9 EnMin= -379.816999475782     IErMin= 9 ErrMin= 1.42D-05
 ErrMax= 1.42D-05  0.00D+00 EMaxC= 1.00D-01 BMatC= 8.23D-09 BMatP= 1.75D-07
 IDIUse=1 WtCom= 1.00D+00 WtEn= 0.00D+00
 Coeff-Com: -0.528D-04 0.167D-03 0.424D-03 0.322D-03-0.279D-02-0.151D-01
 Coeff-Com: -0.682D-01 0.102D+00 0.983D+00
 Coeff:     -0.528D-04 0.167D-03 0.424D-03 0.322D-03-0.279D-02-0.151D-01
 Coeff:     -0.682D-01 0.102D+00 0.983D+00
 Gap=     0.280 Goal=   None    Shift=    0.000
 RMSDP=2.29D-06 MaxDP=1.45D-04 DE=-2.16D-07 OVMax= 9.37D-05

 Cycle  10  Pass 1  IDiag  1:
 RMSU=  8.83D-07    CP:  9.44D-01  1.11D+00  9.59D-01  7.82D-01  8.68D-01
                    CP:  9.50D-01  1.17D+00  1.35D+00  1.21D+00
 E= -379.816999497129     Delta-E=       -0.000000021347 Rises=F Damp=F
 DIIS: error= 3.52D-06 at cycle  10 NSaved=  10.
 NSaved=10 IEnMin=10 EnMin= -379.816999497129     IErMin=10 ErrMin= 3.52D-06
 ErrMax= 3.52D-06  0.00D+00 EMaxC= 1.00D-01 BMatC= 9.71D-10 BMatP= 8.23D-09
 IDIUse=1 WtCom= 1.00D+00 WtEn= 0.00D+00
 Coeff-Com: -0.938D-04 0.213D-03 0.607D-03 0.127D-02 0.158D-02-0.282D-02
 Coeff-Com: -0.628D-01-0.215D-01 0.292D+00 0.792D+00
 Coeff:     -0.938D-04 0.213D-03 0.607D-03 0.127D-02 0.158D-02-0.282D-02
 Coeff:     -0.628D-01-0.215D-01 0.292D+00 0.792D+00
 Gap=     0.280 Goal=   None    Shift=    0.000
 RMSDP=7.32D-07 MaxDP=8.13D-05 DE=-2.13D-08 OVMax= 3.53D-05

 Cycle  11  Pass 1  IDiag  1:
 RMSU=  2.31D-07    CP:  9.44D-01  1.11D+00  9.59D-01  7.82D-01  8.68D-01
                    CP:  9.51D-01  1.17D+00  1.39D+00  1.29D+00  9.97D-01
 E= -379.816999499202     Delta-E=       -0.000000002073 Rises=F Damp=F
 DIIS: error= 1.79D-06 at cycle  11 NSaved=  11.
 NSaved=11 IEnMin=11 EnMin= -379.816999499202     IErMin=11 ErrMin= 1.79D-06
 ErrMax= 1.79D-06  0.00D+00 EMaxC= 1.00D-01 BMatC= 2.65D-10 BMatP= 9.71D-10
 IDIUse=1 WtCom= 1.00D+00 WtEn= 0.00D+00
 Coeff-Com: -0.304D-04 0.645D-04 0.210D-03 0.509D-03 0.980D-03 0.883D-03
 Coeff-Com: -0.193D-01-0.276D-01-0.110D-01 0.380D+00 0.676D+00
 Coeff:     -0.304D-04 0.645D-04 0.210D-03 0.509D-03 0.980D-03 0.883D-03
 Coeff:     -0.193D-01-0.276D-01-0.110D-01 0.380D+00 0.676D+00
 Gap=     0.280 Goal=   None    Shift=    0.000
 RMSDP=1.97D-07 MaxDP=1.09D-05 DE=-2.07D-09 OVMax= 1.47D-05

 Cycle  12  Pass 1  IDiag  1:
 RMSU=  1.27D-07    CP:  9.44D-01  1.11D+00  9.59D-01  7.82D-01  8.68D-01
                    CP:  9.51D-01  1.17D+00  1.40D+00  1.30D+00  1.07D+00
                    CP:  9.09D-01
 E= -379.816999499629     Delta-E=       -0.000000000427 Rises=F Damp=F
 DIIS: error= 3.78D-07 at cycle  12 NSaved=  12.
 NSaved=12 IEnMin=12 EnMin= -379.816999499629     IErMin=12 ErrMin= 3.78D-07
 ErrMax= 3.78D-07  0.00D+00 EMaxC= 1.00D-01 BMatC= 1.47D-11 BMatP= 2.65D-10
 IDIUse=1 WtCom= 1.00D+00 WtEn= 0.00D+00
 Coeff-Com:  0.816D-05-0.187D-04-0.484D-04-0.806D-04-0.708D-04 0.735D-03
 Coeff-Com:  0.578D-02-0.443D-02-0.464D-01-0.308D-01 0.132D+00 0.944D+00
 Coeff:      0.816D-05-0.187D-04-0.484D-04-0.806D-04-0.708D-04 0.735D-03
 Coeff:      0.578D-02-0.443D-02-0.464D-01-0.308D-01 0.132D+00 0.944D+00
 Gap=     0.280 Goal=   None    Shift=    0.000
 RMSDP=1.44D-07 MaxDP=1.03D-05 DE=-4.27D-10 OVMax= 6.17D-06

 Cycle  13  Pass 1  IDiag  1:
 RMSU=  5.99D-08    CP:  9.44D-01  1.11D+00  9.59D-01  7.82D-01  8.68D-01
                    CP:  9.51D-01  1.17D+00  1.40D+00  1.30D+00  1.10D+00
                    CP:  9.30D-01  1.42D+00
 E= -379.816999499681     Delta-E=       -0.000000000052 Rises=F Damp=F
 DIIS: error= 1.68D-07 at cycle  13 NSaved=  13.
 NSaved=13 IEnMin=13 EnMin= -379.816999499681     IErMin=13 ErrMin= 1.68D-07
 ErrMax= 1.68D-07  0.00D+00 EMaxC= 1.00D-01 BMatC= 3.21D-12 BMatP= 1.47D-11
 IDIUse=1 WtCom= 1.00D+00 WtEn= 0.00D+00
 Coeff-Com:  0.532D-05-0.119D-04-0.354D-04-0.684D-04-0.115D-03 0.239D-03
 Coeff-Com:  0.379D-02 0.423D-03-0.147D-01-0.398D-01-0.201D-01 0.347D+00
 Coeff-Com:  0.724D+00
 Coeff:      0.532D-05-0.119D-04-0.354D-04-0.684D-04-0.115D-03 0.239D-03
 Coeff:      0.379D-02 0.423D-03-0.147D-01-0.398D-01-0.201D-01 0.347D+00
 Coeff:      0.724D+00
 Gap=     0.280 Goal=   None    Shift=    0.000
 RMSDP=3.23D-08 MaxDP=2.36D-06 DE=-5.18D-11 OVMax= 1.82D-06

 Cycle  14  Pass 1  IDiag  1:
 RMSU=  1.14D-08    CP:  9.44D-01  1.11D+00  9.59D-01  7.82D-01  8.68D-01
                    CP:  9.52D-01  1.17D+00  1.39D+00  1.30D+00  1.10D+00
                    CP:  9.29D-01  1.53D+00  1.16D+00
 E= -379.816999499672     Delta-E=        0.000000000009 Rises=F Damp=F
 DIIS: error= 6.44D-08 at cycle  14 NSaved=  14.
 NSaved=14 IEnMin=13 EnMin= -379.816999499681     IErMin=14 ErrMin= 6.44D-08
 ErrMax= 6.44D-08  0.00D+00 EMaxC= 1.00D-01 BMatC= 7.42D-13 BMatP= 3.21D-12
 IDIUse=1 WtCom= 1.00D+00 WtEn= 0.00D+00
 Coeff-Com:  0.216D-06-0.511D-06-0.398D-05-0.738D-05-0.358D-04-0.498D-04
 Coeff-Com:  0.190D-03 0.962D-03 0.501D-02-0.800D-02-0.469D-01-0.803D-01
 Coeff-Com:  0.325D+00 0.804D+00
 Coeff:      0.216D-06-0.511D-06-0.398D-05-0.738D-05-0.358D-04-0.498D-04
 Coeff:      0.190D-03 0.962D-03 0.501D-02-0.800D-02-0.469D-01-0.803D-01
 Coeff:      0.325D+00 0.804D+00
 Gap=     0.280 Goal=   None    Shift=    0.000
 RMSDP=2.18D-08 MaxDP=1.46D-06 DE= 9.44D-12 OVMax= 7.74D-07

 Cycle  15  Pass 1  IDiag  1:
 RMSU=  6.27D-09    CP:  9.44D-01  1.11D+00  9.59D-01  7.82D-01  8.68D-01
                    CP:  9.52D-01  1.16D+00  1.39D+00  1.29D+00  1.11D+00
                    CP:  9.23D-01  1.61D+00  1.28D+00  1.10D+00
 E= -379.816999499676     Delta-E=       -0.000000000004 Rises=F Damp=F
 DIIS: error= 1.32D-08 at cycle  15 NSaved=  15.
 NSaved=15 IEnMin=13 EnMin= -379.816999499681     IErMin=15 ErrMin= 1.32D-08
 ErrMax= 1.32D-08  0.00D+00 EMaxC= 1.00D-01 BMatC= 4.00D-14 BMatP= 7.42D-13
 IDIUse=1 WtCom= 1.00D+00 WtEn= 0.00D+00
 Coeff-Com: -0.248D-06 0.530D-06 0.496D-06 0.142D-05-0.876D-05-0.303D-04
 Coeff-Com: -0.142D-03 0.273D-03 0.274D-02-0.179D-03-0.172D-01-0.484D-01
 Coeff-Com:  0.829D-01 0.297D+00 0.683D+00
 Coeff:     -0.248D-06 0.530D-06 0.496D-06 0.142D-05-0.876D-05-0.303D-04
 Coeff:     -0.142D-03 0.273D-03 0.274D-02-0.179D-03-0.172D-01-0.484D-01
 Coeff:      0.829D-01 0.297D+00 0.683D+00
 Gap=     0.280 Goal=   None    Shift=    0.000
 RMSDP=2.12D-09 MaxDP=9.85D-08 DE=-4.43D-12 OVMax= 1.27D-07

 SCF Done:  E(RM062X) =  -379.816999500     A.U. after   15 cycles
            NFock= 15  Conv=0.21D-08     -V/T= 2.0049
 KE= 3.779681420967D+02 PE=-1.685741854820D+03 EE= 5.264576727674D+02
 Leave Link  502 at Thu Jun  8 15:31:05 2023, MaxMem=  6710886400 cpu:             489.1 elap:              30.7
 (Enter /data0/home/software/g16/l601.exe)
 Copying SCF densities to generalized density rwf, IOpCl= 0 IROHF=0.

 **********************************************************************

            Population analysis using the SCF density.

 **********************************************************************

 Alpha  occ. eigenvalues --  -14.81033 -14.74239 -10.62299 -10.58817 -10.57022
 Alpha  occ. eigenvalues --  -10.55262 -10.54606 -10.54496 -10.54130  -1.12106
 Alpha  occ. eigenvalues --   -0.98205  -0.95085  -0.84513  -0.83321  -0.71871
 Alpha  occ. eigenvalues --   -0.70973  -0.68059  -0.62700  -0.57327  -0.55980
 Alpha  occ. eigenvalues --   -0.51669  -0.51352  -0.50787  -0.48688  -0.43165
 Alpha  occ. eigenvalues --   -0.42182  -0.41445  -0.37315  -0.34407  -0.28675
 Alpha  occ. eigenvalues --   -0.28133
 Alpha virt. eigenvalues --   -0.00133   0.00156   0.01796   0.02850   0.03712
 Alpha virt. eigenvalues --    0.03854   0.04656   0.05698   0.05794   0.06621
 Alpha virt. eigenvalues --    0.06842   0.08971   0.09014   0.09775   0.10590
 Alpha virt. eigenvalues --    0.10903   0.12827   0.13433   0.13689   0.14560
 Alpha virt. eigenvalues --    0.15341   0.16544   0.16667   0.17702   0.18147
 Alpha virt. eigenvalues --    0.18452   0.19240   0.19840   0.20318   0.21016
 Alpha virt. eigenvalues --    0.21711   0.22149   0.23075   0.23425   0.23483
 Alpha virt. eigenvalues --    0.24536   0.24917   0.25885   0.26140   0.26918
 Alpha virt. eigenvalues --    0.27113   0.27287   0.27570   0.29095   0.30018
 Alpha virt. eigenvalues --    0.31651   0.33702   0.35463   0.36645   0.38218
 Alpha virt. eigenvalues --    0.39326   0.43783   0.45687   0.47037   0.49518
 Alpha virt. eigenvalues --    0.52300   0.54017   0.54878   0.55611   0.55786
 Alpha virt. eigenvalues --    0.56142   0.56775   0.57586   0.59254   0.59444
 Alpha virt. eigenvalues --    0.60916   0.61483   0.65080   0.65121   0.66362
 Alpha virt. eigenvalues --    0.67317   0.67531   0.69669   0.71173   0.71389
 Alpha virt. eigenvalues --    0.72164   0.74021   0.74412   0.75716   0.77203
 Alpha virt. eigenvalues --    0.78147   0.78554   0.81576   0.83154   0.83530
 Alpha virt. eigenvalues --    0.84817   0.85303   0.85476   0.85878   0.87124
 Alpha virt. eigenvalues --    0.87545   0.88542   0.88576   0.90096   0.93386
 Alpha virt. eigenvalues --    0.93407   0.94797   0.96514   0.97311   0.99831
 Alpha virt. eigenvalues --    1.02227   1.02679   1.07870   1.10877   1.14147
 Alpha virt. eigenvalues --    1.17493   1.17925   1.20415   1.23031   1.23066
 Alpha virt. eigenvalues --    1.26510   1.26743   1.33345   1.34428   1.34800
 Alpha virt. eigenvalues --    1.35164   1.36719   1.37206   1.41682   1.43123
 Alpha virt. eigenvalues --    1.44281   1.45004   1.46740   1.49268   1.53199
 Alpha virt. eigenvalues --    1.53591   1.56602   1.58685   1.60897   1.62434
 Alpha virt. eigenvalues --    1.64037   1.65568   1.69101   1.69164   1.74382
 Alpha virt. eigenvalues --    1.75346   1.77353   1.84933   1.85455   1.89435
 Alpha virt. eigenvalues --    1.92440   1.95902   1.98946   1.99024   2.05425
 Alpha virt. eigenvalues --    2.09121   2.10256   2.12504   2.20117   2.29469
 Alpha virt. eigenvalues --    2.31957   2.36517   2.43871   2.50425   2.59690
 Alpha virt. eigenvalues --    2.62943   2.65075   2.67804   2.70043   2.71502
 Alpha virt. eigenvalues --    2.77019   2.78015   2.80136   2.81900   2.82427
 Alpha virt. eigenvalues --    2.86135   2.90391   2.91202   2.93098   2.95107
 Alpha virt. eigenvalues --    2.96946   3.07618   3.09769   3.10199   3.14986
 Alpha virt. eigenvalues --    3.16424   3.16437   3.22399   3.28474   3.29028
 Alpha virt. eigenvalues --    3.29330   3.29684   3.31839   3.35711   3.37907
 Alpha virt. eigenvalues --    3.37934   3.39130   3.40137   3.41715   3.43652
 Alpha virt. eigenvalues --    3.47845   3.48500   3.49514   3.52925   3.54706
 Alpha virt. eigenvalues --    3.58066   3.59034   3.59217   3.59670   3.61310
 Alpha virt. eigenvalues --    3.62907   3.66895   3.70362   3.72352   3.74829
 Alpha virt. eigenvalues --    3.76835   3.77974   3.80284   3.87083   3.91469
 Alpha virt. eigenvalues --    3.94405   3.95513   3.95991   3.98488   3.98990
 Alpha virt. eigenvalues --    4.01262   4.04110   4.08050   4.10074   4.25355
 Alpha virt. eigenvalues --    4.43940   4.58255   4.65105   4.71350   4.75125
 Alpha virt. eigenvalues --    4.90462   4.97964   5.02270   5.03185   5.04934
 Alpha virt. eigenvalues --    5.09282   5.18938   5.23262   5.28034   5.31815
 Alpha virt. eigenvalues --    5.42894   5.46437   5.58191   5.66133  23.76954
 Alpha virt. eigenvalues --   24.02372  24.07334  24.12275  24.13599  24.24376
 Alpha virt. eigenvalues --   24.28263  35.74860  35.81752
          Condensed to atoms (all electrons):
               1          2          3          4          5          6
     1  C    8.740966  -1.912219  -1.698824  -0.281115  -0.105245   0.406296
     2  C   -1.912219   9.289355  -1.440258   0.199320  -0.696739  -0.412448
     3  C   -1.698824  -1.440258   9.720329   0.289246   0.571120  -0.469459
     4  C   -0.281115   0.199320   0.289246   5.002172   0.481586   0.115468
     5  C   -0.105245  -0.696739   0.571120   0.481586   5.057548   0.533733
     6  C    0.406296  -0.412448  -0.469459   0.115468   0.533733   6.260119
     7  H    0.019134  -0.006635   0.363193  -0.028922   0.011220  -0.013072
     8  H   -0.008515   0.046400  -0.067274   0.392839  -0.042960   0.021264
     9  H    0.047275   0.000413   0.010657  -0.035050   0.384169  -0.065992
    10  H   -0.032597  -0.035246  -0.015826   0.017506   0.028564   0.379214
    11  H   -0.097500   0.119913   0.017827  -0.000477  -0.007317  -0.052606
    12  C   -0.511580   0.106524   0.094426   0.001450  -0.005459  -0.042784
    13  H   -0.031810   0.044362   0.033320  -0.000720   0.001585  -0.004728
    14  N    0.483232  -0.167935  -0.089774   0.002980   0.001001  -0.151498
    15  N    0.548880   0.430406  -0.919885  -0.011078  -0.022759   0.061869
               7          8          9         10         11         12
     1  C    0.019134  -0.008515   0.047275  -0.032597  -0.097500  -0.511580
     2  C   -0.006635   0.046400   0.000413  -0.035246   0.119913   0.106524
     3  C    0.363193  -0.067274   0.010657  -0.015826   0.017827   0.094426
     4  C   -0.028922   0.392839  -0.035050   0.017506  -0.000477   0.001450
     5  C    0.011220  -0.042960   0.384169   0.028564  -0.007317  -0.005459
     6  C   -0.013072   0.021264  -0.065992   0.379214  -0.052606  -0.042784
     7  H    0.515625  -0.004704  -0.000249   0.000082   0.000016   0.000336
     8  H   -0.004704   0.543452  -0.004919  -0.000295  -0.000001   0.000720
     9  H   -0.000249  -0.004919   0.544300  -0.004737  -0.000010   0.000470
    10  H    0.000082  -0.000295  -0.004737   0.538665   0.001859   0.002498
    11  H    0.000016  -0.000001  -0.000010   0.001859   0.399082  -0.024259
    12  C    0.000336   0.000720   0.000470   0.002498  -0.024259   5.016396
    13  H   -0.000032  -0.000000  -0.000001  -0.000015  -0.001210   0.422861
    14  N   -0.000897   0.000442  -0.000473  -0.003584   0.379697   0.381596
    15  N    0.005922  -0.000374   0.000290   0.000445  -0.007083   0.391914
              13         14         15
     1  C   -0.031810   0.483232   0.548880
     2  C    0.044362  -0.167935   0.430406
     3  C    0.033320  -0.089774  -0.919885
     4  C   -0.000720   0.002980  -0.011078
     5  C    0.001585   0.001001  -0.022759
     6  C   -0.004728  -0.151498   0.061869
     7  H   -0.000032  -0.000897   0.005922
     8  H   -0.000000   0.000442  -0.000374
     9  H   -0.000001  -0.000473   0.000290
    10  H   -0.000015  -0.003584   0.000445
    11  H   -0.001210   0.379697  -0.007083
    12  C    0.422861   0.381596   0.391914
    13  H    0.500826  -0.052210  -0.061881
    14  N   -0.052210   6.504636   0.039148
    15  N   -0.061881   0.039148   6.883625
 Mulliken charges:
               1
     1  C    0.433621
     2  C    0.434785
     3  C   -0.398817
     4  C   -0.145207
     5  C   -0.190048
     6  C   -0.565377
     7  H    0.138983
     8  H    0.123926
     9  H    0.123857
    10  H    0.123466
    11  H    0.272070
    12  C    0.164889
    13  H    0.149652
    14  N   -0.326362
    15  N   -0.339439
 Sum of Mulliken charges =  -0.00000
 Mulliken charges with hydrogens summed into heavy atoms:
               1
     1  C    0.433621
     2  C    0.434785
     3  C   -0.259834
     4  C   -0.021281
     5  C   -0.066191
     6  C   -0.441911
    12  C    0.314541
    14  N   -0.054292
    15  N   -0.339439
 Electronic spatial extent (au):  <R**2>=          51643.7161
 Charge=             -0.0000 electrons
 Dipole moment (field-independent basis, Debye):
    X=             -3.2767    Y=              0.6050    Z=              0.8845  Tot=              3.4475
 Quadrupole moment (field-independent basis, Debye-Ang):
   XX=           -108.4756   YY=            -37.7999   ZZ=            -43.4574
   XY=            -23.9003   XZ=            -14.1049   YZ=              7.2064
 Traceless Quadrupole moment (field-independent basis, Debye-Ang):
   XX=            -45.2313   YY=             25.4444   ZZ=             19.7869
   XY=            -23.9003   XZ=            -14.1049   YZ=              7.2064
 Octapole moment (field-independent basis, Debye-Ang**2):
  XXX=          -2241.3239  YYY=          -1406.3491  ZZZ=           -682.3148  XYY=           -643.1682
  XXY=           -995.8443  XXZ=           -568.9240  XZZ=           -566.8986  YZZ=           -501.3303
  YYZ=           -188.3198  XYZ=           -140.5485
 Hexadecapole moment (field-independent basis, Debye-Ang**3):
 XXXX=         -38030.1795 YYYY=         -31908.0226 ZZZZ=          -6992.2751 XXXY=         -21791.6005
 XXXZ=         -11778.3050 YYYX=         -16297.3457 YYYZ=          -7250.3444 ZZZX=          -7442.7950
 ZZZY=          -7445.3713 XXYY=         -14129.5402 XXZZ=          -8012.5407 YYZZ=          -7034.8373
 XXYZ=          -5603.6963 YYXZ=          -3799.8464 ZZXY=          -6219.9521
 N-N= 4.014990404565D+02 E-N=-1.685741854462D+03  KE= 3.779681420967D+02
 No NMR shielding tensors so no spin-rotation constants.
 Leave Link  601 at Thu Jun  8 15:31:05 2023, MaxMem=  6710886400 cpu:               1.5 elap:               0.1
 (Enter /data0/home/software/g16/l9999.exe)
 1\1\GINC-LOCALHOST\SP\RM062X\6-311+G(2d,p)\C7H6N2\WUHANYU\08-Jun-2023\
 0\\#p 6-311+g(2d,p) nosymm em=gd3 m062x\\Title Card Required\\0,1\C,0,
 8.948643,10.625716,5.068885\C,0,10.274057,10.121994,4.847117\C,0,11.20
 5547,10.877091,4.128094\C,0,10.796322,12.10916,3.649407\C,0,9.490488,1
 2.597268,3.871425\C,0,8.548367,11.870921,4.579923\H,0,12.210234,10.493
 572,3.961523\H,0,11.493525,12.727313,3.084455\H,0,9.224698,13.575539,3
 .469918\H,0,7.545971,12.24948,4.748516\H,0,7.344952,9.689185,6.127161\
 C,0,9.20139,8.594028,6.011794\H,0,8.947956,7.692127,6.564643\N,0,8.285
 003,9.639924,5.809373\N,0,10.380071,8.862794,5.448424\\Version=ES64L-G
 16RevA.03\HF=-379.8169995\RMSD=2.119e-09\Dipole=-1.2891376,0.2380273,0
 .3480061\Quadrupole=-33.628362,18.9172722,14.7110898,-17.7692904,-10.4
 866266,5.357764\PG=C01 [X(C7H6N2)]\\@


 ADVERTISING--  HE WHO HAS SOMETHING TO SELL AND GOES AND WHISPERS
                IN A WELL, IS NOT SO APT TO GET THE DOLLARS AS HE
                WHO CLIMBS A TREE AND HOLLERS.

                   -- FROM THE BACK OF A SUGAR PACKET
 Job cpu time:       0 days  0 hours  8 minutes 29.8 seconds.
 Elapsed time:       0 days  0 hours  0 minutes 32.2 seconds.
 File lengths (MBytes):  RWF=     45 Int=      0 D2E=      0 Chk=      6 Scr=      1
 Normal termination of Gaussian 16 at Thu Jun  8 15:31:05 2023.
                                                                                                                                                                                                                                                                                                                                                                                                                                                                                                                                                                                                                                                                                                                                                                                                                                                                                                                                                                                                                                                                                                                                                                                                                                                                                                                                                                                                                                                                                                                                                                                                                                                                                                                                                                                                                                                                                                                                                                                                                                                                                                                                                                                                                                                                                                                                                                                                                                                                                                                                                                                                                                                                                                                                                                                                                                                                                                                                                                                                                                                                                                                                                                                                                                                                                                                                                                                                                                                                                                                                                                                                                                                                                                                                                                                                                                                                                                                                                                                                                                                                                                                                                                                                                                                                                                                                                                                                                                                                                                                                                                                                                                                                                                                                                                                                                                                                                                                                                                                                                                                                                                                                                                                                                                                                                                                                                                                                                                                                                                                                                                                                                                                                                                                                                                                                                                                                                                                                                                                                                                                                                                                                                                                                                                                                                                                                                                                                                                                                                                                                                                                                                                                                                                                                                                                                                                                                                                                                                                                                                                                                                                                                                                                                                                                                                                                                                                                                                                                                                                                                                                                                                                                                                                                                                                                                                                                                                                                                                                                                                                                                                                                                                                                                                                                                                                                                                                                                                                                                                                                                                                                                                                                                                                                                                                                                                                                                                                                                                                                                                                                                                                                                                                                                                                                                                                                                                                                                                                                                                                                                                                                                                                                                                                                                                                                                                                                                                                                                                                                                                                                                                                                                                                                                                                                                                                                                                                                                                                                                                                                                                                                                                                                                                                                                                                                                                                                                                                                                                                                                                                                                                                                                                                                                                                                                                                                                                                                                                                                                                                                                                                                                                                                                                                                                                                                                                                                                                                                                                                                                                                                                                                                                                                                                                                                                                                                                                                                                                                                                                                                                                                                                                                                                                                                                                                                                                                                                                                                                                                                                                                                                                                                                                                                                                                                                                                                                                                                                                                                                                                                                                                                                                                                                                                                                                                                                                                                                                                                                                                                                                                                                                                                                                                                                                                                                                                                                                                                                                                                                                                                                                                                                                                                                                                                                                                                                                                                                                                                                                                                                                                                                                                                                                                                                                                                                                                                                                                                                                                                                                                                                                                                                                                                                                                                                                                                                                                                                                                                                                                                                                                                                                                                                                                                                                                                                                                                                                                                                                                                                                                                                                                                                                                                                                                                                                                                                                                                                                                                                                                                                                                                                                                                                                                                                                                                                                                                                                                                                                                                                                                                                                                                                                                                                                                                                                                                                                                                                                                                                                                                                                                                                                                                                                                                                                                                                                                                                                                                                                                                                                                                                                                                                                                                                                                                                                                                                                                                                                                                                                                                                                                                                                                                                                                                                                                                                                                                                                                                                                                                                                                                                                                                                                                                                                                                                                                                                                                                                                                                                                                                                                                                                                                                                                                                                                                                                                                                                                                                                                                                                                                                                                                                                                                                                                                                                                                                                                                                                                                                                                                                                                                                                                                                                                                                                                                                                                                                                                                                                                                                                                                                                                                                                                                                                                                                                                                                                                                                                                                                                                                                                                                                                                                                                                                                                                                                                                                                                                                                                                                                                                                                                                                                                                                                                                                                                                                                                                                                                                                                                                                                                                                                                                                                                                                                                                                                                                                                                                                                                                                                                                                                                                                                                                                                                                                                                                                                                                                                                                                                                                                                                                                                                                                                                                                                                                                                                                                                                                                                                                                                                                                                                                                                                                                                                                                                                                                                                                                                                                                                                                                                                                                                                                                                                                                                                                                                                                                                                                                                                                                                                                                                                                                                                                                                                                                                                                                                                                                                                                                                                                                                                                                                                                                                                                                                                                                                                                                                                                                                                                                                                                                                                                                                                                                                                                                                                                                                                                                                                                                                                                                                                                                                                                                                                                                                                                                                                                                                                                                                                                                                                                                                                                                                                                                                                                                                                                                                                                                                                                                                                                                                                                                                                                                                                                                                                                                                                                                                                                                                                                                                                                                                                                                                                                                                                                                                                                                                                                                                                                                                                                                                                                                                                                                                                                                                                                                                                                                                                                                                                                                                                                                                                                                                                                                                                                                                                                                                                                                                                                                                                                                                                                                                                                                                                                                                                                                                                                                                                                                                                                                                                                                                                                                                                                                                                                                                                                                                                                                                                                                                                                                                                                                                                                                                                                                                                                                                                                                                                                                                                                                                                                                                                                                                                                                                                                                                                                                                                                                                                                                                                                                                                                                                                                                                                                                                                                                                                                                                                                                                                                                                                                                                                                                                                                                                                                                                                                                                                                                                                                                                                                                                                                                                                                                                                                                                                                                                                                                                                                                                                                                                                                                                                                                                                                                                                                                                                                                                                                                                                                                                                                                                                                                                                                                                                                                                                                                                                                                                                                                                                                                                                                                                                                                                                                                                                                                                                                                                                                                                                                                                                                                                                                                                                                                                                                                                                                                                                                                                                                                                                                                                                                                                                                                                                                                                                                                                                                                                                                                                                                                                                                                                                                                                                                                                                                                                                                                                                                                                                                                                                                                                                                                                                                                                                                                                                                                                                                                                                                                                                                                                                                                                                                                                                                                                                                                                                                                                                                                                                                                                                                                                                                                                                                                                                                                                                                                                                                                                                                                                                                                                                                                                                                                                                                                                                                                                                                                                                                                                                                                                                                                                                                                                                                                                                                                                                                                                                                                                                                                                                                                                                                                                                                                                                                                                                                                                                                                                                                                                                                                                                                                                                                                                                                                                                                                                                                                                                                                                                                                                                                                                                                                                                                                                                                                                                                                                                                                                                                                                                                                                                                                                                                                                                                                                                                                                                                                                                                                                                                                                                                                                                                                                                                                                                                                                                                                                                                                                                                                                                                                                                                                                                                                                                                                                                                                                                                                                                                                                                                                                                                                                                                                                                                                                                                                                                                                                                                                                                                                                                                                                                                                                                                                                                                                                                                                                              
[...]
                                                                                                                                                                                                                                                                                                                                                                                                                                                                                                                                                                                                                                                                                                                                                                                                                                                                                                                                                                                                                                                                                                                                                                                                                                                                                                                                                                                                                                                                                                                                                                                                                                                                                                                                                                                                                                                                                                                                                                                                                                                                                                                                                                                                                                                                                                                                                                                                                                                                                                                                                                                                                                                                                                                                                                                                                                                                                                                                                                                                                                                                                                                                                                                                                                                                                                                                                                                                                                                                                                                                                                                                                                                                                                                                                                                                                                                                                                                                                                                                                                                                                                                                                                                                                                                                                                                                                                                                                                                                                                                                                                                                                                                                                                                                                                                                                                                                                                                                                                                                                                                                                                                                                                                                                                                                                                                                                                                                                                                                                                                                                                                                                                                                                                                                                                                                                                                                                                                                                                                                                                                                                                                                                                                                                                                                                                                                                                                                                                                                                                                                                                                                                                                                                                                                                                                                                                                                                                                                                                                                                                                                                                                                                                                                                                                                                                                                                                                                                                                                                                                                                                                                                                                                                                                                                                                                                                                                                                                                                                                                                                                                                                                                                                                                                                                                                                                                                                                                                                                                                                                                                                                                                                                                                                                                                                                                                                                                                                                                                                                                                                                                                                                                                                                                                                                                                                                                                                                                                                                                                                                                                                                                                                                                                                                                                                                                                                                                                                                                                                                                                                                                                                                                                                                                                                                                                                                                                                                                                                                                                                                                                                                                                                                                                                                                                                                                                                                                                                                                                                                                                                                                                                                                                                                                                                                                                                                                                                                                                                                                                                                                                                                                                                                                                                                                                                                                                                                                                                                                                                                                                                                                                                                                                                                                                                                                                                                                                                                                                                                                                                                                                                                                                                                                                                                                                                                                                                                                                                                                                                                                                                                                                                                                                                                                                                                                                                                                                                                                                                                                                                                                                                                                                                                                                                                                                                                                                                                                                                                                                                                                                                                                                                                                                                                                                                                                                                                                                                                                                                                                                                                                                                                                                                                                                                                                                                                                                                                                                                                                                                                                                                                                                                                                                                                                                                                                                                                                                                                                                                                                                                                                                                                                                                                                                                                                                                                                                                                                                                                                                                                                                                                                                                                                                                                                                                                                                                                                                                                                                                                                                                                                                                                                                                                                                                                                                                                                                                                                                                                                                                                                                                                                                                                                                                                                                                                                                                                                                                                                                                                                                                                                                                                                                                                                                                                                                                                                                                                                                                                                                                                                                                                                                                                                                                                                                                                                                                                                                                                                                                                                                                                                                                                                                                                                                                                                                                                                                                                                                                                                                                                                                                                                                                                                                                                                                                                                                                                                                                                                                                                                                                                                                                                                                                                                                                                                                                                                                                                                                                                                                                                                                                                                                                                                                                                                                                                                                                                                                                                                                                                                                                                                                                                                                                                                                                                                                                                                                                