 Entering Gaussian System, Link 0=g16
 Initial command:
 /data0/home/software/g16/l1.exe "/data0/home/software/g16/scratch/Gau-2920534.inp" -scrdir="/data0/home/software/g16/scratch/"
 Default is to use a total of  22 processors:
                               22 via shared-memory
                                1 via Linda
 Entering Link 1 = /data0/home/software/g16/l1.exe PID=   2920535.
  
 Copyright (c) 1988,1990,1992,1993,1995,1998,2003,2009,2016,
            Gaussian, Inc.  All Rights Reserved.
  
 This is part of the Gaussian(R) 16 program.  It is based on
 the Gaussian(R) 09 system (copyright 2009, Gaussian, Inc.),
 the Gaussian(R) 03 system (copyright 2003, Gaussian, Inc.),
 the Gaussian(R) 98 system (copyright 1998, Gaussian, Inc.),
 the Gaussian(R) 94 system (copyright 1995, Gaussian, Inc.),
 the Gaussian 92(TM) system (copyright 1992, Gaussian, Inc.),
 the Gaussian 90(TM) system (copyright 1990, Gaussian, Inc.),
 the Gaussian 88(TM) system (copyright 1988, Gaussian, Inc.),
 the Gaussian 86(TM) system (copyright 1986, Carnegie Mellon
 University), and the Gaussian 82(TM) system (copyright 1983,
 Carnegie Mellon University). Gaussian is a federally registered
 trademark of Gaussian, Inc.
  
 This software contains proprietary and confidential information,
 including trade secrets, belonging to Gaussian, Inc.
  
 This software is provided under written license and may be
 used, copied, transmitted, or stored only in accord with that
 written license.
  
 The following legend is applicable only to US Government
 contracts under FAR:
  
                    RESTRICTED RIGHTS LEGEND
  
 Use, reproduction and disclosure by the US Government is
 subject to restrictions as set forth in subparagraphs (a)
 and (c) of the Commercial Computer Software - Restricted
 Rights clause in FAR 52.227-19.
  
 Gaussian, Inc.
 340 Quinnipiac St., Bldg. 40, Wallingford CT 06492
  
  
 ---------------------------------------------------------------
 Warning -- This program may not be used in any manner that
 competes with the business of Gaussian, Inc. or will provide
 assistance to any competitor of Gaussian, Inc.  The licensee
 of this program is prohibited from giving any competitor of
 Gaussian, Inc. access to this program.  By using this program,
 the user acknowledges that Gaussian, Inc. is engaged in the
 business of creating and licensing software in the field of
 computational chemistry and represents and warrants to the
 licensee that it is not a competitor of Gaussian, Inc. and that
 it will not use this program in any manner prohibited above.
 ---------------------------------------------------------------
  

 Cite this work as:
 Gaussian 16, Revision A.03,
 M. J. Frisch, G. W. Trucks, H. B. Schlegel, G. E. Scuseria, 
 M. A. Robb, J. R. Cheeseman, G. Scalmani, V. Barone, 
 G. A. Petersson, H. Nakatsuji, X. Li, M. Caricato, A. V. Marenich, 
 J. Bloino, B. G. Janesko, R. Gomperts, B. Mennucci, H. P. Hratchian, 
 J. V. Ortiz, A. F. Izmaylov, J. L. Sonnenberg, D. Williams-Young, 
 F. Ding, F. Lipparini, F. Egidi, J. Goings, B. Peng, A. Petrone, 
 T. Henderson, D. Ranasinghe, V. G. Zakrzewski, J. Gao, N. Rega, 
 G. Zheng, W. Liang, M. Hada, M. Ehara, K. Toyota, R. Fukuda, 
 J. Hasegawa, M. Ishida, T. Nakajima, Y. Honda, O. Kitao, H. Nakai, 
 T. Vreven, K. Throssell, J. A. Montgomery, Jr., J. E. Peralta, 
 F. Ogliaro, M. J. Bearpark, J. J. Heyd, E. N. Brothers, K. N. Kudin, 
 V. N. Staroverov, T. A. Keith, R. Kobayashi, J. Normand, 
 K. Raghavachari, A. P. Rendell, J. C. Burant, S. S. Iyengar, 
 J. Tomasi, M. Cossi, J. M. Millam, M. Klene, C. Adamo, R. Cammi, 
 J. W. Ochterski, R. L. Martin, K. Morokuma, O. Farkas, 
 J. B. Foresman, and D. J. Fox, Gaussian, Inc., Wallingford CT, 2016.
 
 ******************************************
 Gaussian 16:  ES64L-G16RevA.03 25-Dec-2016
                 8-Jun-2023 
 ******************************************
 %chk=PAgjf.chk
 %nprocshared=16
 Will use up to   16 processors via shared memory.
 %mem=50GB
 ------------------------------------
 #p 6-311+g(2d,p) nosymm em=gd3 m062x
 ------------------------------------
 1/38=1,172=1/1;
 2/12=2,15=1,17=6,18=5,40=1/2;
 3/5=4,6=6,7=112,11=2,25=1,30=1,74=-55,124=31/1,2,3;
 4//1;
 5/5=2,38=5/2;
 6/7=2,8=2,9=2,10=2,28=1/1;
 99/5=1,9=1/99;
 Leave Link    1 at Thu Jun  8 15:31:57 2023, MaxMem=  6710886400 cpu:               0.5 elap:               0.0
 (Enter /data0/home/software/g16/l101.exe)
 -------------------
 Title Card Required
 -------------------
 Symbolic Z-matrix:
 Charge =  0 Multiplicity = 1
 P                     11.92638   5.96067   6.98705 
 O                     10.48878   5.76145   7.09898 
 O                     12.82479   4.66315   6.70995 
 H                     12.82937   4.48746   5.7009 
 O                     12.47214   6.94169   5.86558 
 H                     11.75656   7.69562   5.66719 
 O                     12.54389   6.46967   8.362 
 H                     13.56087   6.5642    8.24769 
 
 ITRead=  0  0  0  0  0  0  0  0
 MicOpt= -1 -1 -1 -1 -1 -1 -1 -1
 NAtoms=      8 NQM=        8 NQMF=       0 NMMI=      0 NMMIF=      0
                NMic=       0 NMicF=      0.
                    Isotopes and Nuclear Properties:
 (Nuclear quadrupole moments (NQMom) in fm**2, nuclear magnetic moments (NMagM)
  in nuclear magnetons)

  Atom         1           2           3           4           5           6           7           8
 IAtWgt=          31          16          16           1          16           1          16           1
 AtmWgt=  30.9737634  15.9949146  15.9949146   1.0078250  15.9949146   1.0078250  15.9949146   1.0078250
 NucSpn=           1           0           0           1           0           1           0           1
 AtZEff=  -0.0000000  -0.0000000  -0.0000000  -0.0000000  -0.0000000  -0.0000000  -0.0000000  -0.0000000
 NQMom=    0.0000000   0.0000000   0.0000000   0.0000000   0.0000000   0.0000000   0.0000000   0.0000000
 NMagM=    1.1316000   0.0000000   0.0000000   2.7928460   0.0000000   2.7928460   0.0000000   2.7928460
 AtZNuc=  15.0000000   8.0000000   8.0000000   1.0000000   8.0000000   1.0000000   8.0000000   1.0000000
 Leave Link  101 at Thu Jun  8 15:31:57 2023, MaxMem=  6710886400 cpu:               2.1 elap:               0.2
 (Enter /data0/home/software/g16/l202.exe)
                          Input orientation:                          
 ---------------------------------------------------------------------
 Center     Atomic      Atomic             Coordinates (Angstroms)
 Number     Number       Type             X           Y           Z
 ---------------------------------------------------------------------
      1         15           0       11.926382    5.960672    6.987054
      2          8           0       10.488782    5.761445    7.098979
      3          8           0       12.824790    4.663145    6.709954
      4          1           0       12.829367    4.487457    5.700903
      5          8           0       12.472143    6.941693    5.865578
      6          1           0       11.756562    7.695621    5.667189
      7          8           0       12.543889    6.469666    8.362004
      8          1           0       13.560871    6.564204    8.247688
 ---------------------------------------------------------------------
                    Distance matrix (angstroms):
                    1          2          3          4          5
     1  P    0.000000
     2  O    1.455648   0.000000
     3  O    1.602341   2.610467   0.000000
     4  H    2.154049   3.009319   1.024242   0.000000
     5  O    1.586810   2.616865   2.455425   2.485559   0.000000
     6  H    2.186534   2.719986   3.379997   3.382952   1.058216
     7  O    1.590873   2.514015   2.464080   3.330482   2.541673
     8  H    2.150582   3.376638   2.553520   3.366614   2.646181
                    6          7          8
     6  H    0.000000
     7  O    3.063475   0.000000
     8  H    3.345835   1.027744   0.000000
 Symmetry turned off by external request.
 Stoichiometry    H3O4P
 Framework group  C1[X(H3O4P)]
 Deg. of freedom    18
 Full point group                 C1      NOp   1
 Rotational constants (GHZ):           4.6583216           4.5099845           4.3545127
 Leave Link  202 at Thu Jun  8 15:31:57 2023, MaxMem=  6710886400 cpu:               0.0 elap:               0.0
 (Enter /data0/home/software/g16/l301.exe)
 Standard basis: 6-311+G(2d,p) (5D, 7F)
 Ernie: Thresh=  0.10000D-02 Tol=  0.10000D-05 Strict=F.
   161 basis functions,   248 primitive gaussians,   171 cartesian basis functions
    25 alpha electrons       25 beta electrons
       nuclear repulsion energy       280.2518020193 Hartrees.
 IExCor= 4336 DFT=T Ex+Corr=M062X ExCW=0 ScaHFX=  0.540000
 ScaDFX=  1.000000  1.000000  1.000000  1.000000 ScalE2=  1.000000  1.000000
 IRadAn=      5 IRanWt=     -1 IRanGd=            0 ICorTp=0 IEmpDi=131
 NAtoms=    8 NActive=    8 NUniq=    8 SFac= 1.00D+00 NAtFMM=   60 NAOKFM=F Big=F
 Integral buffers will be    131072 words long.
 Raffenetti 2 integral format.
 Two-electron integral symmetry is turned off.
 R6Disp:  Grimme-D3 Dispersion energy=       -0.0000432067 Hartrees.
 Nuclear repulsion after empirical dispersion term =      280.2517588126 Hartrees.
 Leave Link  301 at Thu Jun  8 15:31:57 2023, MaxMem=  6710886400 cpu:               0.8 elap:               0.1
 (Enter /data0/home/software/g16/l302.exe)
 NPDir=0 NMtPBC=     1 NCelOv=     1 NCel=       1 NClECP=     1 NCelD=      1
         NCelK=      1 NCelE2=     1 NClLst=     1 CellRange=     0.0.
 One-electron integrals computed using PRISM.
 NBasis=   161 RedAO= T EigKep=  4.93D-04  NBF=   161
 NBsUse=   161 1.00D-06 EigRej= -1.00D+00 NBFU=   161
 Precomputing XC quadrature grid using
 IXCGrd= 4 IRadAn=           5 IRanWt=          -1 IRanGd=           0 AccXCQ= 0.00D+00.
 Generated NRdTot=       0 NPtTot=           0 NUsed=           0 NTot=          32
 NSgBfM=   171   171   171   171   171 MxSgAt=     8 MxSgA2=     8.
 Leave Link  302 at Thu Jun  8 15:31:58 2023, MaxMem=  6710886400 cpu:               2.1 elap:               0.1
 (Enter /data0/home/software/g16/l303.exe)
 DipDrv:  MaxL=1.
 Leave Link  303 at Thu Jun  8 15:31:58 2023, MaxMem=  6710886400 cpu:               0.6 elap:               0.1
 (Enter /data0/home/software/g16/l401.exe)
 ExpMin= 3.48D-02 ExpMax= 7.75D+04 ExpMxC= 2.65D+03 IAcc=3 IRadAn=         5 AccDes= 0.00D+00
 Harris functional with IExCor= 1009 and IRadAn=       5 diagonalized for initial guess.
 HarFok:  IExCor= 1009 AccDes= 0.00D+00 IRadAn=         5 IDoV= 1 UseB2=F ITyADJ=14
 ICtDFT=  3500011 ScaDFX=  1.000000  1.000000  1.000000  1.000000
 FoFCou: FMM=F IPFlag=           0 FMFlag=      100000 FMFlg1=           0
         NFxFlg=           0 DoJE=T BraDBF=F KetDBF=T FulRan=T
         wScrn=  0.000000 ICntrl=       500 IOpCl=  0 I1Cent=   200000004 NGrid=           0
         NMat0=    1 NMatS0=      1 NMatT0=    0 NMatD0=    1 NMtDS0=    0 NMtDT0=    0
 Symmetry not used in FoFCou.
 Harris En= -643.944059778421    
 JPrj=0 DoOrth=F DoCkMO=F.
 Leave Link  401 at Thu Jun  8 15:31:58 2023, MaxMem=  6710886400 cpu:               4.4 elap:               0.3
 (Enter /data0/home/software/g16/l502.exe)
 Keep R1 ints in memory in canonical form, NReq=100986924.
 FoFCou: FMM=F IPFlag=           0 FMFlag=           0 FMFlg1=           0
         NFxFlg=           0 DoJE=F BraDBF=F KetDBF=F FulRan=T
         wScrn=  0.000000 ICntrl=       600 IOpCl=  0 I1Cent=           0 NGrid=           0
         NMat0=    1 NMatS0=  13041 NMatT0=    0 NMatD0=    1 NMtDS0=    0 NMtDT0=    0
 Symmetry not used in FoFCou.
 Two-electron integral symmetry not used.
 Closed shell SCF:
 Using DIIS extrapolation, IDIIS=  1040.
 NGot=  6710886400 LenX=  6625783546 LenY=  6625753864
 Requested convergence on RMS density matrix=1.00D-08 within 128 cycles.
 Requested convergence on MAX density matrix=1.00D-06.
 Requested convergence on             energy=1.00D-06.
 No special actions if energy rises.

 Cycle   1  Pass 1  IDiag  1:
 E= -643.868463929138    
 DIIS: error= 4.28D-02 at cycle   1 NSaved=   1.
 NSaved= 1 IEnMin= 1 EnMin= -643.868463929138     IErMin= 1 ErrMin= 4.28D-02
 ErrMax= 4.28D-02  0.00D+00 EMaxC= 1.00D-01 BMatC= 5.05D-01 BMatP= 5.05D-01
 IDIUse=3 WtCom= 5.72D-01 WtEn= 4.28D-01
 Coeff-Com:  0.100D+01
 Coeff-En:   0.100D+01
 Coeff:      0.100D+01
 Gap=     0.293 Goal=   None    Shift=    0.000
 GapD=    0.293 DampG=1.000 DampE=0.500 DampFc=0.5000 IDamp=-1.
 Damping current iteration by 5.00D-01
 RMSDP=6.71D-03 MaxDP=1.44D-01              OVMax= 2.46D-01

 Cycle   2  Pass 1  IDiag  1:
 E= -643.985025528074     Delta-E=       -0.116561598935 Rises=F Damp=T
 DIIS: error= 1.08D-02 at cycle   2 NSaved=   2.
 NSaved= 2 IEnMin= 2 EnMin= -643.985025528074     IErMin= 2 ErrMin= 1.08D-02
 ErrMax= 1.08D-02  0.00D+00 EMaxC= 1.00D-01 BMatC= 2.62D-02 BMatP= 5.05D-01
 IDIUse=3 WtCom= 8.92D-01 WtEn= 1.08D-01
 Coeff-Com:  0.664D-01 0.934D+00
 Coeff-En:   0.194D+00 0.806D+00
 Coeff:      0.801D-01 0.920D+00
 Gap=     0.366 Goal=   None    Shift=    0.000
 RMSDP=1.51D-03 MaxDP=4.67D-02 DE=-1.17D-01 OVMax= 1.53D-01

 Cycle   3  Pass 1  IDiag  1:
 E= -644.146749852038     Delta-E=       -0.161724323964 Rises=F Damp=F
 DIIS: error= 7.47D-03 at cycle   3 NSaved=   3.
 NSaved= 3 IEnMin= 3 EnMin= -644.146749852038     IErMin= 3 ErrMin= 7.47D-03
 ErrMax= 7.47D-03  0.00D+00 EMaxC= 1.00D-01 BMatC= 9.35D-03 BMatP= 2.62D-02
 IDIUse=3 WtCom= 9.25D-01 WtEn= 7.47D-02
 Coeff-Com: -0.156D-01 0.331D+00 0.685D+00
 Coeff-En:   0.000D+00 0.000D+00 0.100D+01
 Coeff:     -0.144D-01 0.306D+00 0.708D+00
 Gap=     0.356 Goal=   None    Shift=    0.000
 RMSDP=6.30D-04 MaxDP=1.48D-02 DE=-1.62D-01 OVMax= 3.36D-02

 Cycle   4  Pass 1  IDiag  1:
 E= -644.150735427487     Delta-E=       -0.003985575449 Rises=F Damp=F
 DIIS: error= 4.31D-03 at cycle   4 NSaved=   4.
 NSaved= 4 IEnMin= 4 EnMin= -644.150735427487     IErMin= 4 ErrMin= 4.31D-03
 ErrMax= 4.31D-03  0.00D+00 EMaxC= 1.00D-01 BMatC= 3.88D-03 BMatP= 9.35D-03
 IDIUse=3 WtCom= 9.57D-01 WtEn= 4.31D-02
 Coeff-Com: -0.195D-01 0.455D-01 0.412D+00 0.562D+00
 Coeff-En:   0.000D+00 0.000D+00 0.296D+00 0.704D+00
 Coeff:     -0.187D-01 0.436D-01 0.407D+00 0.568D+00
 Gap=     0.362 Goal=   None    Shift=    0.000
 RMSDP=2.53D-04 MaxDP=6.35D-03 DE=-3.99D-03 OVMax= 1.15D-02

 Cycle   5  Pass 1  IDiag  1:
 E= -644.153303333641     Delta-E=       -0.002567906154 Rises=F Damp=F
 DIIS: error= 2.76D-04 at cycle   5 NSaved=   5.
 NSaved= 5 IEnMin= 5 EnMin= -644.153303333641     IErMin= 5 ErrMin= 2.76D-04
 ErrMax= 2.76D-04  0.00D+00 EMaxC= 1.00D-01 BMatC= 1.54D-05 BMatP= 3.88D-03
 IDIUse=3 WtCom= 9.97D-01 WtEn= 2.76D-03
 Coeff-Com: -0.214D-02 0.616D-04 0.641D-01 0.122D+00 0.816D+00
 Coeff-En:   0.000D+00 0.000D+00 0.000D+00 0.000D+00 0.100D+01
 Coeff:     -0.213D-02 0.614D-04 0.639D-01 0.122D+00 0.817D+00
 Gap=     0.361 Goal=   None    Shift=    0.000
 RMSDP=2.37D-05 MaxDP=9.07D-04 DE=-2.57D-03 OVMax= 7.19D-04

 Cycle   6  Pass 1  IDiag  1:
 E= -644.153313850939     Delta-E=       -0.000010517299 Rises=F Damp=F
 DIIS: error= 6.42D-05 at cycle   6 NSaved=   6.
 NSaved= 6 IEnMin= 6 EnMin= -644.153313850939     IErMin= 6 ErrMin= 6.42D-05
 ErrMax= 6.42D-05  0.00D+00 EMaxC= 1.00D-01 BMatC= 1.05D-06 BMatP= 1.54D-05
 IDIUse=1 WtCom= 1.00D+00 WtEn= 0.00D+00
 Coeff-Com:  0.476D-04-0.149D-02 0.327D-02 0.126D-01 0.219D+00 0.766D+00
 Coeff:      0.476D-04-0.149D-02 0.327D-02 0.126D-01 0.219D+00 0.766D+00
 Gap=     0.361 Goal=   None    Shift=    0.000
 RMSDP=8.47D-06 MaxDP=2.23D-04 DE=-1.05D-05 OVMax= 2.08D-04

 Cycle   7  Pass 1  IDiag  1:
 E= -644.153314626767     Delta-E=       -0.000000775827 Rises=F Damp=F
 DIIS: error= 2.12D-05 at cycle   7 NSaved=   7.
 NSaved= 7 IEnMin= 7 EnMin= -644.153314626767     IErMin= 7 ErrMin= 2.12D-05
 ErrMax= 2.12D-05  0.00D+00 EMaxC= 1.00D-01 BMatC= 1.57D-07 BMatP= 1.05D-06
 IDIUse=1 WtCom= 1.00D+00 WtEn= 0.00D+00
 Coeff-Com:  0.299D-03-0.525D-03-0.774D-02-0.119D-01-0.197D-01 0.262D+00
 Coeff-Com:  0.778D+00
 Coeff:      0.299D-03-0.525D-03-0.774D-02-0.119D-01-0.197D-01 0.262D+00
 Coeff:      0.778D+00
 Gap=     0.361 Goal=   None    Shift=    0.000
 RMSDP=2.68D-06 MaxDP=6.16D-05 DE=-7.76D-07 OVMax= 8.98D-05

 Cycle   8  Pass 1  IDiag  1:
 E= -644.153314729764     Delta-E=       -0.000000102998 Rises=F Damp=F
 DIIS: error= 1.23D-05 at cycle   8 NSaved=   8.
 NSaved= 8 IEnMin= 8 EnMin= -644.153314729764     IErMin= 8 ErrMin= 1.23D-05
 ErrMax= 1.23D-05  0.00D+00 EMaxC= 1.00D-01 BMatC= 3.34D-08 BMatP= 1.57D-07
 IDIUse=1 WtCom= 1.00D+00 WtEn= 0.00D+00
 Coeff-Com:  0.131D-03-0.163D-03-0.389D-02-0.614D-02-0.184D-01 0.827D-01
 Coeff-Com:  0.393D+00 0.553D+00
 Coeff:      0.131D-03-0.163D-03-0.389D-02-0.614D-02-0.184D-01 0.827D-01
 Coeff:      0.393D+00 0.553D+00
 Gap=     0.361 Goal=   None    Shift=    0.000
 RMSDP=7.62D-07 MaxDP=2.41D-05 DE=-1.03D-07 OVMax= 3.20D-05

 Cycle   9  Pass 1  IDiag  1:
 E= -644.153314752770     Delta-E=       -0.000000023006 Rises=F Damp=F
 DIIS: error= 1.26D-06 at cycle   9 NSaved=   9.
 NSaved= 9 IEnMin= 9 EnMin= -644.153314752770     IErMin= 9 ErrMin= 1.26D-06
 ErrMax= 1.26D-06  0.00D+00 EMaxC= 1.00D-01 BMatC= 6.26D-10 BMatP= 3.34D-08
 IDIUse=1 WtCom= 1.00D+00 WtEn= 0.00D+00
 Coeff-Com: -0.227D-04 0.445D-04 0.249D-03 0.490D-03-0.515D-03-0.176D-01
 Coeff-Com: -0.296D-01 0.655D-01 0.982D+00
 Coeff:     -0.227D-04 0.445D-04 0.249D-03 0.490D-03-0.515D-03-0.176D-01
 Coeff:     -0.296D-01 0.655D-01 0.982D+00
 Gap=     0.361 Goal=   None    Shift=    0.000
 RMSDP=2.55D-07 MaxDP=6.71D-06 DE=-2.30D-08 OVMax= 8.38D-06

 Cycle  10  Pass 1  IDiag  1:
 E= -644.153314753508     Delta-E=       -0.000000000739 Rises=F Damp=F
 DIIS: error= 2.27D-07 at cycle  10 NSaved=  10.
 NSaved=10 IEnMin=10 EnMin= -644.153314753508     IErMin=10 ErrMin= 2.27D-07
 ErrMax= 2.27D-07  0.00D+00 EMaxC= 1.00D-01 BMatC= 1.50D-11 BMatP= 6.26D-10
 IDIUse=1 WtCom= 1.00D+00 WtEn= 0.00D+00
 Coeff-Com: -0.387D-05 0.647D-05 0.116D-03 0.181D-03 0.459D-03-0.407D-02
 Coeff-Com: -0.147D-01-0.115D-01 0.728D-01 0.957D+00
 Coeff:     -0.387D-05 0.647D-05 0.116D-03 0.181D-03 0.459D-03-0.407D-02
 Coeff:     -0.147D-01-0.115D-01 0.728D-01 0.957D+00
 Gap=     0.361 Goal=   None    Shift=    0.000
 RMSDP=4.91D-08 MaxDP=7.91D-07 DE=-7.39D-10 OVMax= 1.90D-06

 Cycle  11  Pass 1  IDiag  1:
 E= -644.153314753527     Delta-E=       -0.000000000019 Rises=F Damp=F
 DIIS: error= 1.84D-07 at cycle  11 NSaved=  11.
 NSaved=11 IEnMin=11 EnMin= -644.153314753527     IErMin=11 ErrMin= 1.84D-07
 ErrMax= 1.84D-07  0.00D+00 EMaxC= 1.00D-01 BMatC= 7.75D-12 BMatP= 1.50D-11
 IDIUse=1 WtCom= 1.00D+00 WtEn= 0.00D+00
 Coeff-Com:  0.213D-06-0.740D-06 0.348D-04 0.446D-04 0.255D-03-0.596D-03
 Coeff-Com: -0.457D-02-0.105D-01-0.450D-01 0.473D+00 0.587D+00
 Coeff:      0.213D-06-0.740D-06 0.348D-04 0.446D-04 0.255D-03-0.596D-03
 Coeff:     -0.457D-02-0.105D-01-0.450D-01 0.473D+00 0.587D+00
 Gap=     0.361 Goal=   None    Shift=    0.000
 RMSDP=1.52D-08 MaxDP=4.42D-07 DE=-1.86D-11 OVMax= 7.58D-07

 Cycle  12  Pass 1  IDiag  1:
 E= -644.153314753518     Delta-E=        0.000000000009 Rises=F Damp=F
 DIIS: error= 3.92D-08 at cycle  12 NSaved=  12.
 NSaved=12 IEnMin=11 EnMin= -644.153314753527     IErMin=12 ErrMin= 3.92D-08
 ErrMax= 3.92D-08  0.00D+00 EMaxC= 1.00D-01 BMatC= 4.51D-13 BMatP= 7.75D-12
 IDIUse=1 WtCom= 1.00D+00 WtEn= 0.00D+00
 Coeff-Com:  0.617D-06-0.116D-05-0.414D-05-0.941D-05 0.158D-04 0.351D-03
 Coeff-Com:  0.824D-03-0.127D-02-0.239D-01 0.477D-02 0.193D+00 0.826D+00
 Coeff:      0.617D-06-0.116D-05-0.414D-05-0.941D-05 0.158D-04 0.351D-03
 Coeff:      0.824D-03-0.127D-02-0.239D-01 0.477D-02 0.193D+00 0.826D+00
 Gap=     0.361 Goal=   None    Shift=    0.000
 RMSDP=5.68D-09 MaxDP=7.61D-08 DE= 8.87D-12 OVMax= 1.73D-07

 SCF Done:  E(RM062X) =  -644.153314754     A.U. after   12 cycles
            NFock= 12  Conv=0.57D-08     -V/T= 2.0025
 KE= 6.425722215391D+02 PE=-2.088225996597D+03 EE= 5.212487014921D+02
 Leave Link  502 at Thu Jun  8 15:32:04 2023, MaxMem=  6710886400 cpu:              85.2 elap:               6.5
 (Enter /data0/home/software/g16/l601.exe)
 Copying SCF densities to generalized density rwf, IOpCl= 0 IROHF=0.

 **********************************************************************

            Population analysis using the SCF density.

 **********************************************************************

 Alpha  occ. eigenvalues --  -78.16797 -19.69314 -19.67910 -19.67466 -19.59020
 Alpha  occ. eigenvalues --   -6.97593  -5.09504  -5.09482  -5.09278  -1.24386
 Alpha  occ. eigenvalues --   -1.17018  -1.16263  -1.09688  -0.72781  -0.65928
 Alpha  occ. eigenvalues --   -0.63915  -0.56410  -0.55525  -0.50858  -0.48776
 Alpha  occ. eigenvalues --   -0.47692  -0.45353  -0.44004  -0.38839  -0.38269
 Alpha virt. eigenvalues --   -0.02129   0.01573   0.01896   0.04721   0.09199
 Alpha virt. eigenvalues --    0.10223   0.12296   0.14581   0.15078   0.15786
 Alpha virt. eigenvalues --    0.17561   0.18128   0.18716   0.20113   0.21515
 Alpha virt. eigenvalues --    0.22423   0.24394   0.25455   0.25535   0.28161
 Alpha virt. eigenvalues --    0.28383   0.28963   0.30620   0.31151   0.31935
 Alpha virt. eigenvalues --    0.34330   0.35764   0.36585   0.40450   0.43193
 Alpha virt. eigenvalues --    0.46738   0.48760   0.51929   0.56115   0.56803
 Alpha virt. eigenvalues --    0.74235   0.76044   0.76685   0.86566   0.96932
 Alpha virt. eigenvalues --    0.97882   1.02048   1.05792   1.08243   1.11044
 Alpha virt. eigenvalues --    1.12769   1.15424   1.17256   1.19247   1.20887
 Alpha virt. eigenvalues --    1.22103   1.24747   1.25544   1.28196   1.32677
 Alpha virt. eigenvalues --    1.37380   1.39497   1.44797   1.46625   1.48058
 Alpha virt. eigenvalues --    1.54254   1.55732   1.59736   1.63582   1.65565
 Alpha virt. eigenvalues --    1.68323   1.68754   1.69382   1.74524   1.81580
 Alpha virt. eigenvalues --    1.82441   1.84374   1.86287   1.93800   1.96566
 Alpha virt. eigenvalues --    2.02998   2.03981   2.07643   2.11732   2.16126
 Alpha virt. eigenvalues --    2.21072   2.23826   2.26896   2.34463   2.43207
 Alpha virt. eigenvalues --    2.47771   2.56702   2.61594   2.63533   2.69926
 Alpha virt. eigenvalues --    2.73230   2.83345   2.85456   2.90956   2.95423
 Alpha virt. eigenvalues --    5.01386   5.04697   5.07310   5.08039   5.09563
 Alpha virt. eigenvalues --    5.12481   5.19269   5.21635   5.36145   5.46151
 Alpha virt. eigenvalues --    5.53462   5.53646   6.71538   6.73787   6.73877
 Alpha virt. eigenvalues --    6.76870   6.78934   6.80432   6.83907   6.85951
 Alpha virt. eigenvalues --    6.89253   6.93157   6.95871   6.97118   6.99633
 Alpha virt. eigenvalues --    7.06117   7.08254   7.20575   7.26050   7.28054
 Alpha virt. eigenvalues --    7.31770   7.39615   7.64646  14.20806  14.24682
 Alpha virt. eigenvalues --   14.36988  49.98019  50.00067  50.01435  50.09747
 Alpha virt. eigenvalues --  163.85617
          Condensed to atoms (all electrons):
               1          2          3          4          5          6
     1  P   12.430192   0.571541   0.246673   0.007331   0.265542   0.002594
     2  O    0.571541   8.091551  -0.017066  -0.010635  -0.020722  -0.010919
     3  O    0.246673  -0.017066   8.075210   0.262539  -0.001983   0.004775
     4  H    0.007331  -0.010635   0.262539   0.429389  -0.011252   0.001167
     5  O    0.265542  -0.020722  -0.001983  -0.011252   8.085770   0.264644
     6  H    0.002594  -0.010919   0.004775   0.001167   0.264644   0.398458
     7  O    0.181133  -0.015579  -0.002139  -0.000772   0.020752  -0.005831
     8  H    0.039650   0.004569  -0.017414   0.001967  -0.015599   0.000971
               7          8
     1  P    0.181133   0.039650
     2  O   -0.015579   0.004569
     3  O   -0.002139  -0.017414
     4  H   -0.000772   0.001967
     5  O    0.020752  -0.015599
     6  H   -0.005831   0.000971
     7  O    8.084316   0.234840
     8  H    0.234840   0.443558
 Mulliken charges:
               1
     1  P    1.255344
     2  O   -0.592741
     3  O   -0.550596
     4  H    0.320264
     5  O   -0.587152
     6  H    0.344142
     7  O   -0.496720
     8  H    0.307458
 Sum of Mulliken charges =  -0.00000
 Mulliken charges with hydrogens summed into heavy atoms:
               1
     1  P    1.255344
     2  O   -0.592741
     3  O   -0.230331
     5  O   -0.243010
     7  O   -0.189262
 Electronic spatial extent (au):  <R**2>=          41446.5761
 Charge=             -0.0000 electrons
 Dipole moment (field-independent basis, Debye):
    X=              3.2277    Y=              1.6510    Z=             -2.5475  Tot=              4.4310
 Quadrupole moment (field-independent basis, Debye-Ang):
   XX=             39.2647   YY=            -11.8957   ZZ=            -68.8385
   XY=             37.4242   XZ=             -5.1887   YZ=             -2.9067
 Traceless Quadrupole moment (field-independent basis, Debye-Ang):
   XX=             53.0879   YY=              1.9274   ZZ=            -55.0153
   XY=             37.4242   XZ=             -5.1887   YZ=             -2.9067
 Octapole moment (field-independent basis, Debye-Ang**2):
  XXX=             29.7606  YYY=           -381.5187  ZZZ=          -1077.3838  XYY=            -51.8344
  XXY=            436.3031  XXZ=            -20.0190  XZZ=           -628.3422  YZZ=           -322.6046
  YYZ=           -175.2614  XYZ=            111.8104
 Hexadecapole moment (field-independent basis, Debye-Ang**3):
 XXXX=         -10353.3614 YYYY=          -5293.5098 ZZZZ=         -13579.3427 XXXY=           2461.1647
 XXXZ=          -2795.2621 YYYX=          -4150.9639 YYYZ=          -3318.9588 ZZZX=         -11397.0716
 ZZZY=          -5815.9777 XXYY=           -897.7180 XXZZ=          -7014.1996 YYZZ=          -3123.4358
 XXYZ=           1569.7656 YYXZ=          -1285.3698 ZZXY=          -2683.1606
 N-N= 2.802517588126D+02 E-N=-2.088225999381D+03  KE= 6.425722215391D+02
 No NMR shielding tensors so no spin-rotation constants.
 Leave Link  601 at Thu Jun  8 15:32:05 2023, MaxMem=  6710886400 cpu:               1.2 elap:               0.1
 (Enter /data0/home/software/g16/l9999.exe)
 1\1\GINC-LOCALHOST\SP\RM062X\6-311+G(2d,p)\H3O4P1\WUHANYU\08-Jun-2023\
 0\\#p 6-311+g(2d,p) nosymm em=gd3 m062x\\Title Card Required\\0,1\P,0,
 11.926382,5.960672,6.987054\O,0,10.488782,5.761445,7.098979\O,0,12.824
 79,4.663145,6.709954\H,0,12.829367,4.487457,5.700903\O,0,12.472143,6.9
 41693,5.865578\H,0,11.756562,7.695621,5.667189\O,0,12.543889,6.469666,
 8.362004\H,0,13.560871,6.564204,8.247688\\Version=ES64L-G16RevA.03\HF=
 -644.1533148\RMSD=5.682e-09\Dipole=1.2698896,0.6495727,-1.002266\Quadr
 upole=39.4695311,1.4330006,-40.9025317,27.8239751,-3.8576799,-2.161057
 1\PG=C01 [X(H3O4P1)]\\@


 TIME GOES, YOU SAY?  AH NO!
 ALAS, TIME STAYS, WE GO.
    -- A. DOBSON (1840-1921)
 Job cpu time:       0 days  0 hours  1 minutes 37.5 seconds.
 Elapsed time:       0 days  0 hours  0 minutes  7.4 seconds.
 File lengths (MBytes):  RWF=     15 Int=      0 D2E=      0 Chk=      3 Scr=      1
 Normal termination of Gaussian 16 at Thu Jun  8 15:32:05 2023.
