 Entering Gaussian System, Link 0=g16
 Initial command:
 /data0/home/software/g16/l1.exe "/data0/home/software/g16/scratch/Gau-3372959.inp" -scrdir="/data0/home/software/g16/scratch/"
 Default is to use a total of  22 processors:
                               22 via shared-memory
                                1 via Linda
 Entering Link 1 = /data0/home/software/g16/l1.exe PID=   3372960.
  
 Copyright (c) 1988,1990,1992,1993,1995,1998,2003,2009,2016,
            Gaussian, Inc.  All Rights Reserved.
  
 This is part of the Gaussian(R) 16 program.  It is based on
 the Gaussian(R) 09 system (copyright 2009, Gaussian, Inc.),
 the Gaussian(R) 03 system (copyright 2003, Gaussian, Inc.),
 the Gaussian(R) 98 system (copyright 1998, Gaussian, Inc.),
 the Gaussian(R) 94 system (copyright 1995, Gaussian, Inc.),
 the Gaussian 92(TM) system (copyright 1992, Gaussian, Inc.),
 the Gaussian 90(TM) system (copyright 1990, Gaussian, Inc.),
 the Gaussian 88(TM) system (copyright 1988, Gaussian, Inc.),
 the Gaussian 86(TM) system (copyright 1986, Carnegie Mellon
 University), and the Gaussian 82(TM) system (copyright 1983,
 Carnegie Mellon University). Gaussian is a federally registered
 trademark of Gaussian, Inc.
  
 This software contains proprietary and confidential information,
 including trade secrets, belonging to Gaussian, Inc.
  
 This software is provided under written license and may be
 used, copied, transmitted, or stored only in accord with that
 written license.
  
 The following legend is applicable only to US Government
 contracts under FAR:
  
                    RESTRICTED RIGHTS LEGEND
  
 Use, reproduction and disclosure by the US Government is
 subject to restrictions as set forth in subparagraphs (a)
 and (c) of the Commercial Computer Software - Restricted
 Rights clause in FAR 52.227-19.
  
 Gaussian, Inc.
 340 Quinnipiac St., Bldg. 40, Wallingford CT 06492
  
  
 ---------------------------------------------------------------
 Warning -- This program may not be used in any manner that
 competes with the business of Gaussian, Inc. or will provide
 assistance to any competitor of Gaussian, Inc.  The licensee
 of this program is prohibited from giving any competitor of
 Gaussian, Inc. access to this program.  By using this program,
 the user acknowledges that Gaussian, Inc. is engaged in the
 business of creating and licensing software in the field of
 computational chemistry and represents and warrants to the
 licensee that it is not a competitor of Gaussian, Inc. and that
 it will not use this program in any manner prohibited above.
 ---------------------------------------------------------------
  

 Cite this work as:
 Gaussian 16, Revision A.03,
 M. J. Frisch, G. W. Trucks, H. B. Schlegel, G. E. Scuseria, 
 M. A. Robb, J. R. Cheeseman, G. Scalmani, V. Barone, 
 G. A. Petersson, H. Nakatsuji, X. Li, M. Caricato, A. V. Marenich, 
 J. Bloino, B. G. Janesko, R. Gomperts, B. Mennucci, H. P. Hratchian, 
 J. V. Ortiz, A. F. Izmaylov, J. L. Sonnenberg, D. Williams-Young, 
 F. Ding, F. Lipparini, F. Egidi, J. Goings, B. Peng, A. Petrone, 
 T. Henderson, D. Ranasinghe, V. G. Zakrzewski, J. Gao, N. Rega, 
 G. Zheng, W. Liang, M. Hada, M. Ehara, K. Toyota, R. Fukuda, 
 J. Hasegawa, M. Ishida, T. Nakajima, Y. Honda, O. Kitao, H. Nakai, 
 T. Vreven, K. Throssell, J. A. Montgomery, Jr., J. E. Peralta, 
 F. Ogliaro, M. J. Bearpark, J. J. Heyd, E. N. Brothers, K. N. Kudin, 
 V. N. Staroverov, T. A. Keith, R. Kobayashi, J. Normand, 
 K. Raghavachari, A. P. Rendell, J. C. Burant, S. S. Iyengar, 
 J. Tomasi, M. Cossi, J. M. Millam, M. Klene, C. Adamo, R. Cammi, 
 J. W. Ochterski, R. L. Martin, K. Morokuma, O. Farkas, 
 J. B. Foresman, and D. J. Fox, Gaussian, Inc., Wallingford CT, 2016.
 
 ******************************************
 Gaussian 16:  ES64L-G16RevA.03 25-Dec-2016
                15-Dec-2022 
 ******************************************
 %nproc=24
 Will use up to   24 processors via shared memory.
 %mem=10GB
 ---------------------------------------------------
 #p M062X/6-311+G(2d,p) nosymm em=GD3 counterpoise=4
 ---------------------------------------------------
 1/38=1,62=4,172=1/1;
 2/12=2,15=1,17=6,18=5,40=1/2;
 1/38=1,53=2,62=4,63=1/22;
 3/5=4,6=6,7=112,11=2,25=1,30=1,74=-55,124=31/1,2,3;
 4//1;
 5/5=2,38=5/2;
 6/7=2,8=2,9=2,10=2,28=1/1;
 1/53=2,62=4,63=1/22;
 3/5=7,6=11,7=112,11=2,25=1,30=1,74=-55,82=7,124=31/1,2,3;
 4//1;
 5/5=2,38=5/2;
 6/7=2,8=2,9=2,10=2,28=1/1;
 1/53=2,62=4,63=1/22(-4);
 99/5=1,9=1/99;
 Leave Link    1 at Thu Dec 15 15:43:58 2022, MaxMem=  1342177280 cpu:               0.7 elap:               0.0
 (Enter /data0/home/software/g16/l101.exe)
 -------------------
 Title Card Required
 -------------------
 Symbolic Z-matrix:
 Charge =  0 Multiplicity = 1 in supermolecule
 Charge =  0 Multiplicity = 1 in fragment      1.
 Charge =  0 Multiplicity = 1 in fragment      2.
 Charge =  0 Multiplicity = 1 in fragment      3.
 Charge =  0 Multiplicity = 1 in fragment      4.
 C                     4.76389   14.63219   4.47147    
 C                     3.40291   14.36041   4.66805    
 C                     3.00161   13.03654   4.8265     
 C                     3.95884   12.02317   4.78616    
 C                     5.29782   12.37621   4.58632    
 N                     5.68945   13.65572   4.43089    
 H                     1.95062   12.7933   4.98085    
 H                     5.13602   15.66097   4.34272    
 H                     2.68097   15.17154   4.69617    
 H                     3.67468   10.98233   4.90713    
 H                     6.09485   11.62477   4.5465     
 P                     8.59552   15.97871   4.52291    
 O                     7.46624   16.83589   4.14443    
 O                     8.88148   16.08257   6.08445    
 H                     9.70111   15.49494   6.29624    
 O                     8.45093   14.4355   4.19967    
 H                     7.43064   14.16051   4.2746     
 O                     10.02143   16.31472   3.90728    
 H                     9.92641   16.40717   2.86963    
 O                     9.64811   16.75065   1.10574    
 H                     8.99144   17.46704   1.20731    
 H                     9.15298   16.02305   0.73098    
 O                     7.6833    18.5973   1.7891     
 H                     7.44113   18.04443   2.55279    
 H                     8.10762   19.36038   2.18212    
 
 ITRead=  0  0  0  0  0  0  0  0  0  0  0  0  0  0  0  0  0  0  0  0
 ITRead=  0  0  0  0  0
 MicOpt= -1 -1 -1 -1 -1 -1 -1 -1 -1 -1 -1 -1 -1 -1 -1 -1 -1 -1 -1 -1
 MicOpt= -1 -1 -1 -1 -1
 NAtoms=     25 NQM=       25 NQMF=       0 NMMI=      0 NMMIF=      0
                NMic=       0 NMicF=      0.
                    Isotopes and Nuclear Properties:
 (Nuclear quadrupole moments (NQMom) in fm**2, nuclear magnetic moments (NMagM)
  in nuclear magnetons)

  Atom         1           2           3           4           5           6           7           8           9          10
 IAtWgt=          12          12          12          12          12          14           1           1           1           1
 AtmWgt=  12.0000000  12.0000000  12.0000000  12.0000000  12.0000000  14.0030740   1.0078250   1.0078250   1.0078250   1.0078250
 NucSpn=           0           0           0           0           0           2           1           1           1           1
 AtZEff=  -0.0000000  -0.0000000  -0.0000000  -0.0000000  -0.0000000  -0.0000000  -0.0000000  -0.0000000  -0.0000000  -0.0000000
 NQMom=    0.0000000   0.0000000   0.0000000   0.0000000   0.0000000   2.0440000   0.0000000   0.0000000   0.0000000   0.0000000
 NMagM=    0.0000000   0.0000000   0.0000000   0.0000000   0.0000000   0.4037610   2.7928460   2.7928460   2.7928460   2.7928460
 AtZNuc=   6.0000000   6.0000000   6.0000000   6.0000000   6.0000000   7.0000000   1.0000000   1.0000000   1.0000000   1.0000000

  Atom        11          12          13          14          15          16          17          18          19          20
 IAtWgt=           1          31          16          16           1          16           1          16           1          16
 AtmWgt=   1.0078250  30.9737634  15.9949146  15.9949146   1.0078250  15.9949146   1.0078250  15.9949146   1.0078250  15.9949146
 NucSpn=           1           1           0           0           1           0           1           0           1           0
 AtZEff=  -0.0000000  -0.0000000  -0.0000000  -0.0000000  -0.0000000  -0.0000000  -0.0000000  -0.0000000  -0.0000000  -0.0000000
 NQMom=    0.0000000   0.0000000   0.0000000   0.0000000   0.0000000   0.0000000   0.0000000   0.0000000   0.0000000   0.0000000
 NMagM=    2.7928460   1.1316000   0.0000000   0.0000000   2.7928460   0.0000000   2.7928460   0.0000000   2.7928460   0.0000000
 AtZNuc=   1.0000000  15.0000000   8.0000000   8.0000000   1.0000000   8.0000000   1.0000000   8.0000000   1.0000000   8.0000000

  Atom        21          22          23          24          25
 IAtWgt=           1           1          16           1           1
 AtmWgt=   1.0078250   1.0078250  15.9949146   1.0078250   1.0078250
 NucSpn=           1           1           0           1           1
 AtZEff=  -0.0000000  -0.0000000  -0.0000000  -0.0000000  -0.0000000
 NQMom=    0.0000000   0.0000000   0.0000000   0.0000000   0.0000000
 NMagM=    2.7928460   2.7928460   0.0000000   2.7928460   2.7928460
 AtZNuc=   1.0000000   1.0000000   8.0000000   1.0000000   1.0000000
 Leave Link  101 at Thu Dec 15 15:43:58 2022, MaxMem=  1342177280 cpu:               2.1 elap:               0.1
 (Enter /data0/home/software/g16/l202.exe)
                          Input orientation:                          
 ---------------------------------------------------------------------
 Center     Atomic      Atomic             Coordinates (Angstroms)
 Number     Number       Type             X           Y           Z
 ---------------------------------------------------------------------
      1          6           0        4.763894   14.632191    4.471475
      2          6           0        3.402913   14.360412    4.668052
      3          6           0        3.001612   13.036541    4.826502
      4          6           0        3.958842   12.023173    4.786155
      5          6           0        5.297817   12.376205    4.586320
      6          7           0        5.689445   13.655717    4.430887
      7          1           0        1.950618   12.793298    4.980852
      8          1           0        5.136020   15.660966    4.342716
      9          1           0        2.680972   15.171535    4.696166
     10          1           0        3.674680   10.982333    4.907132
     11          1           0        6.094849   11.624774    4.546504
     12         15           0        8.595521   15.978707    4.522913
     13          8           0        7.466244   16.835888    4.144430
     14          8           0        8.881480   16.082574    6.084449
     15          1           0        9.701112   15.494940    6.296244
     16          8           0        8.450927   14.435502    4.199672
     17          1           0        7.430636   14.160514    4.274597
     18          8           0       10.021433   16.314721    3.907277
     19          1           0        9.926409   16.407170    2.869625
     20          8           0        9.648108   16.750654    1.105737
     21          1           0        8.991440   17.467037    1.207307
     22          1           0        9.152977   16.023055    0.730977
     23          8           0        7.683302   18.597301    1.789101
     24          1           0        7.441129   18.044428    2.552790
     25          1           0        8.107622   19.360382    2.182124
 ---------------------------------------------------------------------
                    Distance matrix (angstroms):
                    1          2          3          4          5
     1  C    0.000000
     2  C    1.401705   0.000000
     3  C    2.403702   1.392402   0.000000
     4  C    2.748474   2.405346   1.394572   0.000000
     5  C    2.321150   2.744890   2.401310   1.399078   0.000000
     6  N    1.346029   2.404386   2.786456   2.405494   1.347102
     7  H    3.399340   2.159364   1.089761   2.159621   3.396081
     8  H    1.101560   2.191106   3.417214   3.849146   3.297753
     9  H    2.163317   1.086236   2.162868   3.399005   3.830641
    10  H    3.833751   3.397416   2.163167   1.085694   2.163417
    11  H    3.289624   3.839923   3.411686   2.186019   1.096127
    12  P    4.061664   5.440875   6.327742   6.100356   4.884352
    13  O    3.502276   4.786734   5.901966   5.989650   4.978566
    14  O    4.654010   5.914957   6.740445   6.511272   5.368818
    15  H    5.333877   6.603444   7.286094   6.878023   5.660332
    16  O    3.702266   5.070253   5.660834   5.132458   3.785803
    17  H    2.715281   4.051829   4.602626   4.108926   2.798186
    18  O    5.548959   6.942832   7.801880   7.479627   6.187532
    19  H    5.689291   7.069622   7.946277   7.648815   6.373350
    20  O    6.298541   7.576662   8.474352   8.262100   7.083452
    21  H    6.046759   7.270455   8.282868   8.232305   7.139828
    22  H    5.932106   7.164369   7.970689   7.708603   6.559378
    23  O    5.607154   6.675426   7.878203   8.128536   7.226134
    24  H    4.742605   5.861186   7.068098   7.305461   6.392009
    25  H    6.227153   7.301632   8.547224   8.822017   7.902777
                    6          7          8          9         10
     6  N    0.000000
     7  H    3.876217   0.000000
     8  H    2.082085   4.333304   0.000000
     9  H    3.379199   2.504092   2.528187   0.000000
    10  H    3.381282   2.501483   4.933932   4.310612   0.000000
    11  H    2.074235   4.327673   4.153520   4.925086   2.529822
    12  P    3.721563   7.383175   3.478732   5.971887   7.023251
    13  O    3.654115   6.889431   2.617194   5.096402   7.015823
    14  O    4.337394   7.750749   4.152091   6.419005   7.383041
    15  H    4.791218   8.312598   4.968290   7.207441   7.655791
    16  O    2.878768   6.749896   3.537065   5.837862   5.936111
    17  H    1.819613   5.691983   2.742491   4.874340   4.960659
    18  O    5.109852   8.870797   4.948158   7.470715   8.349572
    19  H    5.287712   9.007252   5.067015   7.573599   8.524342
    20  O    6.025468   9.483066   5.659010   7.995360   9.132687
    21  H    5.985048   9.255088   5.287433   7.567263   9.165589
    22  H    5.593718   8.964750   5.414029   7.637713   8.535859
    23  O    5.947584   8.759988   4.650985   6.723853   9.153082
    24  H    5.084922   7.975936   3.768057   5.958747   8.342796
    25  H    6.591488   9.426992   5.213852   7.301738   9.862472
                   11         12         13         14         15
    11  H    0.000000
    12  P    5.021021   0.000000
    13  O    5.403526   1.467404   0.000000
    14  O    5.477460   1.590898   2.516754   0.000000
    15  H    5.571796   2.145009   3.379805   1.030518   0.000000
    16  O    3.683964   1.583311   2.595093   2.539804   2.661012
    17  H    2.878930   2.173579   2.678775   3.012445   3.320062
    18  O    6.149982   1.589068   2.618558   2.468494   2.545940
    19  H    6.353274   2.165226   2.803808   3.395929   3.553117
    20  O    7.123143   3.657996   3.741851   5.081498   5.340505
    21  H    7.326153   3.655834   3.369164   5.071030   5.503642
    22  H    6.576874   3.832950   3.893254   5.360682   5.617077
    23  O    7.664371   3.893958   2.949113   5.119521   5.831856
    24  H    6.855605   3.079157   1.998629   4.289067   5.061705
    25  H    8.335537   4.141626   3.261147   5.154709   5.865734
                   16         17         18         19         20
    16  O    0.000000
    17  H    1.059352   0.000000
    18  O    2.466465   3.389360   0.000000
    19  H    2.798847   3.640095   1.046087   0.000000
    20  O    4.045442   4.654856   2.859726   1.818443   0.000000
    21  H    4.293787   4.772575   3.111038   2.181923   0.977105
    22  H    3.878794   4.358068   3.305778   2.306416   0.956556
    23  O    4.870387   5.091818   3.894059   3.315982   2.781646
    24  H    4.093441   4.248472   3.388877   2.992927   2.939144
    25  H    5.333179   5.645829   3.989345   3.535832   3.215958
                   21         22         23         24         25
    21  H    0.000000
    22  H    1.529074   0.000000
    23  O    1.824063   3.147430   0.000000
    24  H    2.132409   3.214868   0.973415   0.000000
    25  H    2.305679   3.786337   0.957500   1.520967   0.000000
 Symmetry turned off by external request.
 Stoichiometry    C5H12NO6P
 Framework group  C1[X(C5H12NO6P)]
 Deg. of freedom    69
 Full point group                 C1      NOp   1
 Rotational constants (GHZ):           0.9551805           0.2784380           0.2532801
 Leave Link  202 at Thu Dec 15 15:43:58 2022, MaxMem=  1342177280 cpu:               0.1 elap:               0.0
 (Enter /data0/home/software/g16/l122.exe)
 Counterpoise: doing full-system calculation.
 Leave Link  122 at Thu Dec 15 15:43:58 2022, MaxMem=  1342177280 cpu:               0.0 elap:               0.0
 (Enter /data0/home/software/g16/l301.exe)
 Standard basis: 6-311+G(2d,p) (5D, 7F)
 Ernie: Thresh=  0.10000D-02 Tol=  0.10000D-05 Strict=F.
   431 basis functions,   656 primitive gaussians,   457 cartesian basis functions
    56 alpha electrons       56 beta electrons
       nuclear repulsion energy       949.9463894695 Hartrees.
 IExCor= 4336 DFT=T Ex+Corr=M062X ExCW=0 ScaHFX=  0.540000
 ScaDFX=  1.000000  1.000000  1.000000  1.000000 ScalE2=  1.000000  1.000000
 IRadAn=      5 IRanWt=     -1 IRanGd=            0 ICorTp=0 IEmpDi=131
 NAtoms=   25 NActive=   25 NUniq=   25 SFac= 1.00D+00 NAtFMM=   60 NAOKFM=F Big=F
 Integral buffers will be    131072 words long.
 Raffenetti 2 integral format.
 Two-electron integral symmetry is turned off.
 R6Disp:  Grimme-D3 Dispersion energy=       -0.0010710885 Hartrees.
 Nuclear repulsion after empirical dispersion term =      949.9453183810 Hartrees.
 Leave Link  301 at Thu Dec 15 15:43:58 2022, MaxMem=  1342177280 cpu:               1.1 elap:               0.1
 (Enter /data0/home/software/g16/l302.exe)
 NPDir=0 NMtPBC=     1 NCelOv=     1 NCel=       1 NClECP=     1 NCelD=      1
         NCelK=      1 NCelE2=     1 NClLst=     1 CellRange=     0.0.
 One-electron integrals computed using PRISM.
 NBasis=   431 RedAO= T EigKep=  7.41D-06  NBF=   431
 NBsUse=   431 1.00D-06 EigRej= -1.00D+00 NBFU=   431
 Precomputing XC quadrature grid using
 IXCGrd= 4 IRadAn=           5 IRanWt=          -1 IRanGd=           0 AccXCQ= 0.00D+00.
 Generated NRdTot=       0 NPtTot=           0 NUsed=           0 NTot=          32
 NSgBfM=   455   455   455   455   455 MxSgAt=    25 MxSgA2=    25.
 Leave Link  302 at Thu Dec 15 15:43:59 2022, MaxMem=  1342177280 cpu:               8.7 elap:               0.4
 (Enter /data0/home/software/g16/l303.exe)
 DipDrv:  MaxL=1.
 Leave Link  303 at Thu Dec 15 15:43:59 2022, MaxMem=  1342177280 cpu:               1.0 elap:               0.1
 (Enter /data0/home/software/g16/l401.exe)
 ExpMin= 3.48D-02 ExpMax= 7.75D+04 ExpMxC= 2.65D+03 IAcc=3 IRadAn=         5 AccDes= 0.00D+00
 Harris functional with IExCor= 1009 and IRadAn=       5 diagonalized for initial guess.
 HarFok:  IExCor= 1009 AccDes= 0.00D+00 IRadAn=         5 IDoV= 1 UseB2=F ITyADJ=14
 ICtDFT=  3500011 ScaDFX=  1.000000  1.000000  1.000000  1.000000
 FoFCou: FMM=F IPFlag=           0 FMFlag=      100000 FMFlg1=           0
         NFxFlg=           0 DoJE=T BraDBF=F KetDBF=T FulRan=T
         wScrn=  0.000000 ICntrl=       500 IOpCl=  0 I1Cent=   200000004 NGrid=           0
         NMat0=    1 NMatS0=      1 NMatT0=    0 NMatD0=    1 NMtDS0=    0 NMtDT0=    0
 Symmetry not used in FoFCou.
 Harris En= -1044.91519316936    
 JPrj=0 DoOrth=F DoCkMO=F.
 Leave Link  401 at Thu Dec 15 15:44:00 2022, MaxMem=  1342177280 cpu:              26.9 elap:               1.2
 (Enter /data0/home/software/g16/l502.exe)
 Two-electron integral symmetry not used.
 Closed shell SCF:
 Using DIIS extrapolation, IDIIS=  1040.
 NGot=  1342177280 LenX=  1341745382 LenY=  1341536076
 Requested convergence on RMS density matrix=1.00D-08 within 128 cycles.
 Requested convergence on MAX density matrix=1.00D-06.
 Requested convergence on             energy=1.00D-06.
 No special actions if energy rises.
 Fock matrices will be formed incrementally for  20 cycles.

 Cycle   1  Pass 1  IDiag  1:
 FoFJK:  IHMeth= 1 ICntrl=       0 DoSepK=F KAlg= 0 I1Cent=           0 FoldK=F
 IRaf= 800000000 NMat=       1 IRICut=       1 DoRegI=T DoRafI=F ISym2E= 0 IDoP0=0 IntGTp=1.
 FoFCou: FMM=F IPFlag=           0 FMFlag=      100000 FMFlg1=           0
         NFxFlg=           0 DoJE=F BraDBF=F KetDBF=F FulRan=T
         wScrn=  0.000000 ICntrl=         0 IOpCl=  0 I1Cent=           0 NGrid=           0
         NMat0=    1 NMatS0=      1 NMatT0=    0 NMatD0=    1 NMtDS0=    0 NMtDT0=    0
 Symmetry not used in FoFCou.
 E= -1044.81232915354    
 DIIS: error= 3.39D-02 at cycle   1 NSaved=   1.
 NSaved= 1 IEnMin= 1 EnMin= -1044.81232915354     IErMin= 1 ErrMin= 3.39D-02
 ErrMax= 3.39D-02  0.00D+00 EMaxC= 1.00D-01 BMatC= 8.42D-01 BMatP= 8.42D-01
 IDIUse=3 WtCom= 6.61D-01 WtEn= 3.39D-01
 Coeff-Com:  0.100D+01
 Coeff-En:   0.100D+01
 Coeff:      0.100D+01
 Gap=     0.315 Goal=   None    Shift=    0.000
 GapD=    0.315 DampG=1.000 DampE=0.500 DampFc=0.5000 IDamp=-1.
 Damping current iteration by 5.00D-01
 RMSDP=4.90D-03 MaxDP=3.44D-01              OVMax= 1.98D-01

 Cycle   2  Pass 1  IDiag  1:
 RMSU=  2.44D-03    CP:  9.84D-01
 E= -1045.04181301080     Delta-E=       -0.229483857262 Rises=F Damp=T
 DIIS: error= 9.16D-03 at cycle   2 NSaved=   2.
 NSaved= 2 IEnMin= 2 EnMin= -1045.04181301080     IErMin= 2 ErrMin= 9.16D-03
 ErrMax= 9.16D-03  0.00D+00 EMaxC= 1.00D-01 BMatC= 4.45D-02 BMatP= 8.42D-01
 IDIUse=3 WtCom= 9.08D-01 WtEn= 9.16D-02
 Coeff-Com:  0.961D-02 0.990D+00
 Coeff-En:   0.772D-01 0.923D+00
 Coeff:      0.158D-01 0.984D+00
 Gap=     0.379 Goal=   None    Shift=    0.000
 RMSDP=1.71D-03 MaxDP=2.28D-01 DE=-2.29D-01 OVMax= 1.02D-01

 Cycle   3  Pass 1  IDiag  1:
 RMSU=  1.42D-03    CP:  9.10D-01  9.62D-01
 E= -1045.30423521570     Delta-E=       -0.262422204904 Rises=F Damp=F
 DIIS: error= 3.09D-03 at cycle   3 NSaved=   3.
 NSaved= 3 IEnMin= 3 EnMin= -1045.30423521570     IErMin= 3 ErrMin= 3.09D-03
 ErrMax= 3.09D-03  0.00D+00 EMaxC= 1.00D-01 BMatC= 1.13D-02 BMatP= 4.45D-02
 IDIUse=3 WtCom= 9.69D-01 WtEn= 3.09D-02
 Coeff-Com: -0.493D-01 0.286D+00 0.764D+00
 Coeff-En:   0.000D+00 0.000D+00 0.100D+01
 Coeff:     -0.478D-01 0.277D+00 0.771D+00
 Gap=     0.314 Goal=   None    Shift=    0.000
 RMSDP=7.14D-04 MaxDP=1.20D-01 DE=-2.62D-01 OVMax= 3.04D-02

 Cycle   4  Pass 1  IDiag  1:
 RMSU=  5.74D-04    CP:  8.82D-01  1.03D+00  1.11D+00
 E= -1045.30942350982     Delta-E=       -0.005188294115 Rises=F Damp=F
 DIIS: error= 2.59D-03 at cycle   4 NSaved=   4.
 NSaved= 4 IEnMin= 4 EnMin= -1045.30942350982     IErMin= 4 ErrMin= 2.59D-03
 ErrMax= 2.59D-03  0.00D+00 EMaxC= 1.00D-01 BMatC= 4.18D-03 BMatP= 1.13D-02
 IDIUse=3 WtCom= 9.74D-01 WtEn= 2.59D-02
 Coeff-Com: -0.277D-01 0.773D-01 0.430D+00 0.521D+00
 Coeff-En:   0.000D+00 0.000D+00 0.261D+00 0.739D+00
 Coeff:     -0.270D-01 0.753D-01 0.425D+00 0.526D+00
 Gap=     0.314 Goal=   None    Shift=    0.000
 RMSDP=2.10D-04 MaxDP=2.50D-02 DE=-5.19D-03 OVMax= 1.23D-02

 Cycle   5  Pass 1  IDiag  1:
 RMSU=  1.12D-04    CP:  8.88D-01  1.02D+00  1.09D+00  7.28D-01
 E= -1045.31244162517     Delta-E=       -0.003018115348 Rises=F Damp=F
 DIIS: error= 4.57D-04 at cycle   5 NSaved=   5.
 NSaved= 5 IEnMin= 5 EnMin= -1045.31244162517     IErMin= 5 ErrMin= 4.57D-04
 ErrMax= 4.57D-04  0.00D+00 EMaxC= 1.00D-01 BMatC= 9.75D-05 BMatP= 4.18D-03
 IDIUse=3 WtCom= 9.95D-01 WtEn= 4.57D-03
 Coeff-Com: -0.697D-02 0.123D-01 0.117D+00 0.205D+00 0.673D+00
 Coeff-En:   0.000D+00 0.000D+00 0.000D+00 0.000D+00 0.100D+01
 Coeff:     -0.694D-02 0.122D-01 0.116D+00 0.205D+00 0.674D+00
 Gap=     0.314 Goal=   None    Shift=    0.000
 RMSDP=3.59D-05 MaxDP=2.37D-03 DE=-3.02D-03 OVMax= 2.01D-03

 Cycle   6  Pass 1  IDiag  1:
 RMSU=  2.47D-05    CP:  8.87D-01  1.02D+00  1.10D+00  7.48D-01  8.43D-01
 E= -1045.31251449778     Delta-E=       -0.000072872612 Rises=F Damp=F
 DIIS: error= 1.41D-04 at cycle   6 NSaved=   6.
 NSaved= 6 IEnMin= 6 EnMin= -1045.31251449778     IErMin= 6 ErrMin= 1.41D-04
 ErrMax= 1.41D-04  0.00D+00 EMaxC= 1.00D-01 BMatC= 5.56D-06 BMatP= 9.75D-05
 IDIUse=3 WtCom= 9.99D-01 WtEn= 1.41D-03
 Coeff-Com: -0.136D-02 0.121D-02 0.246D-01 0.528D-01 0.261D+00 0.662D+00
 Coeff-En:   0.000D+00 0.000D+00 0.000D+00 0.000D+00 0.000D+00 0.100D+01
 Coeff:     -0.136D-02 0.121D-02 0.245D-01 0.528D-01 0.260D+00 0.662D+00
 Gap=     0.314 Goal=   None    Shift=    0.000
 RMSDP=8.04D-06 MaxDP=3.57D-04 DE=-7.29D-05 OVMax= 6.34D-04

 Cycle   7  Pass 1  IDiag  1:
 RMSU=  7.19D-06    CP:  8.87D-01  1.02D+00  1.10D+00  7.51D-01  8.62D-01
                    CP:  1.03D+00
 E= -1045.31251943754     Delta-E=       -0.000004939757 Rises=F Damp=F
 DIIS: error= 3.53D-05 at cycle   7 NSaved=   7.
 NSaved= 7 IEnMin= 7 EnMin= -1045.31251943754     IErMin= 7 ErrMin= 3.53D-05
 ErrMax= 3.53D-05  0.00D+00 EMaxC= 1.00D-01 BMatC= 3.88D-07 BMatP= 5.56D-06
 IDIUse=1 WtCom= 1.00D+00 WtEn= 0.00D+00
 Coeff-Com:  0.404D-03-0.965D-03-0.648D-02-0.906D-02-0.200D-02 0.173D+00
 Coeff-Com:  0.845D+00
 Coeff:      0.404D-03-0.965D-03-0.648D-02-0.906D-02-0.200D-02 0.173D+00
 Coeff:      0.845D+00
 Gap=     0.314 Goal=   None    Shift=    0.000
 RMSDP=4.30D-06 MaxDP=2.23D-04 DE=-4.94D-06 OVMax= 2.83D-04

 Cycle   8  Pass 1  IDiag  1:
 RMSU=  2.84D-06    CP:  8.87D-01  1.02D+00  1.10D+00  7.53D-01  8.81D-01
                    CP:  1.11D+00  1.07D+00
 E= -1045.31251970782     Delta-E=       -0.000000270288 Rises=F Damp=F
 DIIS: error= 2.97D-05 at cycle   8 NSaved=   8.
 NSaved= 8 IEnMin= 8 EnMin= -1045.31251970782     IErMin= 8 ErrMin= 2.97D-05
 ErrMax= 2.97D-05  0.00D+00 EMaxC= 1.00D-01 BMatC= 1.86D-07 BMatP= 3.88D-07
 IDIUse=1 WtCom= 1.00D+00 WtEn= 0.00D+00
 Coeff-Com:  0.366D-03-0.702D-03-0.631D-02-0.106D-01-0.272D-01 0.295D-01
 Coeff-Com:  0.483D+00 0.532D+00
 Coeff:      0.366D-03-0.702D-03-0.631D-02-0.106D-01-0.272D-01 0.295D-01
 Coeff:      0.483D+00 0.532D+00
 Gap=     0.314 Goal=   None    Shift=    0.000
 RMSDP=1.35D-06 MaxDP=1.29D-04 DE=-2.70D-07 OVMax= 1.61D-04

 Cycle   9  Pass 1  IDiag  1:
 RMSU=  8.73D-07    CP:  8.87D-01  1.02D+00  1.10D+00  7.54D-01  8.80D-01
                    CP:  1.12D+00  1.08D+00  7.47D-01
 E= -1045.31251987443     Delta-E=       -0.000000166606 Rises=F Damp=F
 DIIS: error= 4.39D-06 at cycle   9 NSaved=   9.
 NSaved= 9 IEnMin= 9 EnMin= -1045.31251987443     IErMin= 9 ErrMin= 4.39D-06
 ErrMax= 4.39D-06  0.00D+00 EMaxC= 1.00D-01 BMatC= 5.05D-09 BMatP= 1.86D-07
 IDIUse=1 WtCom= 1.00D+00 WtEn= 0.00D+00
 Coeff-Com:  0.409D-04-0.631D-04-0.937D-03-0.173D-02-0.620D-02-0.699D-02
 Coeff-Com:  0.435D-01 0.146D+00 0.826D+00
 Coeff:      0.409D-04-0.631D-04-0.937D-03-0.173D-02-0.620D-02-0.699D-02
 Coeff:      0.435D-01 0.146D+00 0.826D+00
 Gap=     0.314 Goal=   None    Shift=    0.000
 RMSDP=3.35D-07 MaxDP=1.49D-05 DE=-1.67D-07 OVMax= 2.70D-05

 Cycle  10  Pass 1  IDiag  1:
 RMSU=  2.11D-07    CP:  8.87D-01  1.02D+00  1.10D+00  7.54D-01  8.80D-01
                    CP:  1.12D+00  1.10D+00  8.14D-01  1.09D+00
 E= -1045.31251987945     Delta-E=       -0.000000005020 Rises=F Damp=F
 DIIS: error= 1.70D-06 at cycle  10 NSaved=  10.
 NSaved=10 IEnMin=10 EnMin= -1045.31251987945     IErMin=10 ErrMin= 1.70D-06
 ErrMax= 1.70D-06  0.00D+00 EMaxC= 1.00D-01 BMatC= 8.11D-10 BMatP= 5.05D-09
 IDIUse=1 WtCom= 1.00D+00 WtEn= 0.00D+00
 Coeff-Com: -0.206D-04 0.438D-04 0.243D-03 0.331D-03-0.984D-04-0.655D-02
 Coeff-Com: -0.330D-01 0.409D-02 0.322D+00 0.713D+00
 Coeff:     -0.206D-04 0.438D-04 0.243D-03 0.331D-03-0.984D-04-0.655D-02
 Coeff:     -0.330D-01 0.409D-02 0.322D+00 0.713D+00
 Gap=     0.314 Goal=   None    Shift=    0.000
 RMSDP=1.37D-07 MaxDP=9.14D-06 DE=-5.02D-09 OVMax= 1.19D-05

 Cycle  11  Pass 1  IDiag  1:
 RMSU=  9.96D-08    CP:  8.87D-01  1.02D+00  1.10D+00  7.54D-01  8.80D-01
                    CP:  1.12D+00  1.10D+00  8.23D-01  1.18D+00  1.02D+00
 E= -1045.31251988023     Delta-E=       -0.000000000774 Rises=F Damp=F
 DIIS: error= 6.11D-07 at cycle  11 NSaved=  11.
 NSaved=11 IEnMin=11 EnMin= -1045.31251988023     IErMin=11 ErrMin= 6.11D-07
 ErrMax= 6.11D-07  0.00D+00 EMaxC= 1.00D-01 BMatC= 1.37D-10 BMatP= 8.11D-10
 IDIUse=1 WtCom= 1.00D+00 WtEn= 0.00D+00
 Coeff-Com: -0.123D-04 0.243D-04 0.198D-03 0.311D-03 0.515D-03-0.220D-02
 Coeff-Com: -0.189D-01-0.140D-01 0.445D-01 0.336D+00 0.654D+00
 Coeff:     -0.123D-04 0.243D-04 0.198D-03 0.311D-03 0.515D-03-0.220D-02
 Coeff:     -0.189D-01-0.140D-01 0.445D-01 0.336D+00 0.654D+00
 Gap=     0.314 Goal=   None    Shift=    0.000
 RMSDP=4.51D-08 MaxDP=1.52D-06 DE=-7.74D-10 OVMax= 3.88D-06

 Cycle  12  Pass 1  IDiag  1:
 RMSU=  2.76D-08    CP:  8.87D-01  1.02D+00  1.10D+00  7.54D-01  8.80D-01
                    CP:  1.12D+00  1.10D+00  8.29D-01  1.20D+00  1.11D+00
                    CP:  8.42D-01
 E= -1045.31251988034     Delta-E=       -0.000000000111 Rises=F Damp=F
 DIIS: error= 2.69D-07 at cycle  12 NSaved=  12.
 NSaved=12 IEnMin=12 EnMin= -1045.31251988034     IErMin=12 ErrMin= 2.69D-07
 ErrMax= 2.69D-07  0.00D+00 EMaxC= 1.00D-01 BMatC= 9.22D-12 BMatP= 1.37D-10
 IDIUse=1 WtCom= 1.00D+00 WtEn= 0.00D+00
 Coeff-Com: -0.111D-05 0.214D-05 0.376D-04 0.651D-04 0.183D-03 0.146D-03
 Coeff-Com: -0.208D-02-0.517D-02-0.296D-01 0.387D-01 0.227D+00 0.771D+00
 Coeff:     -0.111D-05 0.214D-05 0.376D-04 0.651D-04 0.183D-03 0.146D-03
 Coeff:     -0.208D-02-0.517D-02-0.296D-01 0.387D-01 0.227D+00 0.771D+00
 Gap=     0.314 Goal=   None    Shift=    0.000
 RMSDP=1.81D-08 MaxDP=2.20D-06 DE=-1.11D-10 OVMax= 1.76D-06

 Cycle  13  Pass 1  IDiag  1:
 RMSU=  1.03D-08    CP:  8.87D-01  1.02D+00  1.10D+00  7.54D-01  8.80D-01
                    CP:  1.12D+00  1.10D+00  8.29D-01  1.20D+00  1.14D+00
                    CP:  9.00D-01  9.32D-01
 E= -1045.31251988034     Delta-E=       -0.000000000001 Rises=F Damp=F
 DIIS: error= 7.97D-08 at cycle  13 NSaved=  13.
 NSaved=13 IEnMin=13 EnMin= -1045.31251988034     IErMin=13 ErrMin= 7.97D-08
 ErrMax= 7.97D-08  0.00D+00 EMaxC= 1.00D-01 BMatC= 1.12D-12 BMatP= 9.22D-12
 IDIUse=1 WtCom= 1.00D+00 WtEn= 0.00D+00
 Coeff-Com:  0.810D-06-0.156D-05-0.445D-05-0.541D-05 0.105D-04 0.253D-03
 Coeff-Com:  0.101D-02-0.318D-03-0.150D-01-0.164D-01 0.157D-01 0.298D+00
 Coeff-Com:  0.717D+00
 Coeff:      0.810D-06-0.156D-05-0.445D-05-0.541D-05 0.105D-04 0.253D-03
 Coeff:      0.101D-02-0.318D-03-0.150D-01-0.164D-01 0.157D-01 0.298D+00
 Coeff:      0.717D+00
 Gap=     0.314 Goal=   None    Shift=    0.000
 RMSDP=4.07D-09 MaxDP=2.36D-07 DE=-9.09D-13 OVMax= 7.12D-07

 SCF Done:  E(RM062X) =  -1045.31251988     A.U. after   13 cycles
            NFock= 13  Conv=0.41D-08     -V/T= 2.0031
 KE= 1.042052847952D+03 PE=-4.366106751945D+03 EE= 1.328796065732D+03
 Leave Link  502 at Thu Dec 15 15:44:44 2022, MaxMem=  1342177280 cpu:            1059.0 elap:              44.3
 (Enter /data0/home/software/g16/l601.exe)
 Copying SCF densities to generalized density rwf, IOpCl= 0 IROHF=0.

 **********************************************************************

            Population analysis using the SCF density.

 **********************************************************************

 Alpha  occ. eigenvalues --  -78.14833 -19.65642 -19.63931 -19.63793 -19.62800
 Alpha  occ. eigenvalues --  -19.62577 -19.58655 -14.78573 -10.60758 -10.60290
 Alpha  occ. eigenvalues --  -10.58536 -10.57626 -10.57411  -6.95558  -5.07469
 Alpha  occ. eigenvalues --   -5.07420  -5.07313  -1.21294  -1.14607  -1.13696
 Alpha  occ. eigenvalues --   -1.13231  -1.12472  -1.08799  -1.07789  -0.92808
 Alpha  occ. eigenvalues --   -0.88279  -0.74040  -0.73468  -0.69815  -0.63572
 Alpha  occ. eigenvalues --   -0.62466  -0.61651  -0.60862  -0.60133  -0.57438
 Alpha  occ. eigenvalues --   -0.56404  -0.54208  -0.52754  -0.51902  -0.50344
 Alpha  occ. eigenvalues --   -0.49657  -0.49551  -0.48419  -0.47567  -0.46003
 Alpha  occ. eigenvalues --   -0.45025  -0.44783  -0.43565  -0.40988  -0.40513
 Alpha  occ. eigenvalues --   -0.39950  -0.38203  -0.37628  -0.37107  -0.36037
 Alpha  occ. eigenvalues --   -0.33935
 Alpha virt. eigenvalues --   -0.02546  -0.01070  -0.00108   0.00895   0.01759
 Alpha virt. eigenvalues --    0.02297   0.03032   0.03765   0.04942   0.05232
 Alpha virt. eigenvalues --    0.05844   0.06730   0.08141   0.08313   0.08706
 Alpha virt. eigenvalues --    0.09885   0.10433   0.11558   0.11771   0.12397
 Alpha virt. eigenvalues --    0.13218   0.13635   0.13981   0.14335   0.15240
 Alpha virt. eigenvalues --    0.15832   0.16021   0.16605   0.17294   0.17536
 Alpha virt. eigenvalues --    0.17818   0.18090   0.18672   0.19065   0.19770
 Alpha virt. eigenvalues --    0.20087   0.20367   0.20694   0.20759   0.21373
 Alpha virt. eigenvalues --    0.22046   0.22541   0.22743   0.23310   0.23628
 Alpha virt. eigenvalues --    0.24364   0.24605   0.24965   0.26215   0.26830
 Alpha virt. eigenvalues --    0.26902   0.27564   0.27956   0.28724   0.29139
 Alpha virt. eigenvalues --    0.30156   0.30711   0.30919   0.31415   0.32292
 Alpha virt. eigenvalues --    0.32508   0.32991   0.33034   0.33713   0.34686
 Alpha virt. eigenvalues --    0.34905   0.35469   0.36264   0.37494   0.38552
 Alpha virt. eigenvalues --    0.40241   0.42285   0.43168   0.44140   0.44816
 Alpha virt. eigenvalues --    0.45232   0.46582   0.48414   0.49235   0.50328
 Alpha virt. eigenvalues --    0.51035   0.51578   0.52724   0.53467   0.54118
 Alpha virt. eigenvalues --    0.54622   0.54893   0.56196   0.56593   0.58611
 Alpha virt. eigenvalues --    0.58809   0.59903   0.60952   0.63002   0.63690
 Alpha virt. eigenvalues --    0.63711   0.65305   0.66023   0.67002   0.67674
 Alpha virt. eigenvalues --    0.67919   0.68178   0.68894   0.71866   0.72998
 Alpha virt. eigenvalues --    0.74657   0.75710   0.77503   0.79045   0.79193
 Alpha virt. eigenvalues --    0.80281   0.81321   0.81759   0.82581   0.83153
 Alpha virt. eigenvalues --    0.84298   0.84850   0.85844   0.88327   0.89428
 Alpha virt. eigenvalues --    0.89899   0.90968   0.91902   0.92897   0.93919
 Alpha virt. eigenvalues --    1.00041   1.01918   1.02727   1.04160   1.04736
 Alpha virt. eigenvalues --    1.05058   1.06864   1.07276   1.10201   1.10446
 Alpha virt. eigenvalues --    1.12808   1.14415   1.14930   1.15350   1.16391
 Alpha virt. eigenvalues --    1.16832   1.17558   1.18352   1.19518   1.19793
 Alpha virt. eigenvalues --    1.20346   1.21556   1.22857   1.23581   1.24832
 Alpha virt. eigenvalues --    1.25442   1.26682   1.28048   1.28236   1.30242
 Alpha virt. eigenvalues --    1.30944   1.32082   1.32954   1.33515   1.34261
 Alpha virt. eigenvalues --    1.34676   1.36544   1.36842   1.37354   1.38049
 Alpha virt. eigenvalues --    1.38776   1.40561   1.42895   1.44219   1.45043
 Alpha virt. eigenvalues --    1.47235   1.47847   1.48166   1.48774   1.49583
 Alpha virt. eigenvalues --    1.50801   1.52281   1.53698   1.54758   1.57326
 Alpha virt. eigenvalues --    1.59879   1.61470   1.63085   1.63298   1.64387
 Alpha virt. eigenvalues --    1.65647   1.66765   1.67093   1.67769   1.69743
 Alpha virt. eigenvalues --    1.71778   1.74612   1.74938   1.75883   1.77527
 Alpha virt. eigenvalues --    1.79442   1.82083   1.82335   1.83596   1.87751
 Alpha virt. eigenvalues --    1.88365   1.88756   1.90548   1.92365   1.94998
 Alpha virt. eigenvalues --    1.98084   1.98861   2.00569   2.01072   2.02726
 Alpha virt. eigenvalues --    2.04349   2.04981   2.08232   2.09951   2.10421
 Alpha virt. eigenvalues --    2.14113   2.15248   2.17077   2.18353   2.18870
 Alpha virt. eigenvalues --    2.20650   2.22360   2.25976   2.26295   2.30274
 Alpha virt. eigenvalues --    2.34267   2.36986   2.38970   2.40271   2.41447
 Alpha virt. eigenvalues --    2.42943   2.45744   2.46868   2.52269   2.53592
 Alpha virt. eigenvalues --    2.55911   2.56486   2.61095   2.62967   2.63181
 Alpha virt. eigenvalues --    2.65369   2.66262   2.67649   2.68829   2.69282
 Alpha virt. eigenvalues --    2.73915   2.74724   2.75466   2.75593   2.78985
 Alpha virt. eigenvalues --    2.82702   2.82981   2.85544   2.85745   2.86415
 Alpha virt. eigenvalues --    2.87433   2.88241   2.90675   2.96483   2.98986
 Alpha virt. eigenvalues --    2.99962   3.02026   3.04559   3.06338   3.07220
 Alpha virt. eigenvalues --    3.10709   3.11877   3.12412   3.12841   3.14522
 Alpha virt. eigenvalues --    3.21536   3.22611   3.26966   3.27636   3.28848
 Alpha virt. eigenvalues --    3.31281   3.35189   3.40603   3.44165   3.45688
 Alpha virt. eigenvalues --    3.54393   3.54756   3.55016   3.55904   3.56940
 Alpha virt. eigenvalues --    3.57771   3.63761   3.67954   3.71956   3.73119
 Alpha virt. eigenvalues --    3.75201   3.79718   3.83200   3.86525   3.91426
 Alpha virt. eigenvalues --    3.94693   3.95221   3.98520   4.01671   4.47524
 Alpha virt. eigenvalues --    4.49249   4.54379   4.80763   4.94337   4.97278
 Alpha virt. eigenvalues --    5.01739   5.08328   5.11448   5.11726   5.12969
 Alpha virt. eigenvalues --    5.13794   5.14979   5.16710   5.19979   5.20595
 Alpha virt. eigenvalues --    5.22216   5.27346   5.33039   5.38221   5.49823
 Alpha virt. eigenvalues --    5.53943   5.54523   5.55900   5.58956   5.61532
 Alpha virt. eigenvalues --    5.84692   5.95069   5.96480   6.75795   6.77562
 Alpha virt. eigenvalues --    6.78557   6.79610   6.80129   6.80819   6.81277
 Alpha virt. eigenvalues --    6.82431   6.82911   6.84017   6.85698   6.88998
 Alpha virt. eigenvalues --    6.91747   6.92336   6.92804   6.94930   6.98355
 Alpha virt. eigenvalues --    6.99317   7.01878   7.02850   7.07605   7.09012
 Alpha virt. eigenvalues --    7.13563   7.16851   7.17517   7.25067   7.29391
 Alpha virt. eigenvalues --    7.36121   7.38565   7.43449   7.69273  14.27599
 Alpha virt. eigenvalues --   14.28017  14.38945  23.82331  24.03745  24.04778
 Alpha virt. eigenvalues --   24.08515  24.12049  35.72121  49.99601  50.03598
 Alpha virt. eigenvalues --   50.04910  50.06851  50.08443  50.11269 163.93466
          Condensed to atoms (all electrons):
               1          2          3          4          5          6
     1  C    6.985884  -1.383120   0.269110  -0.035243  -0.304153   0.220680
     2  C   -1.383120   6.919759   0.070795   0.127280  -0.220445   0.136925
     3  C    0.269110   0.070795   5.113210   0.302644   0.259806  -0.127708
     4  C   -0.035243   0.127280   0.302644   5.485455  -0.311653   0.080891
     5  C   -0.304153  -0.220445   0.259806  -0.311653   6.128022   0.207655
     6  N    0.220680   0.136925  -0.127708   0.080891   0.207655   6.796012
     7  H   -0.001006  -0.011429   0.372608  -0.014381  -0.000595   0.000400
     8  H    0.468569  -0.094105   0.013630  -0.010700   0.011431  -0.054675
     9  H   -0.020991   0.381352  -0.027729   0.006184  -0.001296   0.007237
    10  H   -0.003712   0.007973  -0.023983   0.378310  -0.021551   0.008059
    11  H    0.010397  -0.006934   0.016195  -0.054434   0.437981  -0.060526
    12  P    0.037698  -0.043224  -0.000350   0.002406  -0.010762  -0.005542
    13  O   -0.025084   0.055819  -0.007549   0.003273   0.009642  -0.009310
    14  O   -0.003295   0.004622  -0.000420   0.000011   0.000111  -0.001911
    15  H   -0.001328  -0.001109   0.000051  -0.000051   0.000543   0.001277
    16  O    0.005708  -0.040075   0.000041   0.003781  -0.011229   0.018693
    17  H   -0.022283   0.019413  -0.004492   0.014082  -0.010408   0.046659
    18  O   -0.000497  -0.002176   0.000158  -0.000251   0.000189  -0.000065
    19  H   -0.000969  -0.000568   0.000013  -0.000008   0.000143   0.000574
    20  O   -0.000030   0.000238   0.000067  -0.000125   0.000386  -0.000109
    21  H   -0.000136   0.000032  -0.000028   0.000048  -0.000123  -0.000059
    22  H   -0.000198  -0.000080   0.000001  -0.000020  -0.000115   0.000041
    23  O    0.001764  -0.000960   0.000137  -0.000119   0.000149  -0.000061
    24  H   -0.000829   0.001373  -0.000210   0.000138  -0.000090  -0.000143
    25  H   -0.000281   0.000074  -0.000006   0.000012  -0.000020  -0.000019
               7          8          9         10         11         12
     1  C   -0.001006   0.468569  -0.020991  -0.003712   0.010397   0.037698
     2  C   -0.011429  -0.094105   0.381352   0.007973  -0.006934  -0.043224
     3  C    0.372608   0.013630  -0.027729  -0.023983   0.016195  -0.000350
     4  C   -0.014381  -0.010700   0.006184   0.378310  -0.054434   0.002406
     5  C   -0.000595   0.011431  -0.001296  -0.021551   0.437981  -0.010762
     6  N    0.000400  -0.054675   0.007237   0.008059  -0.060526  -0.005542
     7  H    0.523880  -0.000222  -0.004659  -0.004487  -0.000264   0.000015
     8  H   -0.000222   0.472213  -0.001864   0.000075  -0.000107   0.008684
     9  H   -0.004659  -0.001864   0.519705  -0.000190   0.000082   0.000084
    10  H   -0.004487   0.000075  -0.000190   0.522968  -0.002695  -0.000010
    11  H   -0.000264  -0.000107   0.000082  -0.002695   0.519656  -0.000114
    12  P    0.000015   0.008684   0.000084  -0.000010  -0.000114  12.558169
    13  O    0.000000  -0.004153   0.000014  -0.000001   0.000014   0.444273
    14  O    0.000000  -0.000529   0.000001   0.000000   0.000026   0.189517
    15  H   -0.000000   0.000060  -0.000000   0.000000   0.000004   0.026435
    16  O   -0.000007   0.001330   0.000043   0.000036   0.001791   0.355793
    17  H    0.000014  -0.000283  -0.000036  -0.000039  -0.001121   0.004280
    18  O   -0.000000   0.000429  -0.000000   0.000000   0.000000   0.233462
    19  H    0.000000  -0.000005   0.000000   0.000000  -0.000000  -0.011706
    20  O   -0.000000   0.000074  -0.000000   0.000000   0.000000   0.043229
    21  H    0.000000  -0.000024   0.000000  -0.000000   0.000000  -0.001000
    22  H    0.000000   0.000001   0.000000  -0.000000  -0.000000  -0.000478
    23  O   -0.000000   0.000087  -0.000001   0.000000  -0.000000  -0.015339
    24  H    0.000000  -0.000099   0.000001  -0.000000  -0.000000   0.000225
    25  H   -0.000000   0.000015   0.000000  -0.000000   0.000000   0.001546
              13         14         15         16         17         18
     1  C   -0.025084  -0.003295  -0.001328   0.005708  -0.022283  -0.000497
     2  C    0.055819   0.004622  -0.001109  -0.040075   0.019413  -0.002176
     3  C   -0.007549  -0.000420   0.000051   0.000041  -0.004492   0.000158
     4  C    0.003273   0.000011  -0.000051   0.003781   0.014082  -0.000251
     5  C    0.009642   0.000111   0.000543  -0.011229  -0.010408   0.000189
     6  N   -0.009310  -0.001911   0.001277   0.018693   0.046659  -0.000065
     7  H    0.000000   0.000000  -0.000000  -0.000007   0.000014  -0.000000
     8  H   -0.004153  -0.000529   0.000060   0.001330  -0.000283   0.000429
     9  H    0.000014   0.000001  -0.000000   0.000043  -0.000036  -0.000000
    10  H   -0.000001   0.000000   0.000000   0.000036  -0.000039   0.000000
    11  H    0.000014   0.000026   0.000004   0.001791  -0.001121   0.000000
    12  P    0.444273   0.189517   0.026435   0.355793   0.004280   0.233462
    13  O    8.305870   0.025791  -0.003745  -0.062738   0.012862  -0.053374
    14  O    0.025791   8.072836   0.225115  -0.034381  -0.001085  -0.023097
    15  H   -0.003745   0.225115   0.454305  -0.005290  -0.002416  -0.006278
    16  O   -0.062738  -0.034381  -0.005290   8.137105   0.222952   0.032510
    17  H    0.012862  -0.001085  -0.002416   0.222952   0.244537   0.000600
    18  O   -0.053374  -0.023097  -0.006278   0.032510   0.000600   8.176538
    19  H   -0.009361  -0.004991   0.002086   0.007631  -0.000064   0.256091
    20  O   -0.006536   0.005385  -0.000108  -0.019470   0.000823   0.022516
    21  H   -0.000805  -0.000628  -0.000001   0.001601  -0.000017  -0.008991
    22  H   -0.001277  -0.000239   0.000008   0.001851  -0.000222  -0.003898
    23  O   -0.002326  -0.000310   0.000069  -0.001107  -0.000109   0.009699
    24  H    0.049767   0.001364  -0.000111  -0.001121   0.000275  -0.002004
    25  H   -0.001379   0.000014  -0.000003   0.000007   0.000007  -0.001169
              19         20         21         22         23         24
     1  C   -0.000969  -0.000030  -0.000136  -0.000198   0.001764  -0.000829
     2  C   -0.000568   0.000238   0.000032  -0.000080  -0.000960   0.001373
     3  C    0.000013   0.000067  -0.000028   0.000001   0.000137  -0.000210
     4  C   -0.000008  -0.000125   0.000048  -0.000020  -0.000119   0.000138
     5  C    0.000143   0.000386  -0.000123  -0.000115   0.000149  -0.000090
     6  N    0.000574  -0.000109  -0.000059   0.000041  -0.000061  -0.000143
     7  H    0.000000  -0.000000   0.000000   0.000000  -0.000000   0.000000
     8  H   -0.000005   0.000074  -0.000024   0.000001   0.000087  -0.000099
     9  H    0.000000  -0.000000   0.000000   0.000000  -0.000001   0.000001
    10  H    0.000000   0.000000  -0.000000  -0.000000   0.000000  -0.000000
    11  H   -0.000000   0.000000   0.000000  -0.000000  -0.000000  -0.000000
    12  P   -0.011706   0.043229  -0.001000  -0.000478  -0.015339   0.000225
    13  O   -0.009361  -0.006536  -0.000805  -0.001277  -0.002326   0.049767
    14  O   -0.004991   0.005385  -0.000628  -0.000239  -0.000310   0.001364
    15  H    0.002086  -0.000108  -0.000001   0.000008   0.000069  -0.000111
    16  O    0.007631  -0.019470   0.001601   0.001851  -0.001107  -0.001121
    17  H   -0.000064   0.000823  -0.000017  -0.000222  -0.000109   0.000275
    18  O    0.256091   0.022516  -0.008991  -0.003898   0.009699  -0.002004
    19  H    0.350305  -0.039132   0.010886   0.005893  -0.000758  -0.001668
    20  O   -0.039132   8.041260   0.299015   0.313295   0.006371   0.001842
    21  H    0.010886   0.299015   0.329693  -0.012376  -0.030426   0.004140
    22  H    0.005893   0.313295  -0.012376   0.416422  -0.000322  -0.000239
    23  O   -0.000758   0.006371  -0.030426  -0.000322   8.103046   0.279774
    24  H   -0.001668   0.001842   0.004140  -0.000239   0.279774   0.324016
    25  H    0.000209  -0.004379   0.006705   0.000659   0.305491  -0.016543
              25
     1  C   -0.000281
     2  C    0.000074
     3  C   -0.000006
     4  C    0.000012
     5  C   -0.000020
     6  N   -0.000019
     7  H   -0.000000
     8  H    0.000015
     9  H    0.000000
    10  H   -0.000000
    11  H    0.000000
    12  P    0.001546
    13  O   -0.001379
    14  O    0.000014
    15  H   -0.000003
    16  O    0.000007
    17  H    0.000007
    18  O   -0.001169
    19  H    0.000209
    20  O   -0.004379
    21  H    0.006705
    22  H    0.000659
    23  O    0.305491
    24  H   -0.016543
    25  H    0.420317
 Mulliken charges:
               1
     1  C   -0.196655
     2  C    0.078570
     3  C   -0.225990
     4  C    0.022468
     5  C   -0.163617
     6  N   -0.264973
     7  H    0.140133
     8  H    0.190167
     9  H    0.142062
    10  H    0.139245
    11  H    0.140047
    12  P    1.182712
    13  O   -0.719687
    14  O   -0.453909
    15  H    0.310487
    16  O   -0.615454
    17  H    0.476072
    18  O   -0.630391
    19  H    0.435400
    20  O   -0.664611
    21  H    0.402495
    22  H    0.281293
    23  O   -0.654752
    24  H    0.360142
    25  H    0.288745
 Sum of Mulliken charges =  -0.00000
 Mulliken charges with hydrogens summed into heavy atoms:
               1
     1  C   -0.006487
     2  C    0.220632
     3  C   -0.085857
     4  C    0.161713
     5  C   -0.023569
     6  N   -0.264973
    12  P    1.182712
    13  O   -0.719687
    14  O   -0.143422
    16  O   -0.139382
    18  O   -0.194991
    20  O    0.019178
    23  O   -0.005865
         Mulliken charges condensed to fragments:
      1      0.001458
      2     -0.014770
      3      0.019178
      4     -0.005865
 Electronic spatial extent (au):  <R**2>=         124005.9456
 Charge=              0.0000 electrons
 Dipole moment (field-independent basis, Debye):
    X=             -4.0489    Y=             -3.6848    Z=              1.0799  Tot=              5.5801
 Quadrupole moment (field-independent basis, Debye-Ang):
   XX=           -131.0801   YY=           -186.0970   ZZ=            -79.3955
   XY=            -81.4928   XZ=             -7.3742   YZ=              0.3966
 Traceless Quadrupole moment (field-independent basis, Debye-Ang):
   XX=              1.1107   YY=            -53.9061   ZZ=             52.7954
   XY=            -81.4928   XZ=             -7.3742   YZ=              0.3966
 Octapole moment (field-independent basis, Debye-Ang**2):
  XXX=          -2222.8171  YYY=          -5927.6541  ZZZ=          -1023.9277  XYY=          -2067.1105
  XXY=          -2123.2976  XXZ=           -415.5134  XZZ=           -590.0231  YZZ=          -1293.0907
  YYZ=           -531.1433  XYZ=           -194.3413
 Hexadecapole moment (field-independent basis, Debye-Ang**3):
 XXXX=         -31847.1237 YYYY=        -155662.2823 ZZZZ=          -9408.6341 XXXY=         -35578.6500
 XXXZ=          -7217.9851 YYYX=         -52545.4780 YYYZ=         -20417.9499 ZZZX=          -6775.2895
 ZZZY=         -15660.9974 XXYY=         -38677.9155 XXZZ=          -5903.4952 YYZZ=         -22662.2095
 XXYZ=          -6716.6800 YYXZ=          -6251.5525 ZZXY=          -9730.9909
 N-N= 9.499453183810D+02 E-N=-4.366106757286D+03  KE= 1.042052847952D+03
 No NMR shielding tensors so no spin-rotation constants.
 Leave Link  601 at Thu Dec 15 15:44:44 2022, MaxMem=  1342177280 cpu:               3.0 elap:               0.2
 (Enter /data0/home/software/g16/l122.exe)
 CPIOFr:  IOpCl= 0 IRwI=-1 IRwCP=  731 ICalc= -1 LCPTot=      286257 Len1MO=      751965 IndFrg=      286257
 CPIOFr:  IOpCl= 0 IRwI=-1 IRwCP=  731 ICalc=  0 LCPTot=      286257 Len1MO=      751965 IndFrg=     1038222
 Counterpoise: doing calculation for fragment   1 using the basis set of the full-system, NewBq=T
 Leave Link  122 at Thu Dec 15 15:44:44 2022, MaxMem=  1342177280 cpu:               0.3 elap:               0.0
 (Enter /data0/home/software/g16/l301.exe)
 Basis read from rwf:  (5D, 7F)
 No pseudopotential information found on rwf file.
   431 basis functions,   656 primitive gaussians,   457 cartesian basis functions
    21 alpha electrons       21 beta electrons
       nuclear repulsion energy       205.2270284371 Hartrees.
 IExCor= 4336 DFT=T Ex+Corr=M062X ExCW=0 ScaHFX=  0.540000
 ScaDFX=  1.000000  1.000000  1.000000  1.000000 ScalE2=  1.000000  1.000000
 IRadAn=      5 IRanWt=     -1 IRanGd=            0 ICorTp=0 IEmpDi=131
 NAtoms=   25 NActive=   25 NUniq=   25 SFac= 1.00D+00 NAtFMM=   60 NAOKFM=F Big=F
 Integral buffers will be    131072 words long.
 Raffenetti 2 integral format.
 Two-electron integral symmetry is turned off.
 R6Disp:  Grimme-D3 Dispersion energy=       -0.0000989678 Hartrees.
 Nuclear repulsion after empirical dispersion term =      205.2269294693 Hartrees.
 No density basis found on file   718.
 Leave Link  301 at Thu Dec 15 15:44:45 2022, MaxMem=  1342177280 cpu:               1.3 elap:               0.1
 (Enter /data0/home/software/g16/l302.exe)
 NPDir=0 NMtPBC=     1 NCelOv=     1 NCel=       1 NClECP=     1 NCelD=      1
         NCelK=      1 NCelE2=     1 NClLst=     1 CellRange=     0.0.
 One-electron integrals computed using PRISM.
 NBasis=   431 RedAO= T EigKep=  7.41D-06  NBF=   431
 NBsUse=   431 1.00D-06 EigRej= -1.00D+00 NBFU=   431
 Precomputing XC quadrature grid using
 IXCGrd= 4 IRadAn=           5 IRanWt=          -1 IRanGd=           0 AccXCQ= 0.00D+00.
 Generated NRdTot=       0 NPtTot=           0 NUsed=           0 NTot=          32
 NSgBfM=   455   455   455   455   455 MxSgAt=    25 MxSgA2=    25.
 Leave Link  302 at Thu Dec 15 15:44:45 2022, MaxMem=  1342177280 cpu:               8.6 elap:               0.4
 (Enter /data0/home/software/g16/l303.exe)
 DipDrv:  MaxL=1.
 Leave Link  303 at Thu Dec 15 15:44:45 2022, MaxMem=  1342177280 cpu:               1.0 elap:               0.1
 (Enter /data0/home/software/g16/l401.exe)
 ExpMin= 3.48D-02 ExpMax= 7.75D+04 ExpMxC= 2.65D+03 IAcc=3 IRadAn=         5 AccDes= 0.00D+00
 Harris functional with IExCor= 1009 and IRadAn=       5 diagonalized for initial guess.
 HarFok:  IExCor= 1009 AccDes= 0.00D+00 IRadAn=         5 IDoV= 1 UseB2=F ITyADJ=14
 ICtDFT=  3500011 ScaDFX=  1.000000  1.000000  1.000000  1.000000
 FoFCou: FMM=F IPFlag=           0 FMFlag=      100000 FMFlg1=           0
         NFxFlg=           0 DoJE=T BraDBF=F KetDBF=T FulRan=T
         wScrn=  0.000000 ICntrl=       500 IOpCl=  0 I1Cent=   200000004 NGrid=           0
         NMat0=    1 NMatS0=      1 NMatT0=    0 NMatD0=    1 NMtDS0=    0 NMtDT0=    0
 Symmetry not used in FoFCou.
 Harris En= -248.119105071839    
 JPrj=0 DoOrth=F DoCkMO=F.
 Leave Link  401 at Thu Dec 15 15:44:46 2022, MaxMem=  1342177280 cpu:              26.1 elap:               1.1
 (Enter /data0/home/software/g16/l502.exe)
 Two-electron integral symmetry not used.
 Closed shell SCF:
 Using DIIS extrapolation, IDIIS=  1040.
 NGot=  1342177280 LenX=  1341745382 LenY=  1341536076
 Requested convergence on RMS density matrix=1.00D-08 within 128 cycles.
 Requested convergence on MAX density matrix=1.00D-06.
 Requested convergence on             energy=1.00D-06.
 No special actions if energy rises.
 Fock matrices will be formed incrementally for  20 cycles.

 Cycle   1  Pass 1  IDiag  1:
 FoFJK:  IHMeth= 1 ICntrl=       0 DoSepK=F KAlg= 0 I1Cent=           0 FoldK=F
 IRaf= 800000000 NMat=       1 IRICut=       1 DoRegI=T DoRafI=F ISym2E= 0 IDoP0=0 IntGTp=1.
 FoFCou: FMM=F IPFlag=           0 FMFlag=      100000 FMFlg1=           0
         NFxFlg=           0 DoJE=F BraDBF=F KetDBF=F FulRan=T
         wScrn=  0.000000 ICntrl=         0 IOpCl=  0 I1Cent=           0 NGrid=           0
         NMat0=    1 NMatS0=      1 NMatT0=    0 NMatD0=    1 NMtDS0=    0 NMtDT0=    0
 Symmetry not used in FoFCou.
 E= -248.122025317809    
 DIIS: error= 3.54D-02 at cycle   1 NSaved=   1.
 NSaved= 1 IEnMin= 1 EnMin= -248.122025317809     IErMin= 1 ErrMin= 3.54D-02
 ErrMax= 3.54D-02  0.00D+00 EMaxC= 1.00D-01 BMatC= 1.52D-01 BMatP= 1.52D-01
 IDIUse=3 WtCom= 6.46D-01 WtEn= 3.54D-01
 Coeff-Com:  0.100D+01
 Coeff-En:   0.100D+01
 Coeff:      0.100D+01
 Gap=     0.339 Goal=   None    Shift=    0.000
 GapD=    0.339 DampG=1.000 DampE=0.500 DampFc=0.5000 IDamp=-1.
 Damping current iteration by 5.00D-01
 RMSDP=2.32D-03 MaxDP=1.94D-01              OVMax= 1.39D-01

 Cycle   2  Pass 1  IDiag  1:
 RMSU=  1.16D-03    CP:  1.01D+00
 E= -248.185942732722     Delta-E=       -0.063917414913 Rises=F Damp=T
 DIIS: error= 8.95D-03 at cycle   2 NSaved=   2.
 NSaved= 2 IEnMin= 2 EnMin= -248.185942732722     IErMin= 2 ErrMin= 8.95D-03
 ErrMax= 8.95D-03  0.00D+00 EMaxC= 1.00D-01 BMatC= 1.47D-02 BMatP= 1.52D-01
 IDIUse=3 WtCom= 9.11D-01 WtEn= 8.95D-02
 Coeff-Com: -0.223D+00 0.122D+01
 Coeff-En:   0.000D+00 0.100D+01
 Coeff:     -0.203D+00 0.120D+01
 Gap=     0.336 Goal=   None    Shift=    0.000
 RMSDP=8.14D-04 MaxDP=5.97D-02 DE=-6.39D-02 OVMax= 7.64D-02

 Cycle   3  Pass 1  IDiag  1:
 RMSU=  7.69D-04    CP:  9.64D-01  1.07D+00
 E= -248.242398817062     Delta-E=       -0.056456084340 Rises=F Damp=F
 DIIS: error= 3.61D-03 at cycle   3 NSaved=   3.
 NSaved= 3 IEnMin= 3 EnMin= -248.242398817062     IErMin= 3 ErrMin= 3.61D-03
 ErrMax= 3.61D-03  0.00D+00 EMaxC= 1.00D-01 BMatC= 2.62D-03 BMatP= 1.47D-02
 IDIUse=3 WtCom= 9.64D-01 WtEn= 3.61D-02
 Coeff-Com: -0.133D+00 0.393D+00 0.739D+00
 Coeff-En:   0.000D+00 0.000D+00 0.100D+01
 Coeff:     -0.128D+00 0.379D+00 0.749D+00
 Gap=     0.324 Goal=   None    Shift=    0.000
 RMSDP=2.15D-04 MaxDP=2.87D-02 DE=-5.65D-02 OVMax= 2.28D-02

 Cycle   4  Pass 1  IDiag  1:
 RMSU=  1.84D-04    CP:  9.49D-01  1.01D+00  1.04D+00
 E= -248.244657579031     Delta-E=       -0.002258761970 Rises=F Damp=F
 DIIS: error= 1.64D-03 at cycle   4 NSaved=   4.
 NSaved= 4 IEnMin= 4 EnMin= -248.244657579031     IErMin= 4 ErrMin= 1.64D-03
 ErrMax= 1.64D-03  0.00D+00 EMaxC= 1.00D-01 BMatC= 2.62D-04 BMatP= 2.62D-03
 IDIUse=3 WtCom= 9.84D-01 WtEn= 1.64D-02
 Coeff-Com: -0.458D-01 0.114D+00 0.317D+00 0.615D+00
 Coeff-En:   0.000D+00 0.000D+00 0.000D+00 0.100D+01
 Coeff:     -0.450D-01 0.112D+00 0.312D+00 0.621D+00
 Gap=     0.317 Goal=   None    Shift=    0.000
 RMSDP=5.47D-05 MaxDP=4.49D-03 DE=-2.26D-03 OVMax= 8.86D-03

 Cycle   5  Pass 1  IDiag  1:
 RMSU=  3.60D-05    CP:  9.52D-01  1.03D+00  1.02D+00  8.34D-01
 E= -248.244893707704     Delta-E=       -0.000236128673 Rises=F Damp=F
 DIIS: error= 6.15D-04 at cycle   5 NSaved=   5.
 NSaved= 5 IEnMin= 5 EnMin= -248.244893707704     IErMin= 5 ErrMin= 6.15D-04
 ErrMax= 6.15D-04  0.00D+00 EMaxC= 1.00D-01 BMatC= 3.71D-05 BMatP= 2.62D-04
 IDIUse=3 WtCom= 9.94D-01 WtEn= 6.15D-03
 Coeff-Com: -0.118D-01 0.240D-01 0.939D-01 0.318D+00 0.576D+00
 Coeff-En:   0.000D+00 0.000D+00 0.000D+00 0.682D-01 0.932D+00
 Coeff:     -0.118D-01 0.238D-01 0.933D-01 0.317D+00 0.578D+00
 Gap=     0.317 Goal=   None    Shift=    0.000
 RMSDP=2.66D-05 MaxDP=1.41D-03 DE=-2.36D-04 OVMax= 2.47D-03

 Cycle   6  Pass 1  IDiag  1:
 RMSU=  1.75D-05    CP:  9.51D-01  1.01D+00  1.03D+00  8.34D-01  7.04D-01
 E= -248.244931202791     Delta-E=       -0.000037495087 Rises=F Damp=F
 DIIS: error= 1.07D-04 at cycle   6 NSaved=   6.
 NSaved= 6 IEnMin= 6 EnMin= -248.244931202791     IErMin= 6 ErrMin= 1.07D-04
 ErrMax= 1.07D-04  0.00D+00 EMaxC= 1.00D-01 BMatC= 1.70D-06 BMatP= 3.71D-05
 IDIUse=3 WtCom= 9.99D-01 WtEn= 1.07D-03
 Coeff-Com: -0.373D-02 0.687D-02 0.316D-01 0.121D+00 0.270D+00 0.574D+00
 Coeff-En:   0.000D+00 0.000D+00 0.000D+00 0.000D+00 0.000D+00 0.100D+01
 Coeff:     -0.373D-02 0.686D-02 0.315D-01 0.121D+00 0.270D+00 0.574D+00
 Gap=     0.317 Goal=   None    Shift=    0.000
 RMSDP=3.60D-06 MaxDP=2.42D-04 DE=-3.75D-05 OVMax= 6.08D-04

 Cycle   7  Pass 1  IDiag  1:
 RMSU=  2.95D-06    CP:  9.51D-01  1.01D+00  1.03D+00  8.29D-01  7.41D-01
                    CP:  1.04D+00
 E= -248.244932636279     Delta-E=       -0.000001433488 Rises=F Damp=F
 DIIS: error= 2.59D-05 at cycle   7 NSaved=   7.
 NSaved= 7 IEnMin= 7 EnMin= -248.244932636279     IErMin= 7 ErrMin= 2.59D-05
 ErrMax= 2.59D-05  0.00D+00 EMaxC= 1.00D-01 BMatC= 1.85D-07 BMatP= 1.70D-06
 IDIUse=1 WtCom= 1.00D+00 WtEn= 0.00D+00
 Coeff-Com:  0.151D-02-0.329D-02-0.103D-01-0.314D-01-0.324D-01 0.226D+00
 Coeff-Com:  0.850D+00
 Coeff:      0.151D-02-0.329D-02-0.103D-01-0.314D-01-0.324D-01 0.226D+00
 Coeff:      0.850D+00
 Gap=     0.317 Goal=   None    Shift=    0.000
 RMSDP=3.73D-06 MaxDP=2.09D-04 DE=-1.43D-06 OVMax= 1.28D-04

 Cycle   8  Pass 1  IDiag  1:
 RMSU=  9.41D-07    CP:  9.51D-01  1.01D+00  1.03D+00  8.29D-01  7.47D-01
                    CP:  1.18D+00  9.58D-01
 E= -248.244932805012     Delta-E=       -0.000000168733 Rises=F Damp=F
 DIIS: error= 3.75D-06 at cycle   8 NSaved=   8.
 NSaved= 8 IEnMin= 8 EnMin= -248.244932805012     IErMin= 8 ErrMin= 3.75D-06
 ErrMax= 3.75D-06  0.00D+00 EMaxC= 1.00D-01 BMatC= 3.46D-09 BMatP= 1.85D-07
 IDIUse=1 WtCom= 1.00D+00 WtEn= 0.00D+00
 Coeff-Com:  0.385D-03-0.827D-03-0.276D-02-0.949D-02-0.142D-01 0.377D-01
 Coeff-Com:  0.134D+00 0.855D+00
 Coeff:      0.385D-03-0.827D-03-0.276D-02-0.949D-02-0.142D-01 0.377D-01
 Coeff:      0.134D+00 0.855D+00
 Gap=     0.317 Goal=   None    Shift=    0.000
 RMSDP=2.96D-07 MaxDP=1.65D-05 DE=-1.69D-07 OVMax= 2.38D-05

 Cycle   9  Pass 1  IDiag  1:
 RMSU=  1.88D-07    CP:  9.51D-01  1.01D+00  1.03D+00  8.29D-01  7.46D-01
                    CP:  1.19D+00  9.67D-01  1.12D+00
 E= -248.244932808447     Delta-E=       -0.000000003436 Rises=F Damp=F
 DIIS: error= 2.26D-06 at cycle   9 NSaved=   9.
 NSaved= 9 IEnMin= 9 EnMin= -248.244932808447     IErMin= 9 ErrMin= 2.26D-06
 ErrMax= 2.26D-06  0.00D+00 EMaxC= 1.00D-01 BMatC= 1.06D-09 BMatP= 3.46D-09
 IDIUse=1 WtCom= 1.00D+00 WtEn= 0.00D+00
 Coeff-Com: -0.721D-04 0.160D-03 0.479D-03 0.760D-03-0.751D-03-0.104D-01
 Coeff-Com: -0.710D-01 0.364D+00 0.717D+00
 Coeff:     -0.721D-04 0.160D-03 0.479D-03 0.760D-03-0.751D-03-0.104D-01
 Coeff:     -0.710D-01 0.364D+00 0.717D+00
 Gap=     0.317 Goal=   None    Shift=    0.000
 RMSDP=1.08D-07 MaxDP=5.36D-06 DE=-3.44D-09 OVMax= 1.86D-05

 Cycle  10  Pass 1  IDiag  1:
 RMSU=  7.61D-08    CP:  9.51D-01  1.01D+00  1.03D+00  8.28D-01  7.45D-01
                    CP:  1.19D+00  9.63D-01  1.17D+00  1.07D+00
 E= -248.244932809750     Delta-E=       -0.000000001303 Rises=F Damp=F
 DIIS: error= 5.40D-07 at cycle  10 NSaved=  10.
 NSaved=10 IEnMin=10 EnMin= -248.244932809750     IErMin=10 ErrMin= 5.40D-07
 ErrMax= 5.40D-07  0.00D+00 EMaxC= 1.00D-01 BMatC= 7.05D-11 BMatP= 1.06D-09
 IDIUse=1 WtCom= 1.00D+00 WtEn= 0.00D+00
 Coeff-Com: -0.152D-04 0.349D-04 0.153D-03 0.340D-03 0.639D-03-0.212D-04
 Coeff-Com: -0.966D-02-0.959D-01 0.597D-01 0.104D+01
 Coeff:     -0.152D-04 0.349D-04 0.153D-03 0.340D-03 0.639D-03-0.212D-04
 Coeff:     -0.966D-02-0.959D-01 0.597D-01 0.104D+01
 Gap=     0.317 Goal=   None    Shift=    0.000
 RMSDP=4.09D-08 MaxDP=2.03D-06 DE=-1.30D-09 OVMax= 5.62D-06

 Cycle  11  Pass 1  IDiag  1:
 RMSU=  2.61D-08    CP:  9.51D-01  1.01D+00  1.03D+00  8.28D-01  7.45D-01
                    CP:  1.19D+00  9.61D-01  1.19D+00  1.17D+00  1.12D+00
 E= -248.244932809832     Delta-E=       -0.000000000082 Rises=F Damp=F
 DIIS: error= 3.71D-07 at cycle  11 NSaved=  11.
 NSaved=11 IEnMin=11 EnMin= -248.244932809832     IErMin=11 ErrMin= 3.71D-07
 ErrMax= 3.71D-07  0.00D+00 EMaxC= 1.00D-01 BMatC= 1.23D-11 BMatP= 7.05D-11
 IDIUse=1 WtCom= 1.00D+00 WtEn= 0.00D+00
 Coeff-Com: -0.248D-05 0.639D-05 0.495D-04 0.127D-03 0.404D-03 0.971D-03
 Coeff-Com: -0.258D-03-0.845D-01-0.148D-01 0.572D+00 0.527D+00
 Coeff:     -0.248D-05 0.639D-05 0.495D-04 0.127D-03 0.404D-03 0.971D-03
 Coeff:     -0.258D-03-0.845D-01-0.148D-01 0.572D+00 0.527D+00
 Gap=     0.317 Goal=   None    Shift=    0.000
 RMSDP=9.12D-09 MaxDP=5.72D-07 DE=-8.17D-11 OVMax= 1.72D-06

 SCF Done:  E(RM062X) =  -248.244932810     A.U. after   11 cycles
            NFock= 11  Conv=0.91D-08     -V/T= 2.0048
 KE= 2.470598977585D+02 PE=-9.869262944246D+02 EE= 2.863945343869D+02
 Leave Link  502 at Thu Dec 15 15:45:21 2022, MaxMem=  1342177280 cpu:             834.3 elap:              34.9
 (Enter /data0/home/software/g16/l601.exe)
 Copying SCF densities to generalized density rwf, IOpCl= 0 IROHF=0.

 **********************************************************************

            Population analysis using the SCF density.

 **********************************************************************

 Alpha  occ. eigenvalues --  -14.75049 -10.58410 -10.58330 -10.56651 -10.55701
 Alpha  occ. eigenvalues --  -10.55697  -1.04984  -0.90686  -0.86236  -0.71808
 Alpha  occ. eigenvalues --   -0.71443  -0.60850  -0.55190  -0.54682  -0.50118
 Alpha  occ. eigenvalues --   -0.47394  -0.47249  -0.43068  -0.34789  -0.32533
 Alpha  occ. eigenvalues --   -0.32088
 Alpha virt. eigenvalues --   -0.00348   0.00687   0.00847   0.02124   0.02543
 Alpha virt. eigenvalues --    0.04102   0.04336   0.04505   0.06193   0.06908
 Alpha virt. eigenvalues --    0.07265   0.07543   0.09088   0.09489   0.10096
 Alpha virt. eigenvalues --    0.10985   0.11864   0.12376   0.13043   0.13453
 Alpha virt. eigenvalues --    0.14264   0.14757   0.15012   0.15320   0.16288
 Alpha virt. eigenvalues --    0.17330   0.17994   0.18766   0.19202   0.19749
 Alpha virt. eigenvalues --    0.20018   0.20438   0.20581   0.21294   0.21771
 Alpha virt. eigenvalues --    0.22114   0.22895   0.23009   0.24158   0.24303
 Alpha virt. eigenvalues --    0.24996   0.25237   0.25597   0.26508   0.28052
 Alpha virt. eigenvalues --    0.28708   0.29203   0.29464   0.29755   0.30101
 Alpha virt. eigenvalues --    0.30486   0.31423   0.32483   0.32742   0.33341
 Alpha virt. eigenvalues --    0.33959   0.34803   0.35191   0.35571   0.36818
 Alpha virt. eigenvalues --    0.36900   0.38095   0.38673   0.39281   0.40428
 Alpha virt. eigenvalues --    0.41383   0.42678   0.43276   0.44588   0.45578
 Alpha virt. eigenvalues --    0.46592   0.47432   0.49679   0.50567   0.50991
 Alpha virt. eigenvalues --    0.52307   0.52523   0.53931   0.54310   0.55199
 Alpha virt. eigenvalues --    0.55931   0.56207   0.57387   0.60638   0.62164
 Alpha virt. eigenvalues --    0.64560   0.65210   0.66581   0.67236   0.67482
 Alpha virt. eigenvalues --    0.67839   0.68725   0.69565   0.72232   0.73410
 Alpha virt. eigenvalues --    0.74003   0.74742   0.75686   0.76410   0.77406
 Alpha virt. eigenvalues --    0.78003   0.79144   0.80212   0.80615   0.80970
 Alpha virt. eigenvalues --    0.81809   0.82215   0.82558   0.83134   0.83806
 Alpha virt. eigenvalues --    0.84036   0.84793   0.85343   0.86023   0.86430
 Alpha virt. eigenvalues --    0.87952   0.89089   0.89604   0.90137   0.90998
 Alpha virt. eigenvalues --    0.91735   0.92521   0.93754   0.94026   0.95045
 Alpha virt. eigenvalues --    0.96305   0.96611   0.97238   0.98713   1.01107
 Alpha virt. eigenvalues --    1.02560   1.03949   1.05398   1.07864   1.08594
 Alpha virt. eigenvalues --    1.09056   1.11015   1.11547   1.13495   1.15327
 Alpha virt. eigenvalues --    1.16789   1.18367   1.20532   1.21083   1.21589
 Alpha virt. eigenvalues --    1.21869   1.23258   1.26825   1.28115   1.29980
 Alpha virt. eigenvalues --    1.31127   1.31937   1.33094   1.35324   1.36223
 Alpha virt. eigenvalues --    1.37494   1.38797   1.39236   1.39938   1.42080
 Alpha virt. eigenvalues --    1.45999   1.46754   1.49760   1.50465   1.51383
 Alpha virt. eigenvalues --    1.53710   1.54559   1.56152   1.58855   1.62732
 Alpha virt. eigenvalues --    1.63743   1.65730   1.68463   1.73935   1.83783
 Alpha virt. eigenvalues --    1.84015   1.87376   1.88005   1.90102   1.92294
 Alpha virt. eigenvalues --    1.93179   1.94866   1.95658   1.98313   2.01209
 Alpha virt. eigenvalues --    2.02121   2.02335   2.06667   2.09720   2.12864
 Alpha virt. eigenvalues --    2.14986   2.17230   2.17601   2.18457   2.20385
 Alpha virt. eigenvalues --    2.23021   2.25500   2.27763   2.28995   2.32309
 Alpha virt. eigenvalues --    2.33355   2.35778   2.38567   2.40513   2.41288
 Alpha virt. eigenvalues --    2.42187   2.44858   2.46209   2.46967   2.51194
 Alpha virt. eigenvalues --    2.52148   2.54586   2.56054   2.56578   2.59369
 Alpha virt. eigenvalues --    2.60375   2.62111   2.63169   2.64322   2.65158
 Alpha virt. eigenvalues --    2.66718   2.67268   2.68519   2.68812   2.70339
 Alpha virt. eigenvalues --    2.72297   2.72721   2.74355   2.75514   2.75807
 Alpha virt. eigenvalues --    2.76424   2.76799   2.76959   2.78196   2.79535
 Alpha virt. eigenvalues --    2.81049   2.81551   2.83679   2.85806   2.86179
 Alpha virt. eigenvalues --    2.87611   2.88209   2.88426   2.89216   2.89482
 Alpha virt. eigenvalues --    2.90709   2.92232   2.93456   2.95524   2.99990
 Alpha virt. eigenvalues --    3.00536   3.01739   3.03057   3.04412   3.06394
 Alpha virt. eigenvalues --    3.07845   3.08583   3.08938   3.11037   3.12042
 Alpha virt. eigenvalues --    3.12678   3.12950   3.14630   3.14945   3.16717
 Alpha virt. eigenvalues --    3.20127   3.22039   3.23834   3.23985   3.26192
 Alpha virt. eigenvalues --    3.28263   3.28883   3.29157   3.29488   3.29559
 Alpha virt. eigenvalues --    3.30375   3.31690   3.33770   3.35071   3.37544
 Alpha virt. eigenvalues --    3.42293   3.42713   3.46099   3.47984   3.51691
 Alpha virt. eigenvalues --    3.55768   3.56790   3.56890   3.57921   3.59406
 Alpha virt. eigenvalues --    3.59548   3.65561   3.68322   3.69005   3.71572
 Alpha virt. eigenvalues --    3.72327   3.74640   3.76936   3.77268   3.81011
 Alpha virt. eigenvalues --    3.83344   3.85775   3.86497   3.86657   3.89882
 Alpha virt. eigenvalues --    3.94051   3.96502   3.97457   3.97583   4.01354
 Alpha virt. eigenvalues --    4.05211   4.46031   4.46366   4.49365   4.50822
 Alpha virt. eigenvalues --    4.51347   4.56965   4.63177   4.68678   4.75680
 Alpha virt. eigenvalues --    4.81992   4.83251   4.86725   4.94506   4.97149
 Alpha virt. eigenvalues --    4.99378   5.01644   5.02303   5.05387   5.24738
 Alpha virt. eigenvalues --    5.29889   5.34601   5.37396   5.61821   5.72008
 Alpha virt. eigenvalues --    9.69558   9.78683   9.81656   9.91715  10.01708
 Alpha virt. eigenvalues --   10.02888  10.09517  10.12948  10.20923  10.22448
 Alpha virt. eigenvalues --   10.24959  10.26493  10.27322  10.29338  10.30720
 Alpha virt. eigenvalues --   10.31366  10.32855  10.33626  10.36468  10.39335
 Alpha virt. eigenvalues --   10.40114  10.41813  10.42566  10.44018  10.45818
 Alpha virt. eigenvalues --   10.50685  10.58420  10.59050  10.63872  10.66769
 Alpha virt. eigenvalues --   10.68190  10.76419  10.85546  12.67330  12.80544
 Alpha virt. eigenvalues --   13.15232  13.22267  13.31113  13.34456  13.41098
 Alpha virt. eigenvalues --   13.45625  13.48206  13.51414  13.53820  13.62838
 Alpha virt. eigenvalues --   13.82845  13.86257  13.87660  13.98126  14.10526
 Alpha virt. eigenvalues --   14.34821  14.36234  17.48243  18.14233  18.37150
 Alpha virt. eigenvalues --   18.46416  18.51555  18.56003  23.84280  24.05637
 Alpha virt. eigenvalues --   24.06768  24.10544  24.14021  35.75692  52.12012
 Alpha virt. eigenvalues --   52.15318  52.26446  69.72120 129.48693 137.04632
 Alpha virt. eigenvalues --  139.23754 139.68219 139.76505 139.77948 470.68399
          Condensed to atoms (all electrons):
               1          2          3          4          5          6
     1  C    5.226107   0.088116   0.220913  -0.136249   0.108401   0.248690
     2  C    0.088116   5.347489   0.303114   0.084084  -0.265711   0.134771
     3  C    0.220913   0.303114   4.865084   0.451888   0.148566  -0.128873
     4  C   -0.136249   0.084084   0.451888   4.878957   0.338350   0.098327
     5  C    0.108401  -0.265711   0.148566   0.338350   5.161481   0.203761
     6  N    0.248690   0.134771  -0.128873   0.098327   0.203761   6.815285
     7  H    0.000030  -0.007441   0.367568  -0.013947  -0.002046   0.000399
     8  H    0.444731  -0.076814   0.024144  -0.014168   0.016596  -0.073934
     9  H   -0.022285   0.365658  -0.011964   0.004556   0.000222   0.005602
    10  H   -0.005006   0.009235  -0.017405   0.368599  -0.019389   0.006512
    11  H    0.012295  -0.011227   0.022517  -0.081370   0.461385  -0.072096
    12  P    0.003132  -0.005812   0.000462  -0.000753   0.000392  -0.009343
    13  O   -0.001516   0.001313  -0.000226   0.000430  -0.000584   0.004378
    14  O    0.001337  -0.001442   0.000279  -0.000613   0.000474  -0.003807
    15  H   -0.000064  -0.000031   0.000003   0.000002   0.000017   0.000128
    16  O   -0.004267   0.005046  -0.001376   0.004254  -0.003457   0.045426
    17  H    0.009441  -0.006887   0.002090  -0.008682   0.011661  -0.097424
    18  O    0.000075   0.000274  -0.000044   0.000121  -0.000097   0.000791
    19  H   -0.000031  -0.000018   0.000000  -0.000002  -0.000004   0.000025
    20  O    0.000008   0.000007   0.000001  -0.000005   0.000011   0.000011
    21  H    0.000004   0.000011  -0.000001   0.000003  -0.000002  -0.000004
    22  H   -0.000017  -0.000007  -0.000000   0.000002  -0.000005   0.000021
    23  O    0.000024   0.000059  -0.000004   0.000004  -0.000017   0.000052
    24  H   -0.000128  -0.000128   0.000004  -0.000007   0.000034  -0.000021
    25  H   -0.000002  -0.000020   0.000001  -0.000001   0.000001  -0.000001
               7          8          9         10         11         12
     1  C    0.000030   0.444731  -0.022285  -0.005006   0.012295   0.003132
     2  C   -0.007441  -0.076814   0.365658   0.009235  -0.011227  -0.005812
     3  C    0.367568   0.024144  -0.011964  -0.017405   0.022517   0.000462
     4  C   -0.013947  -0.014168   0.004556   0.368599  -0.081370  -0.000753
     5  C   -0.002046   0.016596   0.000222  -0.019389   0.461385   0.000392
     6  N    0.000399  -0.073934   0.005602   0.006512  -0.072096  -0.009343
     7  H    0.532465  -0.000284  -0.004820  -0.004724  -0.000293   0.000014
     8  H   -0.000284   0.537928  -0.001510   0.000108  -0.000034   0.001812
     9  H   -0.004820  -0.001510   0.531830  -0.000202   0.000099   0.000082
    10  H   -0.004724   0.000108  -0.000202   0.531983  -0.002041   0.000015
    11  H   -0.000293  -0.000034   0.000099  -0.002041   0.539266   0.000029
    12  P    0.000014   0.001812   0.000082   0.000015   0.000029   0.008564
    13  O   -0.000000  -0.002025  -0.000011  -0.000001   0.000005  -0.002841
    14  O   -0.000000   0.000343   0.000004   0.000000   0.000032  -0.000306
    15  H   -0.000000   0.000000  -0.000000  -0.000000  -0.000002   0.000008
    16  O   -0.000004  -0.000677  -0.000012  -0.000005   0.000321  -0.003065
    17  H    0.000008   0.002047   0.000062   0.000055   0.000928   0.002598
    18  O   -0.000000  -0.000009  -0.000000   0.000000  -0.000005  -0.003089
    19  H    0.000000   0.000001  -0.000000  -0.000000  -0.000001   0.000376
    20  O   -0.000000  -0.000006  -0.000000   0.000000   0.000000  -0.000244
    21  H    0.000000   0.000001   0.000000   0.000000  -0.000000   0.000017
    22  H    0.000000  -0.000000  -0.000000  -0.000000  -0.000000   0.000022
    23  O   -0.000000  -0.000059  -0.000001  -0.000000  -0.000000  -0.000314
    24  H    0.000000   0.000031   0.000001   0.000000   0.000000   0.000308
    25  H   -0.000000   0.000005   0.000000   0.000000   0.000000   0.000070
              13         14         15         16         17         18
     1  C   -0.001516   0.001337  -0.000064  -0.004267   0.009441   0.000075
     2  C    0.001313  -0.001442  -0.000031   0.005046  -0.006887   0.000274
     3  C   -0.000226   0.000279   0.000003  -0.001376   0.002090  -0.000044
     4  C    0.000430  -0.000613   0.000002   0.004254  -0.008682   0.000121
     5  C   -0.000584   0.000474   0.000017  -0.003457   0.011661  -0.000097
     6  N    0.004378  -0.003807   0.000128   0.045426  -0.097424   0.000791
     7  H   -0.000000  -0.000000  -0.000000  -0.000004   0.000008  -0.000000
     8  H   -0.002025   0.000343   0.000000  -0.000677   0.002047  -0.000009
     9  H   -0.000011   0.000004  -0.000000  -0.000012   0.000062  -0.000000
    10  H   -0.000001   0.000000  -0.000000  -0.000005   0.000055   0.000000
    11  H    0.000005   0.000032  -0.000002   0.000321   0.000928  -0.000005
    12  P   -0.002841  -0.000306   0.000008  -0.003065   0.002598  -0.003089
    13  O    0.002771  -0.000598  -0.000024   0.001158  -0.001384   0.000358
    14  O   -0.000598   0.003345  -0.000246  -0.002297   0.002058  -0.001268
    15  H   -0.000024  -0.000246   0.000161   0.000147  -0.000070  -0.000023
    16  O    0.001158  -0.002297   0.000147   0.011745  -0.013687   0.001470
    17  H   -0.001384   0.002058  -0.000070  -0.013687   0.019569  -0.001063
    18  O    0.000358  -0.001268  -0.000023   0.001470  -0.001063   0.003792
    19  H   -0.000120   0.000049   0.000008  -0.000035   0.000056  -0.000461
    20  O    0.000018  -0.000015   0.000000   0.000061  -0.000021   0.000179
    21  H    0.000018  -0.000001  -0.000000  -0.000007  -0.000000  -0.000024
    22  H   -0.000005   0.000000  -0.000000   0.000001  -0.000005  -0.000008
    23  O    0.000201  -0.000046   0.000001   0.000073  -0.000034   0.000129
    24  H   -0.000229   0.000055  -0.000001  -0.000098   0.000044  -0.000172
    25  H   -0.000040   0.000007  -0.000000  -0.000005   0.000002  -0.000016
              19         20         21         22         23         24
     1  C   -0.000031   0.000008   0.000004  -0.000017   0.000024  -0.000128
     2  C   -0.000018   0.000007   0.000011  -0.000007   0.000059  -0.000128
     3  C    0.000000   0.000001  -0.000001  -0.000000  -0.000004   0.000004
     4  C   -0.000002  -0.000005   0.000003   0.000002   0.000004  -0.000007
     5  C   -0.000004   0.000011  -0.000002  -0.000005  -0.000017   0.000034
     6  N    0.000025   0.000011  -0.000004   0.000021   0.000052  -0.000021
     7  H    0.000000  -0.000000   0.000000   0.000000  -0.000000   0.000000
     8  H    0.000001  -0.000006   0.000001  -0.000000  -0.000059   0.000031
     9  H   -0.000000  -0.000000   0.000000  -0.000000  -0.000001   0.000001
    10  H   -0.000000   0.000000   0.000000  -0.000000  -0.000000   0.000000
    11  H   -0.000001   0.000000  -0.000000  -0.000000  -0.000000   0.000000
    12  P    0.000376  -0.000244   0.000017   0.000022  -0.000314   0.000308
    13  O   -0.000120   0.000018   0.000018  -0.000005   0.000201  -0.000229
    14  O    0.000049  -0.000015  -0.000001   0.000000  -0.000046   0.000055
    15  H    0.000008   0.000000  -0.000000  -0.000000   0.000001  -0.000001
    16  O   -0.000035   0.000061  -0.000007   0.000001   0.000073  -0.000098
    17  H    0.000056  -0.000021  -0.000000  -0.000005  -0.000034   0.000044
    18  O   -0.000461   0.000179  -0.000024  -0.000008   0.000129  -0.000172
    19  H    0.000190  -0.000060   0.000007   0.000008  -0.000013   0.000011
    20  O   -0.000060   0.000171  -0.000089  -0.000033   0.000075  -0.000062
    21  H    0.000007  -0.000089   0.000081   0.000006  -0.000061   0.000047
    22  H    0.000008  -0.000033   0.000006   0.000022  -0.000006   0.000006
    23  O   -0.000013   0.000075  -0.000061  -0.000006   0.000614  -0.000517
    24  H    0.000011  -0.000062   0.000047   0.000006  -0.000517   0.000594
    25  H    0.000003  -0.000004   0.000000   0.000002  -0.000163   0.000090
              25
     1  C   -0.000002
     2  C   -0.000020
     3  C    0.000001
     4  C   -0.000001
     5  C    0.000001
     6  N   -0.000001
     7  H   -0.000000
     8  H    0.000005
     9  H    0.000000
    10  H    0.000000
    11  H    0.000000
    12  P    0.000070
    13  O   -0.000040
    14  O    0.000007
    15  H   -0.000000
    16  O   -0.000005
    17  H    0.000002
    18  O   -0.000016
    19  H    0.000003
    20  O   -0.000004
    21  H    0.000000
    22  H    0.000002
    23  O   -0.000163
    24  H    0.000090
    25  H    0.000075
 Mulliken charges:
               1
     1  C   -0.193740
     2  C    0.036362
     3  C   -0.246741
     4  C    0.026220
     5  C   -0.160037
     6  N   -0.178673
     7  H    0.133076
     8  H    0.141771
     9  H    0.132689
    10  H    0.132265
    11  H    0.130192
    12  P    0.007862
    13  O   -0.001046
    14  O    0.002655
    15  H   -0.000016
    16  O   -0.040709
    17  H    0.078640
    18  O   -0.000911
    19  H    0.000012
    20  O   -0.000004
    21  H   -0.000004
    22  H   -0.000002
    23  O    0.000004
    24  H    0.000138
    25  H   -0.000002
 Sum of Mulliken charges =  -0.00000
 Mulliken charges with hydrogens summed into heavy atoms:
               1
     1  C   -0.051969
     2  C    0.169050
     3  C   -0.113665
     4  C    0.158486
     5  C   -0.029845
     6  N   -0.178673
    12  P    0.007862
    13  O   -0.001046
    14  O    0.002639
    16  O    0.037930
    18  O   -0.000900
    20  O   -0.000011
    23  O    0.000140
         Mulliken charges condensed to fragments:
      1     -0.046615
      2      0.046486
      3     -0.000011
      4      0.000140
 Electronic spatial extent (au):  <R**2>=          33191.8465
 Charge=             -0.0000 electrons
 Dipole moment (field-independent basis, Debye):
    X=             -2.1656    Y=             -0.4971    Z=              0.3233  Tot=              2.2453
 Quadrupole moment (field-independent basis, Debye-Ang):
   XX=            -54.7004   YY=            -42.7037   ZZ=            -35.4933
   XY=            -32.6783   XZ=             -8.8244   YZ=              1.4861
 Traceless Quadrupole moment (field-independent basis, Debye-Ang):
   XX=            -10.4012   YY=              1.5954   ZZ=              8.8058
   XY=            -32.6783   XZ=             -8.8244   YZ=              1.4861
[...]
    21  H    0.319178   0.424966  -0.024466
    22  H    0.322645  -0.024466   0.424614
 Mulliken charges:
               1
     1  C    0.000000
     2  C    0.000000
     3  C    0.000000
     4  C    0.000000
     5  C    0.000000
     6  N    0.000000
     7  H    0.000000
     8  H    0.000000
     9  H    0.000000
    10  H    0.000000
    11  H    0.000000
    12  P    0.000000
    13  O    0.000000
    14  O    0.000000
    15  H    0.000000
    16  O    0.000000
    17  H    0.000000
    18  O    0.000000
    19  H    0.000000
    20  O   -0.557529
    21  H    0.280322
    22  H    0.277207
    23  O    0.000000
    24  H    0.000000
    25  H    0.000000
 Sum of Mulliken charges =  -0.00000
 Mulliken charges with hydrogens summed into heavy atoms:
               1
     1  C    0.000000
     2  C    0.000000
     3  C    0.000000
     4  C    0.000000
     5  C    0.000000
     6  N    0.000000
    12  P    0.000000
    13  O    0.000000
    14  O    0.000000
    16  O    0.000000
    18  O    0.000000
    20  O   -0.000000
    23  O    0.000000
         Mulliken charges condensed to fragments:
      1      0.000000
      2      0.000000
      3     -0.000000
      4      0.000000
 Electronic spatial extent (au):  <R**2>=          13355.9159
 Charge=             -0.0000 electrons
 Dipole moment (field-independent basis, Debye):
    X=             -2.0536    Y=             -0.0316    Z=             -0.4912  Tot=              2.1117
 Quadrupole moment (field-independent basis, Debye-Ang):
   XX=            -45.5731   YY=             -5.7922   ZZ=             -8.3980
   XY=            -35.0053   XZ=             -6.6982   YZ=             -7.2627
 Traceless Quadrupole moment (field-independent basis, Debye-Ang):
   XX=            -25.6520   YY=             14.1289   ZZ=             11.5231
   XY=            -35.0053   XZ=             -6.6982   YZ=             -7.2627
 Octapole moment (field-independent basis, Debye-Ang**2):
  XXX=           -744.9089  YYY=           -264.5147  ZZZ=            -25.8167  XYY=           -642.9217
  XXY=           -771.8861  XXZ=            -90.0805  XZZ=            -82.4975  YZZ=           -138.7007
  YYZ=           -110.9056  XYZ=           -103.5960
 Hexadecapole moment (field-independent basis, Debye-Ang**3):
 XXXX=         -10679.2725 YYYY=          -8572.8862 ZZZZ=            -62.5352 XXXY=         -12583.0563
 XXXZ=          -1177.2093 YYYX=         -12494.4843 YYYZ=          -1768.1237 ZZZX=           -249.5710
 ZZZY=           -429.5243 XXYY=         -13528.5569 XXZZ=           -819.8579 YYZZ=          -2298.8684
 XXYZ=          -1432.2673 YYXZ=          -1644.1465 ZZXY=          -1363.9348
 N-N= 9.104375825765D+00 E-N=-1.990606916769D+02  KE= 7.619580536726D+01
 No NMR shielding tensors so no spin-rotation constants.
 Leave Link  601 at Thu Dec 15 15:47:09 2022, MaxMem=  1342177280 cpu:               1.7 elap:               0.1
 (Enter /data0/home/software/g16/l122.exe)
 CPIOFr:  IOpCl= 0 IRwI=-1 IRwCP=  731 ICalc=  7 LCPTot=      286257 Len1MO=      751965 IndFrg=     6301977
 Counterpoise: doing calculation for fragment   4 using the basis set of the fragment.
 Leave Link  122 at Thu Dec 15 15:47:09 2022, MaxMem=  1342177280 cpu:               0.2 elap:               0.0
 (Enter /data0/home/software/g16/l301.exe)
 Basis read from rwf:  (5D, 7F)
 No pseudopotential information found on rwf file.
    39 basis functions,    58 primitive gaussians,    41 cartesian basis functions
     5 alpha electrons        5 beta electrons
       nuclear repulsion energy         9.1182791136 Hartrees.
 IExCor= 4336 DFT=T Ex+Corr=M062X ExCW=0 ScaHFX=  0.540000
 ScaDFX=  1.000000  1.000000  1.000000  1.000000 ScalE2=  1.000000  1.000000
 IRadAn=      5 IRanWt=     -1 IRanGd=            0 ICorTp=0 IEmpDi=131
 NAtoms=   25 NActive=    3 NUniq=    3 SFac= 1.00D+00 NAtFMM=   60 NAOKFM=F Big=F
 Integral buffers will be    131072 words long.
 Raffenetti 2 integral format.
 Two-electron integral symmetry is turned off.
 R6Disp:  Grimme-D3 Dispersion energy=       -0.0000000075 Hartrees.
 Nuclear repulsion after empirical dispersion term =        9.1182791061 Hartrees.
 No density basis found on file   718.
 Leave Link  301 at Thu Dec 15 15:47:09 2022, MaxMem=  1342177280 cpu:               1.3 elap:               0.1
 (Enter /data0/home/software/g16/l302.exe)
 NPDir=0 NMtPBC=     1 NCelOv=     1 NCel=       1 NClECP=     1 NCelD=      1
         NCelK=      1 NCelE2=     1 NClLst=     1 CellRange=     0.0.
 One-electron integrals computed using PRISM.
 NBasis=    39 RedAO= T EigKep=  3.01D-03  NBF=    39
 NBsUse=    39 1.00D-06 EigRej= -1.00D+00 NBFU=    39
 Precomputing XC quadrature grid using
 IXCGrd= 4 IRadAn=           5 IRanWt=          -1 IRanGd=           0 AccXCQ= 0.00D+00.
 Generated NRdTot=       0 NPtTot=           0 NUsed=           0 NTot=          32
 NSgBfM=    41    41    41    41    41 MxSgAt=     3 MxSgA2=     3.
 Leave Link  302 at Thu Dec 15 15:47:09 2022, MaxMem=  1342177280 cpu:               2.3 elap:               0.1
 (Enter /data0/home/software/g16/l303.exe)
 DipDrv:  MaxL=1.
 Leave Link  303 at Thu Dec 15 15:47:09 2022, MaxMem=  1342177280 cpu:               0.4 elap:               0.0
 (Enter /data0/home/software/g16/l401.exe)
 ExpMin= 8.45D-02 ExpMax= 8.59D+03 ExpMxC= 1.30D+03 IAcc=3 IRadAn=         5 AccDes= 0.00D+00
 Harris functional with IExCor= 1009 and IRadAn=       5 diagonalized for initial guess.
 HarFok:  IExCor= 1009 AccDes= 0.00D+00 IRadAn=         5 IDoV= 1 UseB2=F ITyADJ=14
 ICtDFT=  3500011 ScaDFX=  1.000000  1.000000  1.000000  1.000000
 FoFCou: FMM=F IPFlag=           0 FMFlag=      100000 FMFlg1=           0
         NFxFlg=           0 DoJE=T BraDBF=F KetDBF=T FulRan=T
         wScrn=  0.000000 ICntrl=       500 IOpCl=  0 I1Cent=   200000004 NGrid=           0
         NMat0=    1 NMatS0=      1 NMatT0=    0 NMatD0=    1 NMtDS0=    0 NMtDT0=    0
 Symmetry not used in FoFCou.
 Harris En= -76.4166722271278    
 JPrj=0 DoOrth=F DoCkMO=F.
 Leave Link  401 at Thu Dec 15 15:47:09 2022, MaxMem=  1342177280 cpu:               2.8 elap:               0.1
 (Enter /data0/home/software/g16/l502.exe)
 Keep R1 ints in memory in canonical form, NReq=21040554.
 FoFCou: FMM=F IPFlag=           0 FMFlag=           0 FMFlg1=           0
         NFxFlg=           0 DoJE=F BraDBF=F KetDBF=F FulRan=T
         wScrn=  0.000000 ICntrl=       600 IOpCl=  0 I1Cent=           0 NGrid=           0
         NMat0=    1 NMatS0=    780 NMatT0=    0 NMatD0=    1 NMtDS0=    0 NMtDT0=    0
 Symmetry not used in FoFCou.
 Two-electron integral symmetry not used.
 Closed shell SCF:
 Using DIIS extrapolation, IDIIS=  1040.
 NGot=  1342177280 LenX=  1341867192 LenY=  1341865070
 Requested convergence on RMS density matrix=1.00D-08 within 128 cycles.
 Requested convergence on MAX density matrix=1.00D-06.
 Requested convergence on             energy=1.00D-06.
 No special actions if energy rises.
 Integral accuracy reduced to 1.0D-05 until final iterations.

 Cycle   1  Pass 0  IDiag  1:
 E= -76.3462908523770    
 DIIS: error= 7.03D-02 at cycle   1 NSaved=   1.
 NSaved= 1 IEnMin= 1 EnMin= -76.3462908523770     IErMin= 1 ErrMin= 7.03D-02
 ErrMax= 7.03D-02  0.00D+00 EMaxC= 1.00D-01 BMatC= 1.21D-01 BMatP= 1.21D-01
 IDIUse=3 WtCom= 2.97D-01 WtEn= 7.03D-01
 Coeff-Com:  0.100D+01
 Coeff-En:   0.100D+01
 Coeff:      0.100D+01
 Gap=     0.325 Goal=   None    Shift=    0.000
 GapD=    0.325 DampG=1.000 DampE=0.500 DampFc=0.5000 IDamp=-1.
 Damping current iteration by 5.00D-01
 RMSDP=7.92D-03 MaxDP=1.01D-01              OVMax= 1.68D-01

 Cycle   2  Pass 0  IDiag  1:
 E= -76.3778266551903     Delta-E=       -0.031535802813 Rises=F Damp=T
 DIIS: error= 1.15D-02 at cycle   2 NSaved=   2.
 NSaved= 2 IEnMin= 2 EnMin= -76.3778266551903     IErMin= 2 ErrMin= 1.15D-02
 ErrMax= 1.15D-02  0.00D+00 EMaxC= 1.00D-01 BMatC= 4.81D-03 BMatP= 1.21D-01
 IDIUse=3 WtCom= 8.85D-01 WtEn= 1.15D-01
 Coeff-Com:  0.815D-01 0.918D+00
 Coeff-En:   0.186D+00 0.814D+00
 Coeff:      0.935D-01 0.906D+00
 Gap=     0.458 Goal=   None    Shift=    0.000
 RMSDP=9.39D-04 MaxDP=1.39D-02 DE=-3.15D-02 OVMax= 1.00D-01

 Cycle   3  Pass 0  IDiag  1:
 E= -76.4217672871459     Delta-E=       -0.043940631956 Rises=F Damp=F
 DIIS: error= 2.16D-03 at cycle   3 NSaved=   3.
 NSaved= 3 IEnMin= 3 EnMin= -76.4217672871459     IErMin= 3 ErrMin= 2.16D-03
 ErrMax= 2.16D-03  0.00D+00 EMaxC= 1.00D-01 BMatC= 9.04D-05 BMatP= 4.81D-03
 IDIUse=3 WtCom= 9.78D-01 WtEn= 2.16D-02
 Coeff-Com: -0.199D-01 0.392D-01 0.981D+00
 Coeff-En:   0.000D+00 0.000D+00 0.100D+01
 Coeff:     -0.195D-01 0.384D-01 0.981D+00
 Gap=     0.462 Goal=   None    Shift=    0.000
 RMSDP=1.14D-04 MaxDP=9.82D-04 DE=-4.39D-02 OVMax= 3.30D-03

 Cycle   4  Pass 0  IDiag  1:
 E= -76.4218442993212     Delta-E=       -0.000077012175 Rises=F Damp=F
 DIIS: error= 4.10D-04 at cycle   4 NSaved=   4.
 NSaved= 4 IEnMin= 4 EnMin= -76.4218442993212     IErMin= 4 ErrMin= 4.10D-04
 ErrMax= 4.10D-04  0.00D+00 EMaxC= 1.00D-01 BMatC= 3.25D-06 BMatP= 9.04D-05
 IDIUse=3 WtCom= 9.96D-01 WtEn= 4.10D-03
 Coeff-Com: -0.187D-02-0.222D-02 0.162D+00 0.842D+00
 Coeff-En:   0.000D+00 0.000D+00 0.000D+00 0.100D+01
 Coeff:     -0.186D-02-0.221D-02 0.161D+00 0.843D+00
 Gap=     0.463 Goal=   None    Shift=    0.000
 RMSDP=2.20D-05 MaxDP=3.53D-04 DE=-7.70D-05 OVMax= 5.31D-04

 Cycle   5  Pass 0  IDiag  1:
 E= -76.4218463026536     Delta-E=       -0.000002003332 Rises=F Damp=F
 DIIS: error= 8.79D-05 at cycle   5 NSaved=   5.
 NSaved= 5 IEnMin= 5 EnMin= -76.4218463026536     IErMin= 5 ErrMin= 8.79D-05
 ErrMax= 8.79D-05  0.00D+00 EMaxC= 1.00D-01 BMatC= 8.15D-08 BMatP= 3.25D-06
 IDIUse=1 WtCom= 1.00D+00 WtEn= 0.00D+00
 Coeff-Com:  0.117D-02-0.178D-02-0.364D-01-0.638D-01 0.110D+01
 Coeff:      0.117D-02-0.178D-02-0.364D-01-0.638D-01 0.110D+01
 Gap=     0.463 Goal=   None    Shift=    0.000
 RMSDP=8.88D-06 MaxDP=1.02D-04 DE=-2.00D-06 OVMax= 1.99D-04

 Initial convergence to 1.0D-05 achieved.  Increase integral accuracy.
 Cycle   6  Pass 1  IDiag  1:
 E= -76.4218415686487     Delta-E=        0.000004734005 Rises=F Damp=F
 DIIS: error= 1.89D-05 at cycle   1 NSaved=   1.
 NSaved= 1 IEnMin= 1 EnMin= -76.4218415686487     IErMin= 1 ErrMin= 1.89D-05
 ErrMax= 1.89D-05  0.00D+00 EMaxC= 1.00D-01 BMatC= 1.75D-08 BMatP= 1.75D-08
 IDIUse=1 WtCom= 1.00D+00 WtEn= 0.00D+00
 Coeff-Com:  0.100D+01
 Coeff:      0.100D+01
 Gap=     0.463 Goal=   None    Shift=    0.000
 RMSDP=8.88D-06 MaxDP=1.02D-04 DE= 4.73D-06 OVMax= 4.58D-05

 Cycle   7  Pass 1  IDiag  1:
 E= -76.4218415839259     Delta-E=       -0.000000015277 Rises=F Damp=F
 DIIS: error= 1.21D-05 at cycle   2 NSaved=   2.
 NSaved= 2 IEnMin= 2 EnMin= -76.4218415839259     IErMin= 2 ErrMin= 1.21D-05
 ErrMax= 1.21D-05  0.00D+00 EMaxC= 1.00D-01 BMatC= 2.05D-09 BMatP= 1.75D-08
 IDIUse=1 WtCom= 1.00D+00 WtEn= 0.00D+00
 Coeff-Com:  0.106D+00 0.894D+00
 Coeff:      0.106D+00 0.894D+00
 Gap=     0.463 Goal=   None    Shift=    0.000
 RMSDP=9.90D-07 MaxDP=1.39D-05 DE=-1.53D-08 OVMax= 2.55D-05

 Cycle   8  Pass 1  IDiag  1:
 E= -76.4218415844585     Delta-E=       -0.000000000533 Rises=F Damp=F
 DIIS: error= 7.98D-06 at cycle   3 NSaved=   3.
 NSaved= 3 IEnMin= 3 EnMin= -76.4218415844585     IErMin= 3 ErrMin= 7.98D-06
 ErrMax= 7.98D-06  0.00D+00 EMaxC= 1.00D-01 BMatC= 1.69D-09 BMatP= 2.05D-09
 IDIUse=1 WtCom= 1.00D+00 WtEn= 0.00D+00
 Coeff-Com: -0.534D-01 0.487D+00 0.567D+00
 Coeff:     -0.534D-01 0.487D+00 0.567D+00
 Gap=     0.463 Goal=   None    Shift=    0.000
 RMSDP=4.78D-07 MaxDP=6.35D-06 DE=-5.33D-10 OVMax= 1.05D-05

 Cycle   9  Pass 1  IDiag  1:
 E= -76.4218415855737     Delta-E=       -0.000000001115 Rises=F Damp=F
 DIIS: error= 5.93D-07 at cycle   4 NSaved=   4.
 NSaved= 4 IEnMin= 4 EnMin= -76.4218415855737     IErMin= 4 ErrMin= 5.93D-07
 ErrMax= 5.93D-07  0.00D+00 EMaxC= 1.00D-01 BMatC= 4.75D-12 BMatP= 1.69D-09
 IDIUse=1 WtCom= 1.00D+00 WtEn= 0.00D+00
 Coeff-Com:  0.149D-02-0.609D-01-0.486D-01 0.111D+01
 Coeff:      0.149D-02-0.609D-01-0.486D-01 0.111D+01
 Gap=     0.463 Goal=   None    Shift=    0.000
 RMSDP=1.09D-07 MaxDP=6.97D-07 DE=-1.12D-09 OVMax= 2.01D-06

 Cycle  10  Pass 1  IDiag  1:
 E= -76.4218415855835     Delta-E=       -0.000000000010 Rises=F Damp=F
 DIIS: error= 7.85D-08 at cycle   5 NSaved=   5.
 NSaved= 5 IEnMin= 5 EnMin= -76.4218415855835     IErMin= 5 ErrMin= 7.85D-08
 ErrMax= 7.85D-08  0.00D+00 EMaxC= 1.00D-01 BMatC= 2.83D-13 BMatP= 4.75D-12
 IDIUse=1 WtCom= 1.00D+00 WtEn= 0.00D+00
 Coeff-Com:  0.283D-02-0.333D-01-0.346D-01 0.160D+00 0.905D+00
 Coeff:      0.283D-02-0.333D-01-0.346D-01 0.160D+00 0.905D+00
 Gap=     0.463 Goal=   None    Shift=    0.000
 RMSDP=2.74D-08 MaxDP=2.10D-07 DE=-9.73D-12 OVMax= 4.61D-07

 Cycle  11  Pass 1  IDiag  1:
 E= -76.4218415855840     Delta-E=       -0.000000000001 Rises=F Damp=F
 DIIS: error= 1.60D-08 at cycle   6 NSaved=   6.
 NSaved= 6 IEnMin= 6 EnMin= -76.4218415855840     IErMin= 6 ErrMin= 1.60D-08
 ErrMax= 1.60D-08  0.00D+00 EMaxC= 1.00D-01 BMatC= 7.41D-15 BMatP= 2.83D-13
 IDIUse=1 WtCom= 1.00D+00 WtEn= 0.00D+00
 Coeff-Com:  0.921D-04 0.429D-03 0.246D-03-0.345D-01-0.999D-02 0.104D+01
 Coeff:      0.921D-04 0.429D-03 0.246D-03-0.345D-01-0.999D-02 0.104D+01
 Gap=     0.463 Goal=   None    Shift=    0.000
 RMSDP=6.10D-09 MaxDP=4.91D-08 DE=-5.83D-13 OVMax= 1.22D-07

 SCF Done:  E(RM062X) =  -76.4218415856     A.U. after   11 cycles
            NFock= 11  Conv=0.61D-08     -V/T= 2.0029
 KE= 7.620156696230D+01 PE=-1.990897891686D+02 EE= 3.734810151462D+01
 Leave Link  502 at Thu Dec 15 15:47:09 2022, MaxMem=  1342177280 cpu:               8.5 elap:               0.4
 (Enter /data0/home/software/g16/l601.exe)
 Copying SCF densities to generalized density rwf, IOpCl= 0 IROHF=0.

 **********************************************************************

            Population analysis using the SCF density.

 **********************************************************************

 Alpha  occ. eigenvalues --  -19.62589  -1.13433  -0.60773  -0.47574  -0.40003
 Alpha virt. eigenvalues --    0.06296   0.13351   0.17396   0.17943   0.18928
 Alpha virt. eigenvalues --    0.23301   0.51214   0.53564   0.97930   1.00192
 Alpha virt. eigenvalues --    1.06031   1.18262   1.20028   1.32315   1.33813
 Alpha virt. eigenvalues --    1.70036   1.74268   1.75696   2.07849   2.09462
 Alpha virt. eigenvalues --    2.35893   2.41256   2.54635   2.88530   3.01507
 Alpha virt. eigenvalues --    5.05681   5.48463   5.92804   6.78333   6.80174
 Alpha virt. eigenvalues --    6.87197   6.91517   7.09384  49.95951
          Condensed to atoms (all electrons):
              23         24         25
    23  O    7.914691   0.318973   0.321645
    24  H    0.318973   0.426548  -0.024376
    25  H    0.321645  -0.024376   0.426278
 Mulliken charges:
               1
     1  C    0.000000
     2  C    0.000000
     3  C    0.000000
     4  C    0.000000
     5  C    0.000000
     6  N    0.000000
     7  H    0.000000
     8  H    0.000000
     9  H    0.000000
    10  H    0.000000
    11  H    0.000000
    12  P    0.000000
    13  O    0.000000
    14  O    0.000000
    15  H    0.000000
    16  O    0.000000
    17  H    0.000000
    18  O    0.000000
    19  H    0.000000
    20  O    0.000000
    21  H    0.000000
    22  H    0.000000
    23  O   -0.555308
    24  H    0.278855
    25  H    0.276453
 Sum of Mulliken charges =  -0.00000
 Mulliken charges with hydrogens summed into heavy atoms:
               1
     1  C    0.000000
     2  C    0.000000
     3  C    0.000000
     4  C    0.000000
     5  C    0.000000
     6  N    0.000000
    12  P    0.000000
    13  O    0.000000
    14  O    0.000000
    16  O    0.000000
    18  O    0.000000
    20  O    0.000000
    23  O   -0.000000
         Mulliken charges condensed to fragments:
      1      0.000000
      2      0.000000
      3      0.000000
      4     -0.000000
 Electronic spatial extent (au):  <R**2>=          14626.2018
 Charge=             -0.0000 electrons
 Dipole moment (field-independent basis, Debye):
    X=              0.3287    Y=              0.3828    Z=              2.0585  Tot=              2.1195
 Quadrupole moment (field-independent basis, Debye-Ang):
   XX=             -1.9978   YY=              9.0647   ZZ=              1.5952
   XY=             10.3741   XZ=             16.3329   YZ=             38.5980
 Traceless Quadrupole moment (field-independent basis, Debye-Ang):
   XX=             -4.8852   YY=              6.1773   ZZ=             -1.2922
   XY=             10.3741   XZ=             16.3329   YZ=             38.5980
 Octapole moment (field-independent basis, Debye-Ang**2):
  XXX=           -104.3621  YYY=            108.8481  ZZZ=            -11.7046  XYY=            232.6937
  XXY=              5.8532  XXZ=            116.5797  XZZ=             12.8200  YZZ=             29.0630
  YYZ=            714.8658  XYZ=            309.0010
 Hexadecapole moment (field-independent basis, Debye-Ang**3):
 XXXX=          -1910.6852 YYYY=           -871.1478 ZZZZ=            -74.4972 XXXY=          -1530.5078
 XXXZ=            728.1445 YYYX=           4335.6702 YYYZ=          13076.3981 ZZZX=            -90.1925
 ZZZY=           -222.1947 XXYY=            605.2681 XXZZ=             76.8665 YYZZ=            512.2833
 XXYZ=           2230.4933 YYXZ=           5777.1239 ZZXY=            239.9470
 N-N= 9.118279106086D+00 E-N=-1.990897892667D+02  KE= 7.620156696230D+01
 No NMR shielding tensors so no spin-rotation constants.
 Leave Link  601 at Thu Dec 15 15:47:10 2022, MaxMem=  1342177280 cpu:               1.8 elap:               0.1
 (Enter /data0/home/software/g16/l122.exe)
 CPIOFr:  IOpCl= 0 IRwI=-1 IRwCP=  731 ICalc=  8 LCPTot=      286257 Len1MO=      751965 IndFrg=     7053942
 Restoring MOs from calculation   1 to rwf.
 CPIOFr:  IOpCl= 0 IRwI=-2 IRwCP=  731 ICalc=  0 LCPTot=      286257 Len1MO=      751965 IndFrg=     1038222
 Counterpoise corrected energy =   -1045.308599698839
                   BSSE energy =       0.003920181498
              sum of fragments =   -1045.240022672018
           complexation energy =     -45.49 kcal/mole (raw)
           complexation energy =     -43.03 kcal/mole (corrected)
 Leave Link  122 at Thu Dec 15 15:47:10 2022, MaxMem=  1342177280 cpu:               0.3 elap:               0.0
 (Enter /data0/home/software/g16/l9999.exe)
 1\1\GINC-LOCALHOST\SP\RM062X\6-311+G(2d,p)\C5H12N1O6P1\WUHANYU\15-Dec-
 2022\0\\#p M062X/6-311+G(2d,p) nosymm em=GD3 counterpoise=4\\Title Car
 d Required\\0,1\C,0,4.763894,14.632191,4.471475\C,0,3.402913,14.360412
 ,4.668052\C,0,3.001612,13.036541,4.826502\C,0,3.958842,12.023173,4.786
 155\C,0,5.297817,12.376205,4.58632\N,0,5.689445,13.655717,4.430887\H,0
 ,1.950618,12.793298,4.980852\H,0,5.13602,15.660966,4.342716\H,0,2.6809
 72,15.171535,4.696166\H,0,3.67468,10.982333,4.907132\H,0,6.094849,11.6
 24774,4.546504\P,0,8.595521,15.978707,4.522913\O,0,7.466244,16.835888,
 4.14443\O,0,8.88148,16.082574,6.084449\H,0,9.701112,15.49494,6.296244\
 O,0,8.450927,14.435502,4.199672\H,0,7.430636,14.160514,4.274597\O,0,10
 .021433,16.314721,3.907277\H,0,9.926409,16.40717,2.869625\O,0,9.648108
 ,16.750654,1.105737\H,0,8.99144,17.467037,1.207307\H,0,9.152977,16.023
 055,0.730977\O,0,7.683302,18.597301,1.789101\H,0,7.441129,18.044428,2.
 55279\H,0,8.107622,19.360382,2.182124\\Version=ES64L-G16RevA.03\HF=-76
 .4218416\RMSD=6.100e-09\Dipole=-1.6431278,-1.4494538,0.4455056\Quadrup
 ole=-0.3926817,-39.5021287,39.8948103,-62.1022212,-5.419813,1.0125921\
 PG=C01 [X(C5H12N1O6P1)]\\@


 ERWIN WITH HIS PSI CAN DO
 CALCULATIONS QUITE A FEW.
 BUT ONE THING HAS NOT BEEN SEEN
 JUST WHAT DOES PSI REALLY MEAN.
 -- WALTER HUCKEL, TRANS. BY FELIX BLOCH
 Job cpu time:       0 days  1 hours 14 minutes 13.0 seconds.
 Elapsed time:       0 days  0 hours  3 minutes 11.3 seconds.
 File lengths (MBytes):  RWF=    172 Int=      0 D2E=      0 Chk=     65 Scr=      1
 Normal termination of Gaussian 16 at Thu Dec 15 15:47:10 2022.
