 Entering Gaussian System, Link 0=g16
 Initial command:
 /data0/home/wuhanyu/software/g16/l1.exe "/data0/home/wuhanyu/software/g16/scratch/Gau-3102614.inp" -scrdir="/data0/home/wuhanyu/software/g16/scratch/"
 Default is to use a total of  22 processors:
                               22 via shared-memory
                                1 via Linda
 Entering Link 1 = /data0/home/wuhanyu/software/g16/l1.exe PID=   3102615.
  
 Copyright (c) 1988,1990,1992,1993,1995,1998,2003,2009,2016,
            Gaussian, Inc.  All Rights Reserved.
  
 This is part of the Gaussian(R) 16 program.  It is based on
 the Gaussian(R) 09 system (copyright 2009, Gaussian, Inc.),
 the Gaussian(R) 03 system (copyright 2003, Gaussian, Inc.),
 the Gaussian(R) 98 system (copyright 1998, Gaussian, Inc.),
 the Gaussian(R) 94 system (copyright 1995, Gaussian, Inc.),
 the Gaussian 92(TM) system (copyright 1992, Gaussian, Inc.),
 the Gaussian 90(TM) system (copyright 1990, Gaussian, Inc.),
 the Gaussian 88(TM) system (copyright 1988, Gaussian, Inc.),
 the Gaussian 86(TM) system (copyright 1986, Carnegie Mellon
 University), and the Gaussian 82(TM) system (copyright 1983,
 Carnegie Mellon University). Gaussian is a federally registered
 trademark of Gaussian, Inc.
  
 This software contains proprietary and confidential information,
 including trade secrets, belonging to Gaussian, Inc.
  
 This software is provided under written license and may be
 used, copied, transmitted, or stored only in accord with that
 written license.
  
 The following legend is applicable only to US Government
 contracts under FAR:
  
                    RESTRICTED RIGHTS LEGEND
  
 Use, reproduction and disclosure by the US Government is
 subject to restrictions as set forth in subparagraphs (a)
 and (c) of the Commercial Computer Software - Restricted
 Rights clause in FAR 52.227-19.
  
 Gaussian, Inc.
 340 Quinnipiac St., Bldg. 40, Wallingford CT 06492
  
  
 ---------------------------------------------------------------
 Warning -- This program may not be used in any manner that
 competes with the business of Gaussian, Inc. or will provide
 assistance to any competitor of Gaussian, Inc.  The licensee
 of this program is prohibited from giving any competitor of
 Gaussian, Inc. access to this program.  By using this program,
 the user acknowledges that Gaussian, Inc. is engaged in the
 business of creating and licensing software in the field of
 computational chemistry and represents and warrants to the
 licensee that it is not a competitor of Gaussian, Inc. and that
 it will not use this program in any manner prohibited above.
 ---------------------------------------------------------------
  

 Cite this work as:
 Gaussian 16, Revision A.03,
 M. J. Frisch, G. W. Trucks, H. B. Schlegel, G. E. Scuseria, 
 M. A. Robb, J. R. Cheeseman, G. Scalmani, V. Barone, 
 G. A. Petersson, H. Nakatsuji, X. Li, M. Caricato, A. V. Marenich, 
 J. Bloino, B. G. Janesko, R. Gomperts, B. Mennucci, H. P. Hratchian, 
 J. V. Ortiz, A. F. Izmaylov, J. L. Sonnenberg, D. Williams-Young, 
 F. Ding, F. Lipparini, F. Egidi, J. Goings, B. Peng, A. Petrone, 
 T. Henderson, D. Ranasinghe, V. G. Zakrzewski, J. Gao, N. Rega, 
 G. Zheng, W. Liang, M. Hada, M. Ehara, K. Toyota, R. Fukuda, 
 J. Hasegawa, M. Ishida, T. Nakajima, Y. Honda, O. Kitao, H. Nakai, 
 T. Vreven, K. Throssell, J. A. Montgomery, Jr., J. E. Peralta, 
 F. Ogliaro, M. J. Bearpark, J. J. Heyd, E. N. Brothers, K. N. Kudin, 
 V. N. Staroverov, T. A. Keith, R. Kobayashi, J. Normand, 
 K. Raghavachari, A. P. Rendell, J. C. Burant, S. S. Iyengar, 
 J. Tomasi, M. Cossi, J. M. Millam, M. Klene, C. Adamo, R. Cammi, 
 J. W. Ochterski, R. L. Martin, K. Morokuma, O. Farkas, 
 J. B. Foresman, and D. J. Fox, Gaussian, Inc., Wallingford CT, 2016.
 
 ******************************************
 Gaussian 16:  ES64L-G16RevA.03 25-Dec-2016
                23-May-2022 
 ******************************************
 %nproc=24
 Will use up to   24 processors via shared memory.
 %mem=100GB
 ---------------------------------------------------
 #p M062X/6-311+G(2d,p) nosymm em=GD3 counterpoise=6
 ---------------------------------------------------
 1/38=1,62=6,172=1/1;
 2/12=2,15=1,17=6,18=5,40=1/2;
 1/38=1,53=2,62=6,63=1/22;
 3/5=4,6=6,7=112,11=2,25=1,30=1,74=-55,124=31/1,2,3;
 4//1;
 5/5=2,38=5/2;
 6/7=2,8=2,9=2,10=2,28=1/1;
 1/53=2,62=6,63=1/22;
 3/5=7,6=11,7=112,11=2,25=1,30=1,74=-55,82=7,124=31/1,2,3;
 4//1;
 5/5=2,38=5/2;
 6/7=2,8=2,9=2,10=2,28=1/1;
 1/53=2,62=6,63=1/22(-4);
 99/5=1,9=1/99;
 Leave Link    1 at Mon May 23 14:59:50 2022, MaxMem= 13421772800 cpu:               0.7 elap:               0.0
 (Enter /data0/home/wuhanyu/software/g16/l101.exe)
 -------------------
 Title Card Required
 -------------------
 Symbolic Z-matrix:
 Charge =  0 Multiplicity = 1 in supermolecule
 Charge =  0 Multiplicity = 1 in fragment      1.
 Charge =  0 Multiplicity = 1 in fragment      2.
 Charge =  0 Multiplicity = 1 in fragment      3.
 Charge =  0 Multiplicity = 1 in fragment      4.
 Charge =  0 Multiplicity = 1 in fragment      5.
 Charge =  0 Multiplicity = 1 in fragment      6.
 C                     8.04577   10.91727   8.6452     
 C                     7.55401   9.92926   9.4944     
 C                     9.16381   11.05392   10.59077    
 N                     9.03906   11.59812   9.34268    
 H                     7.76686   11.1539   7.62853    
 H                     6.78993   9.18206   9.31318    
 H                     9.8748    11.36523   11.35895    
 C                     9.87064   12.66912   8.82621    
 H                     10.94905   12.45332   9.01075    
 H                     9.76007   12.75904   7.72281    
 H                     9.61249   13.63355   9.29516    
 N                     8.24989   10.03713   10.69604    
 C                     8.07486   9.19521   11.88007    
 H                     6.9812    8.97174   11.99522    
 H                     8.39657   9.76633   12.7826    
 C                     8.85207   7.87186   11.78466    
 H                     8.55432   7.23643   12.64495    
 H                     8.52718   7.29401   10.89014    
 C                     10.36613   8.04687   11.76287    
 H                     10.86787   7.09161   12.02052    
 H                     10.70425   8.77974   12.51981    
 C                     10.82833   8.45115   10.36678    
 O                     11.40856   9.56083   10.25409    
 O                     10.58895   7.68212   9.42105    
 P                     11.23038   9.8337    6.74366    
 O                     9.87912   10.41099   6.64558    
 O                     11.30839   8.26614   6.90511    
 H                     11.05773   8.01095   7.91938    
 O                     12.02096   10.1239   5.39192    
 H                     12.96814   9.72367   5.50265    
 O                     12.13958   10.49546   7.85839    
 H                     11.88299   10.07732   8.81154    
 O                     8.00635   6.85043   8.55878    
 H                     8.92218   7.03233   8.8359     
 H                     7.83453   7.49223   7.85299    
 O                     11.648    11.12772   12.40138    
 H                     12.54426   11.42343   12.49557    
 H                     11.6606   10.50369   11.63251    
 O                     7.49404   8.82131   6.6334     
 H                     8.32963   9.32824   6.616      
 H                     7.47265   8.37854   5.78492    
 O                     6.08283   7.34332   10.42744    
 H                     5.37189   6.73541   10.25869    
 H                     6.77908   7.10141   9.77677    
 
 ITRead=  0  0  0  0  0  0  0  0  0  0  0  0  0  0  0  0  0  0  0  0
 ITRead=  0  0  0  0  0  0  0  0  0  0  0  0  0  0  0  0  0  0  0  0
 ITRead=  0  0  0  0
 MicOpt= -1 -1 -1 -1 -1 -1 -1 -1 -1 -1 -1 -1 -1 -1 -1 -1 -1 -1 -1 -1
 MicOpt= -1 -1 -1 -1 -1 -1 -1 -1 -1 -1 -1 -1 -1 -1 -1 -1 -1 -1 -1 -1
 MicOpt= -1 -1 -1 -1
 NAtoms=     44 NQM=       44 NQMF=       0 NMMI=      0 NMMIF=      0
                NMic=       0 NMicF=      0.
                    Isotopes and Nuclear Properties:
 (Nuclear quadrupole moments (NQMom) in fm**2, nuclear magnetic moments (NMagM)
  in nuclear magnetons)

  Atom         1           2           3           4           5           6           7           8           9          10
 IAtWgt=          12          12          12          14           1           1           1          12           1           1
 AtmWgt=  12.0000000  12.0000000  12.0000000  14.0030740   1.0078250   1.0078250   1.0078250  12.0000000   1.0078250   1.0078250
 NucSpn=           0           0           0           2           1           1           1           0           1           1
 AtZEff=  -0.0000000  -0.0000000  -0.0000000  -0.0000000  -0.0000000  -0.0000000  -0.0000000  -0.0000000  -0.0000000  -0.0000000
 NQMom=    0.0000000   0.0000000   0.0000000   2.0440000   0.0000000   0.0000000   0.0000000   0.0000000   0.0000000   0.0000000
 NMagM=    0.0000000   0.0000000   0.0000000   0.4037610   2.7928460   2.7928460   2.7928460   0.0000000   2.7928460   2.7928460
 AtZNuc=   6.0000000   6.0000000   6.0000000   7.0000000   1.0000000   1.0000000   1.0000000   6.0000000   1.0000000   1.0000000

  Atom        11          12          13          14          15          16          17          18          19          20
 IAtWgt=           1          14          12           1           1          12           1           1          12           1
 AtmWgt=   1.0078250  14.0030740  12.0000000   1.0078250   1.0078250  12.0000000   1.0078250   1.0078250  12.0000000   1.0078250
 NucSpn=           1           2           0           1           1           0           1           1           0           1
 AtZEff=  -0.0000000  -0.0000000  -0.0000000  -0.0000000  -0.0000000  -0.0000000  -0.0000000  -0.0000000  -0.0000000  -0.0000000
 NQMom=    0.0000000   2.0440000   0.0000000   0.0000000   0.0000000   0.0000000   0.0000000   0.0000000   0.0000000   0.0000000
 NMagM=    2.7928460   0.4037610   0.0000000   2.7928460   2.7928460   0.0000000   2.7928460   2.7928460   0.0000000   2.7928460
 AtZNuc=   1.0000000   7.0000000   6.0000000   1.0000000   1.0000000   6.0000000   1.0000000   1.0000000   6.0000000   1.0000000

  Atom        21          22          23          24          25          26          27          28          29          30
 IAtWgt=           1          12          16          16          31          16          16           1          16           1
 AtmWgt=   1.0078250  12.0000000  15.9949146  15.9949146  30.9737634  15.9949146  15.9949146   1.0078250  15.9949146   1.0078250
 NucSpn=           1           0           0           0           1           0           0           1           0           1
 AtZEff=  -0.0000000  -0.0000000  -0.0000000  -0.0000000  -0.0000000  -0.0000000  -0.0000000  -0.0000000  -0.0000000  -0.0000000
 NQMom=    0.0000000   0.0000000   0.0000000   0.0000000   0.0000000   0.0000000   0.0000000   0.0000000   0.0000000   0.0000000
 NMagM=    2.7928460   0.0000000   0.0000000   0.0000000   1.1316000   0.0000000   0.0000000   2.7928460   0.0000000   2.7928460
 AtZNuc=   1.0000000   6.0000000   8.0000000   8.0000000  15.0000000   8.0000000   8.0000000   1.0000000   8.0000000   1.0000000

  Atom        31          32          33          34          35          36          37          38          39          40
 IAtWgt=          16           1          16           1           1          16           1           1          16           1
 AtmWgt=  15.9949146   1.0078250  15.9949146   1.0078250   1.0078250  15.9949146   1.0078250   1.0078250  15.9949146   1.0078250
 NucSpn=           0           1           0           1           1           0           1           1           0           1
 AtZEff=  -0.0000000  -0.0000000  -0.0000000  -0.0000000  -0.0000000  -0.0000000  -0.0000000  -0.0000000  -0.0000000  -0.0000000
 NQMom=    0.0000000   0.0000000   0.0000000   0.0000000   0.0000000   0.0000000   0.0000000   0.0000000   0.0000000   0.0000000
 NMagM=    0.0000000   2.7928460   0.0000000   2.7928460   2.7928460   0.0000000   2.7928460   2.7928460   0.0000000   2.7928460
 AtZNuc=   8.0000000   1.0000000   8.0000000   1.0000000   1.0000000   8.0000000   1.0000000   1.0000000   8.0000000   1.0000000

  Atom        41          42          43          44
 IAtWgt=           1          16           1           1
 AtmWgt=   1.0078250  15.9949146   1.0078250   1.0078250
 NucSpn=           1           0           1           1
 AtZEff=  -0.0000000  -0.0000000  -0.0000000  -0.0000000
 NQMom=    0.0000000   0.0000000   0.0000000   0.0000000
 NMagM=    2.7928460   0.0000000   2.7928460   2.7928460
 AtZNuc=   1.0000000   8.0000000   1.0000000   1.0000000
 Leave Link  101 at Mon May 23 14:59:50 2022, MaxMem= 13421772800 cpu:               2.3 elap:               0.1
 (Enter /data0/home/wuhanyu/software/g16/l202.exe)
                          Input orientation:                          
 ---------------------------------------------------------------------
 Center     Atomic      Atomic             Coordinates (Angstroms)
 Number     Number       Type             X           Y           Z
 ---------------------------------------------------------------------
      1          6           0        8.045767   10.917269    8.645202
      2          6           0        7.554012    9.929260    9.494402
      3          6           0        9.163807   11.053922   10.590771
      4          7           0        9.039060   11.598116    9.342682
      5          1           0        7.766857   11.153900    7.628533
      6          1           0        6.789933    9.182057    9.313183
      7          1           0        9.874795   11.365234   11.358945
      8          6           0        9.870642   12.669118    8.826210
      9          1           0       10.949051   12.453320    9.010755
     10          1           0        9.760074   12.759044    7.722809
     11          1           0        9.612494   13.633552    9.295156
     12          7           0        8.249892   10.037130   10.696036
     13          6           0        8.074857    9.195211   11.880075
     14          1           0        6.981204    8.971743   11.995223
     15          1           0        8.396570    9.766334   12.782597
     16          6           0        8.852067    7.871863   11.784656
     17          1           0        8.554319    7.236427   12.644953
     18          1           0        8.527182    7.294009   10.890140
     19          6           0       10.366130    8.046873   11.762868
     20          1           0       10.867867    7.091614   12.020522
     21          1           0       10.704250    8.779738   12.519808
     22          6           0       10.828327    8.451148   10.366779
     23          8           0       11.408564    9.560826   10.254092
     24          8           0       10.588954    7.682120    9.421050
     25         15           0       11.230380    9.833695    6.743657
     26          8           0        9.879124   10.410991    6.645579
     27          8           0       11.308387    8.266138    6.905114
     28          1           0       11.057727    8.010951    7.919384
     29          8           0       12.020964   10.123900    5.391920
     30          1           0       12.968137    9.723673    5.502646
     31          8           0       12.139582   10.495465    7.858385
     32          1           0       11.882989   10.077316    8.811538
     33          8           0        8.006351    6.850434    8.558782
     34          1           0        8.922180    7.032332    8.835898
     35          1           0        7.834532    7.492233    7.852993
     36          8           0       11.648001   11.127721   12.401379
     37          1           0       12.544264   11.423430   12.495574
     38          1           0       11.660597   10.503689   11.632508
     39          8           0        7.494038    8.821307    6.633395
     40          1           0        8.329635    9.328237    6.616000
     41          1           0        7.472652    8.378539    5.784923
     42          8           0        6.082827    7.343318   10.427439
     43          1           0        5.371894    6.735413   10.258686
     44          1           0        6.779081    7.101409    9.776774
 ---------------------------------------------------------------------
                    Distance matrix (angstroms):
                    1          2          3          4          5
     1  C    0.000000
     2  C    1.392525   0.000000
     3  C    2.248094   2.249073   0.000000
     4  N    1.391640   2.239077   1.367273   0.000000
     5  H    1.080463   2.241989   3.276632   2.180398   0.000000
     6  H    2.243720   1.083960   3.281979   3.301028   2.771388
     7  H    3.303092   3.305235   1.092021   2.194995   4.289993
     8  C    2.536121   3.649668   2.494424   1.450971   2.855911
     9  H    3.304866   4.258061   2.764392   2.118871   3.704779
    10  H    2.679887   4.001616   3.389422   2.119340   2.560916
    11  H    3.202385   4.242502   2.921375   2.115203   3.511792
    12  N    2.241034   1.392770   1.371199   2.211567   3.300011
    13  C    3.664796   2.549812   2.510562   3.625190   4.691155
    14  H    4.017587   2.738440   3.327418   4.262462   4.944395
    15  H    4.308799   3.398334   2.655304   3.949840   5.374593
    16  C    4.447560   3.341121   3.412923   4.459054   5.405812
    17  H    5.459417   4.263559   4.377717   5.492203   6.413358
    18  H    4.289466   3.136828   3.825161   4.602389   5.110277
    19  C    4.831470   4.073982   3.444087   4.497749   5.788140
    20  H    5.830323   5.041344   4.543995   5.551930   6.738546
    21  H    5.162281   4.516468   3.356495   4.561824   6.179765
    22  C    4.097343   3.696890   3.097617   3.762135   4.916854
    23  O    3.966972   3.945940   2.716914   3.255114   4.763767
    24  O    4.187592   3.777022   3.842960   4.212284   4.819814
    25  P    3.864164   4.592539   4.534310   3.830143   3.810766
    26  O    2.759711   3.708639   4.060736   3.064203   2.445360
    27  O    4.549845   4.854453   5.094608   4.711015   4.626547
    28  H    4.247988   4.293787   4.470225   4.355289   4.559885
    29  O    5.197641   6.068105   6.004693   5.164648   4.915360
    30  H    5.960709   6.729720   6.490879   5.804917   5.798125
    31  O    4.190026   4.901489   4.078363   3.610016   4.427990
    32  H    3.931598   4.385005   3.393137   3.268467   4.416002
    33  O    4.067944   3.249487   4.810197   4.921531   4.409370
    34  H    3.987129   3.270734   4.394445   4.595310   4.447451
    35  H    3.521802   2.951612   4.684872   4.530821   3.669164
    36  O    5.208574   5.162128   3.074893   4.047650   6.151750
    37  H    5.942898   6.011838   3.897730   4.717807   6.825273
    38  H    4.707658   4.665352   2.760785   3.648771   5.622793
    39  O    2.957166   3.068635   4.840818   4.175883   2.550631
    40  H    2.592926   3.041055   4.412781   3.618070   2.162172
    41  H    3.867145   4.021391   5.754464   5.047471   3.344859
    42  O    4.450014   3.118019   4.825733   5.293328   5.019001
    43  H    5.219276   3.942896   5.756597   6.158981   5.672440
    44  H    4.176809   2.945674   4.687416   5.051368   4.691836
                    6          7          8          9         10
     6  H    0.000000
     7  H    4.297415   0.000000
     8  C    4.678408   2.848662   0.000000
     9  H    5.300084   2.802134   1.115164   0.000000
    10  H    4.913844   3.895812   1.112567   1.779308   0.000000
    11  H    5.270957   3.077872   1.103034   1.805607   1.805220
    12  N    2.185157   2.200822   3.612539   3.995448   4.304596
    13  C    2.870564   2.867116   4.961750   5.206656   5.729199
    14  H    2.697064   3.808742   5.662338   6.064012   6.349747
    15  H    3.867751   2.601618   5.123675   5.287896   6.034643
    16  C    3.475224   3.664812   5.727439   5.751662   6.419316
    17  H    4.242549   4.521562   6.769759   6.793976   7.495375
    18  H    3.011570   4.314013   5.912401   6.001335   6.435730
    19  C    4.480936   3.378770   5.498601   5.227877   6.236500
    20  H    5.322517   4.437083   6.504355   6.149242   7.198424
    21  H    5.076040   2.953030   5.428153   5.086117   6.303772
    22  C    4.237088   3.222656   4.591490   4.227382   5.166208
    23  O    4.728692   2.613242   3.750404   3.181754   4.399263
    24  O    4.085830   4.222652   5.073456   4.802329   5.417215
    25  P    5.171524   5.048178   3.771676   3.475819   3.417339
    26  O    4.262569   4.808993   3.139166   3.303015   2.586107
    27  O    5.201359   5.612147   5.014375   4.700568   4.822043
    28  H    4.639852   4.947840   4.891832   4.575756   4.926148
    29  O    6.605078   6.461605   4.785015   4.435218   4.181943
    30  H    7.278993   6.823469   5.414444   4.882060   4.943103
    31  O    5.697387   4.259070   3.287787   2.564862   3.286979
    32  H    5.195417   3.490109   3.281340   2.560727   3.589396
    33  O    2.735920   5.631644   6.115896   6.344769   6.219812
    34  H    3.065224   5.103654   5.716033   5.790155   5.893748
    35  H    2.465532   5.608432   5.647392   5.971015   5.609274
    36  O    6.076462   2.070589   4.279806   3.707030   5.302311
    37  H    6.947207   2.901961   4.707890   3.968544   5.684616
    38  H    5.554219   2.001546   3.970936   3.343792   4.897383
    39  O    2.794131   5.871149   5.026165   5.548015   4.671993
    40  H    3.109155   5.388173   4.291994   4.728883   3.878353
    41  H    3.682440   6.764640   5.780039   6.252614   5.308157
    42  O    2.263300   5.605581   6.728716   7.197170   7.082885
    43  H    2.981757   6.551483   7.582847   8.084335   7.872161
    44  H    2.131697   5.501537   6.438999   6.827766   6.716690
                   11         12         13         14         15
    11  H    0.000000
    12  N    4.093092   0.000000
    13  C    5.361437   1.463357   0.000000
    14  H    5.995541   2.105352   1.122174   0.000000
    15  H    5.347531   2.109166   1.115449   1.804049   0.000000
    16  C    6.322414   2.497216   1.537664   2.180413   2.189151
    17  H    7.298225   3.425623   2.156793   2.430671   2.538555
    18  H    6.626589   2.763925   2.190694   2.534965   3.116223
    19  C    6.153743   3.094789   2.565609   3.516688   2.806343
    20  H    7.197259   4.157418   3.499393   4.317601   3.720510
    21  H    5.928729   3.306214   2.737806   3.764721   2.523453
    22  C    5.429911   3.045008   3.228822   4.209894   3.671421
    23  O    4.553298   3.224808   3.727076   4.793753   3.937979
    24  O    6.032318   3.555682   3.828437   4.615772   4.522222
    25  P    4.854546   4.954391   6.061994   6.810096   6.671118
    26  O    4.180460   4.381823   5.668637   6.252045   6.346380
    27  O    6.115348   5.182846   6.005758   6.718006   6.728601
    28  H    5.966162   4.438371   5.097750   5.844110   5.814978
    29  O    5.775261   6.508622   7.650515   8.386314   8.239308
    30  H    6.397705   7.023631   8.055747   8.863539   8.596437
    31  O    4.277625   4.836530   5.864012   6.785574   6.228133
    32  H    4.246863   4.092962   4.969497   5.948583   5.293499
    33  O    7.009467   3.844762   4.066160   4.166534   5.147364
    34  H    6.653086   3.597346   3.829232   4.184500   4.829852
    35  H    6.554142   3.838218   4.378959   4.480534   5.457877
    36  O    4.480078   3.955342   4.095572   5.156762   3.545491
    37  H    4.870584   4.858168   5.031838   6.099898   4.475680
    38  H    4.410667   3.567571   3.825041   4.937119   3.538399
    39  O    5.893261   4.307504   5.291957   5.388398   6.286519
    40  H    5.230616   4.141930   5.271916   5.557103   6.182502
    41  H    6.672018   5.241570   6.179036   6.257894   7.193542
    42  O    7.301209   3.467699   3.083479   2.432446   4.095263
    43  H    8.154471   4.401759   3.998189   3.256779   4.970440
    44  H    7.136461   3.409807   3.238351   2.908697   4.330481
                   16         17         18         19         20
    16  C    0.000000
    17  H    1.110200   0.000000
    18  H    1.113384   1.755967   0.000000
    19  C    1.524300   2.171994   2.170297   0.000000
    20  H    2.174367   2.400706   2.607208   1.109345   0.000000
    21  H    2.189810   2.649467   3.098844   1.106515   1.767999
    22  C    2.500310   3.440456   2.628335   1.525165   2.141206
    23  O    3.425040   4.389278   3.720938   2.378051   3.083770
    24  O    2.939288   3.838220   2.561203   2.380506   2.680251
    25  P    5.909046   6.980859   5.563327   5.397420   5.957829
    26  O    5.823412   6.915595   5.436876   5.657992   6.394207
    27  O    5.477124   6.449104   4.955862   4.953150   5.266969
    28  H    4.452483   5.403512   3.967752   3.905377   4.207203
    29  O    7.482022   8.541757   7.102480   6.902282   7.379889
    30  H    7.735301   8.756753   7.392594   6.983730   7.336319
    31  O    5.753838   6.810776   5.700026   4.938190   5.525110
    32  H    4.784343   5.817711   4.829992   3.890232   4.499163
    33  O    3.487810   4.140779   2.429661   4.155261   4.497787
    34  H    3.066741   3.832216   2.108177   3.417812   3.732431
    35  H    4.078906   4.852464   3.121429   4.690814   5.170098
    36  O    4.335690   4.977185   5.169207   3.397428   4.128416
    37  H    5.172171   5.785583   5.980509   4.084393   4.669112
    38  H    3.851947   4.620499   4.546586   2.780033   3.524377
    39  O    5.411208   6.306732   4.638955   5.929600   6.587541
    40  H    5.395272   6.385486   4.737656   5.681501   6.376046
    41  H    6.177079   7.038070   5.324611   6.649665   7.215702
    42  O    3.128912   3.322208   2.488251   4.541480   5.049542
    43  H    3.966322   4.009129   3.265977   5.378186   5.782445
    44  H    2.987049   3.375819   2.081474   4.207778   4.663976
                   21         22         23         24         25
    21  H    0.000000
    22  C    2.181490   0.000000
    23  O    2.497924   1.257282   0.000000
    24  O    3.289431   1.242219   2.212522   0.000000
    25  P    5.895045   3.898730   3.525530   3.494157   0.000000
    26  O    6.152104   4.311531   4.010403   3.956493   1.472679
    27  O    5.670410   3.499687   3.591922   2.681156   1.577780
    28  H    4.677593   2.497226   2.824192   1.607134   2.175900
    29  O    7.372062   5.382351   4.932829   4.924107   1.592619
    30  H    7.433489   5.464238   5.003501   5.018201   2.138226
    31  O    5.170373   3.491513   2.673453   3.572293   1.583416
    32  H    4.101756   2.485057   1.603996   2.789802   2.182059
    33  O    5.166295   3.714120   4.668549   2.846936   4.752777
    34  H    4.449763   2.826664   3.819249   1.882223   4.189617
    35  H    5.627798   4.025102   4.776825   3.175169   4.271400
    36  O    2.533321   3.460564   2.668957   4.677190   5.818825
    37  H    3.221078   4.038647   3.127835   5.222388   6.110491
    38  H    2.161922   2.551013   1.688947   3.741686   4.953266
    39  O    6.705002   5.019229   5.383294   4.318249   3.872640
    40  H    6.387065   4.591415   4.771752   3.960117   2.947220
    41  H    7.480833   5.679721   6.071464   4.839190   4.142121
    42  O    5.272463   4.873473   5.771557   4.629556   6.802171
    43  H    6.142146   5.720847   6.665160   5.368017   7.501776
    44  H    5.074246   4.308862   5.263903   3.870258   6.039805
                   26         27         28         29         30
    26  O    0.000000
    27  O    2.590472   0.000000
    28  H    2.961735   1.075497   0.000000
    29  O    2.498312   2.499760   3.432266   0.000000
    30  H    3.364625   2.616504   3.524728   1.034204   0.000000
    31  O    2.566652   2.563105   2.710524   2.497114   2.613747
    32  H    2.969544   2.691651   2.397261   3.422717   3.500197
    33  O    4.454794   3.955032   3.326639   6.071385   6.497291
    34  H    4.138668   3.308200   2.521558   5.569671   5.892678
    35  H    3.762626   3.683079   3.265343   5.523474   6.071026
    36  O    6.063981   6.205878   5.490989   7.090788   7.162864
    37  H    6.507722   6.538282   5.898841   7.240478   7.209014
    38  H    5.296386   5.242036   4.512703   6.262511   6.316114
    39  O    2.866335   3.864104   3.874316   4.871454   5.662033
    40  H    1.890542   3.175627   3.297960   3.969554   4.786609
    41  H    3.265379   3.997540   4.188533   4.887523   5.664753
    42  O    6.174541   6.369054   5.611212   8.267379   8.793587
    43  H    6.846863   6.987955   6.279174   8.909399   9.447355
    44  H    5.510715   5.487954   4.752260   7.472599   7.965479
                   31         32         33         34         35
    31  O    0.000000
    32  H    1.072002   0.000000
    33  O    5.555214   5.050245   0.000000
    34  H    4.827059   4.247224   0.973973   0.000000
    35  H    5.249084   4.898108   0.969312   1.536421   0.000000
    36  O    4.613046   3.747736   6.806052   6.075769   6.960398
    37  H    4.746410   3.977616   7.550052   6.767161   7.693468
    38  H    3.804405   2.861665   6.012286   5.231661   6.163795
    39  O    5.087680   5.058138   2.802485   3.176640   1.835700
    40  H    4.173924   4.243563   3.165189   3.248113   2.268521
    41  H    5.528187   5.612247   3.211578   3.636187   2.278905
    42  O    7.295228   6.612697   2.726675   3.269807   3.117438
    43  H    8.105618   7.460356   3.137398   3.836276   3.524872
    44  H    6.628333   5.986450   1.747193   2.341558   2.228823
                   36         37         38         39         40
    36  O    0.000000
    37  H    0.948474   0.000000
    38  H    0.990322   1.540024   0.000000
    39  O    7.472924   8.163392   6.721737   0.000000
    40  H    6.907989   7.531422   6.135336   0.977498   0.000000
    41  H    8.292710   8.945694   7.499960   0.957291   1.525462
    42  O    7.013509   7.916733   6.523163   4.309378   4.849239
    43  H    7.954434   8.855736   7.458892   4.690116   5.360982
    44  H    6.841500   7.701238   6.232853   3.653771   4.165750
                   41         42         43         44
    41  H    0.000000
    42  O    4.955426   0.000000
    43  H    5.208417   0.950501   0.000000
    44  H    4.248173   0.983186   1.531786   0.000000
 Symmetry turned off by external request.
 Stoichiometry    C8H23N2O10P
 Framework group  C1[X(C8H23N2O10P)]
 Deg. of freedom   126
 Full point group                 C1      NOp   1
 Rotational constants (GHZ):           0.3210444           0.2294452           0.1954894
 Leave Link  202 at Mon May 23 14:59:50 2022, MaxMem= 13421772800 cpu:               0.1 elap:               0.0
 (Enter /data0/home/wuhanyu/software/g16/l122.exe)
 Counterpoise: doing full-system calculation.
 Leave Link  122 at Mon May 23 14:59:50 2022, MaxMem= 13421772800 cpu:               0.0 elap:               0.0
 (Enter /data0/home/wuhanyu/software/g16/l301.exe)
 Standard basis: 6-311+G(2d,p) (5D, 7F)
 Ernie: Thresh=  0.10000D-02 Tol=  0.10000D-05 Strict=F.
   713 basis functions,  1080 primitive gaussians,   755 cartesian basis functions
    90 alpha electrons       90 beta electrons
       nuclear repulsion energy      2334.6519305002 Hartrees.
 IExCor= 4336 DFT=T Ex+Corr=M062X ExCW=0 ScaHFX=  0.540000
 ScaDFX=  1.000000  1.000000  1.000000  1.000000 ScalE2=  1.000000  1.000000
 IRadAn=      5 IRanWt=     -1 IRanGd=            0 ICorTp=0 IEmpDi=131
 NAtoms=   44 NActive=   44 NUniq=   44 SFac= 1.00D+00 NAtFMM=   60 NAOKFM=F Big=F
 Integral buffers will be    131072 words long.
 Raffenetti 2 integral format.
 Two-electron integral symmetry is turned off.
 R6Disp:  Grimme-D3 Dispersion energy=       -0.0043363171 Hartrees.
 Nuclear repulsion after empirical dispersion term =     2334.6475941831 Hartrees.
 Leave Link  301 at Mon May 23 14:59:50 2022, MaxMem= 13421772800 cpu:               1.1 elap:               0.1
 (Enter /data0/home/wuhanyu/software/g16/l302.exe)
 NPDir=0 NMtPBC=     1 NCelOv=     1 NCel=       1 NClECP=     1 NCelD=      1
         NCelK=      1 NCelE2=     1 NClLst=     1 CellRange=     0.0.
 One-electron integrals computed using PRISM.
 NBasis=   713 RedAO= T EigKep=  3.34D-06  NBF=   713
 NBsUse=   713 1.00D-06 EigRej= -1.00D+00 NBFU=   713
 Precomputing XC quadrature grid using
 IXCGrd= 4 IRadAn=           5 IRanWt=          -1 IRanGd=           0 AccXCQ= 0.00D+00.
 Generated NRdTot=       0 NPtTot=           0 NUsed=           0 NTot=          32
 NSgBfM=   748   748   748   748   748 MxSgAt=    44 MxSgA2=    44.
 Leave Link  302 at Mon May 23 14:59:51 2022, MaxMem= 13421772800 cpu:              23.6 elap:               1.0
 (Enter /data0/home/wuhanyu/software/g16/l303.exe)
 DipDrv:  MaxL=1.
 Leave Link  303 at Mon May 23 14:59:51 2022, MaxMem= 13421772800 cpu:               2.0 elap:               0.1
 (Enter /data0/home/wuhanyu/software/g16/l401.exe)
 ExpMin= 3.48D-02 ExpMax= 7.75D+04 ExpMxC= 2.65D+03 IAcc=3 IRadAn=         5 AccDes= 0.00D+00
 Harris functional with IExCor= 1009 and IRadAn=       5 diagonalized for initial guess.
 HarFok:  IExCor= 1009 AccDes= 0.00D+00 IRadAn=         5 IDoV= 1 UseB2=F ITyADJ=14
 ICtDFT=  3500011 ScaDFX=  1.000000  1.000000  1.000000  1.000000
 FoFCou: FMM=F IPFlag=           0 FMFlag=      100000 FMFlg1=           0
         NFxFlg=           0 DoJE=T BraDBF=F KetDBF=T FulRan=T
         wScrn=  0.000000 ICntrl=       500 IOpCl=  0 I1Cent=   200000004 NGrid=           0
         NMat0=    1 NMatS0=      1 NMatT0=    0 NMatD0=    1 NMtDS0=    0 NMtDT0=    0
 Symmetry not used in FoFCou.
 Harris En= -1521.31037445242    
 JPrj=0 DoOrth=F DoCkMO=F.
 Leave Link  401 at Mon May 23 14:59:55 2022, MaxMem= 13421772800 cpu:              92.8 elap:               3.9
 (Enter /data0/home/wuhanyu/software/g16/l502.exe)
 Two-electron integral symmetry not used.
 Closed shell SCF:
 Using DIIS extrapolation, IDIIS=  1040.
 NGot= 13421772800 LenX= 13420609319 LenY= 13420038539
 Requested convergence on RMS density matrix=1.00D-08 within 128 cycles.
 Requested convergence on MAX density matrix=1.00D-06.
 Requested convergence on             energy=1.00D-06.
 No special actions if energy rises.
 Fock matrices will be formed incrementally for  20 cycles.

 Cycle   1  Pass 1  IDiag  1:
 FoFJK:  IHMeth= 1 ICntrl=       0 DoSepK=F KAlg= 0 I1Cent=           0 FoldK=F
 IRaf= 830000000 NMat=       1 IRICut=       1 DoRegI=T DoRafI=F ISym2E= 0 IDoP0=0 IntGTp=1.
 FoFCou: FMM=F IPFlag=           0 FMFlag=      100000 FMFlg1=           0
         NFxFlg=           0 DoJE=F BraDBF=F KetDBF=F FulRan=T
         wScrn=  0.000000 ICntrl=         0 IOpCl=  0 I1Cent=           0 NGrid=           0
         NMat0=    1 NMatS0=      1 NMatT0=    0 NMatD0=    1 NMtDS0=    0 NMtDT0=    0
 Symmetry not used in FoFCou.
 E= -1521.15031264631    
 DIIS: error= 2.19D-02 at cycle   1 NSaved=   1.
 NSaved= 1 IEnMin= 1 EnMin= -1521.15031264631     IErMin= 1 ErrMin= 2.19D-02
 ErrMax= 2.19D-02  0.00D+00 EMaxC= 1.00D-01 BMatC= 1.32D+00 BMatP= 1.32D+00
 IDIUse=3 WtCom= 7.81D-01 WtEn= 2.19D-01
 Coeff-Com:  0.100D+01
 Coeff-En:   0.100D+01
 Coeff:      0.100D+01
 Gap=     0.303 Goal=   None    Shift=    0.000
 GapD=    0.303 DampG=1.000 DampE=0.500 DampFc=0.5000 IDamp=-1.
 Damping current iteration by 5.00D-01
 RMSDP=8.18D-03 MaxDP=1.47D+00              OVMax= 2.12D-01

 Cycle   2  Pass 1  IDiag  1:
 RMSU=  4.04D-03    CP:  1.03D+00
 E= -1521.51151967139     Delta-E=       -0.361207025084 Rises=F Damp=T
 DIIS: error= 6.69D-03 at cycle   2 NSaved=   2.
 NSaved= 2 IEnMin= 2 EnMin= -1521.51151967139     IErMin= 2 ErrMin= 6.69D-03
 ErrMax= 6.69D-03  0.00D+00 EMaxC= 1.00D-01 BMatC= 7.37D-02 BMatP= 1.32D+00
 IDIUse=3 WtCom= 9.33D-01 WtEn= 6.69D-02
 Coeff-Com:  0.108D-01 0.989D+00
 Coeff-En:   0.789D-01 0.921D+00
 Coeff:      0.154D-01 0.985D+00
 Gap=     0.364 Goal=   None    Shift=    0.000
 RMSDP=5.08D-03 MaxDP=1.46D+00 DE=-3.61D-01 OVMax= 1.19D-01

 Cycle   3  Pass 1  IDiag  1:
 RMSU=  2.41D-03    CP:  8.08D-01  7.73D-01
 E= -1521.92597953973     Delta-E=       -0.414459868337 Rises=F Damp=F
 DIIS: error= 3.22D-03 at cycle   3 NSaved=   3.
 NSaved= 3 IEnMin= 3 EnMin= -1521.92597953973     IErMin= 3 ErrMin= 3.22D-03
 ErrMax= 3.22D-03  0.00D+00 EMaxC= 1.00D-01 BMatC= 1.91D-02 BMatP= 7.37D-02
 IDIUse=3 WtCom= 9.68D-01 WtEn= 3.22D-02
 Coeff-Com: -0.507D-01 0.289D+00 0.762D+00
 Coeff-En:   0.000D+00 0.000D+00 0.100D+01
 Coeff:     -0.491D-01 0.279D+00 0.770D+00
 Gap=     0.305 Goal=   None    Shift=    0.000
 RMSDP=5.41D-04 MaxDP=7.56D-02 DE=-4.14D-01 OVMax= 3.30D-02

 Cycle   4  Pass 1  IDiag  1:
 RMSU=  4.88D-04    CP:  7.99D-01  8.07D-01  9.75D-01
 E= -1521.93541097063     Delta-E=       -0.009431430898 Rises=F Damp=F
 DIIS: error= 1.62D-03 at cycle   4 NSaved=   4.
 NSaved= 4 IEnMin= 4 EnMin= -1521.93541097063     IErMin= 4 ErrMin= 1.62D-03
 ErrMax= 1.62D-03  0.00D+00 EMaxC= 1.00D-01 BMatC= 6.57D-03 BMatP= 1.91D-02
 IDIUse=3 WtCom= 9.84D-01 WtEn= 1.62D-02
 Coeff-Com: -0.276D-01 0.736D-01 0.419D+00 0.535D+00
 Coeff-En:   0.000D+00 0.000D+00 0.241D+00 0.759D+00
 Coeff:     -0.272D-01 0.724D-01 0.417D+00 0.538D+00
 Gap=     0.304 Goal=   None    Shift=    0.000
 RMSDP=2.02D-04 MaxDP=2.18D-02 DE=-9.43D-03 OVMax= 1.48D-02

 Cycle   5  Pass 1  IDiag  1:
 RMSU=  1.37D-04    CP:  7.99D-01  8.13D-01  9.88D-01  7.06D-01
 E= -1521.94017485935     Delta-E=       -0.004763888719 Rises=F Damp=F
 DIIS: error= 2.75D-04 at cycle   5 NSaved=   5.
 NSaved= 5 IEnMin= 5 EnMin= -1521.94017485935     IErMin= 5 ErrMin= 2.75D-04
 ErrMax= 2.75D-04  0.00D+00 EMaxC= 1.00D-01 BMatC= 2.50D-04 BMatP= 6.57D-03
 IDIUse=3 WtCom= 9.97D-01 WtEn= 2.75D-03
 Coeff-Com: -0.942D-02 0.178D-01 0.149D+00 0.251D+00 0.592D+00
 Coeff-En:   0.000D+00 0.000D+00 0.000D+00 0.000D+00 0.100D+01
 Coeff:     -0.940D-02 0.178D-01 0.149D+00 0.250D+00 0.593D+00
 Gap=     0.302 Goal=   None    Shift=    0.000
 RMSDP=6.92D-05 MaxDP=2.21D-02 DE=-4.76D-03 OVMax= 2.66D-03

 Cycle   6  Pass 1  IDiag  1:
 RMSU=  4.29D-05    CP:  7.97D-01  8.08D-01  9.94D-01  7.28D-01  8.66D-01
 E= -1521.94035350077     Delta-E=       -0.000178641421 Rises=F Damp=F
 DIIS: error= 8.34D-05 at cycle   6 NSaved=   6.
 NSaved= 6 IEnMin= 6 EnMin= -1521.94035350077     IErMin= 6 ErrMin= 8.34D-05
 ErrMax= 8.34D-05  0.00D+00 EMaxC= 1.00D-01 BMatC= 1.62D-05 BMatP= 2.50D-04
 IDIUse=1 WtCom= 1.00D+00 WtEn= 0.00D+00
 Coeff-Com: -0.185D-02 0.214D-02 0.307D-01 0.649D-01 0.255D+00 0.649D+00
 Coeff:     -0.185D-02 0.214D-02 0.307D-01 0.649D-01 0.255D+00 0.649D+00
 Gap=     0.302 Goal=   None    Shift=    0.000
 RMSDP=1.69D-05 MaxDP=3.89D-03 DE=-1.79D-04 OVMax= 9.05D-04

 Cycle   7  Pass 1  IDiag  1:
 RMSU=  1.35D-05    CP:  7.97D-01  8.09D-01  9.94D-01  7.26D-01  8.76D-01
                    CP:  9.07D-01
 E= -1521.94036551592     Delta-E=       -0.000012015148 Rises=F Damp=F
 DIIS: error= 2.84D-05 at cycle   7 NSaved=   7.
 NSaved= 7 IEnMin= 7 EnMin= -1521.94036551592     IErMin= 7 ErrMin= 2.84D-05
 ErrMax= 2.84D-05  0.00D+00 EMaxC= 1.00D-01 BMatC= 2.23D-06 BMatP= 1.62D-05
 IDIUse=1 WtCom= 1.00D+00 WtEn= 0.00D+00
 Coeff-Com:  0.243D-03-0.103D-02-0.341D-02 0.713D-03 0.493D-01 0.299D+00
 Coeff-Com:  0.656D+00
 Coeff:      0.243D-03-0.103D-02-0.341D-02 0.713D-03 0.493D-01 0.299D+00
 Coeff:      0.656D+00
 Gap=     0.302 Goal=   None    Shift=    0.000
 RMSDP=6.66D-06 MaxDP=1.06D-03 DE=-1.20D-05 OVMax= 3.60D-04

 Cycle   8  Pass 1  IDiag  1:
 RMSU=  4.97D-06    CP:  7.97D-01  8.08D-01  9.94D-01  7.29D-01  8.92D-01
                    CP:  9.48D-01  9.41D-01
 E= -1521.94036717129     Delta-E=       -0.000001655373 Rises=F Damp=F
 DIIS: error= 1.10D-05 at cycle   8 NSaved=   8.
 NSaved= 8 IEnMin= 8 EnMin= -1521.94036717129     IErMin= 8 ErrMin= 1.10D-05
 ErrMax= 1.10D-05  0.00D+00 EMaxC= 1.00D-01 BMatC= 3.36D-07 BMatP= 2.23D-06
 IDIUse=1 WtCom= 1.00D+00 WtEn= 0.00D+00
 Coeff-Com:  0.401D-03-0.822D-03-0.658D-02-0.989D-02-0.172D-01 0.364D-01
 Coeff-Com:  0.309D+00 0.689D+00
 Coeff:      0.401D-03-0.822D-03-0.658D-02-0.989D-02-0.172D-01 0.364D-01
 Coeff:      0.309D+00 0.689D+00
 Gap=     0.302 Goal=   None    Shift=    0.000
 RMSDP=4.42D-06 MaxDP=1.33D-03 DE=-1.66D-06 OVMax= 1.43D-04

 Cycle   9  Pass 1  IDiag  1:
 RMSU=  1.99D-06    CP:  7.97D-01  8.08D-01  9.95D-01  7.30D-01  9.00D-01
                    CP:  9.74D-01  9.29D-01  9.39D-01
 E= -1521.94036745808     Delta-E=       -0.000000286791 Rises=F Damp=F
 DIIS: error= 2.91D-06 at cycle   9 NSaved=   9.
 NSaved= 9 IEnMin= 9 EnMin= -1521.94036745808     IErMin= 9 ErrMin= 2.91D-06
 ErrMax= 2.91D-06  0.00D+00 EMaxC= 1.00D-01 BMatC= 2.84D-08 BMatP= 3.36D-07
 IDIUse=1 WtCom= 1.00D+00 WtEn= 0.00D+00
 Coeff-Com:  0.124D-03-0.209D-03-0.224D-02-0.381D-02-0.109D-01-0.109D-01
 Coeff-Com:  0.633D-01 0.277D+00 0.688D+00
 Coeff:      0.124D-03-0.209D-03-0.224D-02-0.381D-02-0.109D-01-0.109D-01
 Coeff:      0.633D-01 0.277D+00 0.688D+00
 Gap=     0.302 Goal=   None    Shift=    0.000
 RMSDP=1.07D-06 MaxDP=2.23D-04 DE=-2.87D-07 OVMax= 4.95D-05

 Cycle  10  Pass 1  IDiag  1:
 RMSU=  6.07D-07    CP:  7.97D-01  8.08D-01  9.95D-01  7.31D-01  9.00D-01
                    CP:  9.74D-01  9.56D-01  1.00D+00  8.69D-01
 E= -1521.94036748722     Delta-E=       -0.000000029141 Rises=F Damp=F
 DIIS: error= 1.10D-06 at cycle  10 NSaved=  10.
 NSaved=10 IEnMin=10 EnMin= -1521.94036748722     IErMin=10 ErrMin= 1.10D-06
 ErrMax= 1.10D-06  0.00D+00 EMaxC= 1.00D-01 BMatC= 2.65D-09 BMatP= 2.84D-08
 IDIUse=1 WtCom= 1.00D+00 WtEn= 0.00D+00
 Coeff-Com: -0.138D-04 0.346D-04 0.112D-03 0.547D-04-0.148D-02-0.829D-02
 Coeff-Com: -0.201D-01-0.780D-02 0.205D+00 0.833D+00
 Coeff:     -0.138D-04 0.346D-04 0.112D-03 0.547D-04-0.148D-02-0.829D-02
 Coeff:     -0.201D-01-0.780D-02 0.205D+00 0.833D+00
 Gap=     0.302 Goal=   None    Shift=    0.000
 RMSDP=3.81D-07 MaxDP=5.73D-05 DE=-2.91D-08 OVMax= 4.29D-05

 Cycle  11  Pass 1  IDiag  1:
 RMSU=  2.27D-07    CP:  7.97D-01  8.08D-01  9.95D-01  7.30D-01  9.00D-01
                    CP:  9.75D-01  9.57D-01  1.02D+00  9.45D-01  1.17D+00
 E= -1521.94036749061     Delta-E=       -0.000000003394 Rises=F Damp=F
 DIIS: error= 5.40D-07 at cycle  11 NSaved=  11.
 NSaved=11 IEnMin=11 EnMin= -1521.94036749061     IErMin=11 ErrMin= 5.40D-07
 ErrMax= 5.40D-07  0.00D+00 EMaxC= 1.00D-01 BMatC= 6.25D-10 BMatP= 2.65D-09
 IDIUse=1 WtCom= 1.00D+00 WtEn= 0.00D+00
 Coeff-Com: -0.204D-04 0.408D-04 0.314D-03 0.484D-03 0.603D-03-0.225D-02
 Coeff-Com: -0.166D-01-0.390D-01 0.646D-02 0.392D+00 0.658D+00
 Coeff:     -0.204D-04 0.408D-04 0.314D-03 0.484D-03 0.603D-03-0.225D-02
 Coeff:     -0.166D-01-0.390D-01 0.646D-02 0.392D+00 0.658D+00
 Gap=     0.302 Goal=   None    Shift=    0.000
 RMSDP=1.72D-07 MaxDP=4.55D-05 DE=-3.39D-09 OVMax= 8.42D-06

 Cycle  12  Pass 1  IDiag  1:
 RMSU=  7.73D-08    CP:  7.97D-01  8.08D-01  9.95D-01  7.31D-01  9.00D-01
                    CP:  9.75D-01  9.54D-01  1.03D+00  9.79D-01  1.23D+00
                    CP:  8.20D-01
 E= -1521.94036749127     Delta-E=       -0.000000000655 Rises=F Damp=F
 DIIS: error= 1.67D-07 at cycle  12 NSaved=  12.
 NSaved=12 IEnMin=12 EnMin= -1521.94036749127     IErMin=12 ErrMin= 1.67D-07
 ErrMax= 1.67D-07  0.00D+00 EMaxC= 1.00D-01 BMatC= 5.80D-11 BMatP= 6.25D-10
 IDIUse=1 WtCom= 1.00D+00 WtEn= 0.00D+00
 Coeff-Com: -0.568D-05 0.108D-04 0.105D-03 0.178D-03 0.373D-03 0.136D-03
 Coeff-Com: -0.384D-02-0.138D-01-0.205D-01 0.558D-01 0.256D+00 0.725D+00
 Coeff:     -0.568D-05 0.108D-04 0.105D-03 0.178D-03 0.373D-03 0.136D-03
 Coeff:     -0.384D-02-0.138D-01-0.205D-01 0.558D-01 0.256D+00 0.725D+00
 Gap=     0.302 Goal=   None    Shift=    0.000
 RMSDP=4.43D-08 MaxDP=7.72D-06 DE=-6.55D-10 OVMax= 5.96D-06

 Cycle  13  Pass 1  IDiag  1:
 RMSU=  2.96D-08    CP:  7.97D-01  8.08D-01  9.95D-01  7.31D-01  9.00D-01
                    CP:  9.75D-01  9.54D-01  1.03D+00  9.81D-01  1.25D+00
                    CP:  8.98D-01  1.02D+00
 E= -1521.94036749141     Delta-E=       -0.000000000141 Rises=F Damp=F
 DIIS: error= 9.13D-08 at cycle  13 NSaved=  13.
 NSaved=13 IEnMin=13 EnMin= -1521.94036749141     IErMin=13 ErrMin= 9.13D-08
 ErrMax= 9.13D-08  0.00D+00 EMaxC= 1.00D-01 BMatC= 1.75D-11 BMatP= 5.80D-11
 IDIUse=1 WtCom= 1.00D+00 WtEn= 0.00D+00
 Coeff-Com:  0.292D-06-0.786D-06 0.796D-05 0.208D-04 0.959D-04 0.401D-03
 Coeff-Com:  0.476D-03-0.137D-02-0.120D-01-0.334D-01 0.255D-01 0.395D+00
 Coeff-Com:  0.625D+00
 Coeff:      0.292D-06-0.786D-06 0.796D-05 0.208D-04 0.959D-04 0.401D-03
 Coeff:      0.476D-03-0.137D-02-0.120D-01-0.334D-01 0.255D-01 0.395D+00
 Coeff:      0.625D+00
 Gap=     0.302 Goal=   None    Shift=    0.000
 RMSDP=1.52D-08 MaxDP=2.56D-06 DE=-1.41D-10 OVMax= 1.85D-06

 Cycle  14  Pass 1  IDiag  1:
 RMSU=  1.07D-08    CP:  7.97D-01  8.08D-01  9.95D-01  7.31D-01  9.00D-01
                    CP:  9.75D-01  9.54D-01  1.03D+00  9.82D-01  1.26D+00
                    CP:  9.04D-01  1.12D+00  1.02D+00
 E= -1521.94036749146     Delta-E=       -0.000000000050 Rises=F Damp=F
 DIIS: error= 2.68D-08 at cycle  14 NSaved=  14.
 NSaved=14 IEnMin=14 EnMin= -1521.94036749146     IErMin=14 ErrMin= 2.68D-08
 ErrMax= 2.68D-08  0.00D+00 EMaxC= 1.00D-01 BMatC= 1.38D-12 BMatP= 1.75D-11
 IDIUse=1 WtCom= 1.00D+00 WtEn= 0.00D+00
 Coeff-Com:  0.105D-05-0.204D-05-0.124D-04-0.170D-04-0.139D-04 0.170D-03
 Coeff-Com:  0.823D-03 0.148D-02-0.228D-02-0.242D-01-0.290D-01 0.738D-01
 Coeff-Com:  0.265D+00 0.714D+00
 Coeff:      0.105D-05-0.204D-05-0.124D-04-0.170D-04-0.139D-04 0.170D-03
 Coeff:      0.823D-03 0.148D-02-0.228D-02-0.242D-01-0.290D-01 0.738D-01
 Coeff:      0.265D+00 0.714D+00
 Gap=     0.302 Goal=   None    Shift=    0.000
 RMSDP=7.56D-09 MaxDP=1.65D-06 DE=-5.00D-11 OVMax= 4.99D-07

 Cycle  15  Pass 1  IDiag  1:
 RMSU=  3.98D-09    CP:  7.97D-01  8.08D-01  9.95D-01  7.31D-01  9.00D-01
                    CP:  9.75D-01  9.54D-01  1.03D+00  9.82D-01  1.26D+00
                    CP:  9.12D-01  1.17D+00  1.10D+00  9.61D-01
 E= -1521.94036749147     Delta-E=       -0.000000000014 Rises=F Damp=F
 DIIS: error= 6.77D-09 at cycle  15 NSaved=  15.
 NSaved=15 IEnMin=15 EnMin= -1521.94036749147     IErMin=15 ErrMin= 6.77D-09
 ErrMax= 6.77D-09  0.00D+00 EMaxC= 1.00D-01 BMatC= 1.16D-13 BMatP= 1.38D-12
 IDIUse=1 WtCom= 1.00D+00 WtEn= 0.00D+00
 Coeff-Com:  0.317D-06-0.630D-06-0.487D-05-0.729D-05-0.130D-04 0.232D-04
 Coeff-Com:  0.253D-03 0.646D-03 0.440D-03-0.516D-02-0.124D-01-0.961D-02
 Coeff-Com:  0.337D-01 0.259D+00 0.733D+00
 Coeff:      0.317D-06-0.630D-06-0.487D-05-0.729D-05-0.130D-04 0.232D-04
 Coeff:      0.253D-03 0.646D-03 0.440D-03-0.516D-02-0.124D-01-0.961D-02
 Coeff:      0.337D-01 0.259D+00 0.733D+00
 Gap=     0.302 Goal=   None    Shift=    0.000
 RMSDP=2.33D-09 MaxDP=5.63D-07 DE=-1.41D-11 OVMax= 2.19D-07

 SCF Done:  E(RM062X) =  -1521.94036749     A.U. after   15 cycles
            NFock= 15  Conv=0.23D-08     -V/T= 2.0034
 KE= 1.516767779681D+03 PE=-8.254643313061D+03 EE= 2.881287571706D+03
 Leave Link  502 at Mon May 23 15:04:17 2022, MaxMem= 13421772800 cpu:            6260.6 elap:             261.7
 (Enter /data0/home/wuhanyu/software/g16/l601.exe)
 Copying SCF densities to generalized density rwf, IOpCl= 0 IROHF=0.

 **********************************************************************

            Population analysis using the SCF density.

 **********************************************************************

 Alpha  occ. eigenvalues --  -78.14407 -19.65402 -19.63134 -19.63075 -19.62509
 Alpha  occ. eigenvalues --  -19.61611 -19.61265 -19.61235 -19.60378 -19.60234
 Alpha  occ. eigenvalues --  -19.57912 -14.86149 -14.86038 -10.66808 -10.66223
 Alpha  occ. eigenvalues --  -10.61101 -10.61066 -10.60634 -10.60430 -10.55864
 Alpha  occ. eigenvalues --  -10.55228  -6.95120  -5.07055  -5.06989  -5.06846
 Alpha  occ. eigenvalues --   -1.21398  -1.20419  -1.18809  -1.13870  -1.13182
 Alpha  occ. eigenvalues --   -1.12886  -1.12262  -1.12114  -1.10852  -1.10320
 Alpha  occ. eigenvalues --   -1.08244  -1.07653  -0.92531  -0.89088  -0.85975
 Alpha  occ. eigenvalues --   -0.81199  -0.74599  -0.72134  -0.70129  -0.69200
 Alpha  occ. eigenvalues --   -0.64995  -0.64248  -0.62811  -0.61464  -0.61194
 Alpha  occ. eigenvalues --   -0.60211  -0.60182  -0.59957  -0.59212  -0.57291
 Alpha  occ. eigenvalues --   -0.56360  -0.55751  -0.55254  -0.54921  -0.54289
 Alpha  occ. eigenvalues --   -0.53660  -0.52372  -0.52098  -0.50612  -0.50301
 Alpha  occ. eigenvalues --   -0.49002  -0.48465  -0.48087  -0.47857  -0.47357
 Alpha  occ. eigenvalues --   -0.47047  -0.46298  -0.45141  -0.44887  -0.43236
 Alpha  occ. eigenvalues --   -0.43151  -0.42894  -0.42326  -0.41291  -0.40153
 Alpha  occ. eigenvalues --   -0.39354  -0.38835  -0.38319  -0.38115  -0.37488
 Alpha  occ. eigenvalues --   -0.36961  -0.36198  -0.35890  -0.35571  -0.31849
 Alpha virt. eigenvalues --   -0.01664   0.00426   0.00941   0.01625   0.02172
 Alpha virt. eigenvalues --    0.02445   0.02986   0.03473   0.03908   0.04608
 Alpha virt. eigenvalues --    0.04838   0.05386   0.05871   0.06266   0.06414
 Alpha virt. eigenvalues --    0.06823   0.07239   0.07786   0.08196   0.09002
 Alpha virt. eigenvalues --    0.09293   0.09977   0.10352   0.10533   0.10951
 Alpha virt. eigenvalues --    0.11632   0.11958   0.12638   0.13051   0.13365
 Alpha virt. eigenvalues --    0.13722   0.14218   0.14615   0.14709   0.15533
 Alpha virt. eigenvalues --    0.15882   0.16020   0.16551   0.16717   0.16915
 Alpha virt. eigenvalues --    0.16971   0.17589   0.18013   0.18531   0.18781
 Alpha virt. eigenvalues --    0.18992   0.19536   0.19799   0.20054   0.20292
 Alpha virt. eigenvalues --    0.20736   0.20960   0.21270   0.21479   0.21915
 Alpha virt. eigenvalues --    0.22109   0.22391   0.22666   0.23043   0.23352
 Alpha virt. eigenvalues --    0.23894   0.24035   0.24285   0.24694   0.25384
 Alpha virt. eigenvalues --    0.25746   0.25991   0.26182   0.26203   0.26701
 Alpha virt. eigenvalues --    0.26788   0.27374   0.27781   0.27971   0.28304
 Alpha virt. eigenvalues --    0.28663   0.29177   0.29570   0.29675   0.30014
 Alpha virt. eigenvalues --    0.30252   0.30594   0.30723   0.31378   0.31536
 Alpha virt. eigenvalues --    0.31684   0.32058   0.32564   0.32914   0.33028
 Alpha virt. eigenvalues --    0.33539   0.33782   0.34273   0.34560   0.35126
 Alpha virt. eigenvalues --    0.35661   0.35989   0.36179   0.36451   0.36936
 Alpha virt. eigenvalues --    0.37446   0.38020   0.38196   0.38680   0.39377
 Alpha virt. eigenvalues --    0.39795   0.39957   0.40623   0.41089   0.41637
 Alpha virt. eigenvalues --    0.42344   0.42833   0.43274   0.43931   0.44580
 Alpha virt. eigenvalues --    0.44864   0.45618   0.45712   0.46472   0.46597
 Alpha virt. eigenvalues --    0.48143   0.48525   0.49218   0.49378   0.50143
 Alpha virt. eigenvalues --    0.50701   0.51579   0.52031   0.52939   0.53544
 Alpha virt. eigenvalues --    0.54189   0.54906   0.55849   0.56081   0.56862
 Alpha virt. eigenvalues --    0.57106   0.57998   0.58225   0.58561   0.59510
 Alpha virt. eigenvalues --    0.59592   0.60163   0.60963   0.61171   0.62576
 Alpha virt. eigenvalues --    0.62619   0.63218   0.64122   0.64256   0.65190
 Alpha virt. eigenvalues --    0.65762   0.66167   0.66403   0.66644   0.67290
 Alpha virt. eigenvalues --    0.67957   0.68711   0.69024   0.69757   0.70005
 Alpha virt. eigenvalues --    0.70792   0.71324   0.71986   0.72654   0.72953
 Alpha virt. eigenvalues --    0.74107   0.74424   0.75575   0.75863   0.77609
 Alpha virt. eigenvalues --    0.77678   0.78509   0.78648   0.79996   0.80454
 Alpha virt. eigenvalues --    0.81286   0.82010   0.82522   0.82792   0.83058
 Alpha virt. eigenvalues --    0.83682   0.84346   0.85724   0.86886   0.87589
 Alpha virt. eigenvalues --    0.88410   0.88901   0.89893   0.90784   0.91368
 Alpha virt. eigenvalues --    0.92589   0.93093   0.94842   0.95085   0.95571
 Alpha virt. eigenvalues --    0.97428   0.97702   0.98888   1.00259   1.01462
 Alpha virt. eigenvalues --    1.03340   1.04628   1.05529   1.07323   1.07613
 Alpha virt. eigenvalues --    1.09141   1.09380   1.10736   1.11336   1.12213
 Alpha virt. eigenvalues --    1.12620   1.13135   1.13503   1.13827   1.14195
 Alpha virt. eigenvalues --    1.15339   1.16357   1.17009   1.17607   1.17911
 Alpha virt. eigenvalues --    1.18202   1.18657   1.19391   1.20169   1.20340
 Alpha virt. eigenvalues --    1.20426   1.21287   1.22120   1.22180   1.22710
 Alpha virt. eigenvalues --    1.23365   1.23926   1.24602   1.25073   1.25863
 Alpha virt. eigenvalues --    1.26415   1.27008   1.27441   1.27975   1.28625
 Alpha virt. eigenvalues --    1.28900   1.29284   1.29895   1.30462   1.30712
 Alpha virt. eigenvalues --    1.31214   1.31919   1.32378   1.32684   1.33616
 Alpha virt. eigenvalues --    1.34073   1.34481   1.35477   1.35791   1.36241
 Alpha virt. eigenvalues --    1.36619   1.36948   1.38273   1.38397   1.38934
 Alpha virt. eigenvalues --    1.39253   1.40047   1.40823   1.41195   1.41796
 Alpha virt. eigenvalues --    1.42098   1.42698   1.43389   1.43838   1.44792
 Alpha virt. eigenvalues --    1.44915   1.45330   1.45644   1.47353   1.47926
 Alpha virt. eigenvalues --    1.48190   1.49013   1.50267   1.50690   1.51013
 Alpha virt. eigenvalues --    1.51436   1.53202   1.53735   1.54916   1.55364
 Alpha virt. eigenvalues --    1.55999   1.56757   1.57404   1.58465   1.58530
 Alpha virt. eigenvalues --    1.60510   1.61408   1.63238   1.63571   1.64147
 Alpha virt. eigenvalues --    1.65684   1.66871   1.67232   1.68287   1.68499
 Alpha virt. eigenvalues --    1.70304   1.70532   1.72533   1.72999   1.73993
 Alpha virt. eigenvalues --    1.74910   1.75527   1.76629   1.76986   1.77519
 Alpha virt. eigenvalues --    1.78605   1.79268   1.79554   1.80499   1.81342
 Alpha virt. eigenvalues --    1.81837   1.82289   1.82971   1.84295   1.84557
 Alpha virt. eigenvalues --    1.85440   1.86651   1.86860   1.87439   1.87899
 Alpha virt. eigenvalues --    1.89752   1.91224   1.92712   1.93254   1.94449
 Alpha virt. eigenvalues --    1.95072   1.96760   1.97184   1.97533   2.00252
 Alpha virt. eigenvalues --    2.01507   2.01884   2.02586   2.03670   2.05122
 Alpha virt. eigenvalues --    2.06511   2.06584   2.07061   2.07371   2.08923
 Alpha virt. eigenvalues --    2.10408   2.11134   2.11583   2.13234   2.13767
 Alpha virt. eigenvalues --    2.14006   2.14914   2.15911   2.17164   2.17868
 Alpha virt. eigenvalues --    2.18449   2.19410   2.21302   2.22704   2.23103
 Alpha virt. eigenvalues --    2.23870   2.24188   2.24447   2.26105   2.26446
 Alpha virt. eigenvalues --    2.27724   2.28663   2.30025   2.30321   2.30984
 Alpha virt. eigenvalues --    2.31419   2.33367   2.34273   2.34727   2.36208
 Alpha virt. eigenvalues --    2.36378   2.37025   2.37514   2.38758   2.40274
 Alpha virt. eigenvalues --    2.42435   2.43812   2.44319   2.44562   2.45192
 Alpha virt. eigenvalues --    2.46449   2.46671   2.47050   2.48470   2.51285
 Alpha virt. eigenvalues --    2.52380   2.54171   2.55295   2.57964   2.58986
 Alpha virt. eigenvalues --    2.59409   2.61055   2.61975   2.62304   2.65096
 Alpha virt. eigenvalues --    2.66607   2.68390   2.68961   2.70907   2.72434
 Alpha virt. eigenvalues --    2.73195   2.73796   2.75519   2.76237   2.78727
 Alpha virt. eigenvalues --    2.78803   2.79693   2.82413   2.84102   2.86384
 Alpha virt. eigenvalues --    2.87568   2.87980   2.88251   2.90047   2.90859
 Alpha virt. eigenvalues --    2.91565   2.92603   2.95577   2.96108   2.97096
 Alpha virt. eigenvalues --    2.97219   2.98221   3.00762   3.01576   3.02573
 Alpha virt. eigenvalues --    3.05050   3.06456   3.08323   3.10431   3.11372
 Alpha virt. eigenvalues --    3.12229   3.13427   3.15118   3.15413   3.18308
 Alpha virt. eigenvalues --    3.19065   3.21586   3.23153   3.23955   3.25277
 Alpha virt. eigenvalues --    3.28041   3.29022   3.29675   3.32242   3.33907
 Alpha virt. eigenvalues --    3.35088   3.35879   3.38541   3.40299   3.41912
 Alpha virt. eigenvalues --    3.42665   3.44311   3.45138   3.45560   3.47757
 Alpha virt. eigenvalues --    3.48851   3.50666   3.52064   3.54018   3.55602
 Alpha virt. eigenvalues --    3.56281   3.57668   3.58203   3.59811   3.60756
 Alpha virt. eigenvalues --    3.61294   3.62410   3.64871   3.65274   3.67249
 Alpha virt. eigenvalues --    3.68106   3.70541   3.72122   3.73221   3.73741
 Alpha virt. eigenvalues --    3.74502   3.78164   3.78539   3.84126   3.87576
 Alpha virt. eigenvalues --    3.90656   3.93907   3.95209   3.98529   3.98947
 Alpha virt. eigenvalues --    4.06067   4.07097   4.07664   4.09939   4.17094
 Alpha virt. eigenvalues --    4.18462   4.19656   4.20569   4.23973   4.27708
 Alpha virt. eigenvalues --    4.41225   4.42695   4.51676   4.55648   4.99067
 Alpha virt. eigenvalues --    5.01912   5.05049   5.06902   5.09470   5.10743
 Alpha virt. eigenvalues --    5.12105   5.13615   5.15679   5.16769   5.17484
 Alpha virt. eigenvalues --    5.19935   5.20393   5.21293   5.22146   5.23841
 Alpha virt. eigenvalues --    5.25218   5.26596   5.32075   5.33790   5.36734
 Alpha virt. eigenvalues --    5.38152   5.39033   5.45651   5.46049   5.47204
 Alpha virt. eigenvalues --    5.49226   5.56638   5.57843   5.58692   5.60422
 Alpha virt. eigenvalues --    5.61879   5.63018   5.64505   5.65139   5.67520
 Alpha virt. eigenvalues --    5.68276   5.85869   5.94541   5.99310   6.00336
 Alpha virt. eigenvalues --    6.01232   6.03112   6.22810   6.76425   6.78493
 Alpha virt. eigenvalues --    6.79564   6.80037   6.80669   6.81544   6.82029
 Alpha virt. eigenvalues --    6.82928   6.83870   6.84235   6.84992   6.86637
 Alpha virt. eigenvalues --    6.87456   6.88335   6.89152   6.90545   6.90958
 Alpha virt. eigenvalues --    6.91491   6.92288   6.93067   6.93985   6.94893
 Alpha virt. eigenvalues --    6.96463   6.96796   6.98081   6.99432   6.99945
 Alpha virt. eigenvalues --    7.02228   7.02839   7.03767   7.05538   7.06569
 Alpha virt. eigenvalues --    7.07732   7.10549   7.10576   7.12963   7.17903
 Alpha virt. eigenvalues --    7.18766   7.22578   7.23501   7.24627   7.28550
 Alpha virt. eigenvalues --    7.29700   7.31297   7.32949   7.35820   7.39590
 Alpha virt. eigenvalues --    7.39776   7.44341   7.48195   7.73267  14.30872
 Alpha virt. eigenvalues --   14.33941  14.43464  23.93458  23.99103  24.03989
 Alpha virt. eigenvalues --   24.06790  24.07775  24.13223  24.19165  24.24590
 Alpha virt. eigenvalues --   35.61885  35.72075  50.04093  50.05099  50.06342
 Alpha virt. eigenvalues --   50.07349  50.10740  50.11415  50.12333  50.16416
 Alpha virt. eigenvalues --   50.18628  50.21420 163.99562
          Condensed to atoms (all electrons):
               1          2          3          4          5          6
     1  C   14.806271  -7.045123  -1.703063  -0.485926   0.223543  -0.005204
     2  C   -7.045123  13.002246   0.184068   0.582050   0.078363   0.332885
     3  C   -1.703063   0.184068   8.433139  -0.205369   0.037089   0.013398
     4  N   -0.485926   0.582050  -0.205369   6.650350  -0.004111   0.011793
     5  H    0.223543   0.078363   0.037089  -0.004111   0.439334  -0.000189
     6  H   -0.005204   0.332885   0.013398   0.011793  -0.000189   0.424060
     7  H    0.008421   0.022429   0.337353  -0.014917  -0.000094  -0.000097
     8  C    0.012256  -0.099829  -0.217219   0.180520  -0.003703   0.000813
     9  H   -0.035978   0.007834   0.029126  -0.019772   0.000156  -0.000003
    10  H   -0.016845   0.031224   0.015098  -0.062581   0.002545  -0.000034
    11  H   -0.010832   0.010007  -0.028768  -0.049019   0.000576   0.000010
    12  N    0.680410  -0.552376  -0.012908  -0.154115  -0.000159  -0.021579
    13  C   -0.178508  -0.211041  -0.079965  -0.022975   0.003045  -0.000694
    14  H    0.028087  -0.040825  -0.001003  -0.007091  -0.000047   0.001069
    15  H   -0.016640   0.022055   0.009521   0.002748   0.000023  -0.000177
    16  C   -0.056950   0.044198  -0.169378   0.014192   0.001166   0.008247
    17  H    0.005948  -0.004145  -0.003299  -0.000436  -0.000002  -0.000047
    18  H   -0.057883   0.050035   0.043871   0.002276   0.000076  -0.001411
    19  C   -0.198429   0.383201   0.305331  -0.067226   0.000269  -0.008639
    20  H    0.001464  -0.003055   0.002124  -0.000259  -0.000000   0.000008
    21  H   -0.007947   0.003467   0.015274   0.000481   0.000002   0.000008
    22  C    0.601134  -0.538003  -0.683236   0.129818  -0.003295   0.006019
    23  O   -0.061629   0.013626   0.007329   0.029063   0.000461  -0.000224
    24  O    0.118704  -0.113868   0.050548  -0.031219  -0.000606   0.000159
    25  P   -0.260860   0.149006   0.076379   0.020628   0.006007   0.000354
    26  O    0.049920   0.028449  -0.002443  -0.035448  -0.010609  -0.000369
    27  O    0.037782  -0.031108  -0.010629   0.000329  -0.000347   0.000161
    28  H   -0.026354   0.018205   0.006883  -0.001729   0.000173  -0.000003
    29  O   -0.007347   0.002392   0.000681  -0.000184   0.000064  -0.000004
    30  H   -0.001450   0.000439  -0.000379   0.000035   0.000001   0.000000
    31  O   -0.028325   0.014901  -0.023858   0.021443   0.000201   0.000015
    32  H    0.004205  -0.001091  -0.001185   0.014042  -0.000100  -0.000016
    33  O    0.112941  -0.117702  -0.024230  -0.004772  -0.002820  -0.004384
    34  H   -0.031013   0.024994   0.004823  -0.000989   0.000402   0.000140
    35  H   -0.028524   0.056390   0.013337   0.002124   0.001167  -0.000166
    36  O   -0.004315  -0.000841   0.008178  -0.007613  -0.000003   0.000017
    37  H    0.002476  -0.001874  -0.000048   0.001527  -0.000001   0.000000
    38  H    0.000822  -0.005440   0.022017  -0.005556   0.000015  -0.000004
    39  O    0.099284  -0.085454  -0.018478  -0.016999  -0.000985  -0.000323
    40  H   -0.029801   0.017285   0.013647   0.013170   0.002814   0.000102
    41  H   -0.029044   0.017718   0.003323   0.001883   0.001058   0.000179
    42  O    0.000661  -0.014795  -0.007686  -0.003460  -0.000002  -0.004163
    43  H    0.007485  -0.002610  -0.000753  -0.000096  -0.000002   0.000109
    44  H   -0.050724   0.077642   0.004748   0.000957   0.000328  -0.001434
               7          8          9         10         11         12
     1  C    0.008421   0.012256  -0.035978  -0.016845  -0.010832   0.680410
     2  C    0.022429  -0.099829   0.007834   0.031224   0.010007  -0.552376
     3  C    0.337353  -0.217219   0.029126   0.015098  -0.028768  -0.012908
     4  N   -0.014917   0.180520  -0.019772  -0.062581  -0.049019  -0.154115
     5  H   -0.000094  -0.003703   0.000156   0.002545   0.000576  -0.000159
     6  H   -0.000097   0.000813  -0.000003  -0.000034   0.000010  -0.021579
     7  H    0.410497   0.004468   0.000756   0.000045   0.001108  -0.043580
     8  C    0.004468   5.483132   0.392557   0.399800   0.434388  -0.058069
     9  H    0.000756   0.392557   0.448834  -0.019933  -0.027130   0.005054
    10  H    0.000045   0.399800  -0.019933   0.449089  -0.016048  -0.001611
    11  H    0.001108   0.434388  -0.027130  -0.016048   0.500743  -0.005942
    12  N   -0.043580  -0.058069   0.005054  -0.001611  -0.005942   6.844203
    13  C    0.009172  -0.018000  -0.000984   0.001041   0.000146   0.097111
    14  H    0.000114  -0.000841   0.000002  -0.000002  -0.000007  -0.058685
    15  H    0.000076   0.000744   0.000017  -0.000000  -0.000016  -0.052783
    16  C   -0.004984   0.002135   0.000748   0.000085  -0.000254  -0.069751
    17  H   -0.000078   0.000048  -0.000000  -0.000000  -0.000000   0.003355
    18  H   -0.000040  -0.000221   0.000001   0.000001   0.000001   0.010623
    19  C    0.001564  -0.026283  -0.000253   0.000280  -0.000051   0.005543
    20  H   -0.000050  -0.000140   0.000000  -0.000000  -0.000000   0.004532
    21  H    0.000019   0.000321   0.000003   0.000001   0.000001  -0.001519
    22  C    0.007758   0.038022   0.000507  -0.002700   0.000077  -0.112343
    23  O   -0.010130  -0.009499   0.001713   0.000065   0.000626   0.086721
    24  O   -0.000784  -0.001817   0.000011  -0.000009   0.000012   0.073809
    25  P   -0.000596  -0.010101   0.001053   0.005680   0.002479   0.008613
    26  O    0.000283  -0.043102  -0.000819   0.002773   0.001074  -0.013525
    27  O   -0.000023   0.001615   0.000361   0.000281   0.000015   0.001859
    28  H   -0.000046  -0.001901   0.000006   0.000047  -0.000002  -0.001640
    29  O    0.000004   0.000676  -0.000290  -0.000005   0.000007   0.000086
    30  H    0.000000   0.001345   0.000022   0.000049   0.000001  -0.000005
    31  O   -0.000994   0.018728  -0.007608  -0.003238   0.001105  -0.003107
    32  H    0.002832   0.007010   0.002385  -0.000545  -0.000293  -0.014215
    33  O    0.000105   0.000357   0.000004  -0.000015  -0.000004   0.050928
    34  H   -0.000042   0.000039  -0.000006   0.000002   0.000000  -0.012185
    35  H   -0.000026  -0.000033  -0.000000   0.000005   0.000001  -0.013565
    36  O   -0.017587   0.001959  -0.000803  -0.000104   0.000039   0.023393
    37  H   -0.002355   0.000396  -0.000198  -0.000005  -0.000030   0.000076
    38  H   -0.007047  -0.004815  -0.000151   0.000094  -0.000024  -0.011739
    39  O    0.000011  -0.000836   0.000025   0.000230   0.000020   0.003754
    40  H   -0.000036  -0.001318   0.000008  -0.000380  -0.000025  -0.006096
    41  H   -0.000001  -0.000289   0.000002   0.000005   0.000000   0.000918
    42  O    0.000006  -0.000736  -0.000001  -0.000000  -0.000001   0.008562
    43  H   -0.000001   0.000009   0.000000  -0.000000  -0.000000  -0.001105
    44  H   -0.000022  -0.000089   0.000000   0.000001   0.000000  -0.015675
              13         14         15         16         17         18
     1  C   -0.178508   0.028087  -0.016640  -0.056950   0.005948  -0.057883
     2  C   -0.211041  -0.040825   0.022055   0.044198  -0.004145   0.050035
     3  C   -0.079965  -0.001003   0.009521  -0.169378  -0.003299   0.043871
     4  N   -0.022975  -0.007091   0.002748   0.014192  -0.000436   0.002276
     5  H    0.003045  -0.000047   0.000023   0.001166  -0.000002   0.000076
     6  H   -0.000694   0.001069  -0.000177   0.008247  -0.000047  -0.001411
     7  H    0.009172   0.000114   0.000076  -0.004984  -0.000078  -0.000040
     8  C   -0.018000  -0.000841   0.000744   0.002135   0.000048  -0.000221
     9  H   -0.000984   0.000002   0.000017   0.000748  -0.000000   0.000001
    10  H    0.001041  -0.000002  -0.000000   0.000085  -0.000000   0.000001
    11  H    0.000146  -0.000007  -0.000016  -0.000254  -0.000000   0.000001
    12  N    0.097111  -0.058685  -0.052783  -0.069751   0.003355   0.010623
    13  C    6.538079   0.475644   0.433609  -0.383303  -0.035963   0.014801
    14  H    0.475644   0.444523  -0.021363  -0.056174  -0.002654  -0.007740
    15  H    0.433609  -0.021363   0.462960  -0.044488  -0.002272   0.003211
    16  C   -0.383303  -0.056174  -0.044488   6.634168   0.441797   0.314458
    17  H   -0.035963  -0.002654  -0.002272   0.441797   0.502184  -0.027501
    18  H    0.014801  -0.007740   0.003211   0.314458  -0.027501   0.540557
    19  C   -0.053620   0.007391  -0.004460  -0.669200  -0.051242   0.021622
    20  H    0.011243  -0.000149  -0.000075  -0.031401  -0.007946  -0.000544
    21  H    0.009322  -0.000363  -0.000912  -0.034165  -0.002540   0.005034
    22  C   -0.126991   0.009810   0.004909   0.257882   0.011888  -0.069780
    23  O    0.041256  -0.000562  -0.001608  -0.031842  -0.001534   0.004167
    24  O    0.008817  -0.000479  -0.000637  -0.051593  -0.000413   0.004275
    25  P   -0.010401   0.000053   0.000101   0.011805   0.000049   0.000515
    26  O    0.005191   0.000004   0.000001  -0.004955  -0.000005   0.000168
    27  O    0.001618  -0.000000  -0.000004  -0.006881  -0.000005   0.000208
    28  H    0.003757   0.000000   0.000007   0.011795  -0.000013   0.000021
    29  O   -0.000190  -0.000000   0.000000  -0.000031   0.000000   0.000000
    30  H   -0.000016  -0.000000   0.000000   0.000041  -0.000000  -0.000000
    31  O   -0.003401  -0.000001  -0.000011   0.000110  -0.000006  -0.000031
    32  H   -0.000525   0.000000   0.000005  -0.001636   0.000001   0.000068
    33  O    0.061111  -0.002694  -0.000325  -0.096301   0.001346  -0.005255
    34  H   -0.007320   0.000605   0.000057   0.031095  -0.000171   0.007127
    35  H   -0.020935   0.000325   0.000006   0.011818   0.000012   0.001916
    36  O    0.002124   0.000051  -0.000578   0.009311   0.000044  -0.000310
    37  H   -0.001275   0.000002   0.000040   0.003219  -0.000001  -0.000003
    38  H   -0.000979  -0.000011   0.000417  -0.001437  -0.000029   0.000040
    39  O    0.003659   0.000016  -0.000002   0.000696  -0.000002   0.000067
    40  H   -0.004287   0.000004  -0.000002  -0.000226   0.000003  -0.000001
    41  H    0.000388  -0.000000  -0.000000  -0.000222   0.000000   0.000001
    42  O   -0.005969  -0.006362   0.000537  -0.054678   0.003563  -0.000625
    43  H    0.000151   0.000820   0.000004   0.004399  -0.000134  -0.001090
    44  H   -0.011662   0.001929   0.000146   0.016118  -0.000405   0.010578
              19         20         21         22         23         24
     1  C   -0.198429   0.001464  -0.007947   0.601134  -0.061629   0.118704
     2  C    0.383201  -0.003055   0.003467  -0.538003   0.013626  -0.113868
     3  C    0.305331   0.002124   0.015274  -0.683236   0.007329   0.050548
     4  N   -0.067226  -0.000259   0.000481   0.129818   0.029063  -0.031219
     5  H    0.000269  -0.000000   0.000002  -0.003295   0.000461  -0.000606
     6  H   -0.008639   0.000008   0.000008   0.006019  -0.000224   0.000159
     7  H    0.001564  -0.000050   0.000019   0.007758  -0.010130  -0.000784
     8  C   -0.026283  -0.000140   0.000321   0.038022  -0.009499  -0.001817
     9  H   -0.000253   0.000000   0.000003   0.000507   0.001713   0.000011
    10  H    0.000280  -0.000000   0.000001  -0.002700   0.000065  -0.000009
    11  H   -0.000051  -0.000000   0.000001   0.000077   0.000626   0.000012
    12  N    0.005543   0.004532  -0.001519  -0.112343   0.086721   0.073809
    13  C   -0.053620   0.011243   0.009322  -0.126991   0.041256   0.008817
    14  H    0.007391  -0.000149  -0.000363   0.009810  -0.000562  -0.000479
    15  H   -0.004460  -0.000075  -0.000912   0.004909  -0.001608  -0.000637
    16  C   -0.669200  -0.031401  -0.034165   0.257882  -0.031842  -0.051593
    17  H   -0.051242  -0.007946  -0.002540   0.011888  -0.001534  -0.000413
    18  H    0.021622  -0.000544   0.005034  -0.069780   0.004167   0.004275
    19  C    7.519472   0.462065   0.473512  -1.489158   0.034512  -0.067188
    20  H    0.462065   0.493952  -0.025903  -0.117125   0.014605   0.002912
    21  H    0.473512  -0.025903   0.483358  -0.128823   0.006129   0.007418
    22  C   -1.489158  -0.117125  -0.128823   7.412582  -0.071191   0.218598
    23  O    0.034512   0.014605   0.006129  -0.071191   8.713306  -0.015855
    24  O   -0.067188   0.002912   0.007418   0.218598  -0.015855   8.282619
    25  P   -0.016296   0.000276  -0.000247  -0.101811   0.066561   0.071431
    26  O    0.005840   0.000002   0.000029   0.039905  -0.017598  -0.021767
    27  O    0.014816   0.000082  -0.000040  -0.009741  -0.019676  -0.014957
    28  H    0.000921  -0.000247   0.000244   0.011257   0.009222   0.055340
    29  O   -0.001224   0.000001  -0.000002  -0.011445   0.006507   0.006462
    30  H   -0.000452  -0.000000   0.000000  -0.002126   0.000605   0.000534
    31  O   -0.012894   0.000094  -0.000014  -0.026242   0.018800  -0.005522
    32  H    0.023577  -0.000232   0.000393   0.031910   0.000719  -0.014969
    33  O    0.094726   0.000207  -0.000237  -0.126347   0.004230   0.030419
    34  H   -0.054725  -0.000156   0.000109   0.085762  -0.004767   0.008914
    35  H   -0.001438   0.000010   0.000001   0.002378  -0.000155  -0.005695
    36  O   -0.008254   0.001166   0.001651  -0.016019  -0.012846   0.000077
    37  H   -0.007953  -0.000026  -0.000228   0.009927  -0.001212   0.000187
    38  H   -0.003896  -0.000946  -0.007643   0.050306  -0.021399   0.001758
    39  O   -0.004135   0.000002   0.000006   0.021879  -0.000498  -0.007399
    40  H    0.001032  -0.000001  -0.000002  -0.008646   0.000590   0.004174
    41  H    0.000292   0.000000  -0.000000  -0.002523   0.000018   0.000442
    42  O    0.025551   0.000014  -0.000152  -0.001077  -0.000226   0.001751
    43  H    0.000348  -0.000006  -0.000003   0.000398  -0.000009  -0.000042
    44  H   -0.020019   0.000013   0.000045   0.020228   0.000012  -0.006254
              25         26         27         28         29         30
     1  C   -0.260860   0.049920   0.037782  -0.026354  -0.007347  -0.001450
     2  C    0.149006   0.028449  -0.031108   0.018205   0.002392   0.000439
     3  C    0.076379  -0.002443  -0.010629   0.006883   0.000681  -0.000379
     4  N    0.020628  -0.035448   0.000329  -0.001729  -0.000184   0.000035
     5  H    0.006007  -0.010609  -0.000347   0.000173   0.000064   0.000001
     6  H    0.000354  -0.000369   0.000161  -0.000003  -0.000004   0.000000
     7  H   -0.000596   0.000283  -0.000023  -0.000046   0.000004   0.000000
     8  C   -0.010101  -0.043102   0.001615  -0.001901   0.000676   0.001345
     9  H    0.001053  -0.000819   0.000361   0.000006  -0.000290   0.000022
    10  H    0.005680   0.002773   0.000281   0.000047  -0.000005   0.000049
    11  H    0.002479   0.001074   0.000015  -0.000002   0.000007   0.000001
    12  N    0.008613  -0.013525   0.001859  -0.001640   0.000086  -0.000005
    13  C   -0.010401   0.005191   0.001618   0.003757  -0.000190  -0.000016
    14  H    0.000053   0.000004  -0.000000   0.000000  -0.000000  -0.000000
    15  H    0.000101   0.000001  -0.000004   0.000007   0.000000   0.000000
    16  C    0.011805  -0.004955  -0.006881   0.011795  -0.000031   0.000041
    17  H    0.000049  -0.000005  -0.000005  -0.000013   0.000000  -0.000000
    18  H    0.000515   0.000168   0.000208   0.000021   0.000000  -0.000000
    19  C   -0.016296   0.005840   0.014816   0.000921  -0.001224  -0.000452
    20  H    0.000276   0.000002   0.000082  -0.000247   0.000001  -0.000000
    21  H   -0.000247   0.000029  -0.000040   0.000244  -0.000002   0.000000
    22  C   -0.101811   0.039905  -0.009741   0.011257  -0.011445  -0.002126
    23  O    0.066561  -0.017598  -0.019676   0.009222   0.006507   0.000605
    24  O    0.071431  -0.021767  -0.014957   0.055340   0.006462   0.000534
    25  P   12.568304   0.413898   0.275606   0.008547   0.202141  -0.000237
    26  O    0.413898   8.332684  -0.030110   0.005564  -0.031278  -0.009387
    27  O    0.275606  -0.030110   8.228166   0.192255  -0.003261  -0.003691
    28  H    0.008547   0.005564   0.192255   0.252473  -0.006279  -0.000789
    29  O    0.202141  -0.031278  -0.003261  -0.006279   8.029416   0.249066
    30  H   -0.000237  -0.009387  -0.003691  -0.000789   0.249066   0.459552
    31  O    0.312910  -0.031157  -0.002036  -0.007325   0.024182  -0.002379
    32  H   -0.007324   0.002128  -0.003309   0.002173  -0.006327  -0.000746
    33  O   -0.023894  -0.005934   0.009682  -0.007384   0.000008   0.000022
    34  H    0.004005   0.001479  -0.004673   0.008541  -0.000180  -0.000003
    35  H    0.007727   0.002393  -0.000802  -0.000650   0.000059  -0.000010
    36  O    0.000648  -0.000072  -0.000105   0.000042   0.000028   0.000001
    37  H   -0.000028  -0.000006   0.000002  -0.000003   0.000000  -0.000000
    38  H    0.001126  -0.000214   0.000042  -0.000002  -0.000001  -0.000001
    39  O   -0.028064  -0.026790   0.006735   0.001848  -0.002802   0.000071
    40  H    0.035366   0.063185  -0.009731  -0.001647   0.002526  -0.000004
    41  H    0.004916   0.002200  -0.000759  -0.000240   0.000132  -0.000008
    42  O   -0.001133   0.000079   0.000032  -0.000004  -0.000002  -0.000000
    43  H   -0.000012  -0.000001  -0.000001   0.000002  -0.000000  -0.000000
    44  H    0.002171   0.000011  -0.000023   0.000038   0.000002  -0.000000
              31         32         33         34         35         36
     1  C   -0.028325   0.004205   0.112941  -0.031013  -0.028524  -0.004315
     2  C    0.014901  -0.001091  -0.117702   0.024994   0.056390  -0.000841
     3  C   -0.023858  -0.001185  -0.024230   0.004823   0.013337   0.008178
     4  N    0.021443   0.014042  -0.004772  -0.000989   0.002124  -0.007613
     5  H    0.000201  -0.000100  -0.002820   0.000402   0.001167  -0.000003
     6  H    0.000015  -0.000016  -0.004384   0.000140  -0.000166   0.000017
     7  H   -0.000994   0.002832   0.000105  -0.000042  -0.000026  -0.017587
     8  C    0.018728   0.007010   0.000357   0.000039  -0.000033   0.001959
     9  H   -0.007608   0.002385   0.000004  -0.000006  -0.000000  -0.000803
    10  H   -0.003238  -0.000545  -0.000015   0.000002   0.000005  -0.000104
    11  H    0.001105  -0.000293  -0.000004   0.000000   0.000001   0.000039
    12  N   -0.003107  -0.014215   0.050928  -0.012185  -0.013565   0.023393
    13  C   -0.003401  -0.000525   0.061111  -0.007320  -0.020935   0.002124
    14  H   -0.000001   0.000000  -0.002694   0.000605   0.000325   0.000051
    15  H   -0.000011   0.000005  -0.000325   0.000057   0.000006  -0.000578
    16  C    0.000110  -0.001636  -0.096301   0.031095   0.011818   0.009311
    17  H   -0.000006   0.000001   0.001346  -0.000171   0.000012   0.000044
    18  H   -0.000031   0.000068  -0.005255   0.007127   0.001916  -0.000310
    19  C   -0.012894   0.023577   0.094726  -0.054725  -0.001438  -0.008254
    20  H    0.000094  -0.000232   0.000207  -0.000156   0.000010   0.001166
    21  H   -0.000014   0.000393  -0.000237   0.000109   0.000001   0.001651
    22  C   -0.026242   0.031910  -0.126347   0.085762   0.002378  -0.016019
    23  O    0.018800   0.000719   0.004230  -0.004767  -0.000155  -0.012846
    24  O   -0.005522  -0.014969   0.030419   0.008914  -0.005695   0.000077
    25  P    0.312910  -0.007324  -0.023894   0.004005   0.007727   0.000648
    26  O   -0.031157   0.002128  -0.005934   0.001479   0.002393  -0.000072
    27  O   -0.002036  -0.003309   0.009682  -0.004673  -0.000802  -0.000105
    28  H   -0.007325   0.002173  -0.007384   0.008541  -0.000650   0.000042
    29  O    0.024182  -0.006327   0.000008  -0.000180   0.000059   0.000028
    30  H   -0.002379  -0.000746   0.000022  -0.000003  -0.000010   0.000001
    31  O    8.235305   0.172990   0.000605  -0.000177  -0.000079   0.002327
    32  H    0.172990   0.300804  -0.000196   0.000181  -0.000004  -0.008908
    33  O    0.000605  -0.000196   8.419126   0.135535   0.152995  -0.000018
    34  H   -0.000177   0.000181   0.135535   0.430676   0.045518   0.000027
    35  H   -0.000079  -0.000004   0.152995   0.045518   0.430888  -0.000002
    36  O    0.002327  -0.008908  -0.000018   0.000027  -0.000002   8.161790
    37  H    0.000167  -0.000575   0.000000  -0.000000  -0.000000   0.262977
    38  H   -0.003436   0.004016   0.000041  -0.000076   0.000001   0.237145
    39  O   -0.001503  -0.000025   0.012282   0.001387  -0.034775  -0.000002
    40  H    0.003252   0.000080  -0.002424  -0.002009   0.006643   0.000003
    41  H    0.000063  -0.000005  -0.000044  -0.000675  -0.001585  -0.000000
    42  O   -0.000004  -0.000002   0.026622  -0.014039  -0.026004  -0.000008
    43  H    0.000000  -0.000000   0.002668   0.000563   0.000006   0.000000
    44  H    0.000010  -0.000017  -0.097580   0.038339   0.041692   0.000001
              37         38         39         40         41         42
     1  C    0.002476   0.000822   0.099284  -0.029801  -0.029044   0.000661
     2  C   -0.001874  -0.005440  -0.085454   0.017285   0.017718  -0.014795
     3  C   -0.000048   0.022017  -0.018478   0.013647   0.003323  -0.007686
     4  N    0.001527  -0.005556  -0.016999   0.013170   0.001883  -0.003460
     5  H   -0.000001   0.000015  -0.000985   0.002814   0.001058  -0.000002
     6  H    0.000000  -0.000004  -0.000323   0.000102   0.000179  -0.004163
[...]
 Charge=             -0.0000 electrons
 Dipole moment (field-independent basis, Debye):
    X=              1.4428    Y=              0.1067    Z=             -1.5482  Tot=              2.1189
 Quadrupole moment (field-independent basis, Debye-Ang):
   XX=             15.8055   YY=             -4.5550   ZZ=            -26.2772
   XY=             14.7601   XZ=             -1.9386   YZ=            -11.8777
 Traceless Quadrupole moment (field-independent basis, Debye-Ang):
   XX=             20.8144   YY=              0.4539   ZZ=            -21.2683
   XY=             14.7601   XZ=             -1.9386   YZ=            -11.8777
 Octapole moment (field-independent basis, Debye-Ang**2):
  XXX=            112.3628  YYY=           -145.4638  ZZZ=           -318.6799  XYY=             99.9680
  XXY=            164.5960  XXZ=             19.6470  XZZ=           -132.6033  YZZ=           -213.5756
  YYZ=           -131.7570  XYZ=              4.3867
 Hexadecapole moment (field-independent basis, Debye-Ang**3):
 XXXX=            464.3868 YYYY=          -2720.4567 ZZZZ=          -3332.4323 XXXY=           1259.9839
 XXXZ=            117.4816 YYYX=            190.1689 YYYZ=          -1776.7876 ZZZX=          -1962.6426
 ZZZY=          -2651.7201 XXYY=           1311.3882 XXZZ=           -765.7056 YYZZ=          -2008.4228
 XXYZ=            399.9817 YYXZ=            -91.0652 ZZXY=           -979.3141
 N-N= 9.100056185713D+00 E-N=-1.990507503682D+02  KE= 7.619455160493D+01
 No NMR shielding tensors so no spin-rotation constants.
 Leave Link  601 at Mon May 23 15:22:24 2022, MaxMem= 13421772800 cpu:               1.7 elap:               0.1
 (Enter /data0/home/wuhanyu/software/g16/l122.exe)
 CPIOFr:  IOpCl= 0 IRwI=-1 IRwCP=  731 ICalc= 11 LCPTot=      779628 Len1MO=     2048337 IndFrg=    25359672
 Counterpoise: doing calculation for fragment   6 using the basis set of the fragment.
 Leave Link  122 at Mon May 23 15:22:24 2022, MaxMem= 13421772800 cpu:               0.4 elap:               0.0
 (Enter /data0/home/wuhanyu/software/g16/l301.exe)
 Basis read from rwf:  (5D, 7F)
 No pseudopotential information found on rwf file.
    39 basis functions,    58 primitive gaussians,    41 cartesian basis functions
     5 alpha electrons        5 beta electrons
       nuclear repulsion energy         9.1051614949 Hartrees.
 IExCor= 4336 DFT=T Ex+Corr=M062X ExCW=0 ScaHFX=  0.540000
 ScaDFX=  1.000000  1.000000  1.000000  1.000000 ScalE2=  1.000000  1.000000
 IRadAn=      5 IRanWt=     -1 IRanGd=            0 ICorTp=0 IEmpDi=131
 NAtoms=   44 NActive=    3 NUniq=    3 SFac= 1.00D+00 NAtFMM=   60 NAOKFM=F Big=F
 Integral buffers will be    131072 words long.
 Raffenetti 2 integral format.
 Two-electron integral symmetry is turned off.
 R6Disp:  Grimme-D3 Dispersion energy=       -0.0000000079 Hartrees.
 Nuclear repulsion after empirical dispersion term =        9.1051614870 Hartrees.
 No density basis found on file   718.
 Leave Link  301 at Mon May 23 15:22:24 2022, MaxMem= 13421772800 cpu:               1.2 elap:               0.1
 (Enter /data0/home/wuhanyu/software/g16/l302.exe)
 NPDir=0 NMtPBC=     1 NCelOv=     1 NCel=       1 NClECP=     1 NCelD=      1
         NCelK=      1 NCelE2=     1 NClLst=     1 CellRange=     0.0.
 One-electron integrals computed using PRISM.
 NBasis=    39 RedAO= T EigKep=  3.06D-03  NBF=    39
 NBsUse=    39 1.00D-06 EigRej= -1.00D+00 NBFU=    39
 Precomputing XC quadrature grid using
 IXCGrd= 4 IRadAn=           5 IRanWt=          -1 IRanGd=           0 AccXCQ= 0.00D+00.
 Generated NRdTot=       0 NPtTot=           0 NUsed=           0 NTot=          32
 NSgBfM=    41    41    41    41    41 MxSgAt=     3 MxSgA2=     3.
 Leave Link  302 at Mon May 23 15:22:24 2022, MaxMem= 13421772800 cpu:               2.2 elap:               0.1
 (Enter /data0/home/wuhanyu/software/g16/l303.exe)
 DipDrv:  MaxL=1.
 Leave Link  303 at Mon May 23 15:22:24 2022, MaxMem= 13421772800 cpu:               0.4 elap:               0.0
 (Enter /data0/home/wuhanyu/software/g16/l401.exe)
 ExpMin= 8.45D-02 ExpMax= 8.59D+03 ExpMxC= 1.30D+03 IAcc=3 IRadAn=         5 AccDes= 0.00D+00
 Harris functional with IExCor= 1009 and IRadAn=       5 diagonalized for initial guess.
 HarFok:  IExCor= 1009 AccDes= 0.00D+00 IRadAn=         5 IDoV= 1 UseB2=F ITyADJ=14
 ICtDFT=  3500011 ScaDFX=  1.000000  1.000000  1.000000  1.000000
 FoFCou: FMM=F IPFlag=           0 FMFlag=      100000 FMFlg1=           0
         NFxFlg=           0 DoJE=T BraDBF=F KetDBF=T FulRan=T
         wScrn=  0.000000 ICntrl=       500 IOpCl=  0 I1Cent=   200000004 NGrid=           0
         NMat0=    1 NMatS0=      1 NMatT0=    0 NMatD0=    1 NMtDS0=    0 NMtDT0=    0
 Symmetry not used in FoFCou.
 Harris En= -76.4163654169554    
 JPrj=0 DoOrth=F DoCkMO=F.
 Leave Link  401 at Mon May 23 15:22:24 2022, MaxMem= 13421772800 cpu:               2.8 elap:               0.1
 (Enter /data0/home/wuhanyu/software/g16/l502.exe)
 Keep R1 ints in memory in canonical form, NReq=21049381.
 FoFCou: FMM=F IPFlag=           0 FMFlag=           0 FMFlg1=           0
         NFxFlg=           0 DoJE=F BraDBF=F KetDBF=F FulRan=T
         wScrn=  0.000000 ICntrl=       600 IOpCl=  0 I1Cent=           0 NGrid=           0
         NMat0=    1 NMatS0=    780 NMatT0=    0 NMatD0=    1 NMtDS0=    0 NMtDT0=    0
 Symmetry not used in FoFCou.
 Two-electron integral symmetry not used.
 Closed shell SCF:
 Using DIIS extrapolation, IDIIS=  1040.
 NGot= 13421772800 LenX= 13421462123 LenY= 13421460001
 Requested convergence on RMS density matrix=1.00D-08 within 128 cycles.
 Requested convergence on MAX density matrix=1.00D-06.
 Requested convergence on             energy=1.00D-06.
 No special actions if energy rises.
 Integral accuracy reduced to 1.0D-05 until final iterations.

 Cycle   1  Pass 0  IDiag  1:
 E= -76.3457652912076    
 DIIS: error= 7.03D-02 at cycle   1 NSaved=   1.
 NSaved= 1 IEnMin= 1 EnMin= -76.3457652912076     IErMin= 1 ErrMin= 7.03D-02
 ErrMax= 7.03D-02  0.00D+00 EMaxC= 1.00D-01 BMatC= 1.21D-01 BMatP= 1.21D-01
 IDIUse=3 WtCom= 2.97D-01 WtEn= 7.03D-01
 Coeff-Com:  0.100D+01
 Coeff-En:   0.100D+01
 Coeff:      0.100D+01
 Gap=     0.325 Goal=   None    Shift=    0.000
 GapD=    0.325 DampG=1.000 DampE=0.500 DampFc=0.5000 IDamp=-1.
 Damping current iteration by 5.00D-01
 RMSDP=7.89D-03 MaxDP=1.01D-01              OVMax= 1.68D-01

 Cycle   2  Pass 0  IDiag  1:
 E= -76.3773024008606     Delta-E=       -0.031537109653 Rises=F Damp=T
 DIIS: error= 1.13D-02 at cycle   2 NSaved=   2.
 NSaved= 2 IEnMin= 2 EnMin= -76.3773024008606     IErMin= 2 ErrMin= 1.13D-02
 ErrMax= 1.13D-02  0.00D+00 EMaxC= 1.00D-01 BMatC= 4.84D-03 BMatP= 1.21D-01
 IDIUse=3 WtCom= 8.87D-01 WtEn= 1.13D-01
 Coeff-Com:  0.821D-01 0.918D+00
 Coeff-En:   0.187D+00 0.813D+00
 Coeff:      0.940D-01 0.906D+00
 Gap=     0.457 Goal=   None    Shift=    0.000
 RMSDP=9.41D-04 MaxDP=1.40D-02 DE=-3.15D-02 OVMax= 1.01D-01

 Cycle   3  Pass 0  IDiag  1:
 E= -76.4213589625782     Delta-E=       -0.044056561718 Rises=F Damp=F
 DIIS: error= 2.19D-03 at cycle   3 NSaved=   3.
 NSaved= 3 IEnMin= 3 EnMin= -76.4213589625782     IErMin= 3 ErrMin= 2.19D-03
 ErrMax= 2.19D-03  0.00D+00 EMaxC= 1.00D-01 BMatC= 9.27D-05 BMatP= 4.84D-03
 IDIUse=3 WtCom= 9.78D-01 WtEn= 2.19D-02
 Coeff-Com: -0.201D-01 0.402D-01 0.980D+00
 Coeff-En:   0.000D+00 0.000D+00 0.100D+01
 Coeff:     -0.196D-01 0.393D-01 0.980D+00
 Gap=     0.462 Goal=   None    Shift=    0.000
 RMSDP=1.16D-04 MaxDP=1.00D-03 DE=-4.41D-02 OVMax= 3.33D-03

 Cycle   4  Pass 0  IDiag  1:
 E= -76.4214377974855     Delta-E=       -0.000078834907 Rises=F Damp=F
 DIIS: error= 4.14D-04 at cycle   4 NSaved=   4.
 NSaved= 4 IEnMin= 4 EnMin= -76.4214377974855     IErMin= 4 ErrMin= 4.14D-04
 ErrMax= 4.14D-04  0.00D+00 EMaxC= 1.00D-01 BMatC= 3.34D-06 BMatP= 9.27D-05
 IDIUse=3 WtCom= 9.96D-01 WtEn= 4.14D-03
 Coeff-Com: -0.195D-02-0.213D-02 0.164D+00 0.840D+00
 Coeff-En:   0.000D+00 0.000D+00 0.000D+00 0.100D+01
 Coeff:     -0.194D-02-0.212D-02 0.163D+00 0.841D+00
 Gap=     0.462 Goal=   None    Shift=    0.000
 RMSDP=2.22D-05 MaxDP=3.53D-04 DE=-7.88D-05 OVMax= 5.35D-04

 Cycle   5  Pass 0  IDiag  1:
 E= -76.4214398533998     Delta-E=       -0.000002055914 Rises=F Damp=F
 DIIS: error= 8.96D-05 at cycle   5 NSaved=   5.
 NSaved= 5 IEnMin= 5 EnMin= -76.4214398533998     IErMin= 5 ErrMin= 8.96D-05
 ErrMax= 8.96D-05  0.00D+00 EMaxC= 1.00D-01 BMatC= 8.41D-08 BMatP= 3.34D-06
 IDIUse=1 WtCom= 1.00D+00 WtEn= 0.00D+00
 Coeff-Com:  0.118D-02-0.180D-02-0.366D-01-0.676D-01 0.110D+01
 Coeff:      0.118D-02-0.180D-02-0.366D-01-0.676D-01 0.110D+01
 Gap=     0.462 Goal=   None    Shift=    0.000
 RMSDP=9.02D-06 MaxDP=1.03D-04 DE=-2.06D-06 OVMax= 2.03D-04

 Initial convergence to 1.0D-05 achieved.  Increase integral accuracy.
 Cycle   6  Pass 1  IDiag  1:
 E= -76.4214506227198     Delta-E=       -0.000010769320 Rises=F Damp=F
 DIIS: error= 2.81D-05 at cycle   1 NSaved=   1.
 NSaved= 1 IEnMin= 1 EnMin= -76.4214506227198     IErMin= 1 ErrMin= 2.81D-05
 ErrMax= 2.81D-05  0.00D+00 EMaxC= 1.00D-01 BMatC= 1.36D-08 BMatP= 1.36D-08
 IDIUse=1 WtCom= 1.00D+00 WtEn= 0.00D+00
 Coeff-Com:  0.100D+01
 Coeff:      0.100D+01
 Gap=     0.462 Goal=   None    Shift=    0.000
 RMSDP=9.02D-06 MaxDP=1.03D-04 DE=-1.08D-05 OVMax= 3.18D-05

 Cycle   7  Pass 1  IDiag  1:
 E= -76.4214506328687     Delta-E=       -0.000000010149 Rises=F Damp=F
 DIIS: error= 5.62D-06 at cycle   2 NSaved=   2.
 NSaved= 2 IEnMin= 2 EnMin= -76.4214506328687     IErMin= 2 ErrMin= 5.62D-06
 ErrMax= 5.62D-06  0.00D+00 EMaxC= 1.00D-01 BMatC= 4.79D-10 BMatP= 1.36D-08
 IDIUse=1 WtCom= 1.00D+00 WtEn= 0.00D+00
 Coeff-Com: -0.133D-01 0.101D+01
 Coeff:     -0.133D-01 0.101D+01
 Gap=     0.462 Goal=   None    Shift=    0.000
 RMSDP=5.18D-07 MaxDP=7.50D-06 DE=-1.01D-08 OVMax= 1.42D-05

 Cycle   8  Pass 1  IDiag  1:
 E= -76.4214506330140     Delta-E=       -0.000000000145 Rises=F Damp=F
 DIIS: error= 4.33D-06 at cycle   3 NSaved=   3.
 NSaved= 3 IEnMin= 3 EnMin= -76.4214506330140     IErMin= 3 ErrMin= 4.33D-06
 ErrMax= 4.33D-06  0.00D+00 EMaxC= 1.00D-01 BMatC= 4.78D-10 BMatP= 4.79D-10
 IDIUse=1 WtCom= 1.00D+00 WtEn= 0.00D+00
 Coeff-Com: -0.454D-01 0.524D+00 0.521D+00
 Coeff:     -0.454D-01 0.524D+00 0.521D+00
 Gap=     0.462 Goal=   None    Shift=    0.000
 RMSDP=2.58D-07 MaxDP=3.50D-06 DE=-1.45D-10 OVMax= 5.86D-06

 Cycle   9  Pass 1  IDiag  1:
 E= -76.4214506333290     Delta-E=       -0.000000000315 Rises=F Damp=F
 DIIS: error= 6.14D-07 at cycle   4 NSaved=   4.
 NSaved= 4 IEnMin= 4 EnMin= -76.4214506333290     IErMin= 4 ErrMin= 6.14D-07
 ErrMax= 6.14D-07  0.00D+00 EMaxC= 1.00D-01 BMatC= 4.29D-12 BMatP= 4.78D-10
 IDIUse=1 WtCom= 1.00D+00 WtEn= 0.00D+00
 Coeff-Com:  0.493D-02-0.103D+00-0.121D-01 0.111D+01
 Coeff:      0.493D-02-0.103D+00-0.121D-01 0.111D+01
 Gap=     0.462 Goal=   None    Shift=    0.000
 RMSDP=7.44D-08 MaxDP=5.42D-07 DE=-3.15D-10 OVMax= 1.85D-06

 Cycle  10  Pass 1  IDiag  1:
 E= -76.4214506333363     Delta-E=       -0.000000000007 Rises=F Damp=F
 DIIS: error= 6.65D-08 at cycle   5 NSaved=   5.
 NSaved= 5 IEnMin= 5 EnMin= -76.4214506333363     IErMin= 5 ErrMin= 6.65D-08
 ErrMax= 6.65D-08  0.00D+00 EMaxC= 1.00D-01 BMatC= 9.09D-14 BMatP= 4.29D-12
 IDIUse=1 WtCom= 1.00D+00 WtEn= 0.00D+00
 Coeff-Com:  0.170D-02-0.201D-01-0.267D-01-0.228D-01 0.107D+01
 Coeff:      0.170D-02-0.201D-01-0.267D-01-0.228D-01 0.107D+01
 Gap=     0.462 Goal=   None    Shift=    0.000
 RMSDP=1.73D-08 MaxDP=1.47D-07 DE=-7.28D-12 OVMax= 3.70D-07

 Cycle  11  Pass 1  IDiag  1:
 E= -76.4214506333366     Delta-E=       -0.000000000000 Rises=F Damp=F
 DIIS: error= 8.59D-09 at cycle   6 NSaved=   6.
 NSaved= 6 IEnMin= 6 EnMin= -76.4214506333366     IErMin= 6 ErrMin= 8.59D-09
 ErrMax= 8.59D-09  0.00D+00 EMaxC= 1.00D-01 BMatC= 2.35D-15 BMatP= 9.09D-14
 IDIUse=1 WtCom= 1.00D+00 WtEn= 0.00D+00
 Coeff-Com: -0.946D-04 0.247D-02-0.142D-02-0.337D-01 0.537D-01 0.979D+00
 Coeff:     -0.946D-04 0.247D-02-0.142D-02-0.337D-01 0.537D-01 0.979D+00
 Gap=     0.462 Goal=   None    Shift=    0.000
 RMSDP=2.42D-09 MaxDP=2.13D-08 DE=-3.41D-13 OVMax= 5.07D-08

 SCF Done:  E(RM062X) =  -76.4214506333     A.U. after   11 cycles
            NFock= 11  Conv=0.24D-08     -V/T= 2.0030
 KE= 7.619632077940D+01 PE=-1.990626642135D+02 EE= 3.733973131379D+01
 Leave Link  502 at Mon May 23 15:22:24 2022, MaxMem= 13421772800 cpu:               8.6 elap:               0.4
 (Enter /data0/home/wuhanyu/software/g16/l601.exe)
 Copying SCF densities to generalized density rwf, IOpCl= 0 IROHF=0.

 **********************************************************************

            Population analysis using the SCF density.

 **********************************************************************

 Alpha  occ. eigenvalues --  -19.62573  -1.13329  -0.60862  -0.47401  -0.39972
 Alpha virt. eigenvalues --    0.06266   0.13324   0.17389   0.17950   0.18953
 Alpha virt. eigenvalues --    0.23240   0.50774   0.53826   0.97794   1.00295
 Alpha virt. eigenvalues --    1.06038   1.18888   1.19814   1.32589   1.33857
 Alpha virt. eigenvalues --    1.69330   1.73950   1.75929   2.07088   2.09889
 Alpha virt. eigenvalues --    2.35060   2.42555   2.54278   2.88274   3.01471
 Alpha virt. eigenvalues --    5.05699   5.47377   5.93115   6.78207   6.80321
 Alpha virt. eigenvalues --    6.86995   6.91459   7.09591  49.95959
          Condensed to atoms (all electrons):
              42         43         44
    42  O    7.915644   0.324113   0.318584
    43  H    0.324113   0.423752  -0.024543
    44  H    0.318584  -0.024543   0.424297
 Mulliken charges:
               1
     1  C    0.000000
     2  C    0.000000
     3  C    0.000000
     4  N    0.000000
     5  H    0.000000
     6  H    0.000000
     7  H    0.000000
     8  C    0.000000
     9  H    0.000000
    10  H    0.000000
    11  H    0.000000
    12  N    0.000000
    13  C    0.000000
    14  H    0.000000
    15  H    0.000000
    16  C    0.000000
    17  H    0.000000
    18  H    0.000000
    19  C    0.000000
    20  H    0.000000
    21  H    0.000000
    22  C    0.000000
    23  O    0.000000
    24  O    0.000000
    25  P    0.000000
    26  O    0.000000
    27  O    0.000000
    28  H    0.000000
    29  O    0.000000
    30  H    0.000000
    31  O    0.000000
    32  H    0.000000
    33  O    0.000000
    34  H    0.000000
    35  H    0.000000
    36  O    0.000000
    37  H    0.000000
    38  H    0.000000
    39  O    0.000000
    40  H    0.000000
    41  H    0.000000
    42  O   -0.558341
    43  H    0.276679
    44  H    0.281662
 Sum of Mulliken charges =   0.00000
 Mulliken charges with hydrogens summed into heavy atoms:
               1
     1  C    0.000000
     2  C    0.000000
     3  C    0.000000
     4  N    0.000000
     8  C    0.000000
    12  N    0.000000
    13  C    0.000000
    16  C    0.000000
    19  C    0.000000
    22  C    0.000000
    23  O    0.000000
    24  O    0.000000
    25  P    0.000000
    26  O    0.000000
    27  O    0.000000
    29  O    0.000000
    31  O    0.000000
    33  O    0.000000
    36  O    0.000000
    39  O    0.000000
    42  O    0.000000
         Mulliken charges condensed to fragments:
      1      0.000000
      2      0.000000
      3      0.000000
      4      0.000000
      5      0.000000
      6      0.000000
 Electronic spatial extent (au):  <R**2>=           7083.3043
 Charge=             -0.0000 electrons
 Dipole moment (field-independent basis, Debye):
    X=             -0.0441    Y=             -1.5224    Z=             -1.4573  Tot=              2.1079
 Quadrupole moment (field-independent basis, Debye-Ang):
   XX=             -5.4196   YY=            -28.9375   ZZ=            -36.9205
   XY=             -8.8045   XZ=            -10.2675   YZ=            -25.9081
 Traceless Quadrupole moment (field-independent basis, Debye-Ang):
   XX=             18.3396   YY=             -5.1783   ZZ=            -13.1613
   XY=             -8.8045   XZ=            -10.2675   YZ=            -25.9081
 Octapole moment (field-independent basis, Debye-Ang**2):
  XXX=            -94.0854  YYY=           -390.5977  ZZZ=           -679.0599  XYY=           -167.4197
  XXY=            -87.1501  XXZ=           -122.3738  XZZ=           -248.4917  YZZ=           -422.5906
  YYZ=           -370.3531  XYZ=           -159.6930
 Hexadecapole moment (field-independent basis, Debye-Ang**3):
 XXXX=          -1132.4244 YYYY=          -4529.2287 ZZZZ=         -10853.5140 XXXY=           -955.9506
 XXXZ=          -1422.4846 YYYX=          -2277.3332 YYYZ=          -4538.3776 ZZZX=          -4471.2630
 ZZZY=          -6490.7529 XXYY=          -1238.9112 XXZZ=          -2199.7058 YYZZ=          -4929.8999
 XXYZ=          -1366.5179 YYXZ=          -2212.7610 ZZXY=          -2659.9751
 N-N= 9.105161486987D+00 E-N=-1.990626640974D+02  KE= 7.619632077940D+01
 No NMR shielding tensors so no spin-rotation constants.
 Leave Link  601 at Mon May 23 15:22:25 2022, MaxMem= 13421772800 cpu:               1.8 elap:               0.1
 (Enter /data0/home/wuhanyu/software/g16/l122.exe)
 CPIOFr:  IOpCl= 0 IRwI=-1 IRwCP=  731 ICalc= 12 LCPTot=      779628 Len1MO=     2048337 IndFrg=    27408009
 Restoring MOs from calculation   1 to rwf.
 CPIOFr:  IOpCl= 0 IRwI=-2 IRwCP=  731 ICalc=  0 LCPTot=      779628 Len1MO=     2048337 IndFrg=     2827965
 Counterpoise corrected energy =   -1521.930452186801
                   BSSE energy =       0.009915304673
              sum of fragments =   -1521.740473535289
           complexation energy =    -125.44 kcal/mole (raw)
           complexation energy =    -119.21 kcal/mole (corrected)
 Leave Link  122 at Mon May 23 15:22:25 2022, MaxMem= 13421772800 cpu:               0.7 elap:               0.0
 (Enter /data0/home/wuhanyu/software/g16/l9999.exe)
 1\1\GINC-LOCALHOST\SP\RM062X\6-311+G(2d,p)\C8H23N2O10P1\WUHANYU\23-May
 -2022\0\\#p M062X/6-311+G(2d,p) nosymm em=GD3 counterpoise=6\\Title Ca
 rd Required\\0,1\C,0,8.045767,10.917269,8.645202\C,0,7.554012,9.92926,
 9.494402\C,0,9.163807,11.053922,10.590771\N,0,9.03906,11.598116,9.3426
 82\H,0,7.766857,11.1539,7.628533\H,0,6.789933,9.182057,9.313183\H,0,9.
 874795,11.365234,11.358945\C,0,9.870642,12.669118,8.82621\H,0,10.94905
 1,12.45332,9.010755\H,0,9.760074,12.759044,7.722809\H,0,9.612494,13.63
 3552,9.295156\N,0,8.249892,10.03713,10.696036\C,0,8.074857,9.195211,11
 .880075\H,0,6.981204,8.971743,11.995223\H,0,8.39657,9.766334,12.782597
 \C,0,8.852067,7.871863,11.784656\H,0,8.554319,7.236427,12.644953\H,0,8
 .527182,7.294009,10.89014\C,0,10.36613,8.046873,11.762868\H,0,10.86786
 7,7.091614,12.020522\H,0,10.70425,8.779738,12.519808\C,0,10.828327,8.4
 51148,10.366779\O,0,11.408564,9.560826,10.254092\O,0,10.588954,7.68212
 ,9.42105\P,0,11.23038,9.833695,6.743657\O,0,9.879124,10.410991,6.64557
 9\O,0,11.308387,8.266138,6.905114\H,0,11.057727,8.010951,7.919384\O,0,
 12.020964,10.1239,5.39192\H,0,12.968137,9.723673,5.502646\O,0,12.13958
 2,10.495465,7.858385\H,0,11.882989,10.077316,8.811538\O,0,8.006351,6.8
 50434,8.558782\H,0,8.92218,7.032332,8.835898\H,0,7.834532,7.492233,7.8
 52993\O,0,11.648001,11.127721,12.401379\H,0,12.544264,11.42343,12.4955
 74\H,0,11.660597,10.503689,11.632508\O,0,7.494038,8.821307,6.633395\H,
 0,8.329635,9.328237,6.616\H,0,7.472652,8.378539,5.784923\O,0,6.082827,
 7.343318,10.427439\H,0,5.371894,6.735413,10.258686\H,0,6.779081,7.1014
 09,9.776774\\Version=ES64L-G16RevA.03\HF=-76.4214506\RMSD=2.419e-09\Di
 pole=-0.2649311,1.0620284,1.0727276\Quadrupole=-28.6697827,16.0109911,
 12.6587916,15.4711292,16.2914506,37.7117028\PG=C01 [X(C8H23N2O10P1)]\\
 @


 NO HUMAN INVESTIGATION CAN BECOME REAL SCIENCE
 WITHOUT GOING THROUGH MATHEMATICAL PEOPLE.
 -- LEONARDO DA VINCI, IN "PENSIERI" CA. 1492
 Job cpu time:       0 days  8 hours 58 minutes 43.9 seconds.
 Elapsed time:       0 days  0 hours 22 minutes 34.4 seconds.
 File lengths (MBytes):  RWF=    527 Int=      0 D2E=      0 Chk=    238 Scr=      1
 Normal termination of Gaussian 16 at Mon May 23 15:22:25 2022.
