 Entering Gaussian System, Link 0=g16
 Initial command:
 /data0/home/software/g16/l1.exe "/data0/home/software/g16/scratch/Gau-3367447.inp" -scrdir="/data0/home/software/g16/scratch/"
 Default is to use a total of  22 processors:
                               22 via shared-memory
                                1 via Linda
 Entering Link 1 = /data0/home/software/g16/l1.exe PID=   3367448.
  
 Copyright (c) 1988,1990,1992,1993,1995,1998,2003,2009,2016,
            Gaussian, Inc.  All Rights Reserved.
  
 This is part of the Gaussian(R) 16 program.  It is based on
 the Gaussian(R) 09 system (copyright 2009, Gaussian, Inc.),
 the Gaussian(R) 03 system (copyright 2003, Gaussian, Inc.),
 the Gaussian(R) 98 system (copyright 1998, Gaussian, Inc.),
 the Gaussian(R) 94 system (copyright 1995, Gaussian, Inc.),
 the Gaussian 92(TM) system (copyright 1992, Gaussian, Inc.),
 the Gaussian 90(TM) system (copyright 1990, Gaussian, Inc.),
 the Gaussian 88(TM) system (copyright 1988, Gaussian, Inc.),
 the Gaussian 86(TM) system (copyright 1986, Carnegie Mellon
 University), and the Gaussian 82(TM) system (copyright 1983,
 Carnegie Mellon University). Gaussian is a federally registered
 trademark of Gaussian, Inc.
  
 This software contains proprietary and confidential information,
 including trade secrets, belonging to Gaussian, Inc.
  
 This software is provided under written license and may be
 used, copied, transmitted, or stored only in accord with that
 written license.
  
 The following legend is applicable only to US Government
 contracts under FAR:
  
                    RESTRICTED RIGHTS LEGEND
  
 Use, reproduction and disclosure by the US Government is
 subject to restrictions as set forth in subparagraphs (a)
 and (c) of the Commercial Computer Software - Restricted
 Rights clause in FAR 52.227-19.
  
 Gaussian, Inc.
 340 Quinnipiac St., Bldg. 40, Wallingford CT 06492
  
  
 ---------------------------------------------------------------
 Warning -- This program may not be used in any manner that
 competes with the business of Gaussian, Inc. or will provide
 assistance to any competitor of Gaussian, Inc.  The licensee
 of this program is prohibited from giving any competitor of
 Gaussian, Inc. access to this program.  By using this program,
 the user acknowledges that Gaussian, Inc. is engaged in the
 business of creating and licensing software in the field of
 computational chemistry and represents and warrants to the
 licensee that it is not a competitor of Gaussian, Inc. and that
 it will not use this program in any manner prohibited above.
 ---------------------------------------------------------------
  

 Cite this work as:
 Gaussian 16, Revision A.03,
 M. J. Frisch, G. W. Trucks, H. B. Schlegel, G. E. Scuseria, 
 M. A. Robb, J. R. Cheeseman, G. Scalmani, V. Barone, 
 G. A. Petersson, H. Nakatsuji, X. Li, M. Caricato, A. V. Marenich, 
 J. Bloino, B. G. Janesko, R. Gomperts, B. Mennucci, H. P. Hratchian, 
 J. V. Ortiz, A. F. Izmaylov, J. L. Sonnenberg, D. Williams-Young, 
 F. Ding, F. Lipparini, F. Egidi, J. Goings, B. Peng, A. Petrone, 
 T. Henderson, D. Ranasinghe, V. G. Zakrzewski, J. Gao, N. Rega, 
 G. Zheng, W. Liang, M. Hada, M. Ehara, K. Toyota, R. Fukuda, 
 J. Hasegawa, M. Ishida, T. Nakajima, Y. Honda, O. Kitao, H. Nakai, 
 T. Vreven, K. Throssell, J. A. Montgomery, Jr., J. E. Peralta, 
 F. Ogliaro, M. J. Bearpark, J. J. Heyd, E. N. Brothers, K. N. Kudin, 
 V. N. Staroverov, T. A. Keith, R. Kobayashi, J. Normand, 
 K. Raghavachari, A. P. Rendell, J. C. Burant, S. S. Iyengar, 
 J. Tomasi, M. Cossi, J. M. Millam, M. Klene, C. Adamo, R. Cammi, 
 J. W. Ochterski, R. L. Martin, K. Morokuma, O. Farkas, 
 J. B. Foresman, and D. J. Fox, Gaussian, Inc., Wallingford CT, 2016.
 
 ******************************************
 Gaussian 16:  ES64L-G16RevA.03 25-Dec-2016
                15-Dec-2022 
 ******************************************
 %nproc=16
 Will use up to   16 processors via shared memory.
 %mem=10GB
 ---------------------------------------------------
 #p M062X/6-311+G(2d,p) nosymm em=GD3 counterpoise=5
 ---------------------------------------------------
 1/38=1,62=5,172=1/1;
 2/12=2,15=1,17=6,18=5,40=1/2;
 1/38=1,53=2,62=5,63=1/22;
 3/5=4,6=6,7=112,11=2,25=1,30=1,74=-55,124=31/1,2,3;
 4//1;
 5/5=2,38=5/2;
 6/7=2,8=2,9=2,10=2,28=1/1;
 1/53=2,62=5,63=1/22;
 3/5=7,6=11,7=112,11=2,25=1,30=1,74=-55,82=7,124=31/1,2,3;
 4//1;
 5/5=2,38=5/2;
 6/7=2,8=2,9=2,10=2,28=1/1;
 1/53=2,62=5,63=1/22(-4);
 99/5=1,9=1/99;
 Leave Link    1 at Thu Dec 15 14:44:55 2022, MaxMem=  1342177280 cpu:               0.5 elap:               0.0
 (Enter /data0/home/software/g16/l101.exe)
 -------------------
 Title Card Required
 -------------------
 Symbolic Z-matrix:
 Charge =  0 Multiplicity = 1 in supermolecule
 Charge =  0 Multiplicity = 1 in fragment      1.
 Charge =  0 Multiplicity = 1 in fragment      2.
 Charge =  0 Multiplicity = 1 in fragment      3.
 Charge =  0 Multiplicity = 1 in fragment      4.
 Charge =  0 Multiplicity = 1 in fragment      5.
 C                     11.37683   15.13363   12.4105    
 C                     12.00708   15.98048   11.49531    
 C                     12.63955   13.92937   11.00369    
 N                     11.78699   13.84184   12.0952    
 H                     11.45726   12.97889   12.52227    
 H                     10.70942   15.35021   13.21721    
 H                     11.96736   17.04849   11.40931    
 H                     13.11936   13.07617   10.54176    
 N                     12.77794   15.2185   10.63049    
 P                     13.59503   14.48538   7.2534     
 O                     13.46903   13.16635   7.88923    
 O                     12.2716   15.0568   6.57698    
 H                     11.51802   15.1101   7.28953    
 O                     14.14604   15.66733   8.14965    
 H                     13.76975   15.56685   9.13668    
 O                     14.60563   14.44388   6.02875    
 H                     14.67149   15.41087   5.6597     
 O                     11.01568   12.231    8.97854    
 H                     10.61861   11.76011   8.2456     
 H                     11.89643   12.50789   8.63745    
 O                     10.29907   15.00738   8.69814    
 H                     10.41002   14.06726   8.89644    
 H                     10.75685   15.46393   9.4126     
 O                     11.07684   11.42189   11.67341    
 H                     10.47508   10.69801   11.81134    
 H                     11.03304   11.63739   10.72682    
 
 ITRead=  0  0  0  0  0  0  0  0  0  0  0  0  0  0  0  0  0  0  0  0
 ITRead=  0  0  0  0  0  0
 MicOpt= -1 -1 -1 -1 -1 -1 -1 -1 -1 -1 -1 -1 -1 -1 -1 -1 -1 -1 -1 -1
 MicOpt= -1 -1 -1 -1 -1 -1
 NAtoms=     26 NQM=       26 NQMF=       0 NMMI=      0 NMMIF=      0
                NMic=       0 NMicF=      0.
                    Isotopes and Nuclear Properties:
 (Nuclear quadrupole moments (NQMom) in fm**2, nuclear magnetic moments (NMagM)
  in nuclear magnetons)

  Atom         1           2           3           4           5           6           7           8           9          10
 IAtWgt=          12          12          12          14           1           1           1           1          14          31
 AtmWgt=  12.0000000  12.0000000  12.0000000  14.0030740   1.0078250   1.0078250   1.0078250   1.0078250  14.0030740  30.9737634
 NucSpn=           0           0           0           2           1           1           1           1           2           1
 AtZEff=  -0.0000000  -0.0000000  -0.0000000  -0.0000000  -0.0000000  -0.0000000  -0.0000000  -0.0000000  -0.0000000  -0.0000000
 NQMom=    0.0000000   0.0000000   0.0000000   2.0440000   0.0000000   0.0000000   0.0000000   0.0000000   2.0440000   0.0000000
 NMagM=    0.0000000   0.0000000   0.0000000   0.4037610   2.7928460   2.7928460   2.7928460   2.7928460   0.4037610   1.1316000
 AtZNuc=   6.0000000   6.0000000   6.0000000   7.0000000   1.0000000   1.0000000   1.0000000   1.0000000   7.0000000  15.0000000

  Atom        11          12          13          14          15          16          17          18          19          20
 IAtWgt=          16          16           1          16           1          16           1          16           1           1
 AtmWgt=  15.9949146  15.9949146   1.0078250  15.9949146   1.0078250  15.9949146   1.0078250  15.9949146   1.0078250   1.0078250
 NucSpn=           0           0           1           0           1           0           1           0           1           1
 AtZEff=  -0.0000000  -0.0000000  -0.0000000  -0.0000000  -0.0000000  -0.0000000  -0.0000000  -0.0000000  -0.0000000  -0.0000000
 NQMom=    0.0000000   0.0000000   0.0000000   0.0000000   0.0000000   0.0000000   0.0000000   0.0000000   0.0000000   0.0000000
 NMagM=    0.0000000   0.0000000   2.7928460   0.0000000   2.7928460   0.0000000   2.7928460   0.0000000   2.7928460   2.7928460
 AtZNuc=   8.0000000   8.0000000   1.0000000   8.0000000   1.0000000   8.0000000   1.0000000   8.0000000   1.0000000   1.0000000

  Atom        21          22          23          24          25          26
 IAtWgt=          16           1           1          16           1           1
 AtmWgt=  15.9949146   1.0078250   1.0078250  15.9949146   1.0078250   1.0078250
 NucSpn=           0           1           1           0           1           1
 AtZEff=  -0.0000000  -0.0000000  -0.0000000  -0.0000000  -0.0000000  -0.0000000
 NQMom=    0.0000000   0.0000000   0.0000000   0.0000000   0.0000000   0.0000000
 NMagM=    0.0000000   2.7928460   2.7928460   0.0000000   2.7928460   2.7928460
 AtZNuc=   8.0000000   1.0000000   1.0000000   8.0000000   1.0000000   1.0000000
 Leave Link  101 at Thu Dec 15 14:44:56 2022, MaxMem=  1342177280 cpu:               1.4 elap:               0.1
 (Enter /data0/home/software/g16/l202.exe)
                          Input orientation:                          
 ---------------------------------------------------------------------
 Center     Atomic      Atomic             Coordinates (Angstroms)
 Number     Number       Type             X           Y           Z
 ---------------------------------------------------------------------
      1          6           0       11.376828   15.133632   12.410501
      2          6           0       12.007084   15.980477   11.495308
      3          6           0       12.639553   13.929368   11.003689
      4          7           0       11.786988   13.841842   12.095201
      5          1           0       11.457265   12.978891   12.522268
      6          1           0       10.709418   15.350211   13.217207
      7          1           0       11.967356   17.048487   11.409313
      8          1           0       13.119357   13.076171   10.541762
      9          7           0       12.777943   15.218503   10.630494
     10         15           0       13.595033   14.485382    7.253403
     11          8           0       13.469032   13.166350    7.889227
     12          8           0       12.271600   15.056797    6.576981
     13          1           0       11.518019   15.110099    7.289528
     14          8           0       14.146044   15.667329    8.149646
     15          1           0       13.769752   15.566849    9.136675
     16          8           0       14.605633   14.443881    6.028753
     17          1           0       14.671492   15.410873    5.659704
     18          8           0       11.015679   12.231005    8.978544
     19          1           0       10.618605   11.760113    8.245603
     20          1           0       11.896434   12.507888    8.637446
     21          8           0       10.299073   15.007382    8.698143
     22          1           0       10.410017   14.067264    8.896445
     23          1           0       10.756852   15.463931    9.412599
     24          8           0       11.076842   11.421891   11.673408
     25          1           0       10.475078   10.698013   11.811341
     26          1           0       11.033036   11.637388   10.726820
 ---------------------------------------------------------------------
                    Distance matrix (angstroms):
                    1          2          3          4          5
     1  C    0.000000
     2  C    1.397121   0.000000
     3  C    2.241394   2.201989   0.000000
     4  N    1.391534   2.232056   1.387777   0.000000
     5  H    2.159137   3.219700   2.146461   1.017737   0.000000
     6  H    1.069167   2.246354   3.262496   2.166848   2.581739
     7  H    2.240038   1.072203   3.216408   3.284136   4.249762
     8  H    3.280509   3.252906   1.082374   2.185093   2.587357
     9  N    2.266881   1.386626   1.349183   2.241106   3.215410
    10  P    5.651223   4.769764   3.909826   5.208280   5.882219
    11  O    5.356252   4.802127   3.312115   4.579932   5.054445
    12  O    5.902243   5.011297   4.582819   5.671130   6.350376
    13  H    5.122973   4.322653   4.055485   4.977481   5.650425
    14  O    5.109626   3.983298   3.665458   4.946206   5.794571
    15  H    4.078198   2.973422   2.728449   3.957256   4.848439
    16  O    7.185238   6.244742   5.374029   6.716324   7.363705
    17  H    7.516976   6.440326   5.906082   7.224807   7.958679
    18  O    4.509324   4.623367   3.102034   3.592111   3.648604
    19  H    5.413124   5.504537   4.049313   4.529693   4.525332
    20  H    4.626064   4.498721   2.858660   3.707760   3.937836
    21  O    3.867699   3.418823   3.457673   3.887464   4.481084
    22  H    3.797427   3.600708   3.070883   3.489829   3.927834
    23  H    3.079104   2.483461   2.903621   3.299804   4.041787
    24  O    3.796093   4.655940   3.029526   2.557026   1.813707
    25  H    4.565836   5.509205   3.972267   3.418383   2.583121
    26  H    3.895728   4.516831   2.812601   2.701949   2.281060
                    6          7          8          9         10
     6  H    0.000000
     7  H    2.781192   0.000000
     8  H    4.258764   4.225996   0.000000
     9  N    3.314699   2.147662   2.171180   0.000000
    10  P    6.681442   5.146885   3.609079   3.551035   0.000000
    11  O    6.385303   5.451332   2.677003   3.493348   1.469692
    12  O    6.827819   5.235535   4.512323   4.088215   1.592337
    13  H    5.987392   4.575137   4.156702   3.572284   2.169231
    14  O    6.131161   4.156887   3.672929   2.868406   1.582360
    15  H    5.105225   3.257110   2.932705   1.826616   2.178718
    16  O    8.226530   6.534134   4.944380   5.011637   1.588333
    17  H    8.533321   6.561413   5.629782   5.322714   2.134285
    18  O    5.271575   5.479275   2.753801   3.841830   3.835544
    19  H    6.133017   6.308335   3.641170   4.723442   4.155800
    20  H    5.519241   5.320274   2.333432   3.478036   2.951490
    21  O    4.550588   3.781497   3.883621   3.150135   3.636359
    22  H    4.517143   4.198512   3.321123   3.152674   3.608149
    23  H    3.806603   2.821880   3.543704   2.372406   3.697967
    24  O    4.236746   5.702749   2.861666   4.289018   5.938241
    25  H    4.865626   6.535827   3.776199   5.208879   6.697244
    26  H    4.482389   5.533421   2.541078   3.984766   5.171027
                   11         12         13         14         15
    11  O    0.000000
    12  O    2.594152   0.000000
    13  H    2.818555   1.038484   0.000000
    14  O    2.604047   2.521818   2.820784   0.000000
    15  H    2.721939   3.009426   2.948029   1.061093   0.000000
    16  O    2.526917   2.474658   3.400994   2.491231   3.408656
    17  H    3.384460   2.593501   3.562469   2.557670   3.595385
    18  O    2.842608   3.915347   3.375545   4.721714   4.328716
    19  H    3.198350   4.047816   3.597976   5.264824   5.021452
    20  H    1.861845   3.298970   2.954925   3.909061   3.621573
    21  O    3.753982   2.897004   1.865630   3.941518   3.542729
    22  H    3.344205   3.134419   2.212997   4.132289   3.687043
    23  H    3.867229   3.240517   2.282981   3.622574   3.027258
    24  O    4.804762   6.372877   5.745948   6.313529   5.555849
    25  H    5.517194   7.044502   6.403204   7.181790   6.458659
    26  H    4.040264   5.517931   4.910184   5.707282   5.045675
                   16         17         18         19         20
    16  O    0.000000
    17  H    1.037115   0.000000
    18  O    5.146441   5.872923   0.000000
    19  H    5.292771   6.036623   0.957397   0.000000
    20  H    4.230025   4.999522   0.984247   1.531521   0.000000
    21  O    5.098003   5.339753   2.881045   3.294184   2.966937
    22  H    5.095949   5.517422   1.935307   2.406252   2.169832
    23  H    5.225326   5.423232   3.272187   3.885777   3.261549
    24  O    7.310740   8.062141   2.814374   3.474798   3.326888
    25  H    8.033140   8.812694   3.266045   3.723324   3.920397
    26  H    6.535418   7.290625   1.846389   2.518581   2.422542
                   21         22         23         24         25
    21  O    0.000000
    22  H    0.967189   0.000000
    23  H    0.963559   1.528852   0.000000
    24  O    4.723650   3.892837   4.642385   0.000000
    25  H    5.319177   4.455637   5.342971   0.951391   0.000000
    26  H    4.001386   3.105273   4.055353   0.971796   1.539457
                   26
    26  H    0.000000
 Symmetry turned off by external request.
 Stoichiometry    C3H13N2O7P
 Framework group  C1[X(C3H13N2O7P)]
 Deg. of freedom    72
 Full point group                 C1      NOp   1
 Rotational constants (GHZ):           0.9028958           0.3776380           0.3313801
 Leave Link  202 at Thu Dec 15 14:44:56 2022, MaxMem=  1342177280 cpu:               0.1 elap:               0.0
 (Enter /data0/home/software/g16/l122.exe)
 Counterpoise: doing full-system calculation.
 Leave Link  122 at Thu Dec 15 14:44:56 2022, MaxMem=  1342177280 cpu:               0.0 elap:               0.0
 (Enter /data0/home/software/g16/l301.exe)
 Standard basis: 6-311+G(2d,p) (5D, 7F)
 Ernie: Thresh=  0.10000D-02 Tol=  0.10000D-05 Strict=F.
   437 basis functions,   664 primitive gaussians,   463 cartesian basis functions
    58 alpha electrons       58 beta electrons
       nuclear repulsion energy      1067.3779808979 Hartrees.
 IExCor= 4336 DFT=T Ex+Corr=M062X ExCW=0 ScaHFX=  0.540000
 ScaDFX=  1.000000  1.000000  1.000000  1.000000 ScalE2=  1.000000  1.000000
 IRadAn=      5 IRanWt=     -1 IRanGd=            0 ICorTp=0 IEmpDi=131
 NAtoms=   26 NActive=   26 NUniq=   26 SFac= 1.00D+00 NAtFMM=   60 NAOKFM=F Big=F
 Integral buffers will be    131072 words long.
 Raffenetti 2 integral format.
 Two-electron integral symmetry is turned off.
 R6Disp:  Grimme-D3 Dispersion energy=       -0.0014918152 Hartrees.
 Nuclear repulsion after empirical dispersion term =     1067.3764890827 Hartrees.
 Leave Link  301 at Thu Dec 15 14:44:56 2022, MaxMem=  1342177280 cpu:               0.7 elap:               0.1
 (Enter /data0/home/software/g16/l302.exe)
 NPDir=0 NMtPBC=     1 NCelOv=     1 NCel=       1 NClECP=     1 NCelD=      1
         NCelK=      1 NCelE2=     1 NClLst=     1 CellRange=     0.0.
 One-electron integrals computed using PRISM.
 NBasis=   437 RedAO= T EigKep=  3.10D-05  NBF=   437
 NBsUse=   437 1.00D-06 EigRej= -1.00D+00 NBFU=   437
 Precomputing XC quadrature grid using
 IXCGrd= 4 IRadAn=           5 IRanWt=          -1 IRanGd=           0 AccXCQ= 0.00D+00.
 Generated NRdTot=       0 NPtTot=           0 NUsed=           0 NTot=          32
 NSgBfM=   463   462   462   463   463 MxSgAt=    26 MxSgA2=    26.
 Leave Link  302 at Thu Dec 15 14:44:56 2022, MaxMem=  1342177280 cpu:               5.3 elap:               0.3
 (Enter /data0/home/software/g16/l303.exe)
 DipDrv:  MaxL=1.
 Leave Link  303 at Thu Dec 15 14:44:56 2022, MaxMem=  1342177280 cpu:               0.6 elap:               0.1
 (Enter /data0/home/software/g16/l401.exe)
 ExpMin= 3.48D-02 ExpMax= 7.75D+04 ExpMxC= 2.65D+03 IAcc=3 IRadAn=         5 AccDes= 0.00D+00
 Harris functional with IExCor= 1009 and IRadAn=       5 diagonalized for initial guess.
 HarFok:  IExCor= 1009 AccDes= 0.00D+00 IRadAn=         5 IDoV= 1 UseB2=F ITyADJ=14
 ICtDFT=  3500011 ScaDFX=  1.000000  1.000000  1.000000  1.000000
 FoFCou: FMM=F IPFlag=           0 FMFlag=      100000 FMFlg1=           0
         NFxFlg=           0 DoJE=T BraDBF=F KetDBF=T FulRan=T
         wScrn=  0.000000 ICntrl=       500 IOpCl=  0 I1Cent=   200000004 NGrid=           0
         NMat0=    1 NMatS0=      1 NMatT0=    0 NMatD0=    1 NMtDS0=    0 NMtDT0=    0
 Symmetry not used in FoFCou.
 Harris En= -1099.25963134445    
 JPrj=0 DoOrth=F DoCkMO=F.
 Leave Link  401 at Thu Dec 15 14:44:58 2022, MaxMem=  1342177280 cpu:              24.6 elap:               1.6
 (Enter /data0/home/software/g16/l502.exe)
 Two-electron integral symmetry not used.
 Closed shell SCF:
 Using DIIS extrapolation, IDIIS=  1040.
 NGot=  1342177280 LenX=  1341737841 LenY=  1341523009
 Requested convergence on RMS density matrix=1.00D-08 within 128 cycles.
 Requested convergence on MAX density matrix=1.00D-06.
 Requested convergence on             energy=1.00D-06.
 No special actions if energy rises.
 Fock matrices will be formed incrementally for  20 cycles.

 Cycle   1  Pass 1  IDiag  1:
 FoFJK:  IHMeth= 1 ICntrl=       0 DoSepK=F KAlg= 0 I1Cent=           0 FoldK=F
 IRaf= 870000000 NMat=       1 IRICut=       1 DoRegI=T DoRafI=F ISym2E= 0 IDoP0=0 IntGTp=1.
 FoFCou: FMM=F IPFlag=           0 FMFlag=      100000 FMFlg1=           0
         NFxFlg=           0 DoJE=F BraDBF=F KetDBF=F FulRan=T
         wScrn=  0.000000 ICntrl=         0 IOpCl=  0 I1Cent=           0 NGrid=           0
         NMat0=    1 NMatS0=      1 NMatT0=    0 NMatD0=    1 NMtDS0=    0 NMtDT0=    0
 Symmetry not used in FoFCou.
 E= -1099.18630521149    
 DIIS: error= 3.07D-02 at cycle   1 NSaved=   1.
 NSaved= 1 IEnMin= 1 EnMin= -1099.18630521149     IErMin= 1 ErrMin= 3.07D-02
 ErrMax= 3.07D-02  0.00D+00 EMaxC= 1.00D-01 BMatC= 9.07D-01 BMatP= 9.07D-01
 IDIUse=3 WtCom= 6.93D-01 WtEn= 3.07D-01
 Coeff-Com:  0.100D+01
 Coeff-En:   0.100D+01
 Coeff:      0.100D+01
 Gap=     0.321 Goal=   None    Shift=    0.000
 GapD=    0.321 DampG=1.000 DampE=0.500 DampFc=0.5000 IDamp=-1.
 Damping current iteration by 5.00D-01
 RMSDP=4.24D-03 MaxDP=2.48D-01              OVMax= 1.88D-01

 Cycle   2  Pass 1  IDiag  1:
 RMSU=  2.12D-03    CP:  1.00D+00
 E= -1099.42210834008     Delta-E=       -0.235803128590 Rises=F Damp=T
 DIIS: error= 6.21D-03 at cycle   2 NSaved=   2.
 NSaved= 2 IEnMin= 2 EnMin= -1099.42210834008     IErMin= 2 ErrMin= 6.21D-03
 ErrMax= 6.21D-03  0.00D+00 EMaxC= 1.00D-01 BMatC= 4.64D-02 BMatP= 9.07D-01
 IDIUse=3 WtCom= 9.38D-01 WtEn= 6.21D-02
 Coeff-Com:  0.134D-01 0.987D+00
 Coeff-En:   0.920D-01 0.908D+00
 Coeff:      0.182D-01 0.982D+00
 Gap=     0.379 Goal=   None    Shift=    0.000
 RMSDP=1.16D-03 MaxDP=1.64D-01 DE=-2.36D-01 OVMax= 1.20D-01

 Cycle   3  Pass 1  IDiag  1:
 RMSU=  1.01D-03    CP:  9.71D-01  7.91D-01
 E= -1099.69671208971     Delta-E=       -0.274603749626 Rises=F Damp=F
 DIIS: error= 3.26D-03 at cycle   3 NSaved=   3.
 NSaved= 3 IEnMin= 3 EnMin= -1099.69671208971     IErMin= 3 ErrMin= 3.26D-03
 ErrMax= 3.26D-03  0.00D+00 EMaxC= 1.00D-01 BMatC= 9.98D-03 BMatP= 4.64D-02
 IDIUse=3 WtCom= 9.67D-01 WtEn= 3.26D-02
 Coeff-Com: -0.486D-01 0.254D+00 0.795D+00
 Coeff-En:   0.000D+00 0.000D+00 0.100D+01
 Coeff:     -0.470D-01 0.245D+00 0.802D+00
 Gap=     0.315 Goal=   None    Shift=    0.000
 RMSDP=3.36D-04 MaxDP=1.62D-02 DE=-2.75D-01 OVMax= 2.98D-02

 Cycle   4  Pass 1  IDiag  1:
 RMSU=  2.90D-04    CP:  9.70D-01  8.66D-01  9.42D-01
 E= -1099.70096312968     Delta-E=       -0.004251039965 Rises=F Damp=F
 DIIS: error= 2.21D-03 at cycle   4 NSaved=   4.
 NSaved= 4 IEnMin= 4 EnMin= -1099.70096312968     IErMin= 4 ErrMin= 2.21D-03
 ErrMax= 2.21D-03  0.00D+00 EMaxC= 1.00D-01 BMatC= 4.05D-03 BMatP= 9.98D-03
 IDIUse=3 WtCom= 9.78D-01 WtEn= 2.21D-02
 Coeff-Com: -0.273D-01 0.698D-01 0.447D+00 0.510D+00
 Coeff-En:   0.000D+00 0.000D+00 0.271D+00 0.729D+00
 Coeff:     -0.267D-01 0.682D-01 0.443D+00 0.515D+00
 Gap=     0.310 Goal=   None    Shift=    0.000
 RMSDP=1.40D-04 MaxDP=7.65D-03 DE=-4.25D-03 OVMax= 1.33D-02

 Cycle   5  Pass 1  IDiag  1:
 RMSU=  7.86D-05    CP:  9.69D-01  8.57D-01  9.82D-01  6.32D-01
 E= -1099.70370770425     Delta-E=       -0.002744574573 Rises=F Damp=F
 DIIS: error= 2.78D-04 at cycle   5 NSaved=   5.
 NSaved= 5 IEnMin= 5 EnMin= -1099.70370770425     IErMin= 5 ErrMin= 2.78D-04
 ErrMax= 2.78D-04  0.00D+00 EMaxC= 1.00D-01 BMatC= 8.70D-05 BMatP= 4.05D-03
 IDIUse=3 WtCom= 9.97D-01 WtEn= 2.78D-03
 Coeff-Com: -0.712D-02 0.123D-01 0.126D+00 0.202D+00 0.666D+00
 Coeff-En:   0.000D+00 0.000D+00 0.000D+00 0.000D+00 0.100D+01
 Coeff:     -0.710D-02 0.123D-01 0.126D+00 0.202D+00 0.667D+00
 Gap=     0.307 Goal=   None    Shift=    0.000
 RMSDP=2.75D-05 MaxDP=1.28D-03 DE=-2.74D-03 OVMax= 1.75D-03

 Cycle   6  Pass 1  IDiag  1:
 RMSU=  2.11D-05    CP:  9.69D-01  8.55D-01  9.85D-01  6.54D-01  8.04D-01
 E= -1099.70376856063     Delta-E=       -0.000060856383 Rises=F Damp=F
 DIIS: error= 8.34D-05 at cycle   6 NSaved=   6.
 NSaved= 6 IEnMin= 6 EnMin= -1099.70376856063     IErMin= 6 ErrMin= 8.34D-05
 ErrMax= 8.34D-05  0.00D+00 EMaxC= 1.00D-01 BMatC= 5.64D-06 BMatP= 8.70D-05
 IDIUse=1 WtCom= 1.00D+00 WtEn= 0.00D+00
 Coeff-Com: -0.123D-02 0.108D-02 0.240D-01 0.487D-01 0.261D+00 0.666D+00
 Coeff:     -0.123D-02 0.108D-02 0.240D-01 0.487D-01 0.261D+00 0.666D+00
 Gap=     0.308 Goal=   None    Shift=    0.000
 RMSDP=7.39D-06 MaxDP=3.11D-04 DE=-6.09D-05 OVMax= 5.51D-04

 Cycle   7  Pass 1  IDiag  1:
 RMSU=  6.00D-06    CP:  9.69D-01  8.55D-01  9.85D-01  6.56D-01  8.41D-01
                    CP:  8.52D-01
 E= -1099.70377340261     Delta-E=       -0.000004841975 Rises=F Damp=F
 DIIS: error= 2.21D-05 at cycle   7 NSaved=   7.
 NSaved= 7 IEnMin= 7 EnMin= -1099.70377340261     IErMin= 7 ErrMin= 2.21D-05
 ErrMax= 2.21D-05  0.00D+00 EMaxC= 1.00D-01 BMatC= 3.24D-07 BMatP= 5.64D-06
 IDIUse=1 WtCom= 1.00D+00 WtEn= 0.00D+00
 Coeff-Com:  0.469D-03-0.106D-02-0.808D-02-0.104D-01-0.782D-02 0.148D+00
 Coeff-Com:  0.879D+00
 Coeff:      0.469D-03-0.106D-02-0.808D-02-0.104D-01-0.782D-02 0.148D+00
 Coeff:      0.879D+00
 Gap=     0.308 Goal=   None    Shift=    0.000
 RMSDP=3.21D-06 MaxDP=3.14D-04 DE=-4.84D-06 OVMax= 2.42D-04

 Cycle   8  Pass 1  IDiag  1:
 RMSU=  2.08D-06    CP:  9.69D-01  8.54D-01  9.85D-01  6.57D-01  8.50D-01
                    CP:  9.32D-01  1.02D+00
 E= -1099.70377367412     Delta-E=       -0.000000271514 Rises=F Damp=F
 DIIS: error= 1.70D-05 at cycle   8 NSaved=   8.
 NSaved= 8 IEnMin= 8 EnMin= -1099.70377367412     IErMin= 8 ErrMin= 1.70D-05
 ErrMax= 1.70D-05  0.00D+00 EMaxC= 1.00D-01 BMatC= 1.28D-07 BMatP= 3.24D-07
 IDIUse=1 WtCom= 1.00D+00 WtEn= 0.00D+00
 Coeff-Com:  0.338D-03-0.615D-03-0.623D-02-0.955D-02-0.258D-01 0.178D-01
 Coeff-Com:  0.459D+00 0.565D+00
 Coeff:      0.338D-03-0.615D-03-0.623D-02-0.955D-02-0.258D-01 0.178D-01
 Coeff:      0.459D+00 0.565D+00
 Gap=     0.308 Goal=   None    Shift=    0.000
 RMSDP=9.02D-07 MaxDP=3.51D-05 DE=-2.72D-07 OVMax= 1.04D-04

 Cycle   9  Pass 1  IDiag  1:
 RMSU=  7.30D-07    CP:  9.69D-01  8.54D-01  9.85D-01  6.57D-01  8.54D-01
                    CP:  9.41D-01  1.07D+00  8.98D-01
 E= -1099.70377378585     Delta-E=       -0.000000111733 Rises=F Damp=F
 DIIS: error= 3.42D-06 at cycle   9 NSaved=   9.
 NSaved= 9 IEnMin= 9 EnMin= -1099.70377378585     IErMin= 9 ErrMin= 3.42D-06
 ErrMax= 3.42D-06  0.00D+00 EMaxC= 1.00D-01 BMatC= 4.32D-09 BMatP= 1.28D-07
 IDIUse=1 WtCom= 1.00D+00 WtEn= 0.00D+00
 Coeff-Com:  0.351D-04-0.530D-04-0.835D-03-0.145D-02-0.558D-02-0.779D-02
 Coeff-Com:  0.388D-01 0.152D+00 0.825D+00
 Coeff:      0.351D-04-0.530D-04-0.835D-03-0.145D-02-0.558D-02-0.779D-02
 Coeff:      0.388D-01 0.152D+00 0.825D+00
 Gap=     0.308 Goal=   None    Shift=    0.000
 RMSDP=3.32D-07 MaxDP=2.16D-05 DE=-1.12D-07 OVMax= 4.06D-05

 Cycle  10  Pass 1  IDiag  1:
 RMSU=  1.84D-07    CP:  9.69D-01  8.54D-01  9.85D-01  6.57D-01  8.53D-01
                    CP:  9.45D-01  1.08D+00  1.00D+00  1.02D+00
 E= -1099.70377379009     Delta-E=       -0.000000004234 Rises=F Damp=F
 DIIS: error= 1.75D-06 at cycle  10 NSaved=  10.
 NSaved=10 IEnMin=10 EnMin= -1099.70377379009     IErMin=10 ErrMin= 1.75D-06
 ErrMax= 1.75D-06  0.00D+00 EMaxC= 1.00D-01 BMatC= 1.48D-09 BMatP= 4.32D-09
 IDIUse=1 WtCom= 1.00D+00 WtEn= 0.00D+00
 Coeff-Com: -0.226D-04 0.454D-04 0.301D-03 0.330D-03-0.236D-03-0.721D-02
 Coeff-Com: -0.366D-01 0.647D-02 0.419D+00 0.618D+00
 Coeff:     -0.226D-04 0.454D-04 0.301D-03 0.330D-03-0.236D-03-0.721D-02
 Coeff:     -0.366D-01 0.647D-02 0.419D+00 0.618D+00
 Gap=     0.308 Goal=   None    Shift=    0.000
 RMSDP=1.31D-07 MaxDP=5.45D-06 DE=-4.23D-09 OVMax= 1.40D-05

 Cycle  11  Pass 1  IDiag  1:
 RMSU=  8.15D-08    CP:  9.69D-01  8.54D-01  9.85D-01  6.57D-01  8.53D-01
                    CP:  9.46D-01  1.09D+00  1.03D+00  1.12D+00  8.68D-01
 E= -1099.70377379133     Delta-E=       -0.000000001246 Rises=F Damp=F
 DIIS: error= 6.36D-07 at cycle  11 NSaved=  11.
 NSaved=11 IEnMin=11 EnMin= -1099.70377379133     IErMin=11 ErrMin= 6.36D-07
 ErrMax= 6.36D-07  0.00D+00 EMaxC= 1.00D-01 BMatC= 1.62D-10 BMatP= 1.48D-09
 IDIUse=1 WtCom= 1.00D+00 WtEn= 0.00D+00
 Coeff-Com: -0.139D-04 0.264D-04 0.239D-03 0.321D-03 0.538D-03-0.245D-02
 Coeff-Com: -0.218D-01-0.173D-01 0.927D-01 0.298D+00 0.650D+00
 Coeff:     -0.139D-04 0.264D-04 0.239D-03 0.321D-03 0.538D-03-0.245D-02
 Coeff:     -0.218D-01-0.173D-01 0.927D-01 0.298D+00 0.650D+00
 Gap=     0.308 Goal=   None    Shift=    0.000
 RMSDP=4.06D-08 MaxDP=2.55D-06 DE=-1.25D-09 OVMax= 7.12D-06

 Cycle  12  Pass 1  IDiag  1:
 RMSU=  2.57D-08    CP:  9.69D-01  8.54D-01  9.85D-01  6.57D-01  8.53D-01
                    CP:  9.46D-01  1.09D+00  1.04D+00  1.14D+00  9.44D-01
                    CP:  8.73D-01
 E= -1099.70377379155     Delta-E=       -0.000000000216 Rises=F Damp=F
 DIIS: error= 1.87D-07 at cycle  12 NSaved=  12.
 NSaved=12 IEnMin=12 EnMin= -1099.70377379155     IErMin=12 ErrMin= 1.87D-07
 ErrMax= 1.87D-07  0.00D+00 EMaxC= 1.00D-01 BMatC= 1.26D-11 BMatP= 1.62D-10
 IDIUse=1 WtCom= 1.00D+00 WtEn= 0.00D+00
 Coeff-Com: -0.130D-05 0.245D-05 0.425D-04 0.623D-04 0.197D-03 0.961D-04
 Coeff-Com: -0.243D-02-0.692D-02-0.206D-01 0.219D-01 0.234D+00 0.774D+00
 Coeff:     -0.130D-05 0.245D-05 0.425D-04 0.623D-04 0.197D-03 0.961D-04
 Coeff:     -0.243D-02-0.692D-02-0.206D-01 0.219D-01 0.234D+00 0.774D+00
 Gap=     0.308 Goal=   None    Shift=    0.000
 RMSDP=1.42D-08 MaxDP=6.70D-07 DE=-2.16D-10 OVMax= 1.45D-06

 Cycle  13  Pass 1  IDiag  1:
 RMSU=  8.23D-09    CP:  9.69D-01  8.54D-01  9.85D-01  6.57D-01  8.53D-01
                    CP:  9.46D-01  1.09D+00  1.04D+00  1.14D+00  9.71D-01
                    CP:  9.76D-01  9.38D-01
 E= -1099.70377379151     Delta-E=        0.000000000039 Rises=F Damp=F
 DIIS: error= 5.12D-08 at cycle  13 NSaved=  13.
 NSaved=13 IEnMin=12 EnMin= -1099.70377379155     IErMin=13 ErrMin= 5.12D-08
 ErrMax= 5.12D-08  0.00D+00 EMaxC= 1.00D-01 BMatC= 1.55D-12 BMatP= 1.26D-11
 IDIUse=1 WtCom= 1.00D+00 WtEn= 0.00D+00
 Coeff-Com:  0.104D-05-0.192D-05-0.744D-05-0.924D-05 0.183D-04 0.287D-03
 Coeff-Com:  0.137D-02-0.963D-03-0.181D-01-0.246D-01 0.351D-01 0.328D+00
 Coeff-Com:  0.679D+00
 Coeff:      0.104D-05-0.192D-05-0.744D-05-0.924D-05 0.183D-04 0.287D-03
 Coeff:      0.137D-02-0.963D-03-0.181D-01-0.246D-01 0.351D-01 0.328D+00
 Coeff:      0.679D+00
 Gap=     0.308 Goal=   None    Shift=    0.000
 RMSDP=3.84D-09 MaxDP=1.84D-07 DE= 3.91D-11 OVMax= 5.34D-07

 SCF Done:  E(RM062X) =  -1099.70377379     A.U. after   13 cycles
            NFock= 13  Conv=0.38D-08     -V/T= 2.0031
 KE= 1.096265527361D+03 PE=-4.731365772410D+03 EE= 1.468019982175D+03
 Leave Link  502 at Thu Dec 15 14:46:13 2022, MaxMem=  1342177280 cpu:            1195.3 elap:              74.9
 (Enter /data0/home/software/g16/l601.exe)
 Copying SCF densities to generalized density rwf, IOpCl= 0 IROHF=0.

 **********************************************************************

            Population analysis using the SCF density.

 **********************************************************************

 Alpha  occ. eigenvalues --  -78.15227 -19.66021 -19.65585 -19.64110 -19.63752
 Alpha  occ. eigenvalues --  -19.63651 -19.63083 -19.59074 -14.82028 -14.77230
 Alpha  occ. eigenvalues --  -10.62547 -10.59589 -10.58247  -6.95935  -5.07857
 Alpha  occ. eigenvalues --   -5.07784  -5.07694  -1.21512  -1.16905  -1.15250
 Alpha  occ. eigenvalues --   -1.14373  -1.13706  -1.13488  -1.12655  -1.09172
 Alpha  occ. eigenvalues --   -0.99243  -0.85778  -0.71934  -0.70206  -0.69061
 Alpha  occ. eigenvalues --   -0.66403  -0.63967  -0.63256  -0.62074  -0.61760
 Alpha  occ. eigenvalues --   -0.61303  -0.55849  -0.54441  -0.53094  -0.52374
 Alpha  occ. eigenvalues --   -0.51891  -0.50497  -0.49962  -0.49176  -0.48892
 Alpha  occ. eigenvalues --   -0.48252  -0.47825  -0.44601  -0.44267  -0.43393
 Alpha  occ. eigenvalues --   -0.41969  -0.41092  -0.40396  -0.39127  -0.38281
 Alpha  occ. eigenvalues --   -0.37123  -0.36735  -0.30658
 Alpha virt. eigenvalues --    0.00112   0.01084   0.01851   0.02410   0.02715
 Alpha virt. eigenvalues --    0.03806   0.04446   0.05150   0.05552   0.06106
 Alpha virt. eigenvalues --    0.07055   0.07316   0.07501   0.09674   0.10214
 Alpha virt. eigenvalues --    0.10813   0.11726   0.12528   0.12800   0.13489
 Alpha virt. eigenvalues --    0.14032   0.14328   0.15056   0.16161   0.16961
 Alpha virt. eigenvalues --    0.17214   0.17309   0.18170   0.18504   0.19187
 Alpha virt. eigenvalues --    0.19522   0.20184   0.20334   0.20969   0.21563
 Alpha virt. eigenvalues --    0.21777   0.22072   0.22341   0.23118   0.23465
 Alpha virt. eigenvalues --    0.23811   0.24660   0.25007   0.25333   0.26015
 Alpha virt. eigenvalues --    0.26300   0.26841   0.27413   0.27973   0.28312
 Alpha virt. eigenvalues --    0.28647   0.29357   0.29771   0.30046   0.30670
 Alpha virt. eigenvalues --    0.31110   0.31565   0.31695   0.32584   0.32994
 Alpha virt. eigenvalues --    0.34189   0.34280   0.34883   0.37176   0.38016
 Alpha virt. eigenvalues --    0.38564   0.39212   0.40157   0.40944   0.42014
 Alpha virt. eigenvalues --    0.42942   0.43437   0.44450   0.45459   0.46313
 Alpha virt. eigenvalues --    0.47765   0.48704   0.49658   0.50137   0.51994
 Alpha virt. eigenvalues --    0.53508   0.54474   0.55642   0.56436   0.56917
 Alpha virt. eigenvalues --    0.58165   0.58621   0.59177   0.59982   0.61104
 Alpha virt. eigenvalues --    0.62598   0.63916   0.65649   0.66331   0.66703
 Alpha virt. eigenvalues --    0.67639   0.69152   0.70028   0.71659   0.72127
 Alpha virt. eigenvalues --    0.72358   0.74060   0.76981   0.78642   0.79388
 Alpha virt. eigenvalues --    0.80823   0.80897   0.81795   0.82273   0.84396
 Alpha virt. eigenvalues --    0.86242   0.88393   0.89543   0.90701   0.91958
 Alpha virt. eigenvalues --    0.94583   0.94889   0.95814   0.97171   0.99668
 Alpha virt. eigenvalues --    1.01007   1.04625   1.05446   1.06908   1.07132
 Alpha virt. eigenvalues --    1.07951   1.09151   1.09679   1.10221   1.11437
 Alpha virt. eigenvalues --    1.11874   1.13500   1.13805   1.14655   1.15239
 Alpha virt. eigenvalues --    1.15816   1.17156   1.17681   1.18568   1.19611
 Alpha virt. eigenvalues --    1.21335   1.21720   1.23043   1.24471   1.25144
 Alpha virt. eigenvalues --    1.26038   1.26554   1.27402   1.27989   1.28524
 Alpha virt. eigenvalues --    1.29991   1.30558   1.31392   1.32356   1.33682
 Alpha virt. eigenvalues --    1.34734   1.34945   1.35539   1.36393   1.37606
 Alpha virt. eigenvalues --    1.38498   1.40181   1.41270   1.42425   1.43371
 Alpha virt. eigenvalues --    1.43512   1.45302   1.45825   1.48635   1.49509
 Alpha virt. eigenvalues --    1.49790   1.50869   1.52349   1.53451   1.53747
 Alpha virt. eigenvalues --    1.54996   1.56482   1.58555   1.61411   1.63485
 Alpha virt. eigenvalues --    1.64174   1.65275   1.69177   1.69692   1.70810
 Alpha virt. eigenvalues --    1.71270   1.73011   1.73681   1.73981   1.76065
 Alpha virt. eigenvalues --    1.76228   1.78113   1.78829   1.79264   1.79714
 Alpha virt. eigenvalues --    1.81971   1.84368   1.86255   1.89080   1.91241
 Alpha virt. eigenvalues --    1.92369   1.93478   1.94527   1.95315   1.96464
 Alpha virt. eigenvalues --    1.98958   1.99666   2.02460   2.02894   2.04219
 Alpha virt. eigenvalues --    2.05454   2.08311   2.09157   2.09974   2.11057
 Alpha virt. eigenvalues --    2.12124   2.13490   2.16491   2.17686   2.19425
 Alpha virt. eigenvalues --    2.21374   2.22895   2.23742   2.25284   2.26922
 Alpha virt. eigenvalues --    2.30288   2.32093   2.35923   2.37486   2.38866
 Alpha virt. eigenvalues --    2.40492   2.42263   2.43936   2.45363   2.47517
 Alpha virt. eigenvalues --    2.52693   2.54797   2.56141   2.57488   2.59835
 Alpha virt. eigenvalues --    2.61792   2.62950   2.63479   2.65518   2.67808
 Alpha virt. eigenvalues --    2.70179   2.72186   2.73865   2.75666   2.77963
 Alpha virt. eigenvalues --    2.80806   2.82728   2.83846   2.84433   2.85517
 Alpha virt. eigenvalues --    2.88527   2.92581   2.94462   2.97061   2.97441
 Alpha virt. eigenvalues --    2.99195   3.00402   3.00921   3.06364   3.09609
 Alpha virt. eigenvalues --    3.11155   3.13117   3.15205   3.18064   3.20228
 Alpha virt. eigenvalues --    3.28577   3.31120   3.35884   3.36716   3.39211
 Alpha virt. eigenvalues --    3.40404   3.44277   3.45602   3.48604   3.53961
 Alpha virt. eigenvalues --    3.57900   3.59697   3.68067   3.69524   3.71713
 Alpha virt. eigenvalues --    3.73972   3.95061   3.98145   4.00345   4.00920
 Alpha virt. eigenvalues --    4.09800   4.48806   4.62385   4.90246   4.96017
 Alpha virt. eigenvalues --    4.97139   4.99803   5.00158   5.04722   5.07684
 Alpha virt. eigenvalues --    5.09568   5.10596   5.11215   5.11604   5.13645
 Alpha virt. eigenvalues --    5.18170   5.19175   5.19764   5.20626   5.23036
 Alpha virt. eigenvalues --    5.27217   5.28340   5.31522   5.34540   5.38364
 Alpha virt. eigenvalues --    5.39145   5.53825   5.54019   5.58131   5.58631
 Alpha virt. eigenvalues --    5.59455   5.62555   5.64910   5.78584   5.93864
 Alpha virt. eigenvalues --    5.98062   5.98813   6.76223   6.76861   6.77818
 Alpha virt. eigenvalues --    6.78542   6.79331   6.80297   6.81387   6.81823
 Alpha virt. eigenvalues --    6.82028   6.82614   6.84001   6.85680   6.85852
 Alpha virt. eigenvalues --    6.87998   6.89673   6.91565   6.93543   6.94272
 Alpha virt. eigenvalues --    6.96875   6.97480   6.99392   7.00028   7.01349
 Alpha virt. eigenvalues --    7.01716   7.05709   7.09271   7.13087   7.16195
 Alpha virt. eigenvalues --    7.17744   7.18507   7.28850   7.29064   7.33507
 Alpha virt. eigenvalues --    7.37735   7.43639   7.69528  14.26568  14.29019
 Alpha virt. eigenvalues --   14.38831  23.90937  24.08564  24.12586  35.65581
 Alpha virt. eigenvalues --   35.69434  50.00811  50.02817  50.03464  50.06155
 Alpha virt. eigenvalues --   50.07257  50.08519  50.11764 163.93286
          Condensed to atoms (all electrons):
               1          2          3          4          5          6
     1  C    5.621821   0.029072  -0.431469   0.377838  -0.042610   0.406160
     2  C    0.029072   5.686628  -0.087461  -0.063126   0.018655  -0.028738
     3  C   -0.431469  -0.087461   6.212123   0.085130  -0.007810   0.012007
     4  N    0.377838  -0.063126   0.085130   6.453390   0.367193  -0.036054
     5  H   -0.042610   0.018655  -0.007810   0.367193   0.348525  -0.002568
     6  H    0.406160  -0.028738   0.012007  -0.036054  -0.002568   0.499360
     7  H   -0.054676   0.445002   0.007984   0.010362  -0.000038  -0.000761
     8  H    0.004883   0.010032   0.371840  -0.034717  -0.000336  -0.000050
     9  N    0.170518   0.042892   0.059554  -0.005558  -0.001888   0.007789
    10  P    0.012563  -0.011942  -0.073348   0.008667   0.000346  -0.000021
    11  O   -0.003848   0.011274   0.027484  -0.001073  -0.000041   0.000001
    12  O   -0.001672   0.006868   0.011028  -0.001222  -0.000032   0.000003
    13  H   -0.000294  -0.005653  -0.000531   0.001302   0.000023  -0.000002
    14  O   -0.015371   0.013079  -0.011546   0.002520   0.000048   0.000008
    15  H    0.003906  -0.003616   0.014065  -0.000112  -0.000055   0.000007
    16  O    0.000458   0.000891  -0.010298   0.000256  -0.000001  -0.000000
    17  H    0.000061  -0.000354   0.000100   0.000026  -0.000000  -0.000000
    18  O    0.004903   0.002941  -0.032635   0.006069  -0.000369  -0.000035
    19  H    0.000274  -0.000252  -0.000334   0.000642   0.000022  -0.000001
    20  H   -0.004474   0.001600   0.024894  -0.005629   0.000421  -0.000001
    21  O    0.007567   0.005848  -0.079877  -0.004112  -0.001510   0.000160
    22  H   -0.006604  -0.000866   0.060356  -0.005379   0.000869  -0.000015
    23  H   -0.017853   0.026358   0.033903   0.000869   0.000465  -0.000063
    24  O   -0.006153   0.005108  -0.011407  -0.019315  -0.034394  -0.000099
    25  H   -0.001496   0.000368   0.005604   0.001213   0.001301   0.000005
    26  H   -0.003891  -0.000794   0.027872  -0.008938   0.003936   0.000027
               7          8          9         10         11         12
     1  C   -0.054676   0.004883   0.170518   0.012563  -0.003848  -0.001672
     2  C    0.445002   0.010032   0.042892  -0.011942   0.011274   0.006868
     3  C    0.007984   0.371840   0.059554  -0.073348   0.027484   0.011028
     4  N    0.010362  -0.034717  -0.005558   0.008667  -0.001073  -0.001222
     5  H   -0.000038  -0.000336  -0.001888   0.000346  -0.000041  -0.000032
     6  H   -0.000761  -0.000050   0.007789  -0.000021   0.000001   0.000003
     7  H    0.502133  -0.000091  -0.049040  -0.000321   0.000066  -0.000027
     8  H   -0.000091   0.445738  -0.019562   0.006994   0.000566  -0.000498
     9  N   -0.049040  -0.019562   7.193184   0.051498  -0.029719  -0.011925
    10  P   -0.000321   0.006994   0.051498  12.470043   0.478173   0.292864
    11  O    0.000066   0.000566  -0.029719   0.478173   8.251764  -0.035657
    12  O   -0.000027  -0.000498  -0.011925   0.292864  -0.035657   8.152745
    13  H    0.000124   0.000308  -0.001525   0.017710  -0.014994   0.192326
    14  O    0.000744   0.000190   0.017743   0.300363  -0.037662   0.005114
    15  H   -0.001071  -0.000266   0.018775  -0.006752   0.005581   0.000526
    16  O   -0.000006   0.000244   0.005168   0.188392  -0.007998  -0.015798
    17  H    0.000000   0.000008   0.000486   0.015855  -0.010354  -0.004143
    18  O   -0.000044   0.002561   0.013642   0.009315  -0.041643   0.008244
    19  H   -0.000000   0.000765   0.001463   0.000447   0.000918  -0.000459
    20  H   -0.000003   0.001351  -0.006217  -0.000522   0.086286  -0.006466
    21  O   -0.001825  -0.000161   0.054681   0.058958  -0.001617   0.051570
    22  H    0.000283  -0.000688  -0.021659  -0.011299   0.001482  -0.019550
    23  H    0.001320   0.000289  -0.017608  -0.006673  -0.003029  -0.018021
    24  O    0.000006   0.005546   0.002962   0.000777  -0.000044   0.000066
    25  H   -0.000001  -0.000034  -0.000007  -0.000053  -0.000005  -0.000001
    26  H    0.000002  -0.001809  -0.005838   0.000033  -0.001391  -0.000158
              13         14         15         16         17         18
     1  C   -0.000294  -0.015371   0.003906   0.000458   0.000061   0.004903
     2  C   -0.005653   0.013079  -0.003616   0.000891  -0.000354   0.002941
     3  C   -0.000531  -0.011546   0.014065  -0.010298   0.000100  -0.032635
     4  N    0.001302   0.002520  -0.000112   0.000256   0.000026   0.006069
     5  H    0.000023   0.000048  -0.000055  -0.000001  -0.000000  -0.000369
     6  H   -0.000002   0.000008   0.000007  -0.000000  -0.000000  -0.000035
     7  H    0.000124   0.000744  -0.001071  -0.000006   0.000000  -0.000044
     8  H    0.000308   0.000190  -0.000266   0.000244   0.000008   0.002561
     9  N   -0.001525   0.017743   0.018775   0.005168   0.000486   0.013642
    10  P    0.017710   0.300363  -0.006752   0.188392   0.015855   0.009315
    11  O   -0.014994  -0.037662   0.005581  -0.007998  -0.010354  -0.041643
    12  O    0.192326   0.005114   0.000526  -0.015798  -0.004143   0.008244
    13  H    0.391010   0.011361  -0.002400  -0.006510   0.002520  -0.007339
    14  O    0.011361   8.133907   0.246024  -0.016879  -0.003461  -0.002466
    15  H   -0.002400   0.246024   0.231927   0.000546   0.000671   0.000272
    16  O   -0.006510  -0.016879   0.000546   8.088948   0.233072   0.000200
    17  H    0.002520  -0.003461   0.000671   0.233072   0.452864   0.000094
    18  O   -0.007339  -0.002466   0.000272   0.000200   0.000094   8.104123
    19  H   -0.000359  -0.000267  -0.000052   0.000211  -0.000009   0.279246
    20  H    0.001411  -0.000353  -0.000163   0.001388  -0.000162   0.300225
    21  O   -0.063637  -0.026206   0.000445   0.008963  -0.000194   0.034715
    22  H    0.025755   0.003640  -0.000461  -0.001258   0.000012  -0.007625
    23  H    0.031407   0.005477  -0.000442  -0.000872   0.000042  -0.009247
    24  O   -0.000107  -0.000086  -0.000030   0.000016  -0.000000  -0.010440
    25  H    0.000003   0.000003  -0.000001  -0.000000   0.000000   0.000248
    26  H    0.000245   0.000159   0.000013  -0.000021   0.000000   0.006767
              19         20         21         22         23         24
     1  C    0.000274  -0.004474   0.007567  -0.006604  -0.017853  -0.006153
     2  C   -0.000252   0.001600   0.005848  -0.000866   0.026358   0.005108
     3  C   -0.000334   0.024894  -0.079877   0.060356   0.033903  -0.011407
     4  N    0.000642  -0.005629  -0.004112  -0.005379   0.000869  -0.019315
     5  H    0.000022   0.000421  -0.001510   0.000869   0.000465  -0.034394
     6  H   -0.000001  -0.000001   0.000160  -0.000015  -0.000063  -0.000099
     7  H   -0.000000  -0.000003  -0.001825   0.000283   0.001320   0.000006
     8  H    0.000765   0.001351  -0.000161  -0.000688   0.000289   0.005546
     9  N    0.001463  -0.006217   0.054681  -0.021659  -0.017608   0.002962
    10  P    0.000447  -0.000522   0.058958  -0.011299  -0.006673   0.000777
    11  O    0.000918   0.086286  -0.001617   0.001482  -0.003029  -0.000044
    12  O   -0.000459  -0.006466   0.051570  -0.019550  -0.018021   0.000066
    13  H   -0.000359   0.001411  -0.063637   0.025755   0.031407  -0.000107
    14  O   -0.000267  -0.000353  -0.026206   0.003640   0.005477  -0.000086
    15  H   -0.000052  -0.000163   0.000445  -0.000461  -0.000442  -0.000030
    16  O    0.000211   0.001388   0.008963  -0.001258  -0.000872   0.000016
    17  H   -0.000009  -0.000162  -0.000194   0.000012   0.000042  -0.000000
    18  O    0.279246   0.300225   0.034715  -0.007625  -0.009247  -0.010440
    19  H    0.400548  -0.013237   0.001712  -0.001873  -0.000381   0.001477
    20  H   -0.013237   0.309051  -0.010941  -0.002688   0.001133  -0.002220
    21  O    0.001712  -0.010941   8.069842   0.254173   0.237056   0.004779
    22  H   -0.001873  -0.002688   0.254173   0.368943   0.015099  -0.005653
    23  H   -0.000381   0.001133   0.237056   0.015099   0.411252  -0.001092
    24  O    0.001477  -0.002220   0.004779  -0.005653  -0.001092   8.187191
    25  H   -0.000882   0.000731  -0.000203   0.000297   0.000019   0.271232
    26  H   -0.002790   0.004945  -0.007084   0.005594   0.001338   0.275574
              25         26
     1  C   -0.001496  -0.003891
     2  C    0.000368  -0.000794
     3  C    0.005604   0.027872
     4  N    0.001213  -0.008938
     5  H    0.001301   0.003936
     6  H    0.000005   0.000027
     7  H   -0.000001   0.000002
     8  H   -0.000034  -0.001809
     9  N   -0.000007  -0.005838
    10  P   -0.000053   0.000033
    11  O   -0.000005  -0.001391
    12  O   -0.000001  -0.000158
    13  H    0.000003   0.000245
    14  O    0.000003   0.000159
    15  H   -0.000001   0.000013
    16  O   -0.000000  -0.000021
    17  H    0.000000   0.000000
    18  O    0.000248   0.006767
    19  H   -0.000882  -0.002790
    20  H    0.000731   0.004945
    21  O   -0.000203  -0.007084
    22  H    0.000297   0.005594
    23  H    0.000019   0.001338
    24  O    0.271232   0.275574
    25  H    0.418075  -0.008717
    26  H   -0.008717   0.354545
 Mulliken charges:
               1
     1  C   -0.049614
     2  C   -0.103813
     3  C   -0.207228
     4  N   -0.130241
     5  H    0.349847
     6  H    0.142880
     7  H    0.139877
     8  H    0.206898
     9  N   -0.469811
    10  P    1.197932
    11  O   -0.674520
    12  O   -0.605727
    13  H    0.427848
    14  O   -0.626085
    15  H    0.492664
    16  O   -0.469113
    17  H    0.312866
    18  O   -0.661723
    19  H    0.333172
    20  H    0.319640
    21  O   -0.593101
    22  H    0.349115
    23  H    0.309254
    24  O   -0.663694
    25  H    0.312298
    26  H    0.360378
 Sum of Mulliken charges =  -0.00000
 Mulliken charges with hydrogens summed into heavy atoms:
               1
     1  C    0.093266
     2  C    0.036064
     3  C   -0.000330
     4  N    0.219606
     9  N   -0.469811
    10  P    1.197932
    11  O   -0.674520
    12  O   -0.177879
    14  O   -0.133420
    16  O   -0.156247
    18  O   -0.008911
    21  O    0.065268
    24  O    0.008982
         Mulliken charges condensed to fragments:
      1     -0.121204
      2      0.055866
      3     -0.008911
      4      0.065268
      5      0.008982
 Electronic spatial extent (au):  <R**2>=         186026.6809
 Charge=             -0.0000 electrons
 Dipole moment (field-independent basis, Debye):
    X=             -3.2778    Y=             -1.0594    Z=              3.5012  Tot=              4.9117
 Quadrupole moment (field-independent basis, Debye-Ang):
   XX=           -169.5057   YY=           -105.0886   ZZ=            -13.0915
   XY=            -48.1046   XZ=              6.0739   YZ=             37.2171
 Traceless Quadrupole moment (field-independent basis, Debye-Ang):
   XX=            -73.6104   YY=             -9.1934   ZZ=             82.8038
   XY=            -48.1046   XZ=              6.0739   YZ=             37.2171
 Octapole moment (field-independent basis, Debye-Ang**2):
  XXX=          -4802.8562  YYY=          -3874.0710  ZZZ=          -1244.2660  XYY=          -1671.4321
  XXY=          -2306.6475  XXZ=          -1198.0951  XZZ=           -593.1239  YZZ=           -319.1741
  YYZ=           -335.6802  XYZ=             21.7935
 Hexadecapole moment (field-independent basis, Debye-Ang**3):
 XXXX=        -107804.8043 YYYY=        -105835.4927 ZZZZ=         -30446.6559 XXXY=         -65821.5264
 XXXZ=         -40407.3305 YYYX=         -51979.0325 YYYZ=         -27073.5858 ZZZX=         -20164.0344
 ZZZY=         -18989.0291 XXYY=         -44002.9124 XXZZ=         -20617.6827 YYZZ=         -13185.8489
 XXYZ=         -16926.3828 YYXZ=          -9384.9809 ZZXY=          -9346.6699
 N-N= 1.067376489083D+03 E-N=-4.731365776633D+03  KE= 1.096265527361D+03
 No NMR shielding tensors so no spin-rotation constants.
 Leave Link  601 at Thu Dec 15 14:46:13 2022, MaxMem=  1342177280 cpu:               1.8 elap:               0.1
 (Enter /data0/home/software/g16/l122.exe)
 CPIOFr:  IOpCl= 0 IRwI=-1 IRwCP=  731 ICalc= -1 LCPTot=      294485 Len1MO=      773009 IndFrg=      294485
 CPIOFr:  IOpCl= 0 IRwI=-1 IRwCP=  731 ICalc=  0 LCPTot=      294485 Len1MO=      773009 IndFrg=     1067494
 Counterpoise: doing calculation for fragment   1 using the basis set of the full-system, NewBq=T
 Leave Link  122 at Thu Dec 15 14:46:13 2022, MaxMem=  1342177280 cpu:               0.2 elap:               0.0
 (Enter /data0/home/software/g16/l301.exe)
 Basis read from rwf:  (5D, 7F)
 No pseudopotential information found on rwf file.
   437 basis functions,   664 primitive gaussians,   463 cartesian basis functions
    18 alpha electrons       18 beta electrons
       nuclear repulsion energy       160.9886598869 Hartrees.
 IExCor= 4336 DFT=T Ex+Corr=M062X ExCW=0 ScaHFX=  0.540000
 ScaDFX=  1.000000  1.000000  1.000000  1.000000 ScalE2=  1.000000  1.000000
 IRadAn=      5 IRanWt=     -1 IRanGd=            0 ICorTp=0 IEmpDi=131
 NAtoms=   26 NActive=   26 NUniq=   26 SFac= 1.00D+00 NAtFMM=   60 NAOKFM=F Big=F
 Integral buffers will be    131072 words long.
 Raffenetti 2 integral format.
 Two-electron integral symmetry is turned off.
 R6Disp:  Grimme-D3 Dispersion energy=       -0.0000417754 Hartrees.
 Nuclear repulsion after empirical dispersion term =      160.9886181114 Hartrees.
 No density basis found on file   718.
 Leave Link  301 at Thu Dec 15 14:46:13 2022, MaxMem=  1342177280 cpu:               0.8 elap:               0.1
 (Enter /data0/home/software/g16/l302.exe)
 NPDir=0 NMtPBC=     1 NCelOv=     1 NCel=       1 NClECP=     1 NCelD=      1
         NCelK=      1 NCelE2=     1 NClLst=     1 CellRange=     0.0.
 One-electron integrals computed using PRISM.
 NBasis=   437 RedAO= T EigKep=  3.10D-05  NBF=   437
 NBsUse=   437 1.00D-06 EigRej= -1.00D+00 NBFU=   437
 Precomputing XC quadrature grid using
 IXCGrd= 4 IRadAn=           5 IRanWt=          -1 IRanGd=           0 AccXCQ= 0.00D+00.
 Generated NRdTot=       0 NPtTot=           0 NUsed=           0 NTot=          32
 NSgBfM=   463   462   462   463   463 MxSgAt=    26 MxSgA2=    26.
 Leave Link  302 at Thu Dec 15 14:46:13 2022, MaxMem=  1342177280 cpu:               5.3 elap:               0.3
 (Enter /data0/home/software/g16/l303.exe)
 DipDrv:  MaxL=1.
 Leave Link  303 at Thu Dec 15 14:46:13 2022, MaxMem=  1342177280 cpu:               0.6 elap:               0.1
 (Enter /data0/home/software/g16/l401.exe)
 ExpMin= 3.48D-02 ExpMax= 7.75D+04 ExpMxC= 2.65D+03 IAcc=3 IRadAn=         5 AccDes= 0.00D+00
 Harris functional with IExCor= 1009 and IRadAn=       5 diagonalized for initial guess.
 HarFok:  IExCor= 1009 AccDes= 0.00D+00 IRadAn=         5 IDoV= 1 UseB2=F ITyADJ=14
 ICtDFT=  3500011 ScaDFX=  1.000000  1.000000  1.000000  1.000000
 FoFCou: FMM=F IPFlag=           0 FMFlag=      100000 FMFlg1=           0
         NFxFlg=           0 DoJE=T BraDBF=F KetDBF=T FulRan=T
         wScrn=  0.000000 ICntrl=       500 IOpCl=  0 I1Cent=   200000004 NGrid=           0
         NMat0=    1 NMatS0=      1 NMatT0=    0 NMatD0=    1 NMtDS0=    0 NMtDT0=    0
 Symmetry not used in FoFCou.
 Harris En= -226.054336938736    
 JPrj=0 DoOrth=F DoCkMO=F.
 Leave Link  401 at Thu Dec 15 14:46:15 2022, MaxMem=  1342177280 cpu:              23.7 elap:               1.5
 (Enter /data0/home/software/g16/l502.exe)
 Two-electron integral symmetry not used.
 Closed shell SCF:
 Using DIIS extrapolation, IDIIS=  1040.
 NGot=  1342177280 LenX=  1341737841 LenY=  1341523009
 Requested convergence on RMS density matrix=1.00D-08 within 128 cycles.
 Requested convergence on MAX density matrix=1.00D-06.
 Requested convergence on             energy=1.00D-06.
 No special actions if energy rises.
 Fock matrices will be formed incrementally for  20 cycles.

 Cycle   1  Pass 1  IDiag  1:
 FoFJK:  IHMeth= 1 ICntrl=       0 DoSepK=F KAlg= 0 I1Cent=           0 FoldK=F
 IRaf= 870000000 NMat=       1 IRICut=       1 DoRegI=T DoRafI=F ISym2E= 0 IDoP0=0 IntGTp=1.
 FoFCou: FMM=F IPFlag=           0 FMFlag=      100000 FMFlg1=           0
         NFxFlg=           0 DoJE=F BraDBF=F KetDBF=F FulRan=T
         wScrn=  0.000000 ICntrl=         0 IOpCl=  0 I1Cent=           0 NGrid=           0
         NMat0=    1 NMatS0=      1 NMatT0=    0 NMatD0=    1 NMtDS0=    0 NMtDT0=    0
 Symmetry not used in FoFCou.
 E= -226.087154394886    
 DIIS: error= 1.19D-02 at cycle   1 NSaved=   1.
 NSaved= 1 IEnMin= 1 EnMin= -226.087154394886     IErMin= 1 ErrMin= 1.19D-02
 ErrMax= 1.19D-02  0.00D+00 EMaxC= 1.00D-01 BMatC= 1.33D-01 BMatP= 1.33D-01
 IDIUse=3 WtCom= 8.81D-01 WtEn= 1.19D-01
 Coeff-Com:  0.100D+01
 Coeff-En:   0.100D+01
 Coeff:      0.100D+01
 Gap=     0.310 Goal=   None    Shift=    0.000
 GapD=    0.310 DampG=1.000 DampE=0.500 DampFc=0.5000 IDamp=-1.
 Damping current iteration by 5.00D-01
 RMSDP=1.96D-03 MaxDP=1.55D-01              OVMax= 1.75D-01

 Cycle   2  Pass 1  IDiag  1:
 RMSU=  9.80D-04    CP:  1.01D+00
 E= -226.134556209247     Delta-E=       -0.047401814361 Rises=F Damp=T
 DIIS: error= 4.29D-03 at cycle   2 NSaved=   2.
 NSaved= 2 IEnMin= 2 EnMin= -226.134556209247     IErMin= 2 ErrMin= 4.29D-03
 ErrMax= 4.29D-03  0.00D+00 EMaxC= 1.00D-01 BMatC= 1.57D-02 BMatP= 1.33D-01
 IDIUse=3 WtCom= 9.57D-01 WtEn= 4.29D-02
 Coeff-Com: -0.930D-01 0.109D+01
 Coeff-En:   0.000D+00 0.100D+01
 Coeff:     -0.890D-01 0.109D+01
 Gap=     0.285 Goal=   None    Shift=    0.000
 RMSDP=6.78D-04 MaxDP=7.06D-02 DE=-4.74D-02 OVMax= 1.16D-01

 Cycle   3  Pass 1  IDiag  1:
 RMSU=  5.52D-04    CP:  9.77D-01  6.30D-01
 E= -226.179621475679     Delta-E=       -0.045065266432 Rises=F Damp=F
 DIIS: error= 5.08D-03 at cycle   3 NSaved=   3.
 NSaved= 3 IEnMin= 3 EnMin= -226.179621475679     IErMin= 2 ErrMin= 4.29D-03
 ErrMax= 5.08D-03  0.00D+00 EMaxC= 1.00D-01 BMatC= 1.04D-02 BMatP= 1.57D-02
 IDIUse=3 WtCom= 9.49D-01 WtEn= 5.08D-02
 Coeff-Com: -0.152D+00 0.541D+00 0.611D+00
 Coeff-En:   0.000D+00 0.000D+00 0.100D+01
 Coeff:     -0.144D+00 0.513D+00 0.631D+00
 Gap=     0.289 Goal=   None    Shift=    0.000
 RMSDP=2.26D-04 MaxDP=1.40D-02 DE=-4.51D-02 OVMax= 4.29D-02

 Cycle   4  Pass 1  IDiag  1:
 RMSU=  1.84D-04    CP:  9.77D-01  7.47D-01  8.86D-01
 E= -226.187536515871     Delta-E=       -0.007915040192 Rises=F Damp=F
 DIIS: error= 1.51D-03 at cycle   4 NSaved=   4.
 NSaved= 4 IEnMin= 4 EnMin= -226.187536515871     IErMin= 4 ErrMin= 1.51D-03
 ErrMax= 1.51D-03  0.00D+00 EMaxC= 1.00D-01 BMatC= 1.38D-03 BMatP= 1.04D-02
 IDIUse=3 WtCom= 9.85D-01 WtEn= 1.51D-02
 Coeff-Com: -0.659D-01 0.162D+00 0.333D+00 0.570D+00
 Coeff-En:   0.000D+00 0.000D+00 0.689D-01 0.931D+00
 Coeff:     -0.649D-01 0.160D+00 0.329D+00 0.576D+00
 Gap=     0.283 Goal=   None    Shift=    0.000
 RMSDP=9.33D-05 MaxDP=5.75D-03 DE=-7.92D-03 OVMax= 1.00D-02

 Cycle   5  Pass 1  IDiag  1:
 RMSU=  5.99D-05    CP:  9.74D-01  7.09D-01  9.42D-01  7.35D-01
 E= -226.188708323365     Delta-E=       -0.001171807494 Rises=F Damp=F
 DIIS: error= 2.65D-04 at cycle   5 NSaved=   5.
 NSaved= 5 IEnMin= 5 EnMin= -226.188708323365     IErMin= 5 ErrMin= 2.65D-04
 ErrMax= 2.65D-04  0.00D+00 EMaxC= 1.00D-01 BMatC= 2.55D-05 BMatP= 1.38D-03
 IDIUse=3 WtCom= 9.97D-01 WtEn= 2.65D-03
 Coeff-Com: -0.160D-01 0.319D-01 0.827D-01 0.198D+00 0.704D+00
 Coeff-En:   0.000D+00 0.000D+00 0.000D+00 0.000D+00 0.100D+01
 Coeff:     -0.160D-01 0.318D-01 0.824D-01 0.197D+00 0.705D+00
 Gap=     0.283 Goal=   None    Shift=    0.000
 RMSDP=1.22D-05 MaxDP=8.60D-04 DE=-1.17D-03 OVMax= 2.24D-03

 Cycle   6  Pass 1  IDiag  1:
 RMSU=  1.12D-05    CP:  9.74D-01  7.08D-01  9.46D-01  7.45D-01  9.36D-01
 E= -226.188728190310     Delta-E=       -0.000019866945 Rises=F Damp=F
 DIIS: error= 1.06D-04 at cycle   6 NSaved=   6.
 NSaved= 6 IEnMin= 6 EnMin= -226.188728190310     IErMin= 6 ErrMin= 1.06D-04
 ErrMax= 1.06D-04  0.00D+00 EMaxC= 1.00D-01 BMatC= 4.47D-06 BMatP= 2.55D-05
 IDIUse=3 WtCom= 9.99D-01 WtEn= 1.06D-03
 Coeff-Com: -0.424D-02 0.650D-02 0.226D-01 0.631D-01 0.351D+00 0.561D+00
 Coeff-En:   0.000D+00 0.000D+00 0.000D+00 0.000D+00 0.306D-01 0.969D+00
 Coeff:     -0.423D-02 0.649D-02 0.225D-01 0.630D-01 0.351D+00 0.561D+00
 Gap=     0.283 Goal=   None    Shift=    0.000
 RMSDP=6.44D-06 MaxDP=3.60D-04 DE=-1.99D-05 OVMax= 9.55D-04

 Cycle   7  Pass 1  IDiag  1:
 RMSU=  4.41D-06    CP:  9.74D-01  7.04D-01  9.48D-01  7.45D-01  9.67D-01
                    CP:  9.94D-01
 E= -226.188732362683     Delta-E=       -0.000004172373 Rises=F Damp=F
 DIIS: error= 1.84D-05 at cycle   7 NSaved=   7.
 NSaved= 7 IEnMin= 7 EnMin= -226.188732362683     IErMin= 7 ErrMin= 1.84D-05
 ErrMax= 1.84D-05  0.00D+00 EMaxC= 1.00D-01 BMatC= 1.55D-07 BMatP= 4.47D-06
 IDIUse=1 WtCom= 1.00D+00 WtEn= 0.00D+00
 Coeff-Com:  0.197D-02-0.416D-02-0.842D-02-0.224D-01-0.543D-01 0.789D-01
 Coeff-Com:  0.101D+01
 Coeff:      0.197D-02-0.416D-02-0.842D-02-0.224D-01-0.543D-01 0.789D-01
 Coeff:      0.101D+01
 Gap=     0.283 Goal=   None    Shift=    0.000
 RMSDP=3.77D-06 MaxDP=2.50D-04 DE=-4.17D-06 OVMax= 2.37D-04

 Cycle   8  Pass 1  IDiag  1:
 RMSU=  1.05D-06    CP:  9.74D-01  7.01D-01  9.50D-01  7.43D-01  9.91D-01
                    CP:  1.14D+00  1.14D+00
 E= -226.188732589358     Delta-E=       -0.000000226675 Rises=F Damp=F
 DIIS: error= 6.36D-06 at cycle   8 NSaved=   8.
 NSaved= 8 IEnMin= 8 EnMin= -226.188732589358     IErMin= 8 ErrMin= 6.36D-06
 ErrMax= 6.36D-06  0.00D+00 EMaxC= 1.00D-01 BMatC= 1.33D-08 BMatP= 1.55D-07
 IDIUse=1 WtCom= 1.00D+00 WtEn= 0.00D+00
 Coeff-Com:  0.761D-03-0.154D-02-0.307D-02-0.907D-02-0.257D-01 0.123D-01
 Coeff-Com:  0.343D+00 0.683D+00
 Coeff:      0.761D-03-0.154D-02-0.307D-02-0.907D-02-0.257D-01 0.123D-01
 Coeff:      0.343D+00 0.683D+00
 Gap=     0.283 Goal=   None    Shift=    0.000
 RMSDP=4.08D-07 MaxDP=2.30D-05 DE=-2.27D-07 OVMax= 5.40D-05

 Cycle   9  Pass 1  IDiag  1:
 RMSU=  2.65D-07    CP:  9.74D-01  7.01D-01  9.50D-01  7.43D-01  9.92D-01
                    CP:  1.14D+00  1.17D+00  1.10D+00
 E= -226.188732601662     Delta-E=       -0.000000012304 Rises=F Damp=F
 DIIS: error= 2.54D-06 at cycle   9 NSaved=   9.
 NSaved= 9 IEnMin= 9 EnMin= -226.188732601662     IErMin= 9 ErrMin= 2.54D-06
 ErrMax= 2.54D-06  0.00D+00 EMaxC= 1.00D-01 BMatC= 3.07D-09 BMatP= 1.33D-08
 IDIUse=1 WtCom= 1.00D+00 WtEn= 0.00D+00
 Coeff-Com: -0.112D-03 0.246D-03 0.698D-03 0.107D-02 0.118D-02-0.130D-01
 Coeff-Com: -0.837D-01 0.305D+00 0.789D+00
 Coeff:     -0.112D-03 0.246D-03 0.698D-03 0.107D-02 0.118D-02-0.130D-01
 Coeff:     -0.837D-01 0.305D+00 0.789D+00
 Gap=     0.283 Goal=   None    Shift=    0.000
 RMSDP=2.10D-07 MaxDP=1.44D-05 DE=-1.23D-08 OVMax= 2.02D-05

 Cycle  10  Pass 1  IDiag  1:
 RMSU=  1.05D-07    CP:  9.74D-01  7.01D-01  9.51D-01  7.42D-01  9.92D-01
                    CP:  1.14D+00  1.17D+00  1.24D+00  1.05D+00
 E= -226.188732604743     Delta-E=       -0.000000003081 Rises=F Damp=F
 DIIS: error= 3.28D-07 at cycle  10 NSaved=  10.
 NSaved=10 IEnMin=10 EnMin= -226.188732604743     IErMin=10 ErrMin= 3.28D-07
 ErrMax= 3.28D-07  0.00D+00 EMaxC= 1.00D-01 BMatC= 6.50D-11 BMatP= 3.07D-09
 IDIUse=1 WtCom= 1.00D+00 WtEn= 0.00D+00
 Coeff-Com: -0.478D-04 0.103D-03 0.264D-03 0.522D-03 0.129D-02-0.172D-02
 Coeff-Com: -0.282D-01 0.146D-01 0.927D-01 0.921D+00
 Coeff:     -0.478D-04 0.103D-03 0.264D-03 0.522D-03 0.129D-02-0.172D-02
 Coeff:     -0.282D-01 0.146D-01 0.927D-01 0.921D+00
 Gap=     0.283 Goal=   None    Shift=    0.000
 RMSDP=3.65D-08 MaxDP=2.31D-06 DE=-3.08D-09 OVMax= 4.36D-06

 Cycle  11  Pass 1  IDiag  1:
 RMSU=  1.91D-08    CP:  9.74D-01  7.01D-01  9.51D-01  7.42D-01  9.92D-01
                    CP:  1.14D+00  1.17D+00  1.26D+00  1.10D+00  1.10D+00
 E= -226.188732604810     Delta-E=       -0.000000000067 Rises=F Damp=F
 DIIS: error= 2.54D-07 at cycle  11 NSaved=  11.
 NSaved=11 IEnMin=11 EnMin= -226.188732604810     IErMin=11 ErrMin= 2.54D-07
 ErrMax= 2.54D-07  0.00D+00 EMaxC= 1.00D-01 BMatC= 1.62D-11 BMatP= 6.50D-11
 IDIUse=1 WtCom= 1.00D+00 WtEn= 0.00D+00
 Coeff-Com: -0.663D-05 0.139D-04 0.436D-04 0.858D-04 0.324D-03 0.444D-03
 Coeff-Com: -0.426D-02-0.173D-01-0.318D-01 0.398D+00 0.655D+00
 Coeff:     -0.663D-05 0.139D-04 0.436D-04 0.858D-04 0.324D-03 0.444D-03
 Coeff:     -0.426D-02-0.173D-01-0.318D-01 0.398D+00 0.655D+00
 Gap=     0.283 Goal=   None    Shift=    0.000
 RMSDP=1.06D-08 MaxDP=7.07D-07 DE=-6.74D-11 OVMax= 1.89D-06

 Cycle  12  Pass 1  IDiag  1:
 RMSU=  7.89D-09    CP:  9.74D-01  7.01D-01  9.51D-01  7.42D-01  9.92D-01
                    CP:  1.14D+00  1.17D+00  1.27D+00  1.11D+00  1.14D+00
                    CP:  9.28D-01
 E= -226.188732604825     Delta-E=       -0.000000000015 Rises=F Damp=F
 DIIS: error= 5.12D-08 at cycle  12 NSaved=  12.
 NSaved=12 IEnMin=12 EnMin= -226.188732604825     IErMin=12 ErrMin= 5.12D-08
 ErrMax= 5.12D-08  0.00D+00 EMaxC= 1.00D-01 BMatC= 1.76D-12 BMatP= 1.62D-11
 IDIUse=1 WtCom= 1.00D+00 WtEn= 0.00D+00
 Coeff-Com:  0.362D-05-0.773D-05-0.143D-04-0.314D-04-0.257D-04 0.416D-03
 Coeff-Com:  0.192D-02-0.677D-02-0.252D-01 0.206D-02 0.255D+00 0.773D+00
 Coeff:      0.362D-05-0.773D-05-0.143D-04-0.314D-04-0.257D-04 0.416D-03
 Coeff:      0.192D-02-0.677D-02-0.252D-01 0.206D-02 0.255D+00 0.773D+00
 Gap=     0.283 Goal=   None    Shift=    0.000
 RMSDP=3.80D-09 MaxDP=2.11D-07 DE=-1.50D-11 OVMax= 3.86D-07

 SCF Done:  E(RM062X) =  -226.188732605     A.U. after   12 cycles
            NFock= 12  Conv=0.38D-08     -V/T= 2.0053
 KE= 2.249947395508D+02 PE=-8.484211341727D+02 EE= 2.362490439057D+02
 Leave Link  502 at Thu Dec 15 14:47:19 2022, MaxMem=  1342177280 cpu:            1021.8 elap:              64.1
 (Enter /data0/home/software/g16/l601.exe)
 Copying SCF densities to generalized density rwf, IOpCl= 0 IROHF=0.

 **********************************************************************

            Population analysis using the SCF density.

 **********************************************************************

 Alpha  occ. eigenvalues --  -14.81510 -14.73522 -10.60450 -10.57709 -10.55843
 Alpha  occ. eigenvalues --   -1.11739  -0.96854  -0.83720  -0.70056  -0.66995
 Alpha  occ. eigenvalues --   -0.64201  -0.51495  -0.50528  -0.50093  -0.48001
 Alpha  occ. eigenvalues --   -0.34481  -0.34067  -0.28490
 Alpha virt. eigenvalues --   -0.00217   0.02100   0.02622   0.03192   0.04364
 Alpha virt. eigenvalues --    0.04660   0.05149   0.06146   0.06778   0.07395
 Alpha virt. eigenvalues --    0.07681   0.08252   0.08585   0.10555   0.11321
 Alpha virt. eigenvalues --    0.11675   0.13035   0.13321   0.13871   0.14477
 Alpha virt. eigenvalues --    0.15025   0.15446   0.16708   0.17335   0.18317
 Alpha virt. eigenvalues --    0.18735   0.19805   0.20094   0.20333   0.21288
 Alpha virt. eigenvalues --    0.21800   0.22460   0.22797   0.23357   0.23863
 Alpha virt. eigenvalues --    0.24245   0.24997   0.25250   0.25949   0.26824
 Alpha virt. eigenvalues --    0.27201   0.27988   0.28247   0.28881   0.29198
 Alpha virt. eigenvalues --    0.29953   0.30071   0.30564   0.31399   0.32216
 Alpha virt. eigenvalues --    0.33198   0.33805   0.34565   0.34876   0.36439
 Alpha virt. eigenvalues --    0.36955   0.37668   0.37740   0.38833   0.39198
 Alpha virt. eigenvalues --    0.39665   0.40330   0.41691   0.42454   0.43102
 Alpha virt. eigenvalues --    0.43404   0.44306   0.45564   0.46206   0.47323
 Alpha virt. eigenvalues --    0.47789   0.49957   0.50766   0.51427   0.52281
 Alpha virt. eigenvalues --    0.54456   0.56343   0.58136   0.59173   0.60136
 Alpha virt. eigenvalues --    0.60955   0.64429   0.65843   0.66450   0.67191
 Alpha virt. eigenvalues --    0.68587   0.69847   0.70899   0.71373   0.72495
 Alpha virt. eigenvalues --    0.73043   0.73655   0.75435   0.76027   0.76379
 Alpha virt. eigenvalues --    0.76975   0.77689   0.78009   0.79272   0.79534
 Alpha virt. eigenvalues --    0.80373   0.81234   0.82081   0.82873   0.83602
 Alpha virt. eigenvalues --    0.84445   0.84571   0.85658   0.86381   0.86781
 Alpha virt. eigenvalues --    0.87723   0.88673   0.89184   0.89340   0.91087
 Alpha virt. eigenvalues --    0.92985   0.94428   0.94859   0.95557   0.97315
 Alpha virt. eigenvalues --    0.98399   0.99328   0.99912   1.01448   1.02100
 Alpha virt. eigenvalues --    1.03078   1.04044   1.04534   1.05489   1.06921
 Alpha virt. eigenvalues --    1.08592   1.10193   1.11763   1.11965   1.13205
 Alpha virt. eigenvalues --    1.14291   1.14481   1.16903   1.18065   1.18762
 Alpha virt. eigenvalues --    1.20077   1.22248   1.24072   1.26954   1.27852
 Alpha virt. eigenvalues --    1.29774   1.31077   1.31632   1.33897   1.35989
 Alpha virt. eigenvalues --    1.37749   1.38438   1.39700   1.43744   1.44473
 Alpha virt. eigenvalues --    1.44744   1.46437   1.47043   1.47846   1.50995
 Alpha virt. eigenvalues --    1.51789   1.54425   1.55380   1.57796   1.67596
 Alpha virt. eigenvalues --    1.70449   1.73069   1.75824   1.76573   1.79596
 Alpha virt. eigenvalues --    1.81967   1.84108   1.85944   1.87025   1.87658
 Alpha virt. eigenvalues --    1.89509   1.92314   1.93394   1.95196   1.96665
 Alpha virt. eigenvalues --    1.98578   2.01236   2.02581   2.03991   2.05595
 Alpha virt. eigenvalues --    2.06332   2.09350   2.11058   2.15057   2.16123
 Alpha virt. eigenvalues --    2.16732   2.19041   2.20809   2.21521   2.22747
 Alpha virt. eigenvalues --    2.24552   2.26946   2.28041   2.28764   2.30295
 Alpha virt. eigenvalues --    2.32587   2.37697   2.39082   2.39800   2.41455
 Alpha virt. eigenvalues --    2.43758   2.45239   2.46079   2.47104   2.48784
 Alpha virt. eigenvalues --    2.49534   2.51107   2.51977   2.53894   2.54854
 Alpha virt. eigenvalues --    2.55537   2.56354   2.57971   2.58839   2.61336
 Alpha virt. eigenvalues --    2.61744   2.62928   2.63329   2.63393   2.65222
 Alpha virt. eigenvalues --    2.66405   2.68999   2.69440   2.70384   2.71062
 Alpha virt. eigenvalues --    2.73100   2.73266   2.75664   2.75994   2.76934
 Alpha virt. eigenvalues --    2.77229   2.78612   2.79749   2.81384   2.82974
 Alpha virt. eigenvalues --    2.84601   2.85833   2.87025   2.87611   2.88571
 Alpha virt. eigenvalues --    2.90648   2.90974   2.93289   2.94882   2.95879
 Alpha virt. eigenvalues --    2.96834   2.98370   2.99233   3.00277   3.01996
 Alpha virt. eigenvalues --    3.03155   3.04495   3.05151   3.06410   3.08238
 Alpha virt. eigenvalues --    3.09476   3.11558   3.12115   3.13720   3.15291
 Alpha virt. eigenvalues --    3.17164   3.19640   3.21868   3.23826   3.24100
 Alpha virt. eigenvalues --    3.26044   3.31159   3.33004   3.34987   3.35495
 Alpha virt. eigenvalues --    3.38578   3.38825   3.40321   3.42421   3.43699
 Alpha virt. eigenvalues --    3.45724   3.48133   3.48639   3.49271   3.50613
 Alpha virt. eigenvalues --    3.56644   3.59104   3.59747   3.61057   3.63994
 Alpha virt. eigenvalues --    3.65947   3.69578   3.71791   3.72254   3.75478
 Alpha virt. eigenvalues --    3.75696   3.78012   3.79029   3.83672   3.86496
 Alpha virt. eigenvalues --    3.97563   4.00336   4.02880   4.03318   4.14695
 Alpha virt. eigenvalues --    4.43431   4.45092   4.45320   4.51052   4.56752
 Alpha virt. eigenvalues --    4.59144   4.60611   4.64889   4.66134   4.67884
 Alpha virt. eigenvalues --    4.86108   4.90700   4.93047   4.94591   4.95275
 Alpha virt. eigenvalues --    4.97369   4.99640   5.04190   5.05488   5.08598
 Alpha virt. eigenvalues --    5.10605   5.13760   5.17045   5.17565   5.29289
 Alpha virt. eigenvalues --    5.30198   5.36772   5.54757   5.60794   5.64226
 Alpha virt. eigenvalues --    9.72836   9.74242   9.75548   9.78373   9.79166
 Alpha virt. eigenvalues --    9.81287   9.82966   9.84773   9.85823   9.92200
 Alpha virt. eigenvalues --    9.92762   9.93016   9.94040   9.96173   9.97317
 Alpha virt. eigenvalues --    9.98577  10.03857  10.05883  10.06638  10.09986
 Alpha virt. eigenvalues --   10.12268  10.12911  10.16197  10.17172  10.21569
 Alpha virt. eigenvalues --   10.23369  10.26313  10.28013  10.30571  10.32118
 Alpha virt. eigenvalues --   10.32642  10.38930  10.44514  10.53574  10.57453
 Alpha virt. eigenvalues --   10.64699  10.67775  10.85687  12.68132  12.78398
 Alpha virt. eigenvalues --   12.82045  12.84907  13.08647  13.14133  13.17309
 Alpha virt. eigenvalues --   13.20747  13.24709  13.26010  13.27430  13.34885
 Alpha virt. eigenvalues --   13.44092  13.45458  13.47362  13.58979  13.62676
 Alpha virt. eigenvalues --   13.69331  13.79173  13.89914  13.91949  13.99879
 Alpha virt. eigenvalues --   17.51300  17.56366  17.63575  17.93815  18.07818
 Alpha virt. eigenvalues --   18.23438  18.53414  23.93088  24.10779  24.14698
 Alpha virt. eigenvalues --   35.67111  35.72204  51.79546  51.81424  51.95181
 Alpha virt. eigenvalues --   69.22471 129.81447 132.62739 134.75396 135.99359
 Alpha virt. eigenvalues --  137.04087 138.42699 139.72416 471.70267
          Condensed to atoms (all electrons):
               1          2          3          4          5          6
     1  C    5.432714   0.302938  -0.351590   0.462033  -0.050139   0.391635
     2  C    0.302938   5.225169  -0.031586  -0.201579   0.022577  -0.015241
     3  C   -0.351590  -0.031586   5.590479   0.182740  -0.021055   0.013211
     4  N    0.462033  -0.201579   0.182740   6.381055   0.370946  -0.036788
     5  H   -0.050139   0.022577  -0.021055   0.370946   0.400835  -0.002403
     6  H    0.391635  -0.015241   0.013211  -0.036788  -0.002403   0.507179
     7  H   -0.063628   0.439463   0.012042   0.008942  -0.000013  -0.000266
     8  H   -0.002006   0.014694   0.437363  -0.060546  -0.000011  -0.000021
     9  N    0.037418   0.258227   0.278592   0.048931   0.001945   0.007504
    10  P   -0.001949   0.004660  -0.009526   0.001312   0.000213   0.000053
    11  O    0.001437  -0.000124  -0.009218   0.001629  -0.000084  -0.000003
    12  O   -0.000199   0.000301   0.002260  -0.000566   0.000002  -0.000000
    13  H   -0.000370  -0.001281   0.000580   0.000438  -0.000000   0.000001
    14  O    0.004056  -0.004548  -0.006248   0.001815  -0.000064  -0.000009
    15  H   -0.006228   0.008215   0.014856  -0.003755   0.000105   0.000037
    16  O   -0.000016   0.000321  -0.001424   0.000089   0.000000   0.000000
    17  H   -0.000002   0.000008  -0.000035   0.000001  -0.000000  -0.000000
    18  O    0.002334   0.002750  -0.019563   0.007351   0.000352  -0.000028
    19  H    0.000319  -0.000068  -0.001806   0.000550   0.000018  -0.000001
    20  H    0.000085  -0.001488   0.007087   0.000806   0.000008   0.000002
    21  O    0.013588   0.015681  -0.021341  -0.004888   0.000074  -0.000041
    22  H    0.000683  -0.001093  -0.003029   0.003666  -0.000120   0.000006
    23  H   -0.013457  -0.016742   0.018266   0.004174   0.000067   0.000038
    24  O   -0.003586   0.003377  -0.003959   0.015850   0.002759  -0.000041
    25  H   -0.000069  -0.000293   0.002068  -0.000650  -0.000166   0.000017
    26  H   -0.000908  -0.001841   0.010795  -0.006679  -0.000497   0.000026
               7          8          9         10         11         12
     1  C   -0.063628  -0.002006   0.037418  -0.001949   0.001437  -0.000199
     2  C    0.439463   0.014694   0.258227   0.004660  -0.000124   0.000301
     3  C    0.012042   0.437363   0.278592  -0.009526  -0.009218   0.002260
     4  N    0.008942  -0.060546   0.048931   0.001312   0.001629  -0.000566
     5  H   -0.000013  -0.000011   0.001945   0.000213  -0.000084   0.000002
     6  H   -0.000266  -0.000021   0.007504   0.000053  -0.000003  -0.000000
     7  H    0.524914  -0.000013  -0.045504  -0.000012  -0.000002   0.000018
     8  H   -0.000013   0.495095  -0.046496   0.002734  -0.001787  -0.000045
     9  N   -0.045504  -0.046496   6.735386  -0.015016   0.011218  -0.003884
    10  P   -0.000012   0.002734  -0.015016   0.011808  -0.004381  -0.001856
    11  O   -0.000002  -0.001787   0.011218  -0.004381   0.005755  -0.000679
    12  O    0.000018  -0.000045  -0.003884  -0.001856  -0.000679   0.004295
    13  H    0.000011   0.000068   0.001912   0.001675  -0.000384  -0.003576
    14  O    0.000014  -0.000642   0.045858  -0.002829   0.002129  -0.001205
    15  H    0.000025   0.001008  -0.079594   0.002763  -0.002575   0.001082
    16  O   -0.000002   0.000101   0.000241  -0.001845  -0.000109  -0.000380
    17  H   -0.000000   0.000001   0.000025  -0.000087  -0.000005  -0.000002
    18  O    0.000015  -0.002522   0.001859  -0.000471   0.001005   0.000442
    19  H    0.000000   0.000006   0.000085   0.000730   0.000007  -0.000183
    20  H    0.000001   0.001177   0.001302   0.001112  -0.001080  -0.000474
    21  O    0.000372  -0.000356  -0.002839  -0.000775   0.000355   0.002400
    22  H   -0.000043   0.000370   0.003248   0.000898   0.000177  -0.000737
    23  H   -0.000447   0.000067   0.004658   0.000632  -0.000251  -0.001142
    24  O   -0.000011   0.001962  -0.000438   0.000377   0.000148  -0.000007
    25  H   -0.000000   0.000190   0.000054  -0.000027  -0.000012   0.000000
    26  H    0.000001   0.000634  -0.000178  -0.000245  -0.000188   0.000001
              13         14         15         16         17         18
     1  C   -0.000370   0.004056  -0.006228  -0.000016  -0.000002   0.002334
     2  C   -0.001281  -0.004548   0.008215   0.000321   0.000008   0.002750
     3  C    0.000580  -0.006248   0.014856  -0.001424  -0.000035  -0.019563
     4  N    0.000438   0.001815  -0.003755   0.000089   0.000001   0.007351
     5  H   -0.000000  -0.000064   0.000105   0.000000  -0.000000   0.000352
     6  H    0.000001  -0.000009   0.000037   0.000000  -0.000000  -0.000028
     7  H    0.000011   0.000014   0.000025  -0.000002  -0.000000   0.000015
     8  H    0.000068  -0.000642   0.001008   0.000101   0.000001  -0.002522
     9  N    0.001912   0.045858  -0.079594   0.000241   0.000025   0.001859
    10  P    0.001675  -0.002829   0.002763  -0.001845  -0.000087  -0.000471
    11  O   -0.000384   0.002129  -0.002575  -0.000109  -0.000005   0.001005
    12  O   -0.003576  -0.001205   0.001082  -0.000380  -0.000002   0.000442
    13  H    0.004471   0.000493  -0.000204   0.000168  -0.000004  -0.000542
    14  O    0.000493   0.008256  -0.009576   0.000253   0.000027  -0.000015
    15  H   -0.000204  -0.009576   0.013571  -0.000111  -0.000019  -0.000076
    16  O    0.000168   0.000253  -0.000111   0.002697   0.000067  -0.000030
    17  H   -0.000004   0.000027  -0.000019   0.000067   0.000026   0.000001
    18  O   -0.000542  -0.000015  -0.000076  -0.000030   0.000001   0.007385
    19  H    0.000144   0.000022  -0.000005   0.000026   0.000000  -0.002295
    20  H    0.000583   0.000088  -0.000012   0.000020  -0.000001  -0.002699
    21  O   -0.004244  -0.000545   0.000479  -0.000003   0.000000   0.001590
    22  H    0.000953   0.000194  -0.000196   0.000028   0.000000  -0.000453
    23  H    0.002272   0.000282  -0.000217   0.000007  -0.000000  -0.000624
    24  O   -0.000006  -0.000000  -0.000013   0.000001   0.000000   0.002856
    25  H   -0.000000  -0.000000   0.000001  -0.000000  -0.000000  -0.000422
    26  H    0.000020  -0.000006   0.000014  -0.000002  -0.000000  -0.002613
              19         20         21         22         23         24
     1  C    0.000319   0.000085   0.013588   0.000683  -0.013457  -0.003586
     2  C   -0.000068  -0.001488   0.015681  -0.001093  -0.016742   0.003377
     3  C   -0.001806   0.007087  -0.021341  -0.003029   0.018266  -0.003959
     4  N    0.000550   0.000806  -0.004888   0.003666   0.004174   0.015850
     5  H    0.000018   0.000008   0.000074  -0.000120   0.000067   0.002759
     6  H   -0.000001   0.000002  -0.000041   0.000006   0.000038  -0.000041
     7  H    0.000000   0.000001   0.000372  -0.000043  -0.000447  -0.000011
     8  H    0.000006   0.001177  -0.000356   0.000370   0.000067   0.001962
     9  N    0.000085   0.001302  -0.002839   0.003248   0.004658  -0.000438
    10  P    0.000730   0.001112  -0.000775   0.000898   0.000632   0.000377
    11  O    0.000007  -0.001080   0.000355   0.000177  -0.000251   0.000148
    12  O   -0.000183  -0.000474   0.002400  -0.000737  -0.001142  -0.000007
    13  H    0.000144   0.000583  -0.004244   0.000953   0.002272  -0.000006
    14  O    0.000022   0.000088  -0.000545   0.000194   0.000282  -0.000000
    15  H   -0.000005  -0.000012   0.000479  -0.000196  -0.000217  -0.000013
    16  O    0.000026   0.000020  -0.000003   0.000028   0.000007   0.000001
    17  H    0.000000  -0.000001   0.000000   0.000000  -0.000000   0.000000
    18  O   -0.002295  -0.002699   0.001590  -0.000453  -0.000624   0.002856
    19  H    0.002816   0.000494  -0.000278   0.000562   0.000102   0.000624
    20  H    0.000494   0.002734  -0.001167   0.000565   0.000515  -0.000235
    21  O   -0.000278  -0.001167   0.016519  -0.003110  -0.011854  -0.000179
    22  H    0.000562   0.000565  -0.003110   0.002260   0.001706   0.000362
[...]
    10  P    0.000000
    11  O    0.000000
    12  O    0.000000
    13  H    0.000000
    14  O    0.000000
    15  H    0.000000
    16  O    0.000000
    17  H    0.000000
    18  O    0.000000
    19  H    0.000000
    20  H    0.000000
    21  O   -0.557749
    22  H    0.279152
    23  H    0.278596
    24  O    0.000000
    25  H    0.000000
    26  H    0.000000
 Sum of Mulliken charges =   0.00000
 Mulliken charges with hydrogens summed into heavy atoms:
               1
     1  C    0.000000
     2  C    0.000000
     3  C    0.000000
     4  N    0.000000
     9  N    0.000000
    10  P    0.000000
    11  O    0.000000
    12  O    0.000000
    14  O    0.000000
    16  O    0.000000
    18  O    0.000000
    21  O    0.000000
    24  O    0.000000
         Mulliken charges condensed to fragments:
      1      0.000000
      2      0.000000
      3      0.000000
      4      0.000000
      5      0.000000
 Electronic spatial extent (au):  <R**2>=          14581.7530
 Charge=              0.0000 electrons
 Dipole moment (field-independent basis, Debye):
    X=              1.0168    Y=             -0.8622    Z=              1.6319  Tot=              2.1072
 Quadrupole moment (field-independent basis, Debye-Ang):
   XX=             13.8112   YY=            -30.4923   ZZ=             22.1438
   XY=              6.7154   XZ=             26.6004   YZ=             17.4471
 Traceless Quadrupole moment (field-independent basis, Debye-Ang):
   XX=             11.9903   YY=            -32.3132   ZZ=             20.3229
   XY=              6.7154   XZ=             26.6004   YZ=             17.4471
 Octapole moment (field-independent basis, Debye-Ang**2):
  XXX=            102.6157  YYY=           -791.1462  ZZZ=            207.0056  XYY=            -74.8193
  XXY=            123.1078  XXZ=            312.6878  XZZ=            321.7383  YZZ=            275.6490
  YYZ=            116.2737  XYZ=            329.8482
 Hexadecapole moment (field-independent basis, Debye-Ang**3):
 XXXX=           -126.4881 YYYY=         -17949.9244 ZZZZ=           1438.5906 XXXY=            716.8336
 XXXZ=           2974.5557 YYYX=          -4478.0882 YYYZ=          -1045.5688 ZZZX=           3022.9174
 ZZZY=           2659.3954 XXYY=             95.7137 XXZZ=           3734.8762 YYZZ=           2939.5694
 XXYZ=           4014.6558 YYXZ=           3500.2410 ZZXY=           4275.0518
 N-N= 9.116682688083D+00 E-N=-1.990875246458D+02  KE= 7.620003883514D+01
 No NMR shielding tensors so no spin-rotation constants.
 Leave Link  601 at Thu Dec 15 14:50:51 2022, MaxMem=  1342177280 cpu:               1.0 elap:               0.1
 (Enter /data0/home/software/g16/l122.exe)
 CPIOFr:  IOpCl= 0 IRwI=-1 IRwCP=  731 ICalc=  9 LCPTot=      294485 Len1MO=      773009 IndFrg=     8024575
 Counterpoise: doing calculation for fragment   5 using the basis set of the fragment.
 Leave Link  122 at Thu Dec 15 14:50:51 2022, MaxMem=  1342177280 cpu:               0.1 elap:               0.0
 (Enter /data0/home/software/g16/l301.exe)
 Basis read from rwf:  (5D, 7F)
 No pseudopotential information found on rwf file.
    39 basis functions,    58 primitive gaussians,    41 cartesian basis functions
     5 alpha electrons        5 beta electrons
       nuclear repulsion energy         9.1497405786 Hartrees.
 IExCor= 4336 DFT=T Ex+Corr=M062X ExCW=0 ScaHFX=  0.540000
 ScaDFX=  1.000000  1.000000  1.000000  1.000000 ScalE2=  1.000000  1.000000
 IRadAn=      5 IRanWt=     -1 IRanGd=            0 ICorTp=0 IEmpDi=131
 NAtoms=   26 NActive=    3 NUniq=    3 SFac= 1.00D+00 NAtFMM=   60 NAOKFM=F Big=F
 Integral buffers will be    131072 words long.
 Raffenetti 2 integral format.
 Two-electron integral symmetry is turned off.
 R6Disp:  Grimme-D3 Dispersion energy=       -0.0000000082 Hartrees.
 Nuclear repulsion after empirical dispersion term =        9.1497405704 Hartrees.
 No density basis found on file   718.
 Leave Link  301 at Thu Dec 15 14:50:51 2022, MaxMem=  1342177280 cpu:               0.8 elap:               0.1
 (Enter /data0/home/software/g16/l302.exe)
 NPDir=0 NMtPBC=     1 NCelOv=     1 NCel=       1 NClECP=     1 NCelD=      1
         NCelK=      1 NCelE2=     1 NClLst=     1 CellRange=     0.0.
 One-electron integrals computed using PRISM.
 NBasis=    39 RedAO= T EigKep=  3.08D-03  NBF=    39
 NBsUse=    39 1.00D-06 EigRej= -1.00D+00 NBFU=    39
 Precomputing XC quadrature grid using
 IXCGrd= 4 IRadAn=           5 IRanWt=          -1 IRanGd=           0 AccXCQ= 0.00D+00.
 Generated NRdTot=       0 NPtTot=           0 NUsed=           0 NTot=          32
 NSgBfM=    41    41    41    41    41 MxSgAt=     3 MxSgA2=     3.
 Leave Link  302 at Thu Dec 15 14:50:51 2022, MaxMem=  1342177280 cpu:               1.3 elap:               0.1
 (Enter /data0/home/software/g16/l303.exe)
 DipDrv:  MaxL=1.
 Leave Link  303 at Thu Dec 15 14:50:51 2022, MaxMem=  1342177280 cpu:               0.3 elap:               0.0
 (Enter /data0/home/software/g16/l401.exe)
 ExpMin= 8.45D-02 ExpMax= 8.59D+03 ExpMxC= 1.30D+03 IAcc=3 IRadAn=         5 AccDes= 0.00D+00
 Harris functional with IExCor= 1009 and IRadAn=       5 diagonalized for initial guess.
 HarFok:  IExCor= 1009 AccDes= 0.00D+00 IRadAn=         5 IDoV= 1 UseB2=F ITyADJ=14
 ICtDFT=  3500011 ScaDFX=  1.000000  1.000000  1.000000  1.000000
 FoFCou: FMM=F IPFlag=           0 FMFlag=      100000 FMFlg1=           0
         NFxFlg=           0 DoJE=T BraDBF=F KetDBF=T FulRan=T
         wScrn=  0.000000 ICntrl=       500 IOpCl=  0 I1Cent=   200000004 NGrid=           0
         NMat0=    1 NMatS0=      1 NMatT0=    0 NMatD0=    1 NMtDS0=    0 NMtDT0=    0
 Symmetry not used in FoFCou.
 Harris En= -76.4171463897712    
 JPrj=0 DoOrth=F DoCkMO=F.
 Leave Link  401 at Thu Dec 15 14:50:51 2022, MaxMem=  1342177280 cpu:               1.8 elap:               0.1
 (Enter /data0/home/software/g16/l502.exe)
 Keep R1 ints in memory in canonical form, NReq=14129527.
 FoFCou: FMM=F IPFlag=           0 FMFlag=           0 FMFlg1=           0
         NFxFlg=           0 DoJE=F BraDBF=F KetDBF=F FulRan=T
         wScrn=  0.000000 ICntrl=       600 IOpCl=  0 I1Cent=           0 NGrid=           0
         NMat0=    1 NMatS0=    780 NMatT0=    0 NMatD0=    1 NMtDS0=    0 NMtDT0=    0
 Symmetry not used in FoFCou.
 Two-electron integral symmetry not used.
 Closed shell SCF:
 Using DIIS extrapolation, IDIIS=  1040.
 NGot=  1342177280 LenX=  1341867489 LenY=  1341865367
 Requested convergence on RMS density matrix=1.00D-08 within 128 cycles.
 Requested convergence on MAX density matrix=1.00D-06.
 Requested convergence on             energy=1.00D-06.
 No special actions if energy rises.
 Integral accuracy reduced to 1.0D-05 until final iterations.

 Cycle   1  Pass 0  IDiag  1:
 E= -76.3454960431736    
 DIIS: error= 7.11D-02 at cycle   1 NSaved=   1.
 NSaved= 1 IEnMin= 1 EnMin= -76.3454960431736     IErMin= 1 ErrMin= 7.11D-02
 ErrMax= 7.11D-02  0.00D+00 EMaxC= 1.00D-01 BMatC= 1.22D-01 BMatP= 1.22D-01
 IDIUse=3 WtCom= 2.89D-01 WtEn= 7.11D-01
 Coeff-Com:  0.100D+01
 Coeff-En:   0.100D+01
 Coeff:      0.100D+01
 Gap=     0.326 Goal=   None    Shift=    0.000
 GapD=    0.326 DampG=1.000 DampE=0.500 DampFc=0.5000 IDamp=-1.
 Damping current iteration by 5.00D-01
 RMSDP=7.83D-03 MaxDP=1.02D-01              OVMax= 1.69D-01

 Cycle   2  Pass 0  IDiag  1:
 E= -76.3774731179825     Delta-E=       -0.031977074809 Rises=F Damp=T
 DIIS: error= 1.17D-02 at cycle   2 NSaved=   2.
 NSaved= 2 IEnMin= 2 EnMin= -76.3774731179825     IErMin= 2 ErrMin= 1.17D-02
 ErrMax= 1.17D-02  0.00D+00 EMaxC= 1.00D-01 BMatC= 4.77D-03 BMatP= 1.22D-01
 IDIUse=3 WtCom= 8.83D-01 WtEn= 1.17D-01
 Coeff-Com:  0.793D-01 0.921D+00
 Coeff-En:   0.183D+00 0.817D+00
 Coeff:      0.914D-01 0.909D+00
 Gap=     0.459 Goal=   None    Shift=    0.000
 RMSDP=9.24D-04 MaxDP=1.37D-02 DE=-3.20D-02 OVMax= 1.01D-01

 Cycle   3  Pass 0  IDiag  1:
 E= -76.4217252120167     Delta-E=       -0.044252094034 Rises=F Damp=F
 DIIS: error= 2.19D-03 at cycle   3 NSaved=   3.
 NSaved= 3 IEnMin= 3 EnMin= -76.4217252120167     IErMin= 3 ErrMin= 2.19D-03
 ErrMax= 2.19D-03  0.00D+00 EMaxC= 1.00D-01 BMatC= 9.16D-05 BMatP= 4.77D-03
 IDIUse=3 WtCom= 9.78D-01 WtEn= 2.19D-02
 Coeff-Com: -0.200D-01 0.399D-01 0.980D+00
 Coeff-En:   0.000D+00 0.000D+00 0.100D+01
 Coeff:     -0.195D-01 0.390D-01 0.980D+00
 Gap=     0.463 Goal=   None    Shift=    0.000
 RMSDP=1.15D-04 MaxDP=1.03D-03 DE=-4.43D-02 OVMax= 3.28D-03

 Cycle   4  Pass 0  IDiag  1:
 E= -76.4218028486645     Delta-E=       -0.000077636648 Rises=F Damp=F
 DIIS: error= 4.07D-04 at cycle   4 NSaved=   4.
 NSaved= 4 IEnMin= 4 EnMin= -76.4218028486645     IErMin= 4 ErrMin= 4.07D-04
 ErrMax= 4.07D-04  0.00D+00 EMaxC= 1.00D-01 BMatC= 3.28D-06 BMatP= 9.16D-05
 IDIUse=3 WtCom= 9.96D-01 WtEn= 4.07D-03
 Coeff-Com: -0.191D-02-0.206D-02 0.164D+00 0.840D+00
 Coeff-En:   0.000D+00 0.000D+00 0.000D+00 0.100D+01
 Coeff:     -0.190D-02-0.205D-02 0.163D+00 0.841D+00
 Gap=     0.464 Goal=   None    Shift=    0.000
 RMSDP=2.19D-05 MaxDP=3.49D-04 DE=-7.76D-05 OVMax= 5.22D-04

 Cycle   5  Pass 0  IDiag  1:
 E= -76.4218048532224     Delta-E=       -0.000002004558 Rises=F Damp=F
 DIIS: error= 8.79D-05 at cycle   5 NSaved=   5.
 NSaved= 5 IEnMin= 5 EnMin= -76.4218048532224     IErMin= 5 ErrMin= 8.79D-05
 ErrMax= 8.79D-05  0.00D+00 EMaxC= 1.00D-01 BMatC= 8.17D-08 BMatP= 3.28D-06
 IDIUse=1 WtCom= 1.00D+00 WtEn= 0.00D+00
 Coeff-Com:  0.115D-02-0.176D-02-0.357D-01-0.682D-01 0.110D+01
 Coeff:      0.115D-02-0.176D-02-0.357D-01-0.682D-01 0.110D+01
 Gap=     0.464 Goal=   None    Shift=    0.000
 RMSDP=8.90D-06 MaxDP=1.03D-04 DE=-2.00D-06 OVMax= 1.96D-04

 Initial convergence to 1.0D-05 achieved.  Increase integral accuracy.
 Cycle   6  Pass 1  IDiag  1:
 E= -76.4218094724613     Delta-E=       -0.000004619239 Rises=F Damp=F
 DIIS: error= 3.55D-05 at cycle   1 NSaved=   1.
 NSaved= 1 IEnMin= 1 EnMin= -76.4218094724613     IErMin= 1 ErrMin= 3.55D-05
 ErrMax= 3.55D-05  0.00D+00 EMaxC= 1.00D-01 BMatC= 2.14D-08 BMatP= 2.14D-08
 IDIUse=1 WtCom= 1.00D+00 WtEn= 0.00D+00
 Coeff-Com:  0.100D+01
 Coeff:      0.100D+01
 Gap=     0.464 Goal=   None    Shift=    0.000
 RMSDP=8.90D-06 MaxDP=1.03D-04 DE=-4.62D-06 OVMax= 3.91D-05

 Cycle   7  Pass 1  IDiag  1:
 E= -76.4218094885952     Delta-E=       -0.000000016134 Rises=F Damp=F
 DIIS: error= 6.80D-06 at cycle   2 NSaved=   2.
 NSaved= 2 IEnMin= 2 EnMin= -76.4218094885952     IErMin= 2 ErrMin= 6.80D-06
 ErrMax= 6.80D-06  0.00D+00 EMaxC= 1.00D-01 BMatC= 6.82D-10 BMatP= 2.14D-08
 IDIUse=1 WtCom= 1.00D+00 WtEn= 0.00D+00
 Coeff-Com: -0.257D-01 0.103D+01
 Coeff:     -0.257D-01 0.103D+01
 Gap=     0.464 Goal=   None    Shift=    0.000
 RMSDP=6.03D-07 MaxDP=8.49D-06 DE=-1.61D-08 OVMax= 1.69D-05

 Cycle   8  Pass 1  IDiag  1:
 E= -76.4218094887666     Delta-E=       -0.000000000171 Rises=F Damp=F
 DIIS: error= 5.43D-06 at cycle   3 NSaved=   3.
 NSaved= 3 IEnMin= 3 EnMin= -76.4218094887666     IErMin= 3 ErrMin= 5.43D-06
 ErrMax= 5.43D-06  0.00D+00 EMaxC= 1.00D-01 BMatC= 7.16D-10 BMatP= 6.82D-10
 IDIUse=1 WtCom= 1.00D+00 WtEn= 0.00D+00
 Coeff-Com: -0.456D-01 0.538D+00 0.507D+00
 Coeff:     -0.456D-01 0.538D+00 0.507D+00
 Gap=     0.464 Goal=   None    Shift=    0.000
 RMSDP=2.99D-07 MaxDP=4.35D-06 DE=-1.71D-10 OVMax= 6.79D-06

 Cycle   9  Pass 1  IDiag  1:
 E= -76.4218094892320     Delta-E=       -0.000000000465 Rises=F Damp=F
 DIIS: error= 5.73D-07 at cycle   4 NSaved=   4.
 NSaved= 4 IEnMin= 4 EnMin= -76.4218094892320     IErMin= 4 ErrMin= 5.73D-07
 ErrMax= 5.73D-07  0.00D+00 EMaxC= 1.00D-01 BMatC= 4.30D-12 BMatP= 6.82D-10
 IDIUse=1 WtCom= 1.00D+00 WtEn= 0.00D+00
 Coeff-Com:  0.355D-02-0.738D-01-0.110D-01 0.108D+01
 Coeff:      0.355D-02-0.738D-01-0.110D-01 0.108D+01
 Gap=     0.464 Goal=   None    Shift=    0.000
 RMSDP=7.60D-08 MaxDP=5.44D-07 DE=-4.65D-10 OVMax= 1.88D-06

 Cycle  10  Pass 1  IDiag  1:
 E= -76.4218094892403     Delta-E=       -0.000000000008 Rises=F Damp=F
 DIIS: error= 8.50D-08 at cycle   5 NSaved=   5.
 NSaved= 5 IEnMin= 5 EnMin= -76.4218094892403     IErMin= 5 ErrMin= 8.50D-08
 ErrMax= 8.50D-08  0.00D+00 EMaxC= 1.00D-01 BMatC= 2.46D-13 BMatP= 4.30D-12
 IDIUse=1 WtCom= 1.00D+00 WtEn= 0.00D+00
 Coeff-Com:  0.335D-02-0.457D-01-0.370D-01 0.142D+00 0.938D+00
 Coeff:      0.335D-02-0.457D-01-0.370D-01 0.142D+00 0.938D+00
 Gap=     0.464 Goal=   None    Shift=    0.000
 RMSDP=2.17D-08 MaxDP=1.82D-07 DE=-8.26D-12 OVMax= 4.62D-07

 Cycle  11  Pass 1  IDiag  1:
 E= -76.4218094892408     Delta-E=       -0.000000000001 Rises=F Damp=F
 DIIS: error= 1.32D-08 at cycle   6 NSaved=   6.
 NSaved= 6 IEnMin= 6 EnMin= -76.4218094892408     IErMin= 6 ErrMin= 1.32D-08
 ErrMax= 1.32D-08  0.00D+00 EMaxC= 1.00D-01 BMatC= 4.04D-15 BMatP= 2.46D-13
 IDIUse=1 WtCom= 1.00D+00 WtEn= 0.00D+00
 Coeff-Com: -0.107D-03 0.260D-02-0.147D-03-0.357D-01-0.155D-01 0.105D+01
 Coeff:     -0.107D-03 0.260D-02-0.147D-03-0.357D-01-0.155D-01 0.105D+01
 Gap=     0.464 Goal=   None    Shift=    0.000
 RMSDP=4.22D-09 MaxDP=4.23D-08 DE=-5.54D-13 OVMax= 8.70D-08

 SCF Done:  E(RM062X) =  -76.4218094892     A.U. after   11 cycles
            NFock= 11  Conv=0.42D-08     -V/T= 2.0028
 KE= 7.621146441777D+01 PE=-1.991608088645D+02 EE= 3.737779438710D+01
 Leave Link  502 at Thu Dec 15 14:50:51 2022, MaxMem=  1342177280 cpu:               5.8 elap:               0.4
 (Enter /data0/home/software/g16/l601.exe)
 Copying SCF densities to generalized density rwf, IOpCl= 0 IROHF=0.

 **********************************************************************

            Population analysis using the SCF density.

 **********************************************************************

 Alpha  occ. eigenvalues --  -19.62429  -1.13442  -0.61373  -0.47174  -0.39978
 Alpha virt. eigenvalues --    0.06412   0.13391   0.17349   0.17952   0.18996
 Alpha virt. eigenvalues --    0.23067   0.51672   0.53678   0.97559   1.00138
 Alpha virt. eigenvalues --    1.06081   1.19625   1.20031   1.33192   1.33582
 Alpha virt. eigenvalues --    1.68655   1.73976   1.76561   2.07572   2.09979
 Alpha virt. eigenvalues --    2.33709   2.45906   2.53950   2.89724   3.01419
 Alpha virt. eigenvalues --    5.05780   5.46943   5.96193   6.77967   6.80557
 Alpha virt. eigenvalues --    6.86325   6.91803   7.09374  49.96590
          Condensed to atoms (all electrons):
              24         25         26
    24  O    7.910298   0.327437   0.323919
    25  H    0.327437   0.418664  -0.025314
    26  H    0.323919  -0.025314   0.418954
 Mulliken charges:
               1
     1  C    0.000000
     2  C    0.000000
     3  C    0.000000
     4  N    0.000000
     5  H    0.000000
     6  H    0.000000
     7  H    0.000000
     8  H    0.000000
     9  N    0.000000
    10  P    0.000000
    11  O    0.000000
    12  O    0.000000
    13  H    0.000000
    14  O    0.000000
    15  H    0.000000
    16  O    0.000000
    17  H    0.000000
    18  O    0.000000
    19  H    0.000000
    20  H    0.000000
    21  O    0.000000
    22  H    0.000000
    23  H    0.000000
    24  O   -0.561654
    25  H    0.279213
    26  H    0.282441
 Sum of Mulliken charges =  -0.00000
 Mulliken charges with hydrogens summed into heavy atoms:
               1
     1  C    0.000000
     2  C    0.000000
     3  C    0.000000
     4  N    0.000000
     9  N    0.000000
    10  P    0.000000
    11  O    0.000000
    12  O    0.000000
    14  O    0.000000
    16  O    0.000000
    18  O    0.000000
    21  O    0.000000
    24  O   -0.000000
         Mulliken charges condensed to fragments:
      1      0.000000
      2      0.000000
      3      0.000000
      4      0.000000
      5     -0.000000
 Electronic spatial extent (au):  <R**2>=          13826.7078
 Charge=              0.0000 electrons
 Dipole moment (field-independent basis, Debye):
    X=             -1.1682    Y=             -0.9238    Z=             -1.4497  Tot=              2.0784
 Quadrupole moment (field-independent basis, Debye-Ang):
   XX=            -32.5967   YY=            -27.2006   ZZ=            -39.0182
   XY=            -22.3685   XZ=            -29.8770   YZ=            -28.2666
 Traceless Quadrupole moment (field-independent basis, Debye-Ang):
   XX=              0.3418   YY=              5.7379   ZZ=             -6.0797
   XY=            -22.3685   XZ=            -29.8770   YZ=            -28.2666
 Octapole moment (field-independent basis, Debye-Ang**2):
  XXX=           -652.8299  YYY=           -570.6322  ZZZ=           -774.4565  XYY=           -426.5062
  XXY=           -459.2450  XXZ=           -561.9558  XZZ=           -595.4599  YZZ=           -592.5421
  YYZ=           -527.3570  XYZ=           -456.7046
 Hexadecapole moment (field-independent basis, Debye-Ang**3):
 XXXX=         -11286.2057 YYYY=         -10292.3326 ZZZZ=         -13490.8483 XXXY=          -8278.3938
 XXXZ=          -9642.7643 YYYX=          -7601.7661 YYYZ=          -9169.1218 ZZZX=         -10505.0243
 ZZZY=         -10673.0186 XXYY=          -6997.0674 XXZZ=          -9311.3060 YYZZ=          -9269.3246
 XXYZ=          -7543.6519 YYXZ=          -7323.6025 ZZXY=          -8260.3904
 N-N= 9.149740570429D+00 E-N=-1.991608087364D+02  KE= 7.621146441777D+01
 No NMR shielding tensors so no spin-rotation constants.
 Leave Link  601 at Thu Dec 15 14:50:51 2022, MaxMem=  1342177280 cpu:               1.0 elap:               0.1
 (Enter /data0/home/software/g16/l122.exe)
 CPIOFr:  IOpCl= 0 IRwI=-1 IRwCP=  731 ICalc= 10 LCPTot=      294485 Len1MO=      773009 IndFrg=     8797584
 Restoring MOs from calculation   1 to rwf.
 CPIOFr:  IOpCl= 0 IRwI=-2 IRwCP=  731 ICalc=  0 LCPTot=      294485 Len1MO=      773009 IndFrg=     1067494
 Counterpoise corrected energy =   -1099.697275649262
                   BSSE energy =       0.006498142246
              sum of fragments =   -1099.600243715724
           complexation energy =     -64.97 kcal/mole (raw)
           complexation energy =     -60.89 kcal/mole (corrected)
 Leave Link  122 at Thu Dec 15 14:50:51 2022, MaxMem=  1342177280 cpu:               0.2 elap:               0.0
 (Enter /data0/home/software/g16/l9999.exe)
 1\1\GINC-LOCALHOST\SP\RM062X\6-311+G(2d,p)\C3H13N2O7P1\WUHANYU\15-Dec-
 2022\0\\#p M062X/6-311+G(2d,p) nosymm em=GD3 counterpoise=5\\Title Car
 d Required\\0,1\C,0,11.376828,15.133632,12.410501\C,0,12.007084,15.980
 477,11.495308\C,0,12.639553,13.929368,11.003689\N,0,11.786988,13.84184
 2,12.095201\H,0,11.457265,12.978891,12.522268\H,0,10.709418,15.350211,
 13.217207\H,0,11.967356,17.048487,11.409313\H,0,13.119357,13.076171,10
 .541762\N,0,12.777943,15.218503,10.630494\P,0,13.595033,14.485382,7.25
 3403\O,0,13.469032,13.16635,7.889227\O,0,12.2716,15.056797,6.576981\H,
 0,11.518019,15.110099,7.289528\O,0,14.146044,15.667329,8.149646\H,0,13
 .769752,15.566849,9.136675\O,0,14.605633,14.443881,6.028753\H,0,14.671
 492,15.410873,5.659704\O,0,11.015679,12.231005,8.978544\H,0,10.618605,
 11.760113,8.245603\H,0,11.896434,12.507888,8.637446\O,0,10.299073,15.0
 07382,8.698143\H,0,10.410017,14.067264,8.896445\H,0,10.756852,15.46393
 1,9.412599\O,0,11.076842,11.421891,11.673408\H,0,10.475078,10.698013,1
 1.811341\H,0,11.033036,11.637388,10.72682\\Version=ES64L-G16RevA.03\HF
 =-76.4218095\RMSD=4.219e-09\Dipole=-1.2771673,-0.4774084,1.3691954\Qua
 drupole=-53.2886863,-8.7608671,62.0495534,-36.6367817,4.4278246,26.683
 2079\PG=C01 [X(C3H13N2O7P1)]\\@


 THE UNDERLYING PHYSICAL LAWS NECESSARY FOR THE 
 MATHEMATICAL THEORY OF A LARGE PART OF PHYSICS AND THE
 WHOLE OF CHEMISTRY ARE THUS COMPLETELY KNOWN, AND THE
 DIFFICULTY IS ONLY THAT THE EXACT APPLICATION OF THESE
 LAWS LEADS TO EQUATIONS MUCH TOO COMPLICATED 
 TO BE SOLUBLE.

                                        -- P. A. M. DIRAC, 1929
 Job cpu time:       0 days  1 hours 33 minutes 34.5 seconds.
 Elapsed time:       0 days  0 hours  5 minutes 55.8 seconds.
 File lengths (MBytes):  RWF=    191 Int=      0 D2E=      0 Chk=     79 Scr=      1
 Normal termination of Gaussian 16 at Thu Dec 15 14:50:52 2022.
