          43
 G =       -0.719139 Gcorr = 0.235163 a.u. Nimag =   0 Frame:     1 Step:     1 Geom:     1
C           6.87289800     11.36104900      8.84823300
H           6.56434900     11.44300300      7.79585000
H           6.47147200     12.22808200      9.39510100
H           6.37850700     10.44908400      9.27415400
C           8.82427500      9.96879200      8.28489800
H           8.49292800     10.00692500      7.22653000
H           8.25186100      9.11336000      8.75648500
C           8.72184600     11.20903800     10.46128000
H           9.83431900     11.13622200     10.60782100
H           8.37348500     12.09811800     11.00019600
H           8.31993800     10.29944700     10.95201000
C           9.03581000     12.45901700      8.36439400
H           8.60207100     13.40161600      8.73244400
H          10.12330700     12.49478000      8.63572800
H           8.96982800     12.44226200      7.26729600
C          10.33558300      9.72300600      8.35932900
H          10.81113800     10.36574200      9.15241200
H          10.82957000     10.06314200      7.42168300
C          10.68432200      8.26559500      8.61757000
H          11.79470400      8.13908800      8.48305700
H          10.26777500      7.60438200      7.83431800
N           8.37685300     11.25297500      8.99263700
S          10.18914800      7.75956600     10.23269300
O          11.16871800      6.76946800     10.70728000
O          10.27062500      9.02531800     11.11713500
O           8.76992500      7.36745500     10.14711200
P          13.68171000      9.00331800     10.87087000
O          13.64855800      8.95733500      9.37904400
O          13.53713000      7.58772400     11.64966600
H          12.73080900      6.96657000     11.39251600
O          15.09742200      9.56150000     11.47280300
H          15.25027700      9.40196500     12.44511200
O          12.56328500      9.97263600     11.48292900
H          11.47349800      9.54236400     11.54902000
O           6.68336300      8.55690600     10.01149600
H           6.75063500      7.71686500      9.53037300
H           7.28670900      8.40289000     10.77427400
O          12.97801900     11.09009700      7.89841100
H          13.19096300     10.18900500      8.29490400
H          13.82470500     11.44158400      7.63688500
O          11.62870100     12.10601600      9.98545500
H          11.99638800     11.68385200     10.78708300
H          12.30259100     11.94285000      9.28153300
          43
 G =       -0.726383 Gcorr = 0.254490 a.u. Nimag =   0 Frame:     2 Step:     2 Geom:     2
C           7.72997200     11.38182900     10.73879900
H           6.77182800     11.02300900     10.32650000
H           7.57962300     12.37068900     11.19301100
H           8.00297200     10.65966100     11.54422300
C           9.03905800      9.97518900      9.24648700
H           8.05552400      9.50244500      9.02736200
H           9.46519100      9.43541500     10.14487900
C          10.04798900     12.00021000     10.28127100
H          10.93018600     11.83947000      9.62341000
H           9.95104200     13.07939600     10.45486200
H          10.29186800     11.51152800     11.24944900
C           8.35096400     12.26319100      8.53670900
H           8.01766800     13.25589300      8.87686200
H           9.18677300     12.42531800      7.81875200
H           7.52461900     11.78582600      7.98646000
C           9.98873400      9.80767000      8.06006600
H          11.00920600     10.15605000      8.33860100
H           9.69320200     10.44300200      7.20215600
C          10.03934500      8.34800600      7.62110500
H          10.54752600      8.26567400      6.64204600
H           9.03057500      7.93376700      7.46326500
N           8.80406900     11.41176900      9.68304600
S          10.93000600      7.29413500      8.80222800
O          12.28541700      7.92309300      8.89795700
O          10.17465300      7.50963200     10.08979700
O          10.87420300      5.94793200      8.26794700
P          12.59203100      9.46990800     11.93922900
O          12.64324000     10.73928700     11.20474900
O          13.41280300      8.25816700     11.34835800
H          13.08681400      8.09486100     10.33875500
O          13.18391800      9.65737100     13.40486000
H          13.11299900      8.74565400     13.88371600
O          11.10862900      8.97001300     12.21691200
H          10.79569900      8.30805600     11.45631900
O           7.63636800      8.16531100     11.04940300
H           8.51905000      7.84710200     10.73891400
H           7.32728900      7.46945000     11.61877500
O          13.38270500     10.49246500      8.24487000
H          13.46647000     10.73260500      9.17758700
H          13.11344100      9.54725500      8.30065900
O          11.54034100     12.28680400      7.28137900
H          12.03265600     12.85349300      6.69754100
H          12.20335400     11.62241500      7.59074100
          43
 G =       -0.731549 Gcorr = 0.250087 a.u. Nimag =   0 Frame:     3 Step:     3 Geom:     3
C           7.41087400     11.34742400     10.32702700
H           6.49917100     11.44978000      9.72177900
H           7.48372700     12.21067300     11.00559000
H           7.28790200     10.43562600     10.96421100
C           8.44662500     10.03581200      8.53207000
H           7.56639700     10.23438400      7.88744700
H           8.17815400      9.14791100      9.16545900
C           9.82720900     11.01494000     10.36120600
H          10.77379700     11.00269400      9.78187700
H           9.91688400     11.79648700     11.12777200
H           9.75490900     10.02816700     10.88039200
C           8.80821200     12.48486300      8.68037000
H           8.96476200     13.35267600      9.33999500
H           9.70187600     12.42291400      8.01325500
H           7.93989800     12.68285100      8.03583900
C           9.67800700      9.72128600      7.67058700
H          10.60634900     10.16079000      8.10485600
H           9.59169900     10.22349600      6.68354400
C           9.86294700      8.22083100      7.48280400
H          10.43113500      8.02330900      6.55303300
H           8.90128600      7.70092600      7.34457900
N           8.63855700     11.22225400      9.46760200
S          10.77144100      7.43923600      8.84824200
O          12.14501700      8.01956100      8.77287100
O          10.08741100      7.95183000     10.09282400
O          10.65056600      6.01017300      8.63411300
P          12.82976800      9.27158800     11.97822900
O          12.64582000     10.59453000     11.37229400
O          13.65811900      8.21965100     11.12966300
H          13.19626000      8.11604900     10.18364600
O          13.64458000      9.37123600     13.34064100
H          13.72907900      8.41057000     13.71456900
O          11.49144400      8.54145400     12.42611300
H          10.94357000      8.27042200     11.56925000
O           7.70617100      8.43069700     11.22585400
H           8.58824100      8.17942200     10.84248100
H           7.54819600      7.77984400     11.89891500
O          13.02336900     10.60999600      8.32974200
H          13.13382100     10.81443200      9.26553400
H          12.82299300      9.64468900      8.33877700
O          11.34949300     12.17140100      6.89987800
H          11.89290500     12.65993300      6.29269200
H          11.98138200     11.60320900      7.40239200
          43
 G =       -0.729016 Gcorr = 0.254263 a.u. Nimag =   0 Frame:     4 Step:     4 Geom:     4
C           8.47468500     11.62101900     10.80371600
H           7.45717000     11.19447700     10.84891100
H           8.44082700     12.68610000     11.06460800
H           9.05619000     11.08259600     11.59245600
C           9.07133900      9.89952800      9.19870300
H           8.02725100      9.53684300      9.33630900
H           9.67680700      9.42521200     10.02542600
C          10.51216700     11.93028900      9.46624000
H          10.68350400     12.67806300      8.67334100
H          10.77325300     12.39191400     10.43476300
H          11.25368500     11.11552400      9.30681800
C           8.30534200     12.12199500      8.41174100
H           8.20628300     13.19195000      8.65491400
H           8.80819700     12.05404900      7.42264900
H           7.29635600     11.69162900      8.31254400
C           9.60659500      9.46088500      7.83508500
H          10.64457300      9.82951100      7.67799700
H           9.01985500      9.90945200      7.01033500
C           9.57249700      7.93994500      7.72025100
H           9.85000900      7.63197300      6.69507400
H           8.55306100      7.54874600      7.87872900
N           9.10471000     11.39708900      9.45366800
S          10.69363800      7.10575000      8.88120200
O          11.94848900      7.93001500      8.84312400
O          10.02228600      7.29760100     10.21247500
O          10.81600800      5.73846000      8.41857600
P          12.21419600      9.28598100     12.08246400
O          11.41324700     10.45168200     11.69942400
O          13.31773300      8.84254600     11.03462600
H          12.83515700      8.43837300     10.17863400
O          13.06598000      9.59895900     13.39100600
H          13.61736100      8.75140100     13.60539900
O          11.39902600      7.98797600     12.48250700
H          10.84581800      7.65821000     11.63517700
O           8.01289500      8.70264800     11.64800000
H           8.62146300      8.10944000     11.15486000
H           8.29258200      8.59817200     12.55550900
O          13.04632200     10.21040900      7.85184900
H          13.63350500     10.40926800      8.57925300
H          12.67874000      9.32013700      8.09374300
O          11.22322400     11.97101500      6.66164200
H          11.60298900     12.22600900      5.82609000
H          11.88500800     11.36718000      7.06018000
          43
 G =       -0.731788 Gcorr = 0.250883 a.u. Nimag =   0 Frame:     5 Step:     5 Geom:     5
C           7.46444100     11.40175100     10.14758300
H           6.53282300     11.33343600      9.56892700
H           7.47381200     12.35979200     10.68870200
H           7.44324700     10.58941400     10.91973100
C           8.57553300      9.92507100      8.53862500
H           7.63525100      9.90963700      7.95273000
H           8.48308100      9.11916800      9.32391300
C           9.89987400     11.28184300     10.14310900
H          10.83456300     11.29184900      9.54613500
H           9.92105700     12.15685700     10.80618300
H           9.92877900     10.36831600     10.78206200
C           8.71216900     12.39319900      8.29877300
H           8.81159000     13.36110600      8.81532000
H           9.59336600     12.30891600      7.61841700
H           7.81131300     12.41763100      7.66959400
C           9.77656900      9.63034200      7.62990400
H          10.71690200     10.06255700      8.04627200
H           9.65680000     10.13798300      6.65136700
C           9.95479700      8.13111600      7.42637200
H          10.56635900      7.93986800      6.52424400
H           8.99476300      7.62464200      7.23674600
N           8.67741100     11.25540400      9.27035100
S          10.78090800      7.32673900      8.83141300
O          12.14059500      7.94714600      8.88465100
O           9.98135200      7.78926800     10.02211300
O          10.72936600      5.90364000      8.56184500
P          12.51635200      9.19789700     12.11855300
O          12.39593600     10.52110800     11.49828600
O          13.41793800      8.14132700     11.35904300
H          13.05287100      8.04443800     10.36681000
O          13.17447300      9.29178900     13.56182000
H          13.22494800      8.32793900     13.93520700
O          11.12695700      8.48152800     12.41258500
H          10.71275800      8.13871100     11.50115400
O           8.20591800      8.91965600     11.81490700
H           8.71887400      8.37096000     11.18280300
H           8.75899700      8.91656000     12.59994000
O          13.11629500     10.51110700      8.51158100
H          13.15485200     10.70459500      9.45597900
H          12.87748600      9.55335900      8.49650500
O          11.54252600     12.20725100      7.15180900
H          12.11781900     12.68297000      6.56415500
H          12.13829800     11.58213500      7.63379900
          43
 G =       -0.729093 Gcorr = 0.254187 a.u. Nimag =   0 Frame:     6 Step:     6 Geom:     6
C           8.43100600     11.59889200     10.88875700
H           7.42276300     11.14864900     10.89050200
H           8.36437900     12.65553400     11.17633800
H           9.00020500     11.05257600     11.68100900
C           9.11790800      9.93508500      9.25931600
H           8.07878700      9.54520500      9.35350000
H           9.70779400      9.45277600     10.09265800
C          10.50065500     11.99093500      9.62441500
H          10.67834700     12.76322500      8.85683800
H          10.72073800     12.43246700     10.61229900
H          11.26628100     11.19830000      9.46736200
C           8.32355600     12.15927300      8.50637900
H           8.19170100     13.21989200      8.77370900
H           8.85807800     12.12902400      7.53212100
H           7.32862700     11.70864100      8.36465500
C           9.70637700      9.54506400      7.90287100
H          10.74006500      9.94075200      7.78923000
H           9.13594400     10.00236600      7.07147600
C           9.71107700      8.02738700      7.74755100
H          10.02709600      7.75315800      6.72393500
H           8.69656500      7.60935400      7.86361100
N           9.10759100     11.42566900      9.55385800
S          10.81487100      7.18750900      8.92094100
O          12.05194900      8.03870400      8.94205800
O          10.09974600      7.33050200     10.23548800
O          10.98077200      5.83550100      8.42788700
P          12.18558000      9.31846900     12.22182700
O          11.36700200     10.47414100     11.84571300
O          13.33038100      8.93133100     11.19621900
H          12.88390500      8.53557400     10.31689600
O          12.99067300      9.61675800     13.56303200
H          13.55448200      8.77636000     13.77296300
O          11.39248200      7.99039100     12.56280700
H          10.87022800      7.67219000     11.69175000
O           8.01230200      8.64778900     11.64010700
H           8.65099300      8.08264900     11.15198000
H           8.26322900      8.52400400     12.55343500
O          13.12455800     10.37287800      8.05058200
H          13.68505400     10.56372300      8.80081200
H          12.77098800      9.46796500      8.25572900
O          11.29726800     12.12031300      6.84620900
H          11.69738600     12.40684100      6.03064500
H          11.96063300     11.52219200      7.25055200
          43
 G =       -0.723146 Gcorr = 0.232998 a.u. Nimag =   0 Frame:     7 Step:     7 Geom:     7
C           8.70465400     11.96207700     10.88385100
H           7.64438100     11.67348500     10.93224600
H           8.79384800     13.04033600     11.07693700
H           9.23021900     11.43680400     11.72817000
C           9.18458900     10.05563500      9.41113400
H           8.11059600      9.77339000      9.55649600
H           9.71981900      9.56738400     10.27811200
C          10.79312700     11.97089600      9.59231100
H          11.36969100     11.47716000      8.77875700
H          10.92803800     13.05563800      9.49471200
H          11.26873500     11.64820800     10.55540600
C           8.64518700     12.29164900      8.43235800
H           8.59386500     13.37657300      8.61310400
H           9.20859900     12.15243900      7.47744600
H           7.62086200     11.91884900      8.27792500
C           9.70012400      9.50528600      8.07821600
H          10.77394900      9.79010500      7.92843900
H           9.16181000      9.96793500      7.22420300
C           9.54080400      7.99230700      8.00899500
H           9.59893100      7.65392100      6.95443600
H           8.50800800      7.70151000      8.32311900
N           9.33842800     11.56806800      9.56458100
S          10.73381600      7.15464800      9.00589800
O          12.02507300      7.95481100      8.88971400
O          10.24737900      7.34242000     10.43868000
O          10.83244800      5.78317100      8.57293600
P          12.07924600      9.34927000     12.11298300
O          10.96745600     10.32495800     11.96685800
O          13.03323900      9.29486100     10.79863500
H          12.81603300      8.51123800     10.07196500
O          13.11291500      9.73967000     13.32151900
H          13.81276900      9.06369600     13.53439000
O          11.73934300      7.80913700     12.45272500
H          11.04358500      7.31110700     11.80140300
O           7.65319300      7.91860700     10.50594400
H           8.56461000      7.65179400     10.80407000
H           7.05253600      7.32702700     10.93652400
O          12.91275800     10.14752700      7.97875800
H          13.15888000     10.17270400      8.92320400
H          12.77255200      9.18361800      7.80110200
O          11.08603800     11.70260300      6.58240700
H          11.48760000     11.90936100      5.74573500
H          11.78028400     11.21813500      7.10361100
          43
 G =       -0.723024 Gcorr = 0.233119 a.u. Nimag =   0 Frame:     8 Step:     8 Geom:     8
C           8.63530400     11.94988000     10.98797500
H           7.57829600     11.64583500     10.98477500
H           8.70315200     13.01541800     11.24867800
H           9.14173300     11.38106000     11.81562400
C           9.19026000     10.14220300      9.42009500
H           8.11721800      9.83642500      9.51678400
H           9.70797100      9.61024500     10.27191100
C          10.76232000     12.06482500      9.76626500
H          11.36970400     11.63528100      8.93920500
H          10.88254700     13.15555300      9.74515800
H          11.21443800     11.68570100     10.72000800
C           8.64654300     12.42562100      8.55994700
H           8.57189800     13.49670400      8.80399900
H           9.24179400     12.35285400      7.61700900
H           7.63380700     12.04822400      8.35022300
C           9.75225900      9.68051100      8.07242800
H          10.82423300      9.99225500      7.96980500
H           9.22838500     10.18298300      7.23208200
C           9.62401500      8.17164100      7.91040600
H           9.71743700      7.89715300      6.83992900
H           8.58866300      7.84480900      8.17733800
N           9.31555200     11.64462100      9.66832100
S          10.80513800      7.29797000      8.89032900
O          12.08025900      8.13193500      8.86620400
O          10.27059200      7.38369000     10.31554600
O          10.94991500      5.95948700      8.37494400
P          12.00928800      9.31531400     12.17049600
O          10.88519600     10.27956000     12.04401100
O          13.00831900      9.35739600     10.88954000
H          12.82675700      8.62068100     10.10682400
O          12.99346200      9.64797800     13.43613500
H          13.69578100      8.96999000     13.63446100
O          11.68645800      7.75193300     12.40420300
H          11.02382500      7.28305500     11.69890800
O           7.66634400      7.92068600     10.33933100
H           8.57298000      7.64882700     10.64691600
H           7.06268500      7.29800400     10.71872900
O          12.96060300     10.36772700      8.10126600
H          13.15943400     10.33199700      9.05694700
H          12.85039200      9.41593500      7.85318600
O          11.15087200     11.97889400      6.75497900
H          11.58243600     12.25752000      5.95508900
H          11.83175000     11.46164800      7.26401200
          43
 G =       -0.730621 Gcorr = 0.252811 a.u. Nimag =   0 Frame:     9 Step:     9 Geom:     9
C           8.38784600     11.60480900     10.66651800
H           7.37483300     11.16901600     10.62003600
H           8.32254400     12.66449800     10.94335300
H           8.91050300     11.05609200     11.48918400
C           9.15269200      9.91870000      9.09427700
H           8.11217300      9.52724500      9.16433500
H           9.72014000      9.44790900      9.94900400
C          10.51672700     11.98011500      9.50570800
H          11.28778600     11.23534100      9.21005300
H          10.66748500     12.87323100      8.88060000
H          10.75285000     12.25179800     10.55323600
C           8.40094200     12.13309500      8.27322500
H           8.23683600     13.19220500      8.52790600
H           8.99510900     12.10844500      7.33372600
H           7.42328900     11.66771100      8.07159600
C           9.77824600      9.51273500      7.75896700
H          10.81761100      9.90083900      7.67213900
H           9.23545900      9.96603400      6.90708400
C           9.77678400      7.99388000      7.61602100
H          10.11488300      7.70952500      6.60221300
H           8.75721100      7.58309000      7.71157300
N           9.12931200     11.41313900      9.36903400
S          10.84765700      7.15558300      8.82043400
O          12.09504100      7.99081300      8.85322700
O          10.10880000      7.32231600     10.11922000
O          11.00502900      5.79539000      8.34711100
P          12.13957100      9.35249200     12.09872300
O          11.31262700     10.48515000     11.67134200
O          13.31228700      8.95695000     11.10873700
H          12.88880200      8.52886600     10.23197000
O          12.90858200      9.70072900     13.44889700
H          13.48383100      8.87723100     13.69245900
O          11.35721100      8.02272300     12.45499900
H          10.84769600      7.68622800     11.58147200
O           7.97667000      8.64568100     11.44980200
H           8.63304000      8.08019300     10.98587600
H           8.19820100      8.52797200     12.37134000
O          13.20331400     10.31379800      7.96348700
H          13.72512200     10.51264300      8.73994800
H          12.83937800      9.41204800      8.16265600
O          11.41594200     12.07455600      6.71513300
H          11.83452700     12.34222200      5.90246100
H          12.06543000     11.47697600      7.14093200
          43
 G =       -0.731764 Gcorr = 0.250907 a.u. Nimag =   0 Frame:    10 Step:    10 Geom:    10
C           7.48946300     11.42622300     10.02846800
H           6.57491400     11.29460100      9.43376500
H           7.44975500     12.40811300     10.52346800
H           7.48126400     10.65059800     10.83773700
C           8.69348800      9.92005400      8.51672500
H           7.76780000      9.83921100      7.91322300
H           8.61517500      9.14919500      9.33802000
C           9.92718800     11.40253600     10.08177000
H          10.87446200     11.41896900      9.50505800
H           9.90019500     12.30917200     10.70061900
H           9.97530200     10.52333800     10.76609800
C           8.74095300     12.37767900      8.16117600
H           8.78525200     13.37224900      8.63270400
H           9.64323800     12.29925700      7.50825200
H           7.85739800     12.33339000      7.50893400
C           9.92509500      9.63081400      7.64821400
H          10.83932100     10.11441600      8.06622400
H           9.81067700     10.09146600      6.64607800
C          10.16099900      8.13168600      7.51441400
H          10.79921100      7.92423700      6.63462800
H           9.22412200      7.58275300      7.32717500
N           8.72723400     11.28653700      9.18542600
S          10.98304500      7.41977600      8.97071600
O          12.31763500      8.09259600      9.02614100
O          10.13972400      7.90275100     10.12251200
O          10.99011200      5.98548300      8.76274400
P          12.57312100      9.50563500     12.20412900
O          12.41970200     10.79466400     11.52227600
O          13.53047000      8.45101200     11.51345900
H          13.18880600      8.29150100     10.52079600
O          13.19263600      9.68836400     13.65594600
H          13.26861000      8.74477800     14.07406300
O          11.20380800      8.75200400     12.49937700
H          10.82531600      8.35095800     11.59617300
O           8.28801000      9.05443700     11.82475000
H           8.83322500      8.49515900     11.23001700
H           8.82381000      9.10780000     12.62007000
O          13.20770400     10.67215900      8.55433600
H          13.21663500     10.90975000      9.48939900
H          13.00505200      9.70633600      8.57846800
O          11.60398000     12.24264800      7.08347200
H          12.17446900     12.71198200      6.48607200
H          12.21164200     11.66373100      7.60693300
          43
 G =       -0.725522 Gcorr = 0.249176 a.u. Nimag =   0 Frame:    11 Step:    11 Geom:    11
C           7.56143300     11.55691000      9.50299600
H           6.74994500     11.50509400      8.76407900
H           7.65820600     12.59935100      9.84651100
H           7.25845800     10.94579500     10.38976200
C           8.63610500      9.61703000      8.47041300
H           7.84541500      9.61762800      7.69270400
H           8.22117600      9.04034300      9.34162300
C           9.90460000     11.12327000     10.01709900
H          10.92239300     10.96727500      9.60919400
H           9.90113900     12.10833400     10.51091500
H           9.73585200     10.34405100     10.79459100
C           9.26311200     11.91044900      7.78276100
H           9.28373200     12.98202200      8.07233400
H          10.29153500     11.67097100      7.45117100
H           8.57950800     11.79323000      6.93119600
C           9.90523600      8.93497100      7.94278100
H          10.80438700      9.25628500      8.51706100
H          10.10519400      9.25030200      6.89989700
C           9.78042900      7.41723800      8.00210200
H          10.62312700      6.95618500      7.44872600
H           8.86681900      7.07028700      7.49097500
N           8.85969600     11.04660800      8.93985100
S           9.79932700      6.72107900      9.68891800
O          11.12203000      6.07915200      9.83906500
O           9.68208300      7.93705800     10.59187800
O           8.62301400      5.86671800      9.75901500
P          13.07262200      8.73892000     10.91107100
O          12.99529500      9.43401100      9.61402200
O          13.36959400      7.19598400     10.89045900
H          12.52094700      6.69404000     10.45029500
O          14.28474400      9.34579900     11.75638300
H          14.34157200      8.81893900     12.63923800
O          11.82714000      9.00302400     11.85411800
H          10.96260900      8.55112400     11.42010500
O           7.61516100      9.29966500     11.65460700
H           8.38812100      8.75696500     11.34154300
H           7.13889300      8.71399900     12.23074800
O          13.32291000     12.22563800      9.37292800
H          13.24071000     11.24700300      9.37265400
H          13.87221600     12.40183900     10.13586400
O          11.03573100     13.70281700      9.03203000
H          11.35901800     14.59728900      8.99178100
H          11.83878900     13.15532600      9.15455700
          43
 G =       -0.731770 Gcorr = 0.250902 a.u. Nimag =   0 Frame:    12 Step:    12 Geom:    12
C           7.48635200     11.42755700     10.39538900
H           6.52730100     11.33414500      9.86727700
H           7.49352100     12.37937400     10.94736600
H           7.53437000     10.60651300     11.15705700
C           8.55587400     10.00704500      8.70955700
H           7.58587700      9.96635700      8.17566300
H           8.53353300      9.18973800      9.48823700
C           9.92050500     11.38978800     10.25716300
H          10.82044200     11.43576400      9.61043700
H           9.94976500     12.25877600     10.92785000
H          10.01360400     10.47181000     10.88338600
C           8.59785800     12.48095900      8.49462500
H           8.69035300     13.44597500      9.01783300
H           9.44452000     12.43554700      7.76821900
H           7.66489400     12.48042800      7.91358700
C           9.71432400      9.76314500      7.73310100
H          10.66192100     10.21920500      8.10513300
H           9.52617100     10.28011700      6.77034500
C           9.92756300      8.27324500      7.49732200
H          10.49459700      8.11388500      6.56057000
H           8.97477800      7.73910300      7.35234400
N           8.65374500     11.33184700      9.45180200
S          10.85364000      7.47682300      8.84323700
O          12.19430200      8.13971300      8.83229200
O          10.10626400      7.89743800     10.08236000
O          10.83216600      6.05658700      8.55530000
P          12.70743100      9.36585400     12.05650700
O          12.51179500     10.69248800     11.46338300
O          13.59935300      8.34923200     11.23387400
H          13.18020200      8.24836700     10.26339300
O          13.44004800      9.46275200     13.46321300
H          13.53997400      8.49657200     13.82021500
O          11.35953100      8.60113600     12.41518800
H          10.90743200      8.25510100     11.52341400
O           8.39997200      8.95283700     11.98618400
H           8.89387500      8.42791800     11.31962700
H           8.99536400      8.95799500     12.73965700
O          13.06498900     10.73931100      8.44087200
H          13.14890100     10.92260100      9.38442300
H          12.85756900      9.77432300      8.42575600
O          11.36578100     12.39754600      7.18916800
H          11.89286900     12.89790400      6.57713700
H          12.00669300     11.78720400      7.63055600
          43
 G =       -0.721310 Gcorr = 0.255573 a.u. Nimag =   0 Frame:    13 Step:    13 Geom:    13
C           7.29245400     11.38714700      9.65774900
H           6.58054300     11.31614900      8.82370900
H           7.18905500     12.37803800     10.12638700
H           6.99563500     10.62805600     10.42570300