 Entering Gaussian System, Link 0=g16
 Initial command:
 /data0/home/software/g16/l1.exe "/data0/home/software/g16/scratch/Gau-239286.inp" -scrdir="/data0/home/software/g16/scratch/"
 Default is to use a total of  22 processors:
                               22 via shared-memory
                                1 via Linda
 Entering Link 1 = /data0/home/software/g16/l1.exe PID=    239287.
  
 Copyright (c) 1988,1990,1992,1993,1995,1998,2003,2009,2016,
            Gaussian, Inc.  All Rights Reserved.
  
 This is part of the Gaussian(R) 16 program.  It is based on
 the Gaussian(R) 09 system (copyright 2009, Gaussian, Inc.),
 the Gaussian(R) 03 system (copyright 2003, Gaussian, Inc.),
 the Gaussian(R) 98 system (copyright 1998, Gaussian, Inc.),
 the Gaussian(R) 94 system (copyright 1995, Gaussian, Inc.),
 the Gaussian 92(TM) system (copyright 1992, Gaussian, Inc.),
 the Gaussian 90(TM) system (copyright 1990, Gaussian, Inc.),
 the Gaussian 88(TM) system (copyright 1988, Gaussian, Inc.),
 the Gaussian 86(TM) system (copyright 1986, Carnegie Mellon
 University), and the Gaussian 82(TM) system (copyright 1983,
 Carnegie Mellon University). Gaussian is a federally registered
 trademark of Gaussian, Inc.
  
 This software contains proprietary and confidential information,
 including trade secrets, belonging to Gaussian, Inc.
  
 This software is provided under written license and may be
 used, copied, transmitted, or stored only in accord with that
 written license.
  
 The following legend is applicable only to US Government
 contracts under FAR:
  
                    RESTRICTED RIGHTS LEGEND
  
 Use, reproduction and disclosure by the US Government is
 subject to restrictions as set forth in subparagraphs (a)
 and (c) of the Commercial Computer Software - Restricted
 Rights clause in FAR 52.227-19.
  
 Gaussian, Inc.
 340 Quinnipiac St., Bldg. 40, Wallingford CT 06492
  
  
 ---------------------------------------------------------------
 Warning -- This program may not be used in any manner that
 competes with the business of Gaussian, Inc. or will provide
 assistance to any competitor of Gaussian, Inc.  The licensee
 of this program is prohibited from giving any competitor of
 Gaussian, Inc. access to this program.  By using this program,
 the user acknowledges that Gaussian, Inc. is engaged in the
 business of creating and licensing software in the field of
 computational chemistry and represents and warrants to the
 licensee that it is not a competitor of Gaussian, Inc. and that
 it will not use this program in any manner prohibited above.
 ---------------------------------------------------------------
  

 Cite this work as:
 Gaussian 16, Revision A.03,
 M. J. Frisch, G. W. Trucks, H. B. Schlegel, G. E. Scuseria, 
 M. A. Robb, J. R. Cheeseman, G. Scalmani, V. Barone, 
 G. A. Petersson, H. Nakatsuji, X. Li, M. Caricato, A. V. Marenich, 
 J. Bloino, B. G. Janesko, R. Gomperts, B. Mennucci, H. P. Hratchian, 
 J. V. Ortiz, A. F. Izmaylov, J. L. Sonnenberg, D. Williams-Young, 
 F. Ding, F. Lipparini, F. Egidi, J. Goings, B. Peng, A. Petrone, 
 T. Henderson, D. Ranasinghe, V. G. Zakrzewski, J. Gao, N. Rega, 
 G. Zheng, W. Liang, M. Hada, M. Ehara, K. Toyota, R. Fukuda, 
 J. Hasegawa, M. Ishida, T. Nakajima, Y. Honda, O. Kitao, H. Nakai, 
 T. Vreven, K. Throssell, J. A. Montgomery, Jr., J. E. Peralta, 
 F. Ogliaro, M. J. Bearpark, J. J. Heyd, E. N. Brothers, K. N. Kudin, 
 V. N. Staroverov, T. A. Keith, R. Kobayashi, J. Normand, 
 K. Raghavachari, A. P. Rendell, J. C. Burant, S. S. Iyengar, 
 J. Tomasi, M. Cossi, J. M. Millam, M. Klene, C. Adamo, R. Cammi, 
 J. W. Ochterski, R. L. Martin, K. Morokuma, O. Farkas, 
 J. B. Foresman, and D. J. Fox, Gaussian, Inc., Wallingford CT, 2016.
 
 ******************************************
 Gaussian 16:  ES64L-G16RevA.03 25-Dec-2016
                17-Feb-2023 
 ******************************************
 %nproc=24
 Will use up to   24 processors via shared memory.
 %mem=50GB
 ---------------------------------------------------
 #p M062X/6-311+G(2d,p) nosymm em=GD3 counterpoise=2
 ---------------------------------------------------
 1/38=1,62=2,172=1/1;
 2/12=2,15=1,17=6,18=5,40=1/2;
 1/38=1,53=2,62=2,63=1/22;
 3/5=4,6=6,7=112,11=2,25=1,30=1,74=-55,124=31/1,2,3;
 4//1;
 5/5=2,38=5/2;
 6/7=2,8=2,9=2,10=2,28=1/1;
 1/53=2,62=2,63=1/22;
 3/5=7,6=11,7=112,11=2,25=1,30=1,74=-55,82=7,124=31/1,2,3;
 4//1;
 5/5=2,38=5/2;
 6/7=2,8=2,9=2,10=2,28=1/1;
 1/53=2,62=2,63=1/22(-4);
 99/5=1,9=1/99;
 Leave Link    1 at Fri Feb 17 21:48:47 2023, MaxMem=  6710886400 cpu:               0.7 elap:               0.0
 (Enter /data0/home/software/g16/l101.exe)
 -------------------
 Title Card Required
 -------------------
 Symbolic Z-matrix:
 Charge =  0 Multiplicity = 1 in supermolecule
 Charge =  0 Multiplicity = 1 in fragment      1.
 Charge =  0 Multiplicity = 1 in fragment      2.
 C                     4.48369   5.43284   11.48948    
 C                     5.41592   4.97754   12.42329    
 C                     4.71534   6.9402    13.13346    
 N                     4.043     6.67472   11.94996    
 H                     3.43237   7.30598   11.43784    
 H                     4.10815   4.9838    10.59537    
 H                     5.9784    4.0649    12.44176    
 H                     4.57643   7.83689   13.72087    
 N                     5.54736   5.92048   13.43117    
 P                     7.6155    9.41781   12.71068    
 O                     6.14748   9.403     12.78679    
 O                     8.43155   9.06886   14.01295    
 H                     8.08809   8.13171   14.3865    
 O                     8.28215   8.49175   11.60857    
 H                     7.55877   8.16037   10.93745    
 O                     8.1212    10.88796   12.36108    
 H                     9.15083   10.88279   12.36193    
 
 ITRead=  0  0  0  0  0  0  0  0  0  0  0  0  0  0  0  0  0
 MicOpt= -1 -1 -1 -1 -1 -1 -1 -1 -1 -1 -1 -1 -1 -1 -1 -1 -1
 NAtoms=     17 NQM=       17 NQMF=       0 NMMI=      0 NMMIF=      0
                NMic=       0 NMicF=      0.
                    Isotopes and Nuclear Properties:
 (Nuclear quadrupole moments (NQMom) in fm**2, nuclear magnetic moments (NMagM)
  in nuclear magnetons)

  Atom         1           2           3           4           5           6           7           8           9          10
 IAtWgt=          12          12          12          14           1           1           1           1          14          31
 AtmWgt=  12.0000000  12.0000000  12.0000000  14.0030740   1.0078250   1.0078250   1.0078250   1.0078250  14.0030740  30.9737634
 NucSpn=           0           0           0           2           1           1           1           1           2           1
 AtZEff=  -0.0000000  -0.0000000  -0.0000000  -0.0000000  -0.0000000  -0.0000000  -0.0000000  -0.0000000  -0.0000000  -0.0000000
 NQMom=    0.0000000   0.0000000   0.0000000   2.0440000   0.0000000   0.0000000   0.0000000   0.0000000   2.0440000   0.0000000
 NMagM=    0.0000000   0.0000000   0.0000000   0.4037610   2.7928460   2.7928460   2.7928460   2.7928460   0.4037610   1.1316000
 AtZNuc=   6.0000000   6.0000000   6.0000000   7.0000000   1.0000000   1.0000000   1.0000000   1.0000000   7.0000000  15.0000000

  Atom        11          12          13          14          15          16          17
 IAtWgt=          16          16           1          16           1          16           1
 AtmWgt=  15.9949146  15.9949146   1.0078250  15.9949146   1.0078250  15.9949146   1.0078250
 NucSpn=           0           0           1           0           1           0           1
 AtZEff=  -0.0000000  -0.0000000  -0.0000000  -0.0000000  -0.0000000  -0.0000000  -0.0000000
 NQMom=    0.0000000   0.0000000   0.0000000   0.0000000   0.0000000   0.0000000   0.0000000
 NMagM=    0.0000000   0.0000000   2.7928460   0.0000000   2.7928460   0.0000000   2.7928460
 AtZNuc=   8.0000000   8.0000000   1.0000000   8.0000000   1.0000000   8.0000000   1.0000000
 Leave Link  101 at Fri Feb 17 21:48:47 2023, MaxMem=  6710886400 cpu:               2.1 elap:               0.1
 (Enter /data0/home/software/g16/l202.exe)
                          Input orientation:                          
 ---------------------------------------------------------------------
 Center     Atomic      Atomic             Coordinates (Angstroms)
 Number     Number       Type             X           Y           Z
 ---------------------------------------------------------------------
      1          6           0        4.483690    5.432844   11.489475
      2          6           0        5.415920    4.977543   12.423295
      3          6           0        4.715339    6.940200   13.133457
      4          7           0        4.043001    6.674720   11.949956
      5          1           0        3.432369    7.305985   11.437840
      6          1           0        4.108149    4.983802   10.595374
      7          1           0        5.978397    4.064896   12.441755
      8          1           0        4.576425    7.836886   13.720872
      9          7           0        5.547356    5.920481   13.431168
     10         15           0        7.615498    9.417807   12.710682
     11          8           0        6.147478    9.402998   12.786794
     12          8           0        8.431551    9.068864   14.012951
     13          1           0        8.088088    8.131710   14.386505
     14          8           0        8.282148    8.491752   11.608566
     15          1           0        7.558770    8.160368   10.937453
     16          8           0        8.121203   10.887963   12.361081
     17          1           0        9.150834   10.882786   12.361933
 ---------------------------------------------------------------------
                    Distance matrix (angstroms):
                    1          2          3          4          5
     1  C    0.000000
     2  C    1.395841   0.000000
     3  C    2.242423   2.201628   0.000000
     4  N    1.395889   2.233689   1.386792   0.000000
     5  H    2.148627   3.213602   2.157528   1.016676   0.000000
     6  H    1.068684   2.247576   3.261601   2.167566   2.561047
     7  H    2.238809   1.072215   3.215764   3.286154   4.242023
     8  H    3.281334   3.250277   1.080925   2.184334   2.608248
     9  N    2.267013   1.386440   1.349337   2.241863   3.219650
    10  P    5.213396   4.963535   3.837733   4.567928   4.855768
    11  O    4.495926   4.500218   2.869943   3.545789   3.686320
    12  O    5.930782   5.325406   4.372065   5.408072   5.893281
    13  H    5.354283   4.576401   3.790153   4.941894   5.572447
    14  O    4.878461   4.607463   4.177886   4.624772   4.995553
    15  H    4.147316   4.114597   3.794251   3.948790   4.243530
    16  O    6.614342   6.500422   5.270798   5.878110   5.972278
    17  H    7.228090   6.987506   5.984384   6.630800   6.807958
                    6          7          8          9         10
     6  H    0.000000
     7  H    2.784123   0.000000
     8  H    4.257712   4.222508   0.000000
     9  N    3.315179   2.146609   2.167774   0.000000
    10  P    6.036259   5.604113   3.571521   4.126451   0.000000
    11  O    5.337647   5.351913   2.406952   3.592115   1.470066
    12  O    6.859983   5.790191   4.057718   4.309219   1.575947
    13  H    6.334186   4.977130   3.586330   3.501074   2.164664
    14  O    5.545677   5.059499   4.315445   4.172817   1.586398
    15  H    4.702592   4.640409   4.092242   3.909155   2.174560
    16  O    7.354008   7.152088   4.870683   5.696108   1.593523
    17  H    7.959109   7.520263   5.661222   6.225174   2.150592
                   11         12         13         14         15
    11  O    0.000000
    12  O    2.613828   0.000000
    13  H    2.818016   1.065724   0.000000
    14  O    2.602961   2.477185   2.807888   0.000000
    15  H    2.637411   3.323522   3.489550   1.040905   0.000000
    16  O    2.506380   2.476714   3.420580   2.516746   3.127750
    17  H    3.374971   2.556079   3.577253   2.653153   3.460545
                   16         17
    16  O    0.000000
    17  H    1.029644   0.000000
 Symmetry turned off by external request.
 Stoichiometry    C3H7N2O4P
 Framework group  C1[X(C3H7N2O4P)]
 Deg. of freedom    45
 Full point group                 C1      NOp   1
 Rotational constants (GHZ):           2.5310552           0.5182703           0.5049330
 Leave Link  202 at Fri Feb 17 21:48:47 2023, MaxMem=  6710886400 cpu:               0.1 elap:               0.0
 (Enter /data0/home/software/g16/l122.exe)
 Counterpoise: doing full-system calculation.
 Leave Link  122 at Fri Feb 17 21:48:47 2023, MaxMem=  6710886400 cpu:               0.0 elap:               0.0
 (Enter /data0/home/software/g16/l301.exe)
 Standard basis: 6-311+G(2d,p) (5D, 7F)
 Ernie: Thresh=  0.10000D-02 Tol=  0.10000D-05 Strict=F.
   320 basis functions,   490 primitive gaussians,   340 cartesian basis functions
    43 alpha electrons       43 beta electrons
       nuclear repulsion energy       647.4249051555 Hartrees.
 IExCor= 4336 DFT=T Ex+Corr=M062X ExCW=0 ScaHFX=  0.540000
 ScaDFX=  1.000000  1.000000  1.000000  1.000000 ScalE2=  1.000000  1.000000
 IRadAn=      5 IRanWt=     -1 IRanGd=            0 ICorTp=0 IEmpDi=131
 NAtoms=   17 NActive=   17 NUniq=   17 SFac= 1.00D+00 NAtFMM=   60 NAOKFM=F Big=F
 Integral buffers will be    131072 words long.
 Raffenetti 2 integral format.
 Two-electron integral symmetry is turned off.
 R6Disp:  Grimme-D3 Dispersion energy=       -0.0005778060 Hartrees.
 Nuclear repulsion after empirical dispersion term =      647.4243273496 Hartrees.
 Leave Link  301 at Fri Feb 17 21:48:47 2023, MaxMem=  6710886400 cpu:               1.1 elap:               0.1
 (Enter /data0/home/software/g16/l302.exe)
 NPDir=0 NMtPBC=     1 NCelOv=     1 NCel=       1 NClECP=     1 NCelD=      1
         NCelK=      1 NCelE2=     1 NClLst=     1 CellRange=     0.0.
 One-electron integrals computed using PRISM.
 NBasis=   320 RedAO= T EigKep=  5.16D-05  NBF=   320
 NBsUse=   320 1.00D-06 EigRej= -1.00D+00 NBFU=   320
 Precomputing XC quadrature grid using
 IXCGrd= 4 IRadAn=           5 IRanWt=          -1 IRanGd=           0 AccXCQ= 0.00D+00.
 Generated NRdTot=       0 NPtTot=           0 NUsed=           0 NTot=          32
 NSgBfM=   340   340   340   340   340 MxSgAt=    17 MxSgA2=    17.
 Leave Link  302 at Fri Feb 17 21:48:47 2023, MaxMem=  6710886400 cpu:               5.1 elap:               0.2
 (Enter /data0/home/software/g16/l303.exe)
 DipDrv:  MaxL=1.
 Leave Link  303 at Fri Feb 17 21:48:48 2023, MaxMem=  6710886400 cpu:               0.7 elap:               0.0
 (Enter /data0/home/software/g16/l401.exe)
 ExpMin= 3.48D-02 ExpMax= 7.75D+04 ExpMxC= 2.65D+03 IAcc=3 IRadAn=         5 AccDes= 0.00D+00
 Harris functional with IExCor= 1009 and IRadAn=       5 diagonalized for initial guess.
 HarFok:  IExCor= 1009 AccDes= 0.00D+00 IRadAn=         5 IDoV= 1 UseB2=F ITyADJ=14
 ICtDFT=  3500011 ScaDFX=  1.000000  1.000000  1.000000  1.000000
 FoFCou: FMM=F IPFlag=           0 FMFlag=      100000 FMFlg1=           0
         NFxFlg=           0 DoJE=T BraDBF=F KetDBF=T FulRan=T
         wScrn=  0.000000 ICntrl=       500 IOpCl=  0 I1Cent=   200000004 NGrid=           0
         NMat0=    1 NMatS0=      1 NMatT0=    0 NMatD0=    1 NMtDS0=    0 NMtDT0=    0
 Symmetry not used in FoFCou.
 Harris En= -869.994726307402    
 JPrj=0 DoOrth=F DoCkMO=F.
 Leave Link  401 at Fri Feb 17 21:48:48 2023, MaxMem=  6710886400 cpu:              16.8 elap:               0.7
 (Enter /data0/home/software/g16/l502.exe)
 Two-electron integral symmetry not used.
 Closed shell SCF:
 Using DIIS extrapolation, IDIIS=  1040.
 NGot=  6710886400 LenX=  6710644641 LenY=  6710528600
 Requested convergence on RMS density matrix=1.00D-08 within 128 cycles.
 Requested convergence on MAX density matrix=1.00D-06.
 Requested convergence on             energy=1.00D-06.
 No special actions if energy rises.
 Fock matrices will be formed incrementally for  20 cycles.

 Cycle   1  Pass 1  IDiag  1:
 FoFJK:  IHMeth= 1 ICntrl=       0 DoSepK=F KAlg= 0 I1Cent=           0 FoldK=F
 IRaf= 880000000 NMat=       1 IRICut=       1 DoRegI=T DoRafI=F ISym2E= 0 IDoP0=0 IntGTp=1.
 FoFCou: FMM=F IPFlag=           0 FMFlag=      100000 FMFlg1=           0
         NFxFlg=           0 DoJE=F BraDBF=F KetDBF=F FulRan=T
         wScrn=  0.000000 ICntrl=         0 IOpCl=  0 I1Cent=           0 NGrid=           0
         NMat0=    1 NMatS0=      1 NMatT0=    0 NMatD0=    1 NMtDS0=    0 NMtDT0=    0
 Symmetry not used in FoFCou.
 E= -869.973388479050    
 DIIS: error= 2.91D-02 at cycle   1 NSaved=   1.
 NSaved= 1 IEnMin= 1 EnMin= -869.973388479050     IErMin= 1 ErrMin= 2.91D-02
 ErrMax= 2.91D-02  0.00D+00 EMaxC= 1.00D-01 BMatC= 6.27D-01 BMatP= 6.27D-01
 IDIUse=3 WtCom= 7.09D-01 WtEn= 2.91D-01
 Coeff-Com:  0.100D+01
 Coeff-En:   0.100D+01
 Coeff:      0.100D+01
 Gap=     0.315 Goal=   None    Shift=    0.000
 GapD=    0.315 DampG=1.000 DampE=0.500 DampFc=0.5000 IDamp=-1.
 Damping current iteration by 5.00D-01
 RMSDP=4.65D-03 MaxDP=2.10D-01              OVMax= 2.17D-01

 Cycle   2  Pass 1  IDiag  1:
 RMSU=  2.32D-03    CP:  1.01D+00
 E= -870.136937967757     Delta-E=       -0.163549488707 Rises=F Damp=T
 DIIS: error= 6.33D-03 at cycle   2 NSaved=   2.
 NSaved= 2 IEnMin= 2 EnMin= -870.136937967757     IErMin= 2 ErrMin= 6.33D-03
 ErrMax= 6.33D-03  0.00D+00 EMaxC= 1.00D-01 BMatC= 3.94D-02 BMatP= 6.27D-01
 IDIUse=3 WtCom= 9.37D-01 WtEn= 6.33D-02
 Coeff-Com:  0.298D-01 0.970D+00
 Coeff-En:   0.127D+00 0.873D+00
 Coeff:      0.359D-01 0.964D+00
 Gap=     0.274 Goal=   None    Shift=    0.000
 RMSDP=1.10D-03 MaxDP=8.58D-02 DE=-1.64D-01 OVMax= 1.40D-01

 Cycle   3  Pass 1  IDiag  1:
 RMSU=  9.32D-04    CP:  9.92D-01  7.62D-01
 E= -870.337904919689     Delta-E=       -0.200966951932 Rises=F Damp=F
 DIIS: error= 5.71D-03 at cycle   3 NSaved=   3.
 NSaved= 3 IEnMin= 3 EnMin= -870.337904919689     IErMin= 3 ErrMin= 5.71D-03
 ErrMax= 5.71D-03  0.00D+00 EMaxC= 1.00D-01 BMatC= 1.46D-02 BMatP= 3.94D-02
 IDIUse=3 WtCom= 9.43D-01 WtEn= 5.71D-02
 Coeff-Com: -0.497D-01 0.345D+00 0.705D+00
 Coeff-En:   0.000D+00 0.000D+00 0.100D+01
 Coeff:     -0.469D-01 0.325D+00 0.722D+00
 Gap=     0.270 Goal=   None    Shift=    0.000
 RMSDP=4.25D-04 MaxDP=2.98D-02 DE=-2.01D-01 OVMax= 3.65D-02

 Cycle   4  Pass 1  IDiag  1:
 RMSU=  4.09D-04    CP:  9.90D-01  8.03D-01  9.29D-01
 E= -870.345061644521     Delta-E=       -0.007156724832 Rises=F Damp=F
 DIIS: error= 3.02D-03 at cycle   4 NSaved=   4.
 NSaved= 4 IEnMin= 4 EnMin= -870.345061644521     IErMin= 4 ErrMin= 3.02D-03
 ErrMax= 3.02D-03  0.00D+00 EMaxC= 1.00D-01 BMatC= 4.79D-03 BMatP= 1.46D-02
 IDIUse=3 WtCom= 9.70D-01 WtEn= 3.02D-02
 Coeff-Com: -0.307D-01 0.836D-01 0.408D+00 0.539D+00
 Coeff-En:   0.000D+00 0.000D+00 0.241D+00 0.759D+00
 Coeff:     -0.297D-01 0.811D-01 0.403D+00 0.546D+00
 Gap=     0.268 Goal=   None    Shift=    0.000
 RMSDP=1.91D-04 MaxDP=9.99D-03 DE=-7.16D-03 OVMax= 1.25D-02

 Cycle   5  Pass 1  IDiag  1:
 RMSU=  1.12D-04    CP:  9.90D-01  7.82D-01  9.70D-01  6.51D-01
 E= -870.348401687107     Delta-E=       -0.003340042586 Rises=F Damp=F
 DIIS: error= 3.85D-04 at cycle   5 NSaved=   5.
 NSaved= 5 IEnMin= 5 EnMin= -870.348401687107     IErMin= 5 ErrMin= 3.85D-04
 ErrMax= 3.85D-04  0.00D+00 EMaxC= 1.00D-01 BMatC= 7.15D-05 BMatP= 4.79D-03
 IDIUse=3 WtCom= 9.96D-01 WtEn= 3.85D-03
 Coeff-Com: -0.724D-02 0.125D-01 0.101D+00 0.190D+00 0.703D+00
 Coeff-En:   0.000D+00 0.000D+00 0.000D+00 0.000D+00 0.100D+01
 Coeff:     -0.721D-02 0.125D-01 0.101D+00 0.189D+00 0.704D+00
 Gap=     0.265 Goal=   None    Shift=    0.000
 RMSDP=3.15D-05 MaxDP=1.74D-03 DE=-3.34D-03 OVMax= 2.37D-03

 Cycle   6  Pass 1  IDiag  1:
 RMSU=  2.36D-05    CP:  9.89D-01  7.83D-01  9.75D-01  6.76D-01  8.46D-01
 E= -870.348454439882     Delta-E=       -0.000052752775 Rises=F Damp=F
 DIIS: error= 1.51D-04 at cycle   6 NSaved=   6.
 NSaved= 6 IEnMin= 6 EnMin= -870.348454439882     IErMin= 6 ErrMin= 1.51D-04
 ErrMax= 1.51D-04  0.00D+00 EMaxC= 1.00D-01 BMatC= 6.35D-06 BMatP= 7.15D-05
 IDIUse=3 WtCom= 9.98D-01 WtEn= 1.51D-03
 Coeff-Com: -0.149D-02 0.951D-03 0.215D-01 0.505D-01 0.296D+00 0.633D+00
 Coeff-En:   0.000D+00 0.000D+00 0.000D+00 0.000D+00 0.000D+00 0.100D+01
 Coeff:     -0.149D-02 0.950D-03 0.214D-01 0.504D-01 0.295D+00 0.633D+00
 Gap=     0.266 Goal=   None    Shift=    0.000
 RMSDP=1.31D-05 MaxDP=6.32D-04 DE=-5.28D-05 OVMax= 8.14D-04

 Cycle   7  Pass 1  IDiag  1:
 RMSU=  7.99D-06    CP:  9.89D-01  7.80D-01  9.76D-01  6.80D-01  9.13D-01
                    CP:  9.29D-01
 E= -870.348459961275     Delta-E=       -0.000005521393 Rises=F Damp=F
 DIIS: error= 4.67D-05 at cycle   7 NSaved=   7.
 NSaved= 7 IEnMin= 7 EnMin= -870.348459961275     IErMin= 7 ErrMin= 4.67D-05
 ErrMax= 4.67D-05  0.00D+00 EMaxC= 1.00D-01 BMatC= 4.06D-07 BMatP= 6.35D-06
 IDIUse=1 WtCom= 1.00D+00 WtEn= 0.00D+00
 Coeff-Com:  0.363D-03-0.101D-02-0.488D-02-0.648D-02 0.140D-01 0.174D+00
 Coeff-Com:  0.824D+00
 Coeff:      0.363D-03-0.101D-02-0.488D-02-0.648D-02 0.140D-01 0.174D+00
 Coeff:      0.824D+00
 Gap=     0.266 Goal=   None    Shift=    0.000
 RMSDP=3.55D-06 MaxDP=1.28D-04 DE=-5.52D-06 OVMax= 3.53D-04

 Cycle   8  Pass 1  IDiag  1:
 RMSU=  2.45D-06    CP:  9.89D-01  7.79D-01  9.77D-01  6.80D-01  9.18D-01
                    CP:  1.01D+00  1.00D+00
 E= -870.348460254655     Delta-E=       -0.000000293380 Rises=F Damp=F
 DIIS: error= 3.05D-05 at cycle   8 NSaved=   8.
 NSaved= 8 IEnMin= 8 EnMin= -870.348460254655     IErMin= 8 ErrMin= 3.05D-05
 ErrMax= 3.05D-05  0.00D+00 EMaxC= 1.00D-01 BMatC= 2.37D-07 BMatP= 4.06D-07
 IDIUse=1 WtCom= 1.00D+00 WtEn= 0.00D+00
 Coeff-Com:  0.399D-03-0.751D-03-0.562D-02-0.102D-01-0.281D-01 0.166D-01
 Coeff-Com:  0.494D+00 0.533D+00
 Coeff:      0.399D-03-0.751D-03-0.562D-02-0.102D-01-0.281D-01 0.166D-01
 Coeff:      0.494D+00 0.533D+00
 Gap=     0.266 Goal=   None    Shift=    0.000
 RMSDP=2.23D-06 MaxDP=1.25D-04 DE=-2.93D-07 OVMax= 1.41D-04

 Cycle   9  Pass 1  IDiag  1:
 RMSU=  9.31D-07    CP:  9.89D-01  7.79D-01  9.77D-01  6.81D-01  9.28D-01
                    CP:  1.03D+00  1.12D+00  7.64D-01
 E= -870.348460462866     Delta-E=       -0.000000208211 Rises=F Damp=F
 DIIS: error= 5.15D-06 at cycle   9 NSaved=   9.
 NSaved= 9 IEnMin= 9 EnMin= -870.348460462866     IErMin= 9 ErrMin= 5.15D-06
 ErrMax= 5.15D-06  0.00D+00 EMaxC= 1.00D-01 BMatC= 4.18D-09 BMatP= 2.37D-07
 IDIUse=1 WtCom= 1.00D+00 WtEn= 0.00D+00
 Coeff-Com:  0.795D-04-0.135D-03-0.122D-02-0.238D-02-0.787D-02-0.681D-02
 Coeff-Com:  0.968D-01 0.136D+00 0.785D+00
 Coeff:      0.795D-04-0.135D-03-0.122D-02-0.238D-02-0.787D-02-0.681D-02
 Coeff:      0.968D-01 0.136D+00 0.785D+00
 Gap=     0.266 Goal=   None    Shift=    0.000
 RMSDP=3.20D-07 MaxDP=1.24D-05 DE=-2.08D-07 OVMax= 3.90D-05

 Cycle  10  Pass 1  IDiag  1:
 RMSU=  2.41D-07    CP:  9.89D-01  7.79D-01  9.77D-01  6.81D-01  9.27D-01
                    CP:  1.03D+00  1.14D+00  8.19D-01  1.04D+00
 E= -870.348460466839     Delta-E=       -0.000000003973 Rises=F Damp=F
 DIIS: error= 3.59D-06 at cycle  10 NSaved=  10.
 NSaved=10 IEnMin=10 EnMin= -870.348460466839     IErMin=10 ErrMin= 3.59D-06
 ErrMax= 3.59D-06  0.00D+00 EMaxC= 1.00D-01 BMatC= 2.22D-09 BMatP= 4.18D-09
 IDIUse=1 WtCom= 1.00D+00 WtEn= 0.00D+00
 Coeff-Com: -0.258D-04 0.552D-04 0.300D-03 0.427D-03 0.266D-03-0.776D-02
 Coeff-Com: -0.320D-01-0.269D-01 0.430D+00 0.635D+00
 Coeff:     -0.258D-04 0.552D-04 0.300D-03 0.427D-03 0.266D-03-0.776D-02
 Coeff:     -0.320D-01-0.269D-01 0.430D+00 0.635D+00
 Gap=     0.266 Goal=   None    Shift=    0.000
 RMSDP=2.17D-07 MaxDP=9.64D-06 DE=-3.97D-09 OVMax= 2.08D-05

 Cycle  11  Pass 1  IDiag  1:
 RMSU=  1.04D-07    CP:  9.89D-01  7.79D-01  9.77D-01  6.81D-01  9.28D-01
                    CP:  1.03D+00  1.16D+00  8.42D-01  1.16D+00  8.16D-01
 E= -870.348460469038     Delta-E=       -0.000000002199 Rises=F Damp=F
 DIIS: error= 8.09D-07 at cycle  11 NSaved=  11.
 NSaved=11 IEnMin=11 EnMin= -870.348460469038     IErMin=11 ErrMin= 8.09D-07
 ErrMax= 8.09D-07  0.00D+00 EMaxC= 1.00D-01 BMatC= 7.91D-11 BMatP= 2.22D-09
 IDIUse=1 WtCom= 1.00D+00 WtEn= 0.00D+00
 Coeff-Com: -0.136D-04 0.269D-04 0.200D-03 0.332D-03 0.739D-03-0.197D-02
 Coeff-Com: -0.183D-01-0.242D-01 0.433D-01 0.175D+00 0.825D+00
 Coeff:     -0.136D-04 0.269D-04 0.200D-03 0.332D-03 0.739D-03-0.197D-02
 Coeff:     -0.183D-01-0.242D-01 0.433D-01 0.175D+00 0.825D+00
 Gap=     0.266 Goal=   None    Shift=    0.000
 RMSDP=5.24D-08 MaxDP=2.15D-06 DE=-2.20D-09 OVMax= 5.61D-06

 Cycle  12  Pass 1  IDiag  1:
 RMSU=  2.70D-08    CP:  9.89D-01  7.79D-01  9.77D-01  6.81D-01  9.28D-01
                    CP:  1.03D+00  1.16D+00  8.47D-01  1.19D+00  9.14D-01
                    CP:  1.08D+00
 E= -870.348460469168     Delta-E=       -0.000000000130 Rises=F Damp=F
 DIIS: error= 2.17D-07 at cycle  12 NSaved=  12.
 NSaved=12 IEnMin=12 EnMin= -870.348460469168     IErMin=12 ErrMin= 2.17D-07
 ErrMax= 2.17D-07  0.00D+00 EMaxC= 1.00D-01 BMatC= 7.92D-12 BMatP= 7.91D-11
 IDIUse=1 WtCom= 1.00D+00 WtEn= 0.00D+00
 Coeff-Com:  0.455D-06-0.114D-05 0.114D-04 0.224D-04 0.148D-03 0.419D-03
 Coeff-Com:  0.783D-05-0.266D-02-0.362D-01-0.325D-01 0.202D+00 0.869D+00
 Coeff:      0.455D-06-0.114D-05 0.114D-04 0.224D-04 0.148D-03 0.419D-03
 Coeff:      0.783D-05-0.266D-02-0.362D-01-0.325D-01 0.202D+00 0.869D+00
 Gap=     0.266 Goal=   None    Shift=    0.000
 RMSDP=1.84D-08 MaxDP=6.31D-07 DE=-1.30D-10 OVMax= 1.71D-06

 Cycle  13  Pass 1  IDiag  1:
 RMSU=  1.18D-08    CP:  9.89D-01  7.79D-01  9.77D-01  6.81D-01  9.28D-01
                    CP:  1.03D+00  1.16D+00  8.48D-01  1.20D+00  9.28D-01
                    CP:  1.19D+00  1.06D+00
 E= -870.348460469181     Delta-E=       -0.000000000013 Rises=F Damp=F
 DIIS: error= 5.04D-08 at cycle  13 NSaved=  13.
 NSaved=13 IEnMin=13 EnMin= -870.348460469181     IErMin=13 ErrMin= 5.04D-08
 ErrMax= 5.04D-08  0.00D+00 EMaxC= 1.00D-01 BMatC= 5.14D-13 BMatP= 7.92D-12
 IDIUse=1 WtCom= 1.00D+00 WtEn= 0.00D+00
 Coeff-Com:  0.105D-05-0.206D-05-0.983D-05-0.167D-04-0.140D-04 0.214D-03
 Coeff-Com:  0.126D-02 0.107D-02-0.113D-01-0.211D-01-0.100D-01 0.226D+00
 Coeff-Com:  0.814D+00
 Coeff:      0.105D-05-0.206D-05-0.983D-05-0.167D-04-0.140D-04 0.214D-03
 Coeff:      0.126D-02 0.107D-02-0.113D-01-0.211D-01-0.100D-01 0.226D+00
 Coeff:      0.814D+00
 Gap=     0.266 Goal=   None    Shift=    0.000
 RMSDP=4.38D-09 MaxDP=1.04D-07 DE=-1.27D-11 OVMax= 4.34D-07

 SCF Done:  E(RM062X) =  -870.348460469     A.U. after   13 cycles
            NFock= 13  Conv=0.44D-08     -V/T= 2.0032
 KE= 8.675393706278D+02 PE=-3.349321975907D+03 EE= 9.640098174602D+02
 Leave Link  502 at Fri Feb 17 21:49:12 2023, MaxMem=  6710886400 cpu:             577.6 elap:              24.2
 (Enter /data0/home/software/g16/l601.exe)
 Copying SCF densities to generalized density rwf, IOpCl= 0 IROHF=0.

 **********************************************************************

            Population analysis using the SCF density.

 **********************************************************************

 Alpha  occ. eigenvalues --  -78.16629 -19.68245 -19.67840 -19.67173 -19.58803
 Alpha  occ. eigenvalues --  -14.80904 -14.73248 -10.59868 -10.57358 -10.55685
 Alpha  occ. eigenvalues --   -6.97391  -5.09283  -5.09271  -5.09119  -1.23900
 Alpha  occ. eigenvalues --   -1.16459  -1.15969  -1.11275  -1.09058  -0.96521
 Alpha  occ. eigenvalues --   -0.83293  -0.72544  -0.69658  -0.66620  -0.64813
 Alpha  occ. eigenvalues --   -0.63642  -0.63405  -0.56791  -0.54271  -0.50933
 Alpha  occ. eigenvalues --   -0.50864  -0.50465  -0.49736  -0.48426  -0.47698
 Alpha  occ. eigenvalues --   -0.47300  -0.45504  -0.42489  -0.38585  -0.38154
 Alpha  occ. eigenvalues --   -0.34362  -0.34002  -0.28019
 Alpha virt. eigenvalues --   -0.01411   0.00586   0.02036   0.02375   0.02984
 Alpha virt. eigenvalues --    0.04214   0.04775   0.05298   0.06331   0.06974
 Alpha virt. eigenvalues --    0.07767   0.08244   0.08607   0.09796   0.10106
 Alpha virt. eigenvalues --    0.11100   0.12067   0.13318   0.13598   0.14358
 Alpha virt. eigenvalues --    0.14856   0.15303   0.16713   0.17710   0.18862
 Alpha virt. eigenvalues --    0.19432   0.20371   0.20518   0.21094   0.21451
 Alpha virt. eigenvalues --    0.22235   0.22388   0.22816   0.23493   0.24002
 Alpha virt. eigenvalues --    0.24959   0.25408   0.25930   0.26830   0.27286
 Alpha virt. eigenvalues --    0.27925   0.28337   0.28609   0.29105   0.30217
 Alpha virt. eigenvalues --    0.30681   0.31702   0.32068   0.32749   0.33810
 Alpha virt. eigenvalues --    0.35113   0.37021   0.37889   0.38693   0.40652
 Alpha virt. eigenvalues --    0.40934   0.42551   0.43783   0.44802   0.46427
 Alpha virt. eigenvalues --    0.47249   0.48304   0.49882   0.50876   0.54740
 Alpha virt. eigenvalues --    0.56155   0.56617   0.57917   0.57990   0.59664
 Alpha virt. eigenvalues --    0.62240   0.63525   0.64462   0.66656   0.67343
 Alpha virt. eigenvalues --    0.71796   0.73602   0.75022   0.76547   0.77087
 Alpha virt. eigenvalues --    0.78278   0.78554   0.79256   0.79810   0.82262
 Alpha virt. eigenvalues --    0.83090   0.85288   0.87951   0.88651   0.89920
 Alpha virt. eigenvalues --    0.92033   0.93731   0.95586   0.97571   0.98285
 Alpha virt. eigenvalues --    0.99747   1.01545   1.02637   1.02909   1.06428
 Alpha virt. eigenvalues --    1.07869   1.08243   1.11709   1.13043   1.14483
 Alpha virt. eigenvalues --    1.15344   1.17842   1.18121   1.20143   1.22014
 Alpha virt. eigenvalues --    1.22689   1.24839   1.25722   1.26918   1.28710
 Alpha virt. eigenvalues --    1.29248   1.30496   1.33983   1.35664   1.38163
 Alpha virt. eigenvalues --    1.38485   1.39486   1.40264   1.41584   1.42841
 Alpha virt. eigenvalues --    1.45119   1.45412   1.46560   1.47702   1.48006
 Alpha virt. eigenvalues --    1.50787   1.53139   1.55781   1.58089   1.60761
 Alpha virt. eigenvalues --    1.60836   1.64494   1.66035   1.67639   1.69656
 Alpha virt. eigenvalues --    1.70478   1.71353   1.73743   1.75088   1.77462
 Alpha virt. eigenvalues --    1.78624   1.80812   1.82943   1.83726   1.84953
 Alpha virt. eigenvalues --    1.86545   1.88741   1.90893   1.92952   1.94895
 Alpha virt. eigenvalues --    1.96717   2.02103   2.03792   2.04537   2.06221
 Alpha virt. eigenvalues --    2.07023   2.12459   2.14950   2.15325   2.21940
 Alpha virt. eigenvalues --    2.23436   2.24909   2.27911   2.31685   2.37642
 Alpha virt. eigenvalues --    2.41302   2.46021   2.46571   2.49136   2.52193
 Alpha virt. eigenvalues --    2.60493   2.62343   2.64951   2.65845   2.71263
 Alpha virt. eigenvalues --    2.71802   2.76732   2.79100   2.79632   2.83303
 Alpha virt. eigenvalues --    2.84015   2.85284   2.87003   2.90212   2.95983
 Alpha virt. eigenvalues --    2.96725   2.98174   2.98470   3.10639   3.19336
 Alpha virt. eigenvalues --    3.22860   3.28495   3.34735   3.36721   3.38891
 Alpha virt. eigenvalues --    3.42181   3.43043   3.44287   3.47494   3.53111
 Alpha virt. eigenvalues --    3.57453   3.57972   3.62607   3.66172   3.70129
 Alpha virt. eigenvalues --    3.73593   3.96923   3.98066   3.99106   4.00192
 Alpha virt. eigenvalues --    4.06448   4.48790   4.60970   4.90617   4.96476
 Alpha virt. eigenvalues --    4.98157   5.01861   5.02702   5.04080   5.05405
 Alpha virt. eigenvalues --    5.06589   5.08616   5.10482   5.11808   5.12473
 Alpha virt. eigenvalues --    5.17564   5.22371   5.23160   5.25809   5.29451
 Alpha virt. eigenvalues --    5.34492   5.38316   5.42419   5.46958   5.51309
 Alpha virt. eigenvalues --    5.53452   5.54679   5.60677   6.71732   6.75139
 Alpha virt. eigenvalues --    6.77359   6.78307   6.78839   6.81002   6.83971
 Alpha virt. eigenvalues --    6.87662   6.90356   6.94617   6.95781   6.97158
 Alpha virt. eigenvalues --    7.01119   7.07534   7.11218   7.22435   7.27804
 Alpha virt. eigenvalues --    7.29398   7.33592   7.41913   7.66208  14.24131
 Alpha virt. eigenvalues --   14.26011  14.36245  23.90913  24.10474  24.13919
 Alpha virt. eigenvalues --   35.65136  35.70414  50.00418  50.01316  50.02382
 Alpha virt. eigenvalues --   50.10307 163.89812
          Condensed to atoms (all electrons):
               1          2          3          4          5          6
     1  C    5.443154   0.302809  -0.432678   0.470574  -0.052677   0.380040
     2  C    0.302809   5.256948  -0.066864  -0.190316   0.025719  -0.000197
     3  C   -0.432678  -0.066864   5.856517   0.143657  -0.007535   0.012145
     4  N    0.470574  -0.190316   0.143657   6.433023   0.372323  -0.034173
     5  H   -0.052677   0.025719  -0.007535   0.372323   0.396910  -0.002026
     6  H    0.380040  -0.000197   0.012145  -0.034173  -0.002026   0.507084
     7  H   -0.060935   0.434646   0.016733   0.006780  -0.000032   0.000008
     8  H    0.000611   0.021396   0.416845  -0.041751  -0.000243  -0.000034
     9  N    0.040399   0.266759   0.240307   0.022858   0.000263   0.002493
    10  P    0.012459   0.000910  -0.066613   0.019411  -0.001228  -0.000088
    11  O   -0.007956  -0.003067   0.043777  -0.009807   0.001344   0.000030
    12  O   -0.000668  -0.000148  -0.000707  -0.000716  -0.000001   0.000001
    13  H    0.001509  -0.000677  -0.010990   0.000995  -0.000021  -0.000001
    14  O   -0.008341   0.003041   0.024829  -0.004643   0.000247   0.000018
    15  H    0.001197   0.004635  -0.010366   0.001249  -0.000059  -0.000002
    16  O    0.000302   0.000245  -0.000001  -0.000324   0.000001  -0.000000
    17  H   -0.000088  -0.000015   0.000636  -0.000022  -0.000000  -0.000000
               7          8          9         10         11         12
     1  C   -0.060935   0.000611   0.040399   0.012459  -0.007956  -0.000668
     2  C    0.434646   0.021396   0.266759   0.000910  -0.003067  -0.000148
     3  C    0.016733   0.416845   0.240307  -0.066613   0.043777  -0.000707
     4  N    0.006780  -0.041751   0.022858   0.019411  -0.009807  -0.000716
     5  H   -0.000032  -0.000243   0.000263  -0.001228   0.001344  -0.000001
     6  H    0.000008  -0.000034   0.002493  -0.000088   0.000030   0.000001
     7  H    0.529786   0.000020  -0.050921  -0.000121   0.000031   0.000022
     8  H    0.000020   0.474760  -0.045711   0.000986  -0.006423  -0.000244
     9  N   -0.050921  -0.045711   6.767804   0.022230  -0.019052  -0.005600
    10  P   -0.000121   0.000986   0.022230  12.482674   0.504862   0.255170
    11  O    0.000031  -0.006423  -0.019052   0.504862   8.201753  -0.018819
    12  O    0.000022  -0.000244  -0.005600   0.255170  -0.018819   8.036510
    13  H   -0.000004  -0.000066   0.006384   0.017138  -0.016066   0.257910
    14  O    0.000028   0.000001  -0.003006   0.302125  -0.037810   0.020539
    15  H   -0.000007   0.000094   0.000705   0.001783  -0.017483   0.004369
    16  O   -0.000001  -0.000029   0.000268   0.193429   0.007713  -0.007120
    17  H    0.000000  -0.000008  -0.000074   0.037667  -0.002276  -0.011635
              13         14         15         16         17
     1  C    0.001509  -0.008341   0.001197   0.000302  -0.000088
     2  C   -0.000677   0.003041   0.004635   0.000245  -0.000015
     3  C   -0.010990   0.024829  -0.010366  -0.000001   0.000636
     4  N    0.000995  -0.004643   0.001249  -0.000324  -0.000022
     5  H   -0.000021   0.000247  -0.000059   0.000001  -0.000000
     6  H   -0.000001   0.000018  -0.000002  -0.000000  -0.000000
     7  H   -0.000004   0.000028  -0.000007  -0.000001   0.000000
     8  H   -0.000066   0.000001   0.000094  -0.000029  -0.000008
     9  N    0.006384  -0.003006   0.000705   0.000268  -0.000074
    10  P    0.017138   0.302125   0.001783   0.193429   0.037667
    11  O   -0.016066  -0.037810  -0.017483   0.007713  -0.002276
    12  O    0.257910   0.020539   0.004369  -0.007120  -0.011635
    13  H    0.404450  -0.010799   0.000630   0.002343   0.001585
    14  O   -0.010799   7.980449   0.281126   0.004894  -0.008301
    15  H    0.000630   0.281126   0.392088  -0.002375   0.000908
    16  O    0.002343   0.004894  -0.002375   8.059432   0.221306
    17  H    0.001585  -0.008301   0.000908   0.221306   0.455642
 Mulliken charges:
               1
     1  C   -0.089710
     2  C   -0.055824
     3  C   -0.159691
     4  N   -0.189119
     5  H    0.267016
     6  H    0.134703
     7  H    0.123965
     8  H    0.179796
     9  N   -0.246107
    10  P    1.217207
    11  O   -0.620752
    12  O   -0.528865
    13  H    0.345680
    14  O   -0.544398
    15  H    0.341506
    16  O   -0.480081
    17  H    0.304675
 Sum of Mulliken charges =  -0.00000
 Mulliken charges with hydrogens summed into heavy atoms:
               1
     1  C    0.044993
     2  C    0.068141
     3  C    0.020104
     4  N    0.077897
     9  N   -0.246107
    10  P    1.217207
    11  O   -0.620752
    12  O   -0.183185
    14  O   -0.202892
    16  O   -0.175405
         Mulliken charges condensed to fragments:
      1     -0.034973
      2      0.034973
 Electronic spatial extent (au):  <R**2>=          83587.7152
 Charge=             -0.0000 electrons
 Dipole moment (field-independent basis, Debye):
    X=              0.4538    Y=             -0.5009    Z=             -2.8714  Tot=              2.9498
 Quadrupole moment (field-independent basis, Debye-Ang):
   XX=            -48.3626   YY=            -78.5415   ZZ=           -132.8945
   XY=              4.2316   XZ=             -7.0898   YZ=            -25.2878
 Traceless Quadrupole moment (field-independent basis, Debye-Ang):
   XX=             38.2369   YY=              8.0580   ZZ=            -46.2949
   XY=              4.2316   XZ=             -7.0898   YZ=            -25.2878
 Octapole moment (field-independent basis, Debye-Ang**2):
  XXX=           -991.7133  YYY=          -1778.7378  ZZZ=          -3663.2570  XYY=           -391.4706
  XXY=           -327.8221  XXZ=           -669.5746  XZZ=           -644.2734  YZZ=          -1036.2802
  YYZ=          -1125.4616  XYZ=            -38.1898
 Hexadecapole moment (field-independent basis, Debye-Ang**3):
 XXXX=         -13986.1878 YYYY=         -29232.0455 ZZZZ=         -81291.4480 XXXY=          -7398.9941
 XXXZ=         -12851.8553 YYYX=         -10347.8770 YYYZ=         -23515.8550 ZZZX=         -20159.2869
 ZZZY=         -28232.6828 XXYY=          -5141.9869 XXZZ=         -11961.6194 YYZZ=         -19981.1904
 XXYZ=          -4647.3429 YYXZ=          -5680.8831 ZZXY=          -4900.3153
 N-N= 6.474243273496D+02 E-N=-3.349321985068D+03  KE= 8.675393706278D+02
 No NMR shielding tensors so no spin-rotation constants.
 Leave Link  601 at Fri Feb 17 21:49:13 2023, MaxMem=  6710886400 cpu:               2.4 elap:               0.1
 (Enter /data0/home/software/g16/l122.exe)
 CPIOFr:  IOpCl= 0 IRwI=-1 IRwCP=  731 ICalc= -1 LCPTot=      158204 Len1MO=      416108 IndFrg=      158204
 CPIOFr:  IOpCl= 0 IRwI=-1 IRwCP=  731 ICalc=  0 LCPTot=      158204 Len1MO=      416108 IndFrg=      574312
 Counterpoise: doing calculation for fragment   1 using the basis set of the full-system, NewBq=T
 Leave Link  122 at Fri Feb 17 21:49:13 2023, MaxMem=  6710886400 cpu:               0.2 elap:               0.0
 (Enter /data0/home/software/g16/l301.exe)
 Basis read from rwf:  (5D, 7F)
 No pseudopotential information found on rwf file.
   320 basis functions,   490 primitive gaussians,   340 cartesian basis functions
    18 alpha electrons       18 beta electrons
       nuclear repulsion energy       160.9616343537 Hartrees.
 IExCor= 4336 DFT=T Ex+Corr=M062X ExCW=0 ScaHFX=  0.540000
 ScaDFX=  1.000000  1.000000  1.000000  1.000000 ScalE2=  1.000000  1.000000
 IRadAn=      5 IRanWt=     -1 IRanGd=            0 ICorTp=0 IEmpDi=131
 NAtoms=   17 NActive=   17 NUniq=   17 SFac= 1.00D+00 NAtFMM=   60 NAOKFM=F Big=F
 Integral buffers will be    131072 words long.
 Raffenetti 2 integral format.
 Two-electron integral symmetry is turned off.
 R6Disp:  Grimme-D3 Dispersion energy=       -0.0000418210 Hartrees.
 Nuclear repulsion after empirical dispersion term =      160.9615925326 Hartrees.
 No density basis found on file   718.
 Leave Link  301 at Fri Feb 17 21:49:13 2023, MaxMem=  6710886400 cpu:               1.2 elap:               0.1
 (Enter /data0/home/software/g16/l302.exe)
 NPDir=0 NMtPBC=     1 NCelOv=     1 NCel=       1 NClECP=     1 NCelD=      1
         NCelK=      1 NCelE2=     1 NClLst=     1 CellRange=     0.0.
 One-electron integrals computed using PRISM.
 NBasis=   320 RedAO= T EigKep=  5.16D-05  NBF=   320
 NBsUse=   320 1.00D-06 EigRej= -1.00D+00 NBFU=   320
 Precomputing XC quadrature grid using
 IXCGrd= 4 IRadAn=           5 IRanWt=          -1 IRanGd=           0 AccXCQ= 0.00D+00.
 Generated NRdTot=       0 NPtTot=           0 NUsed=           0 NTot=          32
 NSgBfM=   340   340   340   340   340 MxSgAt=    17 MxSgA2=    17.
 Leave Link  302 at Fri Feb 17 21:49:13 2023, MaxMem=  6710886400 cpu:               5.0 elap:               0.2
 (Enter /data0/home/software/g16/l303.exe)
 DipDrv:  MaxL=1.
 Leave Link  303 at Fri Feb 17 21:49:13 2023, MaxMem=  6710886400 cpu:               0.7 elap:               0.0
 (Enter /data0/home/software/g16/l401.exe)
 ExpMin= 3.48D-02 ExpMax= 7.75D+04 ExpMxC= 2.65D+03 IAcc=3 IRadAn=         5 AccDes= 0.00D+00
 Harris functional with IExCor= 1009 and IRadAn=       5 diagonalized for initial guess.
 HarFok:  IExCor= 1009 AccDes= 0.00D+00 IRadAn=         5 IDoV= 1 UseB2=F ITyADJ=14
 ICtDFT=  3500011 ScaDFX=  1.000000  1.000000  1.000000  1.000000
 FoFCou: FMM=F IPFlag=           0 FMFlag=      100000 FMFlg1=           0
         NFxFlg=           0 DoJE=T BraDBF=F KetDBF=T FulRan=T
         wScrn=  0.000000 ICntrl=       500 IOpCl=  0 I1Cent=   200000004 NGrid=           0
         NMat0=    1 NMatS0=      1 NMatT0=    0 NMatD0=    1 NMtDS0=    0 NMtDT0=    0
 Symmetry not used in FoFCou.
 Harris En= -226.053773939455    
 JPrj=0 DoOrth=F DoCkMO=F.
 Leave Link  401 at Fri Feb 17 21:49:14 2023, MaxMem=  6710886400 cpu:              16.2 elap:               0.7
 (Enter /data0/home/software/g16/l502.exe)
 Two-electron integral symmetry not used.
 Closed shell SCF:
 Using DIIS extrapolation, IDIIS=  1040.
 NGot=  6710886400 LenX=  6710644641 LenY=  6710528600
 Requested convergence on RMS density matrix=1.00D-08 within 128 cycles.
 Requested convergence on MAX density matrix=1.00D-06.
 Requested convergence on             energy=1.00D-06.
 No special actions if energy rises.
 Fock matrices will be formed incrementally for  20 cycles.

 Cycle   1  Pass 1  IDiag  1:
 FoFJK:  IHMeth= 1 ICntrl=       0 DoSepK=F KAlg= 0 I1Cent=           0 FoldK=F
 IRaf= 880000000 NMat=       1 IRICut=       1 DoRegI=T DoRafI=F ISym2E= 0 IDoP0=0 IntGTp=1.
 FoFCou: FMM=F IPFlag=           0 FMFlag=      100000 FMFlg1=           0
         NFxFlg=           0 DoJE=F BraDBF=F KetDBF=F FulRan=T
         wScrn=  0.000000 ICntrl=         0 IOpCl=  0 I1Cent=           0 NGrid=           0
         NMat0=    1 NMatS0=      1 NMatT0=    0 NMatD0=    1 NMtDS0=    0 NMtDT0=    0
 Symmetry not used in FoFCou.
 E= -226.086845689506    
 DIIS: error= 1.83D-02 at cycle   1 NSaved=   1.
 NSaved= 1 IEnMin= 1 EnMin= -226.086845689506     IErMin= 1 ErrMin= 1.83D-02
 ErrMax= 1.83D-02  0.00D+00 EMaxC= 1.00D-01 BMatC= 1.33D-01 BMatP= 1.33D-01
 IDIUse=3 WtCom= 8.17D-01 WtEn= 1.83D-01
 Coeff-Com:  0.100D+01
 Coeff-En:   0.100D+01
 Coeff:      0.100D+01
 Gap=     0.309 Goal=   None    Shift=    0.000
 GapD=    0.309 DampG=1.000 DampE=0.500 DampFc=0.5000 IDamp=-1.
 Damping current iteration by 5.00D-01
 RMSDP=3.14D-03 MaxDP=2.23D-01              OVMax= 1.74D-01

 Cycle   2  Pass 1  IDiag  1:
 RMSU=  1.57D-03    CP:  1.01D+00
 E= -226.134179604144     Delta-E=       -0.047333914638 Rises=F Damp=T
 DIIS: error= 5.99D-03 at cycle   2 NSaved=   2.
 NSaved= 2 IEnMin= 2 EnMin= -226.134179604144     IErMin= 2 ErrMin= 5.99D-03
 ErrMax= 5.99D-03  0.00D+00 EMaxC= 1.00D-01 BMatC= 1.57D-02 BMatP= 1.33D-01
 IDIUse=3 WtCom= 9.40D-01 WtEn= 5.99D-02
 Coeff-Com: -0.936D-01 0.109D+01
 Coeff-En:   0.000D+00 0.100D+01
 Coeff:     -0.880D-01 0.109D+01
 Gap=     0.289 Goal=   None    Shift=    0.000
 RMSDP=8.72D-04 MaxDP=6.79D-02 DE=-4.73D-02 OVMax= 1.15D-01

 Cycle   3  Pass 1  IDiag  1:
 RMSU=  6.58D-04    CP:  9.90D-01  6.43D-01
 E= -226.179137017003     Delta-E=       -0.044957412859 Rises=F Damp=F
 DIIS: error= 6.76D-03 at cycle   3 NSaved=   3.
 NSaved= 3 IEnMin= 3 EnMin= -226.179137017003     IErMin= 2 ErrMin= 5.99D-03
 ErrMax= 6.76D-03  0.00D+00 EMaxC= 1.00D-01 BMatC= 1.04D-02 BMatP= 1.57D-02
 IDIUse=3 WtCom= 9.32D-01 WtEn= 6.76D-02
 Coeff-Com: -0.152D+00 0.541D+00 0.611D+00
 Coeff-En:   0.000D+00 0.000D+00 0.100D+01
 Coeff:     -0.141D+00 0.505D+00 0.637D+00
 Gap=     0.292 Goal=   None    Shift=    0.000
 RMSDP=3.30D-04 MaxDP=1.42D-02 DE=-4.50D-02 OVMax= 4.37D-02

 Cycle   4  Pass 1  IDiag  1:
 RMSU=  2.40D-04    CP:  9.91D-01  7.77D-01  8.74D-01
 E= -226.186917939449     Delta-E=       -0.007780922446 Rises=F Damp=F
 DIIS: error= 2.05D-03 at cycle   4 NSaved=   4.
 NSaved= 4 IEnMin= 4 EnMin= -226.186917939449     IErMin= 4 ErrMin= 2.05D-03
 ErrMax= 2.05D-03  0.00D+00 EMaxC= 1.00D-01 BMatC= 1.50D-03 BMatP= 1.04D-02
 IDIUse=3 WtCom= 9.79D-01 WtEn= 2.05D-02
 Coeff-Com: -0.640D-01 0.159D+00 0.340D+00 0.565D+00
 Coeff-En:   0.000D+00 0.000D+00 0.899D-01 0.910D+00
 Coeff:     -0.626D-01 0.155D+00 0.335D+00 0.572D+00
 Gap=     0.286 Goal=   None    Shift=    0.000
 RMSDP=1.32D-04 MaxDP=6.79D-03 DE=-7.78D-03 OVMax= 1.07D-02

 Cycle   5  Pass 1  IDiag  1:
 RMSU=  6.72D-05    CP:  9.88D-01  7.22D-01  9.29D-01  7.39D-01
 E= -226.188192317613     Delta-E=       -0.001274378164 Rises=F Damp=F
 DIIS: error= 3.41D-04 at cycle   5 NSaved=   5.
 NSaved= 5 IEnMin= 5 EnMin= -226.188192317613     IErMin= 5 ErrMin= 3.41D-04
 ErrMax= 3.41D-04  0.00D+00 EMaxC= 1.00D-01 BMatC= 2.63D-05 BMatP= 1.50D-03
 IDIUse=3 WtCom= 9.97D-01 WtEn= 3.41D-03
 Coeff-Com: -0.152D-01 0.303D-01 0.844D-01 0.198D+00 0.703D+00
 Coeff-En:   0.000D+00 0.000D+00 0.000D+00 0.000D+00 0.100D+01
 Coeff:     -0.152D-01 0.302D-01 0.841D-01 0.197D+00 0.704D+00
 Gap=     0.285 Goal=   None    Shift=    0.000
 RMSDP=1.68D-05 MaxDP=8.36D-04 DE=-1.27D-03 OVMax= 2.24D-03

 Cycle   6  Pass 1  IDiag  1:
 RMSU=  1.52D-05    CP:  9.88D-01  7.21D-01  9.36D-01  7.49D-01  9.36D-01
 E= -226.188212931150     Delta-E=       -0.000020613537 Rises=F Damp=F
 DIIS: error= 1.52D-04 at cycle   6 NSaved=   6.
 NSaved= 6 IEnMin= 6 EnMin= -226.188212931150     IErMin= 6 ErrMin= 1.52D-04
 ErrMax= 1.52D-04  0.00D+00 EMaxC= 1.00D-01 BMatC= 4.40D-06 BMatP= 2.63D-05
 IDIUse=3 WtCom= 9.98D-01 WtEn= 1.52D-03
 Coeff-Com: -0.399D-02 0.599D-02 0.231D-01 0.637D-01 0.351D+00 0.561D+00
 Coeff-En:   0.000D+00 0.000D+00 0.000D+00 0.000D+00 0.218D-01 0.978D+00
 Coeff:     -0.399D-02 0.598D-02 0.231D-01 0.636D-01 0.350D+00 0.561D+00
 Gap=     0.286 Goal=   None    Shift=    0.000
 RMSDP=1.02D-05 MaxDP=6.03D-04 DE=-2.06D-05 OVMax= 9.48D-04

 Cycle   7  Pass 1  IDiag  1:
 RMSU=  5.55D-06    CP:  9.88D-01  7.16D-01  9.39D-01  7.50D-01  9.82D-01
                    CP:  9.78D-01
 E= -226.188217039977     Delta-E=       -0.000004108827 Rises=F Damp=F
 DIIS: error= 1.84D-05 at cycle   7 NSaved=   7.
 NSaved= 7 IEnMin= 7 EnMin= -226.188217039977     IErMin= 7 ErrMin= 1.84D-05
 ErrMax= 1.84D-05  0.00D+00 EMaxC= 1.00D-01 BMatC= 1.53D-07 BMatP= 4.40D-06
 IDIUse=1 WtCom= 1.00D+00 WtEn= 0.00D+00
 Coeff-Com:  0.187D-02-0.398D-02-0.852D-02-0.219D-01-0.530D-01 0.804D-01
 Coeff-Com:  0.101D+01
 Coeff:      0.187D-02-0.398D-02-0.852D-02-0.219D-01-0.530D-01 0.804D-01
 Coeff:      0.101D+01
 Gap=     0.286 Goal=   None    Shift=    0.000
 RMSDP=6.16D-06 MaxDP=3.65D-04 DE=-4.11D-06 OVMax= 2.34D-04

 Cycle   8  Pass 1  IDiag  1:
 RMSU=  1.29D-06    CP:  9.88D-01  7.13D-01  9.41D-01  7.48D-01  1.01D+00
                    CP:  1.13D+00  1.16D+00
 E= -226.188217262570     Delta-E=       -0.000000222593 Rises=F Damp=F
 DIIS: error= 8.69D-06 at cycle   8 NSaved=   8.
 NSaved= 8 IEnMin= 8 EnMin= -226.188217262570     IErMin= 8 ErrMin= 8.69D-06
 ErrMax= 8.69D-06  0.00D+00 EMaxC= 1.00D-01 BMatC= 1.35D-08 BMatP= 1.53D-07
 IDIUse=1 WtCom= 1.00D+00 WtEn= 0.00D+00
 Coeff-Com:  0.736D-03-0.150D-02-0.317D-02-0.907D-02-0.256D-01 0.130D-01
 Coeff-Com:  0.347D+00 0.678D+00
 Coeff:      0.736D-03-0.150D-02-0.317D-02-0.907D-02-0.256D-01 0.130D-01
 Coeff:      0.347D+00 0.678D+00
 Gap=     0.286 Goal=   None    Shift=    0.000
 RMSDP=6.27D-07 MaxDP=3.10D-05 DE=-2.23D-07 OVMax= 5.44D-05

 Cycle   9  Pass 1  IDiag  1:
 RMSU=  3.43D-07    CP:  9.88D-01  7.13D-01  9.42D-01  7.47D-01  1.01D+00
                    CP:  1.13D+00  1.20D+00  1.08D+00
 E= -226.188217275112     Delta-E=       -0.000000012542 Rises=F Damp=F
 DIIS: error= 3.51D-06 at cycle   9 NSaved=   9.
 NSaved= 9 IEnMin= 9 EnMin= -226.188217275112     IErMin= 9 ErrMin= 3.51D-06
 ErrMax= 3.51D-06  0.00D+00 EMaxC= 1.00D-01 BMatC= 3.03D-09 BMatP= 1.35D-08
 IDIUse=1 WtCom= 1.00D+00 WtEn= 0.00D+00
 Coeff-Com: -0.108D-03 0.240D-03 0.710D-03 0.105D-02 0.119D-02-0.133D-01
 Coeff-Com: -0.854D-01 0.300D+00 0.796D+00
 Coeff:     -0.108D-03 0.240D-03 0.710D-03 0.105D-02 0.119D-02-0.133D-01
 Coeff:     -0.854D-01 0.300D+00 0.796D+00
 Gap=     0.286 Goal=   None    Shift=    0.000
 RMSDP=2.66D-07 MaxDP=1.36D-05 DE=-1.25D-08 OVMax= 2.05D-05

 Cycle  10  Pass 1  IDiag  1:
 RMSU=  1.23D-07    CP:  9.88D-01  7.12D-01  9.42D-01  7.47D-01  1.01D+00
                    CP:  1.14D+00  1.21D+00  1.21D+00  1.02D+00
 E= -226.188217278168     Delta-E=       -0.000000003056 Rises=F Damp=F
 DIIS: error= 4.11D-07 at cycle  10 NSaved=  10.
 NSaved=10 IEnMin=10 EnMin= -226.188217278168     IErMin=10 ErrMin= 4.11D-07
 ErrMax= 4.11D-07  0.00D+00 EMaxC= 1.00D-01 BMatC= 6.51D-11 BMatP= 3.03D-09
 IDIUse=1 WtCom= 1.00D+00 WtEn= 0.00D+00
 Coeff-Com: -0.473D-04 0.102D-03 0.276D-03 0.535D-03 0.132D-02-0.185D-02
 Coeff-Com: -0.292D-01 0.152D-01 0.960D-01 0.918D+00
 Coeff:     -0.473D-04 0.102D-03 0.276D-03 0.535D-03 0.132D-02-0.185D-02
 Coeff:     -0.292D-01 0.152D-01 0.960D-01 0.918D+00
 Gap=     0.286 Goal=   None    Shift=    0.000
 RMSDP=4.31D-08 MaxDP=2.00D-06 DE=-3.06D-09 OVMax= 4.42D-06

 Cycle  11  Pass 1  IDiag  1:
 RMSU=  2.47D-08    CP:  9.88D-01  7.12D-01  9.42D-01  7.47D-01  1.01D+00
                    CP:  1.14D+00  1.21D+00  1.22D+00  1.06D+00  1.12D+00
 E= -226.188217278231     Delta-E=       -0.000000000063 Rises=F Damp=F
 DIIS: error= 3.21D-07 at cycle  11 NSaved=  11.
 NSaved=11 IEnMin=11 EnMin= -226.188217278231     IErMin=11 ErrMin= 3.21D-07
 ErrMax= 3.21D-07  0.00D+00 EMaxC= 1.00D-01 BMatC= 1.60D-11 BMatP= 6.51D-11
 IDIUse=1 WtCom= 1.00D+00 WtEn= 0.00D+00
 Coeff-Com: -0.675D-05 0.141D-04 0.465D-04 0.916D-04 0.337D-03 0.437D-03
 Coeff-Com: -0.441D-02-0.168D-01-0.317D-01 0.395D+00 0.657D+00
 Coeff:     -0.675D-05 0.141D-04 0.465D-04 0.916D-04 0.337D-03 0.437D-03
 Coeff:     -0.441D-02-0.168D-01-0.317D-01 0.395D+00 0.657D+00
 Gap=     0.286 Goal=   None    Shift=    0.000
 RMSDP=1.41D-08 MaxDP=7.05D-07 DE=-6.28D-11 OVMax= 1.88D-06

 Cycle  12  Pass 1  IDiag  1:
 RMSU=  1.04D-08    CP:  9.88D-01  7.12D-01  9.42D-01  7.47D-01  1.01D+00
                    CP:  1.14D+00  1.21D+00  1.23D+00  1.07D+00  1.16D+00
                    CP:  9.23D-01
 E= -226.188217278253     Delta-E=       -0.000000000022 Rises=F Damp=F
 DIIS: error= 1.00D-07 at cycle  12 NSaved=  12.
 NSaved=12 IEnMin=12 EnMin= -226.188217278253     IErMin=12 ErrMin= 1.00D-07
 ErrMax= 1.00D-07  0.00D+00 EMaxC= 1.00D-01 BMatC= 1.75D-12 BMatP= 1.60D-11
 IDIUse=1 WtCom= 1.00D+00 WtEn= 0.00D+00
 Coeff-Com:  0.354D-05-0.762D-05-0.150D-04-0.311D-04-0.251D-04 0.435D-03
 Coeff-Com:  0.202D-02-0.671D-02-0.260D-01 0.221D-02 0.256D+00 0.772D+00
 Coeff:      0.354D-05-0.762D-05-0.150D-04-0.311D-04-0.251D-04 0.435D-03
 Coeff:      0.202D-02-0.671D-02-0.260D-01 0.221D-02 0.256D+00 0.772D+00
 Gap=     0.286 Goal=   None    Shift=    0.000
 RMSDP=5.18D-09 MaxDP=2.21D-07 DE=-2.20D-11 OVMax= 3.87D-07

 SCF Done:  E(RM062X) =  -226.188217278     A.U. after   12 cycles
            NFock= 12  Conv=0.52D-08     -V/T= 2.0053
 KE= 2.249997559809D+02 PE=-8.483702012904D+02 EE= 2.362206354986D+02
 Leave Link  502 at Fri Feb 17 21:49:33 2023, MaxMem=  6710886400 cpu:             457.8 elap:              19.2
 (Enter /data0/home/software/g16/l601.exe)
 Copying SCF densities to generalized density rwf, IOpCl= 0 IROHF=0.

 **********************************************************************

            Population analysis using the SCF density.

 **********************************************************************

 Alpha  occ. eigenvalues --  -14.81485 -14.73536 -10.60490 -10.57685 -10.55846
 Alpha  occ. eigenvalues --   -1.11698  -0.96863  -0.83707  -0.70104  -0.67005
 Alpha  occ. eigenvalues --   -0.64221  -0.51354  -0.50727  -0.49983  -0.47995
 Alpha  occ. eigenvalues --   -0.34463  -0.34107  -0.28526
 Alpha virt. eigenvalues --    0.00041   0.02001   0.02768   0.03461   0.04516
 Alpha virt. eigenvalues --    0.04665   0.05401   0.06333   0.06504   0.07373
 Alpha virt. eigenvalues --    0.07841   0.09211   0.10055   0.10660   0.11437
 Alpha virt. eigenvalues --    0.13250   0.13564   0.14481   0.15265   0.16824
 Alpha virt. eigenvalues --    0.17625   0.17903   0.19399   0.20240   0.21023
 Alpha virt. eigenvalues --    0.21697   0.22196   0.22376   0.22519   0.23113
 Alpha virt. eigenvalues --    0.23973   0.24379   0.24934   0.25729   0.26345
 Alpha virt. eigenvalues --    0.27640   0.27958   0.28478   0.29443   0.30190
 Alpha virt. eigenvalues --    0.31251   0.31512   0.32587   0.33180   0.34214
 Alpha virt. eigenvalues --    0.36207   0.37372   0.37941   0.38576   0.38833
 Alpha virt. eigenvalues --    0.40527   0.42188   0.43014   0.43363   0.43984
 Alpha virt. eigenvalues --    0.45414   0.47605   0.48671   0.50619   0.55733
 Alpha virt. eigenvalues --    0.57351   0.57637   0.60773   0.62722   0.64011
 Alpha virt. eigenvalues --    0.65654   0.67020   0.68638   0.68743   0.70785
 Alpha virt. eigenvalues --    0.71830   0.73219   0.73457   0.74286   0.75028
 Alpha virt. eigenvalues --    0.75824   0.77462   0.77809   0.78016   0.78487
 Alpha virt. eigenvalues --    0.79819   0.80908   0.81664   0.83730   0.86055
 Alpha virt. eigenvalues --    0.86259   0.87868   0.88997   0.90250   0.91179
 Alpha virt. eigenvalues --    0.93042   0.93786   0.96534   0.96993   0.97568
 Alpha virt. eigenvalues --    0.98493   0.99841   1.00856   1.02458   1.06419
 Alpha virt. eigenvalues --    1.07137   1.08782   1.10542   1.11490   1.13136
 Alpha virt. eigenvalues --    1.15509   1.16571   1.18512   1.19366   1.25509
 Alpha virt. eigenvalues --    1.26211   1.28031   1.28689   1.30151   1.30970
 Alpha virt. eigenvalues --    1.35995   1.37549   1.38405   1.39902   1.41314
 Alpha virt. eigenvalues --    1.42741   1.44947   1.46493   1.47190   1.47971
 Alpha virt. eigenvalues --    1.48225   1.51934   1.57526   1.69181   1.69498
 Alpha virt. eigenvalues --    1.74040   1.75029   1.80387   1.82471   1.87746
 Alpha virt. eigenvalues --    1.89923   1.93370   1.94295   1.97911   2.00966
 Alpha virt. eigenvalues --    2.02088   2.03730   2.07108   2.13483   2.14145
 Alpha virt. eigenvalues --    2.18758   2.21004   2.22749   2.30019   2.31213
 Alpha virt. eigenvalues --    2.33229   2.36162   2.40257   2.41099   2.45074
 Alpha virt. eigenvalues --    2.45630   2.45926   2.47409   2.48339   2.50828
 Alpha virt. eigenvalues --    2.53332   2.58598   2.61768   2.64596   2.65368
 Alpha virt. eigenvalues --    2.66396   2.68851   2.70851   2.70993   2.74147
 Alpha virt. eigenvalues --    2.76278   2.77356   2.78933   2.80927   2.81483
 Alpha virt. eigenvalues --    2.83959   2.84970   2.87331   2.88610   2.91340
 Alpha virt. eigenvalues --    2.92399   2.95587   2.97671   2.97959   2.98344
 Alpha virt. eigenvalues --    2.99379   3.01630   3.04544   3.08719   3.10579
 Alpha virt. eigenvalues --    3.10920   3.12289   3.19342   3.22699   3.23291
 Alpha virt. eigenvalues --    3.25432   3.26068   3.27678   3.29672   3.33997
 Alpha virt. eigenvalues --    3.35235   3.37480   3.38109   3.39162   3.42603
 Alpha virt. eigenvalues --    3.42936   3.44150   3.45953   3.49545   3.52901
 Alpha virt. eigenvalues --    3.57264   3.57673   3.62143   3.65793   3.69320
 Alpha virt. eigenvalues --    3.69912   3.72721   3.73472   3.80260   3.96666
 Alpha virt. eigenvalues --    3.97642   3.98585   3.99932   4.06502   4.41471
 Alpha virt. eigenvalues --    4.42920   4.47042   4.48767   4.51414   4.59237
 Alpha virt. eigenvalues --    4.60969   4.74089   4.86453   4.90615   4.91738
 Alpha virt. eigenvalues --    4.92251   4.95983   4.97815   5.01993   5.03177
 Alpha virt. eigenvalues --    5.05432   5.10947   5.22911   5.25372   5.34027
 Alpha virt. eigenvalues --    5.42173   5.53142   5.60287   9.66991   9.68447
 Alpha virt. eigenvalues --    9.81315   9.85228  10.09665  10.10800  10.13218
 Alpha virt. eigenvalues --   10.16256  10.18089  10.18868  10.22361  10.26039
 Alpha virt. eigenvalues --   10.30706  10.32656  10.32966  10.37587  10.40705
 Alpha virt. eigenvalues --   10.50331  10.54345  10.63647  10.67350  10.69950
 Alpha virt. eigenvalues --   10.83336  12.73089  12.81272  13.02307  13.22756
 Alpha virt. eigenvalues --   13.29149  13.39236  13.40118  13.43739  13.54392
 Alpha virt. eigenvalues --   13.72044  13.75890  13.92077  14.02920  17.50641
 Alpha virt. eigenvalues --   18.21348  18.26495  18.53229  23.90611  24.09942
 Alpha virt. eigenvalues --   24.13653  35.64620  35.70081  52.14939  52.18990
 Alpha virt. eigenvalues --   52.26422  69.64920 132.90547 138.65181 138.78607
 Alpha virt. eigenvalues --  139.74502 478.82832
          Condensed to atoms (all electrons):
               1          2          3          4          5          6
     1  C    5.359089   0.297158  -0.295976   0.448156  -0.046429   0.375016
     2  C    0.297158   5.229612  -0.050631  -0.202496   0.025936   0.005669
     3  C   -0.295976  -0.050631   5.404442   0.274144  -0.019343   0.010875
     4  N    0.448156  -0.202496   0.274144   6.375433   0.374184  -0.033282
     5  H   -0.046429   0.025936  -0.019343   0.374184   0.404184  -0.001842
     6  H    0.375016   0.005669   0.010875  -0.033282  -0.001842   0.505655
     7  H   -0.063947   0.435994   0.018117   0.006974  -0.000008   0.000061
     8  H    0.000332   0.018566   0.425764  -0.054423   0.000136  -0.000027
     9  N    0.015480   0.272156   0.398399  -0.000558   0.001835   0.001946
    10  P    0.005029   0.004193  -0.024876   0.003155  -0.000028  -0.000038
    11  O   -0.000317   0.000790   0.000565   0.003516   0.000650   0.000004
    12  O   -0.000706  -0.001442   0.005092  -0.000473   0.000005   0.000001
    13  H    0.000302   0.000233  -0.000817   0.000127  -0.000004  -0.000000
    14  O   -0.001424  -0.000214   0.004114   0.000607   0.000074  -0.000008
    15  H    0.000682   0.001304  -0.002506  -0.000513  -0.000027   0.000016
    16  O    0.000387   0.000428  -0.002873   0.000131  -0.000007  -0.000000
    17  H   -0.000004  -0.000010   0.000026   0.000007   0.000000   0.000000
               7          8          9         10         11         12
     1  C   -0.063947   0.000332   0.015480   0.005029  -0.000317  -0.000706
     2  C    0.435994   0.018566   0.272156   0.004193   0.000790  -0.001442
     3  C    0.018117   0.425764   0.398399  -0.024876   0.000565   0.005092
     4  N    0.006974  -0.054423  -0.000558   0.003155   0.003516  -0.000473
     5  H   -0.000008   0.000136   0.001835  -0.000028   0.000650   0.000005
     6  H    0.000061  -0.000027   0.001946  -0.000038   0.000004   0.000001
     7  H    0.527510   0.000012  -0.050650  -0.000074   0.000019   0.000006
     8  H    0.000012   0.496369  -0.045514   0.000339  -0.000691   0.000076
     9  N   -0.050650  -0.045514   6.619747   0.000871  -0.001303  -0.001812
    10  P   -0.000074   0.000339   0.000871   0.013294  -0.002341  -0.002905
    11  O    0.000019  -0.000691  -0.001303  -0.002341   0.002820  -0.001199
    12  O    0.000006   0.000076  -0.001812  -0.002905  -0.001199   0.007295
    13  H   -0.000003   0.000034   0.001533   0.000932   0.000157  -0.001946
    14  O    0.000033   0.000064   0.000161  -0.000907   0.000316  -0.000924
    15  H   -0.000002   0.000061   0.000251   0.000148   0.000158  -0.000212
    16  O   -0.000001   0.000029   0.000078  -0.005717   0.001771  -0.002158
    17  H   -0.000000  -0.000000  -0.000003   0.000499  -0.000164   0.000023
              13         14         15         16         17
     1  C    0.000302  -0.001424   0.000682   0.000387  -0.000004
     2  C    0.000233  -0.000214   0.001304   0.000428  -0.000010
     3  C   -0.000817   0.004114  -0.002506  -0.002873   0.000026
     4  N    0.000127   0.000607  -0.000513   0.000131   0.000007
     5  H   -0.000004   0.000074  -0.000027  -0.000007   0.000000
     6  H   -0.000000  -0.000008   0.000016  -0.000000   0.000000
     7  H   -0.000003   0.000033  -0.000002  -0.000001  -0.000000
     8  H    0.000034   0.000064   0.000061   0.000029  -0.000000
     9  N    0.001533   0.000161   0.000251   0.000078  -0.000003
    10  P    0.000932  -0.000907   0.000148  -0.005717   0.000499
    11  O    0.000157   0.000316   0.000158   0.001771  -0.000164
    12  O   -0.001946  -0.000924  -0.000212  -0.002158   0.000023
    13  H    0.000878   0.000274   0.000025   0.000190   0.000000
    14  O    0.000274   0.002280  -0.000482  -0.000268   0.000092
    15  H    0.000025  -0.000482   0.000503   0.000372  -0.000022
    16  O    0.000190  -0.000268   0.000372   0.007297  -0.000598
    17  H    0.000000   0.000092  -0.000022  -0.000598   0.000171
 Mulliken charges:
               1
     1  C   -0.092827
     2  C   -0.037245
     3  C   -0.144515
     4  N   -0.194686
     5  H    0.260683
     6  H    0.135954
     7  H    0.125959
     8  H    0.158873
     9  N   -0.212618
    10  P    0.008426
    11  O   -0.004749
    12  O    0.001279
    13  H   -0.001914
    14  O   -0.003787
    15  H    0.000245
    16  O    0.000939
    17  H   -0.000018
 Sum of Mulliken charges =  -0.00000
 Mulliken charges with hydrogens summed into heavy atoms:
               1
     1  C    0.043127
     2  C    0.088715
     3  C    0.014358
     4  N    0.065997
     9  N   -0.212618
    10  P    0.008426
    11  O   -0.004749
    12  O   -0.000635
    14  O   -0.003542
    16  O    0.000922
         Mulliken charges condensed to fragments:
      1     -0.000421
      2      0.000421
 Electronic spatial extent (au):  <R**2>=          27878.8675
 Charge=             -0.0000 electrons
 Dipole moment (field-independent basis, Debye):
    X=             -2.4154    Y=              1.3757    Z=             -2.5002  Tot=              3.7387
 Quadrupole moment (field-independent basis, Debye-Ang):
   XX=            -53.5239   YY=             -7.8161   ZZ=            -92.4363
   XY=            -11.6552   XZ=            -41.3560   YZ=              3.5815
 Traceless Quadrupole moment (field-independent basis, Debye-Ang):
   XX=             -2.2651   YY=             43.4426   ZZ=            -41.1775
   XY=            -11.6552   XZ=            -41.3560   YZ=              3.5815
 Octapole moment (field-independent basis, Debye-Ang**2):
  XXX=           -610.3892  YYY=           -284.5992  ZZZ=          -2298.8356  XYY=           -171.3444
  XXY=           -323.7504  XXZ=           -722.7856  XZZ=           -808.8946  YZZ=           -302.0604
  YYZ=           -170.0311  XYZ=           -204.5746
 Hexadecapole moment (field-independent basis, Debye-Ang**3):
 XXXX=          -5491.8444 YYYY=          -4093.0564 ZZZZ=         -47960.1993 XXXY=          -3726.8461
 XXXZ=          -7933.7536 YYYX=          -2314.3718 YYYZ=          -3943.6626 ZZZX=         -15710.9085
 ZZZY=         -10358.5933 XXYY=          -2570.0052 XXZZ=         -10521.5470 YYZZ=          -4113.0783
 XXYZ=          -4334.5362 YYXZ=          -2446.3270 ZZXY=          -4186.2110
 N-N= 1.609615925326D+02 E-N=-8.483702049224D+02  KE= 2.249997559809D+02
 No NMR shielding tensors so no spin-rotation constants.
 Leave Link  601 at Fri Feb 17 21:49:33 2023, MaxMem=  6710886400 cpu:               2.4 elap:               0.1
 (Enter /data0/home/software/g16/l122.exe)
 CPIOFr:  IOpCl= 0 IRwI=-1 IRwCP=  731 ICalc=  1 LCPTot=      158204 Len1MO=      416108 IndFrg=      990420
 Counterpoise: doing calculation for fragment   2 using the basis set of the full-system, NewBq=T
 Leave Link  122 at Fri Feb 17 21:49:33 2023, MaxMem=  6710886400 cpu:               0.1 elap:               0.0
 (Enter /data0/home/software/g16/l301.exe)
 Basis read from rwf:  (5D, 7F)
 No pseudopotential information found on rwf file.
   320 basis functions,   490 primitive gaussians,   340 cartesian basis functions
    25 alpha electrons       25 beta electrons
       nuclear repulsion energy       280.2494260127 Hartrees.
 IExCor= 4336 DFT=T Ex+Corr=M062X ExCW=0 ScaHFX=  0.540000
 ScaDFX=  1.000000  1.000000  1.000000  1.000000 ScalE2=  1.000000  1.000000
 IRadAn=      5 IRanWt=     -1 IRanGd=            0 ICorTp=0 IEmpDi=131
 NAtoms=   17 NActive=   17 NUniq=   17 SFac= 1.00D+00 NAtFMM=   60 NAOKFM=F Big=F
 Integral buffers will be    131072 words long.
 Raffenetti 2 integral format.
 Two-electron integral symmetry is turned off.
 R6Disp:  Grimme-D3 Dispersion energy=       -0.0000470931 Hartrees.
 Nuclear repulsion after empirical dispersion term =      280.2493789197 Hartrees.
 No density basis found on file   718.
 Leave Link  301 at Fri Feb 17 21:49:33 2023, MaxMem=  6710886400 cpu:               1.3 elap:               0.1
 (Enter /data0/home/software/g16/l302.exe)
 NPDir=0 NMtPBC=     1 NCelOv=     1 NCel=       1 NClECP=     1 NCelD=      1
         NCelK=      1 NCelE2=     1 NClLst=     1 CellRange=     0.0.
 One-electron integrals computed using PRISM.
 NBasis=   320 RedAO= T EigKep=  5.16D-05  NBF=   320
 NBsUse=   320 1.00D-06 EigRej= -1.00D+00 NBFU=   320
 Precomputing XC quadrature grid using
 IXCGrd= 4 IRadAn=           5 IRanWt=          -1 IRanGd=           0 AccXCQ= 0.00D+00.
 Generated NRdTot=       0 NPtTot=           0 NUsed=           0 NTot=          32
 NSgBfM=   340   340   340   340   340 MxSgAt=    17 MxSgA2=    17.
 Leave Link  302 at Fri Feb 17 21:49:33 2023, MaxMem=  6710886400 cpu:               5.0 elap:               0.2
 (Enter /data0/home/software/g16/l303.exe)
 DipDrv:  MaxL=1.
 Leave Link  303 at Fri Feb 17 21:49:33 2023, MaxMem=  6710886400 cpu:               0.7 elap:               0.1
 (Enter /data0/home/software/g16/l401.exe)
 ExpMin= 3.48D-02 ExpMax= 7.75D+04 ExpMxC= 2.65D+03 IAcc=3 IRadAn=         5 AccDes= 0.00D+00
 Harris functional with IExCor= 1009 and IRadAn=       5 diagonalized for initial guess.
 HarFok:  IExCor= 1009 AccDes= 0.00D+00 IRadAn=         5 IDoV= 1 UseB2=F ITyADJ=14
 ICtDFT=  3500011 ScaDFX=  1.000000  1.000000  1.000000  1.000000
 FoFCou: FMM=F IPFlag=           0 FMFlag=      100000 FMFlg1=           0
         NFxFlg=           0 DoJE=T BraDBF=F KetDBF=T FulRan=T
         wScrn=  0.000000 ICntrl=       500 IOpCl=  0 I1Cent=   200000004 NGrid=           0
         NMat0=    1 NMatS0=      1 NMatT0=    0 NMatD0=    1 NMtDS0=    0 NMtDT0=    0
 Symmetry not used in FoFCou.
 Harris En= -643.942718604978    
 JPrj=0 DoOrth=F DoCkMO=F.
 Leave Link  401 at Fri Feb 17 21:49:34 2023, MaxMem=  6710886400 cpu:              16.3 elap:               0.7
 (Enter /data0/home/software/g16/l502.exe)
 Two-electron integral symmetry not used.
 Closed shell SCF:
 Using DIIS extrapolation, IDIIS=  1040.
 NGot=  6710886400 LenX=  6710644641 LenY=  6710528600
 Requested convergence on RMS density matrix=1.00D-08 within 128 cycles.
 Requested convergence on MAX density matrix=1.00D-06.
 Requested convergence on             energy=1.00D-06.
 No special actions if energy rises.
 Fock matrices will be formed incrementally for  20 cycles.

 Cycle   1  Pass 1  IDiag  1:
 FoFJK:  IHMeth= 1 ICntrl=       0 DoSepK=F KAlg= 0 I1Cent=           0 FoldK=F
 IRaf= 880000000 NMat=       1 IRICut=       1 DoRegI=T DoRafI=F ISym2E= 0 IDoP0=0 IntGTp=1.
 FoFCou: FMM=F IPFlag=           0 FMFlag=      100000 FMFlg1=           0
         NFxFlg=           0 DoJE=F BraDBF=F KetDBF=F FulRan=T
         wScrn=  0.000000 ICntrl=         0 IOpCl=  0 I1Cent=           0 NGrid=           0
         NMat0=    1 NMatS0=      1 NMatT0=    0 NMatD0=    1 NMtDS0=    0 NMtDT0=    0
 Symmetry not used in FoFCou.
 E= -643.866334154347    
 DIIS: error= 3.08D-02 at cycle   1 NSaved=   1.
 NSaved= 1 IEnMin= 1 EnMin= -643.866334154347     IErMin= 1 ErrMin= 3.08D-02
 ErrMax= 3.08D-02  0.00D+00 EMaxC= 1.00D-01 BMatC= 5.04D-01 BMatP= 5.04D-01
 IDIUse=3 WtCom= 6.92D-01 WtEn= 3.08D-01
 Coeff-Com:  0.100D+01
 Coeff-En:   0.100D+01
 Coeff:      0.100D+01
 Gap=     0.317 Goal=   None    Shift=    0.000
 GapD=    0.317 DampG=1.000 DampE=0.500 DampFc=0.5000 IDamp=-1.
 Damping current iteration by 5.00D-01
 RMSDP=4.00D-03 MaxDP=1.87D-01              OVMax= 2.53D-01

 Cycle   2  Pass 1  IDiag  1:
 RMSU=  2.00D-03    CP:  1.01D+00
 E= -643.982522285721     Delta-E=       -0.116188131373 Rises=F Damp=T
 DIIS: error= 6.16D-03 at cycle   2 NSaved=   2.
 NSaved= 2 IEnMin= 2 EnMin= -643.982522285721     IErMin= 2 ErrMin= 6.16D-03
 ErrMax= 6.16D-03  0.00D+00 EMaxC= 1.00D-01 BMatC= 2.64D-02 BMatP= 5.04D-01
 IDIUse=3 WtCom= 9.38D-01 WtEn= 6.16D-02
 Coeff-Com:  0.673D-01 0.933D+00
 Coeff-En:   0.196D+00 0.804D+00
 Coeff:      0.752D-01 0.925D+00
 Gap=     0.363 Goal=   None    Shift=    0.000
 RMSDP=8.77D-04 MaxDP=5.10D-02 DE=-1.16D-01 OVMax= 1.53D-01

 Cycle   3  Pass 1  IDiag  1:
 RMSU=  6.59D-04    CP:  9.98D-01  7.15D-01
 E= -644.143869728776     Delta-E=       -0.161347443056 Rises=F Damp=F
 DIIS: error= 5.67D-03 at cycle   3 NSaved=   3.
 NSaved= 3 IEnMin= 3 EnMin= -644.143869728776     IErMin= 3 ErrMin= 5.67D-03
 ErrMax= 5.67D-03  0.00D+00 EMaxC= 1.00D-01 BMatC= 1.02D-02 BMatP= 2.64D-02
 IDIUse=3 WtCom= 9.43D-01 WtEn= 5.67D-02
 Coeff-Com: -0.194D-01 0.342D+00 0.677D+00
 Coeff-En:   0.000D+00 0.000D+00 0.100D+01
 Coeff:     -0.183D-01 0.323D+00 0.695D+00
 Gap=     0.349 Goal=   None    Shift=    0.000
 RMSDP=3.93D-04 MaxDP=2.88D-02 DE=-1.61D-01 OVMax= 3.47D-02

 Cycle   4  Pass 1  IDiag  1:
 RMSU=  3.62D-04    CP:  9.96D-01  7.63D-01  8.18D-01
 E= -644.148519556794     Delta-E=       -0.004649828018 Rises=F Damp=F
 DIIS: error= 3.22D-03 at cycle   4 NSaved=   4.
 NSaved= 4 IEnMin= 4 EnMin= -644.148519556794     IErMin= 4 ErrMin= 3.22D-03
 ErrMax= 3.22D-03  0.00D+00 EMaxC= 1.00D-01 BMatC= 3.80D-03 BMatP= 1.02D-02
 IDIUse=3 WtCom= 9.68D-01 WtEn= 3.22D-02
 Coeff-Com: -0.227D-01 0.518D-01 0.404D+00 0.567D+00
 Coeff-En:   0.000D+00 0.000D+00 0.271D+00 0.729D+00
 Coeff:     -0.219D-01 0.502D-01 0.400D+00 0.572D+00
 Gap=     0.358 Goal=   None    Shift=    0.000
 RMSDP=1.59D-04 MaxDP=1.19D-02 DE=-4.65D-03 OVMax= 1.13D-02

 Cycle   5  Pass 1  IDiag  1:
 RMSU=  3.97D-05    CP:  9.96D-01  7.56D-01  9.26D-01  6.26D-01
 E= -644.151042424864     Delta-E=       -0.002522868070 Rises=F Damp=F
 DIIS: error= 2.09D-04 at cycle   5 NSaved=   5.
 NSaved= 5 IEnMin= 5 EnMin= -644.151042424864     IErMin= 5 ErrMin= 2.09D-04
 ErrMax= 2.09D-04  0.00D+00 EMaxC= 1.00D-01 BMatC= 1.50D-05 BMatP= 3.80D-03
 IDIUse=3 WtCom= 9.98D-01 WtEn= 2.09D-03
 Coeff-Com: -0.275D-02 0.121D-02 0.605D-01 0.120D+00 0.821D+00
 Coeff-En:   0.000D+00 0.000D+00 0.000D+00 0.000D+00 0.100D+01
 Coeff:     -0.274D-02 0.121D-02 0.604D-01 0.120D+00 0.821D+00
 Gap=     0.357 Goal=   None    Shift=    0.000
 RMSDP=1.49D-05 MaxDP=8.53D-04 DE=-2.52D-03 OVMax= 7.54D-04

 Cycle   6  Pass 1  IDiag  1:
 RMSU=  1.09D-05    CP:  9.96D-01  7.53D-01  9.30D-01  6.45D-01  1.03D+00
 E= -644.151052630969     Delta-E=       -0.000010206105 Rises=F Damp=F
 DIIS: error= 5.72D-05 at cycle   6 NSaved=   6.
 NSaved= 6 IEnMin= 6 EnMin= -644.151052630969     IErMin= 6 ErrMin= 5.72D-05
 ErrMax= 5.72D-05  0.00D+00 EMaxC= 1.00D-01 BMatC= 9.87D-07 BMatP= 1.50D-05
 IDIUse=1 WtCom= 1.00D+00 WtEn= 0.00D+00
 Coeff-Com:  0.334D-04-0.137D-02 0.134D-02 0.960D-02 0.202D+00 0.789D+00
 Coeff:      0.334D-04-0.137D-02 0.134D-02 0.960D-02 0.202D+00 0.789D+00
 Gap=     0.357 Goal=   None    Shift=    0.000
 RMSDP=5.41D-06 MaxDP=2.38D-04 DE=-1.02D-05 OVMax= 2.20D-04

 Cycle   7  Pass 1  IDiag  1:
 RMSU=  2.70D-06    CP:  9.96D-01  7.52D-01  9.30D-01  6.47D-01  1.12D+00
                    CP:  9.16D-01
 E= -644.151053373644     Delta-E=       -0.000000742675 Rises=F Damp=F
 DIIS: error= 2.21D-05 at cycle   7 NSaved=   7.
 NSaved= 7 IEnMin= 7 EnMin= -644.151053373644     IErMin= 7 ErrMin= 2.21D-05
 ErrMax= 2.21D-05  0.00D+00 EMaxC= 1.00D-01 BMatC= 1.72D-07 BMatP= 9.87D-07
 IDIUse=1 WtCom= 1.00D+00 WtEn= 0.00D+00
 Coeff-Com:  0.382D-03-0.656D-03-0.800D-02-0.127D-01-0.247D-01 0.283D+00
 Coeff-Com:  0.763D+00
 Coeff:      0.382D-03-0.656D-03-0.800D-02-0.127D-01-0.247D-01 0.283D+00
 Coeff:      0.763D+00
 Gap=     0.357 Goal=   None    Shift=    0.000
 RMSDP=1.70D-06 MaxDP=6.01D-05 DE=-7.43D-07 OVMax= 8.25D-05

 Cycle   8  Pass 1  IDiag  1:
 RMSU=  1.11D-06    CP:  9.96D-01  7.51D-01  9.31D-01  6.48D-01  1.13D+00
                    CP:  9.93D-01  9.50D-01
 E= -644.151053490256     Delta-E=       -0.000000116612 Rises=F Damp=F
 DIIS: error= 9.75D-06 at cycle   8 NSaved=   8.
 NSaved= 8 IEnMin= 8 EnMin= -644.151053490256     IErMin= 8 ErrMin= 9.75D-06
 ErrMax= 9.75D-06  0.00D+00 EMaxC= 1.00D-01 BMatC= 3.12D-08 BMatP= 1.72D-07
 IDIUse=1 WtCom= 1.00D+00 WtEn= 0.00D+00
 Coeff-Com:  0.169D-03-0.236D-03-0.385D-02-0.622D-02-0.186D-01 0.941D-01
 Coeff-Com:  0.380D+00 0.555D+00
 Coeff:      0.169D-03-0.236D-03-0.385D-02-0.622D-02-0.186D-01 0.941D-01
 Coeff:      0.380D+00 0.555D+00
 Gap=     0.357 Goal=   None    Shift=    0.000
 RMSDP=4.43D-07 MaxDP=1.99D-05 DE=-1.17D-07 OVMax= 2.79D-05

 Cycle   9  Pass 1  IDiag  1:
 RMSU=  2.84D-07    CP:  9.96D-01  7.51D-01  9.31D-01  6.48D-01  1.13D+00
                    CP:  9.98D-01  1.04D+00  7.96D-01
 E= -644.151053511881     Delta-E=       -0.000000021625 Rises=F Damp=F
 DIIS: error= 1.07D-06 at cycle   9 NSaved=   9.
 NSaved= 9 IEnMin= 9 EnMin= -644.151053511881     IErMin= 9 ErrMin= 1.07D-06
 ErrMax= 1.07D-06  0.00D+00 EMaxC= 1.00D-01 BMatC= 7.19D-10 BMatP= 3.12D-08
 IDIUse=1 WtCom= 1.00D+00 WtEn= 0.00D+00
 Coeff-Com: -0.260D-04 0.483D-04 0.285D-03 0.566D-03-0.290D-03-0.198D-01
 Coeff-Com: -0.311D-01 0.785D-01 0.972D+00
 Coeff:     -0.260D-04 0.483D-04 0.285D-03 0.566D-03-0.290D-03-0.198D-01
 Coeff:     -0.311D-01 0.785D-01 0.972D+00
 Gap=     0.357 Goal=   None    Shift=    0.000
 RMSDP=1.75D-07 MaxDP=8.28D-06 DE=-2.16D-08 OVMax= 8.38D-06

 Cycle  10  Pass 1  IDiag  1:
 RMSU=  6.79D-08    CP:  9.96D-01  7.51D-01  9.31D-01  6.48D-01  1.14D+00
                    CP:  9.97D-01  1.07D+00  8.76D-01  1.12D+00
 E= -644.151053512715     Delta-E=       -0.000000000834 Rises=F Damp=F
 DIIS: error= 1.19D-07 at cycle  10 NSaved=  10.
 NSaved=10 IEnMin=10 EnMin= -644.151053512715     IErMin=10 ErrMin= 1.19D-07
 ErrMax= 1.19D-07  0.00D+00 EMaxC= 1.00D-01 BMatC= 1.21D-11 BMatP= 7.19D-10
 IDIUse=1 WtCom= 1.00D+00 WtEn= 0.00D+00
 Coeff-Com: -0.405D-05 0.659D-05 0.106D-03 0.169D-03 0.488D-03-0.373D-02
 Coeff-Com: -0.137D-01-0.140D-01 0.311D-01 0.999D+00
 Coeff:     -0.405D-05 0.659D-05 0.106D-03 0.169D-03 0.488D-03-0.373D-02
 Coeff:     -0.137D-01-0.140D-01 0.311D-01 0.999D+00
 Gap=     0.357 Goal=   None    Shift=    0.000
 RMSDP=3.15D-08 MaxDP=7.55D-07 DE=-8.34D-10 OVMax= 1.74D-06

 Cycle  11  Pass 1  IDiag  1:
 RMSU=  1.75D-08    CP:  9.96D-01  7.51D-01  9.31D-01  6.48D-01  1.14D+00
                    CP:  9.97D-01  1.07D+00  8.86D-01  1.17D+00  1.16D+00
 E= -644.151053512726     Delta-E=       -0.000000000011 Rises=F Damp=F
 DIIS: error= 8.18D-08 at cycle  11 NSaved=  11.
 NSaved=11 IEnMin=11 EnMin= -644.151053512726     IErMin=11 ErrMin= 8.18D-08
 ErrMax= 8.18D-08  0.00D+00 EMaxC= 1.00D-01 BMatC= 3.30D-12 BMatP= 1.21D-11
 IDIUse=1 WtCom= 1.00D+00 WtEn= 0.00D+00
 Coeff-Com:  0.305D-06-0.696D-06 0.206D-04 0.257D-04 0.178D-03-0.233D-03
 Coeff-Com: -0.283D-02-0.886D-02-0.451D-01 0.365D+00 0.692D+00
 Coeff:      0.305D-06-0.696D-06 0.206D-04 0.257D-04 0.178D-03-0.233D-03
 Coeff:     -0.283D-02-0.886D-02-0.451D-01 0.365D+00 0.692D+00
 Gap=     0.357 Goal=   None    Shift=    0.000
 RMSDP=7.46D-09 MaxDP=3.68D-07 DE=-1.07D-11 OVMax= 5.67D-07

 SCF Done:  E(RM062X) =  -644.151053513     A.U. after   11 cycles
            NFock= 11  Conv=0.75D-08     -V/T= 2.0025
 KE= 6.425290353342D+02 PE=-2.088241895824D+03 EE= 5.213124280573D+02
 Leave Link  502 at Fri Feb 17 21:49:53 2023, MaxMem=  6710886400 cpu:             454.9 elap:              19.0
 (Enter /data0/home/software/g16/l601.exe)
 Copying SCF densities to generalized density rwf, IOpCl= 0 IROHF=0.

 **********************************************************************

            Population analysis using the SCF density.

 **********************************************************************

 Alpha  occ. eigenvalues --  -78.16752 -19.68914 -19.68331 -19.67362 -19.58756
 Alpha  occ. eigenvalues --   -6.97533  -5.09424  -5.09416  -5.09249  -1.24311
 Alpha  occ. eigenvalues --   -1.17041  -1.16272  -1.08889  -0.72968  -0.65075
 Alpha  occ. eigenvalues --   -0.63947  -0.57158  -0.54673  -0.51206  -0.48746
 Alpha  occ. eigenvalues --   -0.47707  -0.45804  -0.42889  -0.38414  -0.37977
 Alpha virt. eigenvalues --   -0.02254   0.00887   0.01154   0.03683   0.04191
 Alpha virt. eigenvalues --    0.05963   0.06562   0.07694   0.08195   0.08996
 Alpha virt. eigenvalues --    0.09781   0.10791   0.11216   0.12326   0.12773
 Alpha virt. eigenvalues --    0.13591   0.14316   0.15203   0.16086   0.16950
 Alpha virt. eigenvalues --    0.17267   0.17685   0.18424   0.18684   0.19400
 Alpha virt. eigenvalues --    0.20194   0.20982   0.21446   0.21841   0.22740
 Alpha virt. eigenvalues --    0.23868   0.24234   0.25729   0.26140   0.27116
 Alpha virt. eigenvalues --    0.27662   0.27928   0.29104   0.29259   0.30156
 Alpha virt. eigenvalues --    0.30465   0.31190   0.32106   0.33461   0.33964
 Alpha virt. eigenvalues --    0.35454   0.36205   0.36831   0.38447   0.39447
 Alpha virt. eigenvalues --    0.40899   0.41381   0.42263   0.43422   0.45079
 Alpha virt. eigenvalues --    0.46559   0.48251   0.48611   0.49774   0.51683
 Alpha virt. eigenvalues --    0.52071   0.54290   0.54781   0.56533   0.57873
 Alpha virt. eigenvalues --    0.58931   0.60692   0.61920   0.63389   0.65607
 Alpha virt. eigenvalues --    0.68092   0.72631   0.73499   0.76990   0.77331
 Alpha virt. eigenvalues --    0.78715   0.80313   0.81624   0.83421   0.85982
 Alpha virt. eigenvalues --    0.89977   0.91237   0.95818   0.97913   1.00099
 Alpha virt. eigenvalues --    1.00938   1.03504   1.05128   1.07010   1.07817
 Alpha virt. eigenvalues --    1.11090   1.11785   1.13623   1.15093   1.17166
 Alpha virt. eigenvalues --    1.17855   1.19405   1.20538   1.21830   1.22393
 Alpha virt. eigenvalues --    1.23505   1.25046   1.25709   1.26509   1.29475
 Alpha virt. eigenvalues --    1.30029   1.34044   1.35407   1.36840   1.38314
 Alpha virt. eigenvalues --    1.39344   1.40505   1.40915   1.43707   1.44955
 Alpha virt. eigenvalues --    1.45018   1.46040   1.47490   1.47934   1.50670
 Alpha virt. eigenvalues --    1.53285   1.55347   1.55508   1.57957   1.58699
 Alpha virt. eigenvalues --    1.61133   1.61961   1.64238   1.64349   1.66497
 Alpha virt. eigenvalues --    1.68896   1.69544   1.71746   1.73184   1.73942
 Alpha virt. eigenvalues --    1.74193   1.76346   1.78330   1.82984   1.83811
 Alpha virt. eigenvalues --    1.84905   1.85309   1.86335   1.89087   1.93085
 Alpha virt. eigenvalues --    1.94608   1.96058   1.98016   1.99284   2.01955
 Alpha virt. eigenvalues --    2.02674   2.05541   2.06039   2.06464   2.07530
 Alpha virt. eigenvalues --    2.11862   2.12643   2.14871   2.15861   2.20572
 Alpha virt. eigenvalues --    2.22016   2.24692   2.25207   2.27126   2.28626
[...]
    25 alpha electrons       25 beta electrons
       nuclear repulsion energy       280.2494260127 Hartrees.
 IExCor= 4336 DFT=T Ex+Corr=M062X ExCW=0 ScaHFX=  0.540000
 ScaDFX=  1.000000  1.000000  1.000000  1.000000 ScalE2=  1.000000  1.000000
 IRadAn=      5 IRanWt=     -1 IRanGd=            0 ICorTp=0 IEmpDi=131
 NAtoms=   17 NActive=    8 NUniq=    8 SFac= 1.00D+00 NAtFMM=   60 NAOKFM=F Big=F
 Integral buffers will be    131072 words long.
 Raffenetti 2 integral format.
 Two-electron integral symmetry is turned off.
 R6Disp:  Grimme-D3 Dispersion energy=       -0.0000470931 Hartrees.
 Nuclear repulsion after empirical dispersion term =      280.2493789197 Hartrees.
 No density basis found on file   718.
 Leave Link  301 at Fri Feb 17 21:50:01 2023, MaxMem=  6710886400 cpu:               1.3 elap:               0.1
 (Enter /data0/home/software/g16/l302.exe)
 NPDir=0 NMtPBC=     1 NCelOv=     1 NCel=       1 NClECP=     1 NCelD=      1
         NCelK=      1 NCelE2=     1 NClLst=     1 CellRange=     0.0.
 One-electron integrals computed using PRISM.
 NBasis=   161 RedAO= T EigKep=  5.03D-04  NBF=   161
 NBsUse=   161 1.00D-06 EigRej= -1.00D+00 NBFU=   161
 Precomputing XC quadrature grid using
 IXCGrd= 4 IRadAn=           5 IRanWt=          -1 IRanGd=           0 AccXCQ= 0.00D+00.
 Generated NRdTot=       0 NPtTot=           0 NUsed=           0 NTot=          32
 NSgBfM=   171   171   171   171   171 MxSgAt=     8 MxSgA2=     8.
 Leave Link  302 at Fri Feb 17 21:50:01 2023, MaxMem=  6710886400 cpu:               2.9 elap:               0.1
 (Enter /data0/home/software/g16/l303.exe)
 DipDrv:  MaxL=1.
 Leave Link  303 at Fri Feb 17 21:50:01 2023, MaxMem=  6710886400 cpu:               0.5 elap:               0.0
 (Enter /data0/home/software/g16/l401.exe)
 ExpMin= 3.48D-02 ExpMax= 7.75D+04 ExpMxC= 2.65D+03 IAcc=3 IRadAn=         5 AccDes= 0.00D+00
 Harris functional with IExCor= 1009 and IRadAn=       5 diagonalized for initial guess.
 HarFok:  IExCor= 1009 AccDes= 0.00D+00 IRadAn=         5 IDoV= 1 UseB2=F ITyADJ=14
 ICtDFT=  3500011 ScaDFX=  1.000000  1.000000  1.000000  1.000000
 FoFCou: FMM=F IPFlag=           0 FMFlag=      100000 FMFlg1=           0
         NFxFlg=           0 DoJE=T BraDBF=F KetDBF=T FulRan=T
         wScrn=  0.000000 ICntrl=       500 IOpCl=  0 I1Cent=   200000004 NGrid=           0
         NMat0=    1 NMatS0=      1 NMatT0=    0 NMatD0=    1 NMtDS0=    0 NMtDT0=    0
 Symmetry not used in FoFCou.
 Harris En= -643.942041030490    
 JPrj=0 DoOrth=F DoCkMO=F.
 Leave Link  401 at Fri Feb 17 21:50:01 2023, MaxMem=  6710886400 cpu:               6.1 elap:               0.3
 (Enter /data0/home/software/g16/l502.exe)
 Keep R1 ints in memory in canonical form, NReq=108961853.
 FoFCou: FMM=F IPFlag=           0 FMFlag=           0 FMFlg1=           0
         NFxFlg=           0 DoJE=F BraDBF=F KetDBF=F FulRan=T
         wScrn=  0.000000 ICntrl=       600 IOpCl=  0 I1Cent=           0 NGrid=           0
         NMat0=    1 NMatS0=  13041 NMatT0=    0 NMatD0=    1 NMtDS0=    0 NMtDT0=    0
 Symmetry not used in FoFCou.
 Two-electron integral symmetry not used.
 Closed shell SCF:
 Using DIIS extrapolation, IDIIS=  1040.
 NGot=  6710886400 LenX=  6625781899 LenY=  6625752217
 Requested convergence on RMS density matrix=1.00D-08 within 128 cycles.
 Requested convergence on MAX density matrix=1.00D-06.
 Requested convergence on             energy=1.00D-06.
 No special actions if energy rises.

 Cycle   1  Pass 1  IDiag  1:
 E= -643.865840200506    
 DIIS: error= 4.36D-02 at cycle   1 NSaved=   1.
 NSaved= 1 IEnMin= 1 EnMin= -643.865840200506     IErMin= 1 ErrMin= 4.36D-02
 ErrMax= 4.36D-02  0.00D+00 EMaxC= 1.00D-01 BMatC= 5.04D-01 BMatP= 5.04D-01
 IDIUse=3 WtCom= 5.64D-01 WtEn= 4.36D-01
 Coeff-Com:  0.100D+01
 Coeff-En:   0.100D+01
 Coeff:      0.100D+01
 Gap=     0.318 Goal=   None    Shift=    0.000
 GapD=    0.318 DampG=1.000 DampE=0.500 DampFc=0.5000 IDamp=-1.
 Damping current iteration by 5.00D-01
 RMSDP=6.89D-03 MaxDP=1.44D-01              OVMax= 2.53D-01

 Cycle   2  Pass 1  IDiag  1:
 E= -643.982069850643     Delta-E=       -0.116229650137 Rises=F Damp=T
 DIIS: error= 1.05D-02 at cycle   2 NSaved=   2.
 NSaved= 2 IEnMin= 2 EnMin= -643.982069850643     IErMin= 2 ErrMin= 1.05D-02
 ErrMax= 1.05D-02  0.00D+00 EMaxC= 1.00D-01 BMatC= 2.63D-02 BMatP= 5.04D-01
 IDIUse=3 WtCom= 8.95D-01 WtEn= 1.05D-01
 Coeff-Com:  0.670D-01 0.933D+00
 Coeff-En:   0.195D+00 0.805D+00
 Coeff:      0.805D-01 0.920D+00
 Gap=     0.364 Goal=   None    Shift=    0.000
 RMSDP=1.57D-03 MaxDP=4.60D-02 DE=-1.16D-01 OVMax= 1.53D-01

 Cycle   3  Pass 1  IDiag  1:
 E= -644.143690934414     Delta-E=       -0.161621083771 Rises=F Damp=F
 DIIS: error= 6.15D-03 at cycle   3 NSaved=   3.
 NSaved= 3 IEnMin= 3 EnMin= -644.143690934414     IErMin= 3 ErrMin= 6.15D-03
 ErrMax= 6.15D-03  0.00D+00 EMaxC= 1.00D-01 BMatC= 9.64D-03 BMatP= 2.63D-02
 IDIUse=3 WtCom= 9.38D-01 WtEn= 6.15D-02
 Coeff-Com: -0.154D-01 0.335D+00 0.680D+00
 Coeff-En:   0.000D+00 0.000D+00 0.100D+01
 Coeff:     -0.145D-01 0.314D+00 0.700D+00
 Gap=     0.351 Goal=   None    Shift=    0.000
 RMSDP=6.47D-04 MaxDP=1.48D-02 DE=-1.62D-01 OVMax= 3.39D-02

 Cycle   4  Pass 1  IDiag  1:
 E= -644.147902641927     Delta-E=       -0.004211707513 Rises=F Damp=F
 DIIS: error= 3.41D-03 at cycle   4 NSaved=   4.
 NSaved= 4 IEnMin= 4 EnMin= -644.147902641927     IErMin= 4 ErrMin= 3.41D-03
 ErrMax= 3.41D-03  0.00D+00 EMaxC= 1.00D-01 BMatC= 3.85D-03 BMatP= 9.64D-03
 IDIUse=3 WtCom= 9.66D-01 WtEn= 3.41D-02
 Coeff-Com: -0.202D-01 0.472D-01 0.408D+00 0.565D+00
 Coeff-En:   0.000D+00 0.000D+00 0.288D+00 0.712D+00
 Coeff:     -0.196D-01 0.456D-01 0.403D+00 0.570D+00
 Gap=     0.360 Goal=   None    Shift=    0.000
 RMSDP=2.56D-04 MaxDP=6.18D-03 DE=-4.21D-03 OVMax= 1.14D-02

 Cycle   5  Pass 1  IDiag  1:
 E= -644.150458129509     Delta-E=       -0.002555487582 Rises=F Damp=F
 DIIS: error= 2.01D-04 at cycle   5 NSaved=   5.
 NSaved= 5 IEnMin= 5 EnMin= -644.150458129509     IErMin= 5 ErrMin= 2.01D-04
 ErrMax= 2.01D-04  0.00D+00 EMaxC= 1.00D-01 BMatC= 1.45D-05 BMatP= 3.85D-03
 IDIUse=3 WtCom= 9.98D-01 WtEn= 2.01D-03
 Coeff-Com: -0.234D-02 0.388D-03 0.618D-01 0.119D+00 0.821D+00
 Coeff-En:   0.000D+00 0.000D+00 0.000D+00 0.000D+00 0.100D+01
 Coeff:     -0.233D-02 0.387D-03 0.617D-01 0.119D+00 0.821D+00
 Gap=     0.359 Goal=   None    Shift=    0.000
 RMSDP=2.39D-05 MaxDP=8.57D-04 DE=-2.56D-03 OVMax= 7.57D-04

 Cycle   6  Pass 1  IDiag  1:
 E= -644.150467997600     Delta-E=       -0.000009868091 Rises=F Damp=F
 DIIS: error= 6.74D-05 at cycle   6 NSaved=   6.
 NSaved= 6 IEnMin= 6 EnMin= -644.150467997600     IErMin= 6 ErrMin= 6.74D-05
 ErrMax= 6.74D-05  0.00D+00 EMaxC= 1.00D-01 BMatC= 9.86D-07 BMatP= 1.45D-05
 IDIUse=1 WtCom= 1.00D+00 WtEn= 0.00D+00
 Coeff-Com:  0.476D-04-0.144D-02 0.190D-02 0.995D-02 0.205D+00 0.785D+00
 Coeff:      0.476D-04-0.144D-02 0.190D-02 0.995D-02 0.205D+00 0.785D+00
 Gap=     0.360 Goal=   None    Shift=    0.000
 RMSDP=8.93D-06 MaxDP=2.32D-04 DE=-9.87D-06 OVMax= 2.18D-04

 Cycle   7  Pass 1  IDiag  1:
 E= -644.150468740588     Delta-E=       -0.000000742989 Rises=F Damp=F
 DIIS: error= 2.33D-05 at cycle   7 NSaved=   7.
 NSaved= 7 IEnMin= 7 EnMin= -644.150468740588     IErMin= 7 ErrMin= 2.33D-05
 ErrMax= 2.33D-05  0.00D+00 EMaxC= 1.00D-01 BMatC= 1.67D-07 BMatP= 9.86D-07
 IDIUse=1 WtCom= 1.00D+00 WtEn= 0.00D+00
 Coeff-Com:  0.331D-03-0.562D-03-0.800D-02-0.125D-01-0.247D-01 0.278D+00
 Coeff-Com:  0.768D+00
 Coeff:      0.331D-03-0.562D-03-0.800D-02-0.125D-01-0.247D-01 0.278D+00
 Coeff:      0.768D+00
 Gap=     0.360 Goal=   None    Shift=    0.000
 RMSDP=2.82D-06 MaxDP=5.93D-05 DE=-7.43D-07 OVMax= 8.19D-05

 Cycle   8  Pass 1  IDiag  1:
 E= -644.150468853254     Delta-E=       -0.000000112666 Rises=F Damp=F
 DIIS: error= 1.05D-05 at cycle   8 NSaved=   8.
 NSaved= 8 IEnMin= 8 EnMin= -644.150468853254     IErMin= 8 ErrMin= 1.05D-05
 ErrMax= 1.05D-05  0.00D+00 EMaxC= 1.00D-01 BMatC= 3.12D-08 BMatP= 1.67D-07
 IDIUse=1 WtCom= 1.00D+00 WtEn= 0.00D+00
 Coeff-Com:  0.144D-03-0.187D-03-0.389D-02-0.616D-02-0.190D-01 0.918D-01
 Coeff-Com:  0.383D+00 0.554D+00
 Coeff:      0.144D-03-0.187D-03-0.389D-02-0.616D-02-0.190D-01 0.918D-01
 Coeff:      0.383D+00 0.554D+00
 Gap=     0.360 Goal=   None    Shift=    0.000
 RMSDP=7.45D-07 MaxDP=1.97D-05 DE=-1.13D-07 OVMax= 2.78D-05

 Cycle   9  Pass 1  IDiag  1:
 E= -644.150468874884     Delta-E=       -0.000000021630 Rises=F Damp=F
 DIIS: error= 1.31D-06 at cycle   9 NSaved=   9.
 NSaved= 9 IEnMin= 9 EnMin= -644.150468874884     IErMin= 9 ErrMin= 1.31D-06
 ErrMax= 1.31D-06  0.00D+00 EMaxC= 1.00D-01 BMatC= 7.20D-10 BMatP= 3.12D-08
 IDIUse=1 WtCom= 1.00D+00 WtEn= 0.00D+00
 Coeff-Com: -0.240D-04 0.459D-04 0.266D-03 0.537D-03-0.385D-03-0.191D-01
 Coeff-Com: -0.300D-01 0.789D-01 0.970D+00
 Coeff:     -0.240D-04 0.459D-04 0.266D-03 0.537D-03-0.385D-03-0.191D-01
 Coeff:     -0.300D-01 0.789D-01 0.970D+00
 Gap=     0.360 Goal=   None    Shift=    0.000
 RMSDP=2.94D-07 MaxDP=7.12D-06 DE=-2.16D-08 OVMax= 8.25D-06

 Cycle  10  Pass 1  IDiag  1:
 E= -644.150468875718     Delta-E=       -0.000000000834 Rises=F Damp=F
 DIIS: error= 2.13D-07 at cycle  10 NSaved=  10.
 NSaved=10 IEnMin=10 EnMin= -644.150468875718     IErMin=10 ErrMin= 2.13D-07
 ErrMax= 2.13D-07  0.00D+00 EMaxC= 1.00D-01 BMatC= 1.20D-11 BMatP= 7.20D-10
 IDIUse=1 WtCom= 1.00D+00 WtEn= 0.00D+00
 Coeff-Com: -0.311D-05 0.486D-05 0.105D-03 0.162D-03 0.498D-03-0.357D-02
 Coeff-Com: -0.136D-01-0.141D-01 0.258D-01 0.100D+01
 Coeff:     -0.311D-05 0.486D-05 0.105D-03 0.162D-03 0.498D-03-0.357D-02
 Coeff:     -0.136D-01-0.141D-01 0.258D-01 0.100D+01
 Gap=     0.360 Goal=   None    Shift=    0.000
 RMSDP=5.52D-08 MaxDP=7.68D-07 DE=-8.34D-10 OVMax= 1.72D-06

 Cycle  11  Pass 1  IDiag  1:
 E= -644.150468875750     Delta-E=       -0.000000000031 Rises=F Damp=F
 DIIS: error= 1.04D-07 at cycle  11 NSaved=  11.
 NSaved=11 IEnMin=11 EnMin= -644.150468875750     IErMin=11 ErrMin= 1.04D-07
 ErrMax= 1.04D-07  0.00D+00 EMaxC= 1.00D-01 BMatC= 3.31D-12 BMatP= 1.20D-11
 IDIUse=1 WtCom= 1.00D+00 WtEn= 0.00D+00
 Coeff-Com:  0.453D-06-0.107D-05 0.226D-04 0.271D-04 0.192D-03-0.272D-03
 Coeff-Com: -0.299D-02-0.898D-02-0.455D-01 0.374D+00 0.684D+00
 Coeff:      0.453D-06-0.107D-05 0.226D-04 0.271D-04 0.192D-03-0.272D-03
 Coeff:     -0.299D-02-0.898D-02-0.455D-01 0.374D+00 0.684D+00
 Gap=     0.360 Goal=   None    Shift=    0.000
 RMSDP=1.27D-08 MaxDP=3.66D-07 DE=-3.14D-11 OVMax= 5.63D-07

 Cycle  12  Pass 1  IDiag  1:
 E= -644.150468875740     Delta-E=        0.000000000010 Rises=F Damp=F
 DIIS: error= 5.53D-08 at cycle  12 NSaved=  12.
 NSaved=12 IEnMin=11 EnMin= -644.150468875750     IErMin=12 ErrMin= 5.53D-08
 ErrMax= 5.53D-08  0.00D+00 EMaxC= 1.00D-01 BMatC= 6.97D-13 BMatP= 3.31D-12
 IDIUse=1 WtCom= 1.00D+00 WtEn= 0.00D+00
 Coeff-Com:  0.699D-06-0.127D-05-0.565D-05-0.119D-04 0.829D-05 0.436D-03
 Coeff-Com:  0.980D-03-0.145D-02-0.243D-01 0.357D-03 0.329D+00 0.695D+00
 Coeff:      0.699D-06-0.127D-05-0.565D-05-0.119D-04 0.829D-05 0.436D-03
 Coeff:      0.980D-03-0.145D-02-0.243D-01 0.357D-03 0.329D+00 0.695D+00
 Gap=     0.360 Goal=   None    Shift=    0.000
 RMSDP=5.66D-09 MaxDP=9.09D-08 DE= 1.02D-11 OVMax= 1.79D-07

 SCF Done:  E(RM062X) =  -644.150468876     A.U. after   12 cycles
            NFock= 12  Conv=0.57D-08     -V/T= 2.0025
 KE= 6.425329920603D+02 PE=-2.088243516758D+03 EE= 5.213106769024D+02
 Leave Link  502 at Fri Feb 17 21:50:07 2023, MaxMem=  6710886400 cpu:             106.3 elap:               5.7
 (Enter /data0/home/software/g16/l601.exe)
 Copying SCF densities to generalized density rwf, IOpCl= 0 IROHF=0.

 **********************************************************************

            Population analysis using the SCF density.

 **********************************************************************

 Alpha  occ. eigenvalues --  -78.16752 -19.68902 -19.68337 -19.67354 -19.58775
 Alpha  occ. eigenvalues --   -6.97534  -5.09424  -5.09417  -5.09250  -1.24315
 Alpha  occ. eigenvalues --   -1.17045  -1.16269  -1.08907  -0.72971  -0.65077
 Alpha  occ. eigenvalues --   -0.63946  -0.57161  -0.54676  -0.51204  -0.48745
 Alpha  occ. eigenvalues --   -0.47704  -0.45808  -0.42887  -0.38422  -0.37991
 Alpha virt. eigenvalues --   -0.02037   0.01420   0.01800   0.04715   0.09236
 Alpha virt. eigenvalues --    0.10273   0.11242   0.13945   0.15507   0.17166
 Alpha virt. eigenvalues --    0.17964   0.18552   0.19198   0.20477   0.21467
 Alpha virt. eigenvalues --    0.21980   0.23712   0.24926   0.25722   0.27932
 Alpha virt. eigenvalues --    0.28374   0.29207   0.30365   0.31108   0.32678
 Alpha virt. eigenvalues --    0.34720   0.36448   0.37541   0.41699   0.42962
 Alpha virt. eigenvalues --    0.44082   0.48481   0.52090   0.56329   0.57275
 Alpha virt. eigenvalues --    0.74437   0.76483   0.77051   0.85754   0.96907
 Alpha virt. eigenvalues --    0.99985   1.01299   1.05757   1.08307   1.11471
 Alpha virt. eigenvalues --    1.13342   1.14562   1.18170   1.19297   1.20645
 Alpha virt. eigenvalues --    1.22385   1.23849   1.26025   1.27272   1.33025
 Alpha virt. eigenvalues --    1.38288   1.40978   1.44553   1.47092   1.49145
 Alpha virt. eigenvalues --    1.52430   1.57321   1.58947   1.62528   1.65073
 Alpha virt. eigenvalues --    1.65235   1.70215   1.71622   1.76133   1.81913
 Alpha virt. eigenvalues --    1.82875   1.84490   1.86133   1.91174   1.95531
 Alpha virt. eigenvalues --    2.01478   2.04732   2.05897   2.11813   2.13946
 Alpha virt. eigenvalues --    2.21030   2.23891   2.26669   2.36315   2.44688
 Alpha virt. eigenvalues --    2.50386   2.57494   2.60897   2.62491   2.70553
 Alpha virt. eigenvalues --    2.74954   2.82225   2.84761   2.88521   2.94531
 Alpha virt. eigenvalues --    5.01952   5.05460   5.07110   5.08543   5.08889
 Alpha virt. eigenvalues --    5.12316   5.19348   5.21731   5.34663   5.45217
 Alpha virt. eigenvalues --    5.50251   5.53057   6.70848   6.74424   6.76349
 Alpha virt. eigenvalues --    6.77581   6.78144   6.80302   6.82106   6.87051
 Alpha virt. eigenvalues --    6.89132   6.93996   6.95083   6.96649   7.00530
 Alpha virt. eigenvalues --    7.06652   7.10139   7.22018   7.26430   7.28569
 Alpha virt. eigenvalues --    7.32399   7.39853   7.64019  14.23080  14.24099
 Alpha virt. eigenvalues --   14.35198  49.98543  49.99755  50.01704  50.09392
 Alpha virt. eigenvalues --  163.85907
          Condensed to atoms (all electrons):
              10         11         12         13         14         15
    10  P   12.465954   0.548207   0.235320  -0.006608   0.306582  -0.000799
    11  O    0.548207   8.157333  -0.025696  -0.014919  -0.033482  -0.009185
    12  O    0.235320  -0.025696   8.079278   0.271940   0.008361   0.003028
    13  H   -0.006608  -0.014919   0.271940   0.420157  -0.007903   0.000695
    14  O    0.306582  -0.033482   0.008361  -0.007903   8.018456   0.277996
    15  H   -0.000799  -0.009185   0.003028   0.000695   0.277996   0.386302
    16  O    0.184166  -0.009497  -0.011899   0.001218   0.004661  -0.002640
    17  H    0.040080   0.002683  -0.013667   0.001223  -0.011603   0.000914
              16         17
    10  P    0.184166   0.040080
    11  O   -0.009497   0.002683
    12  O   -0.011899  -0.013667
    13  H    0.001218   0.001223
    14  O    0.004661  -0.011603
    15  H   -0.002640   0.000914
    16  O    8.085711   0.231434
    17  H    0.231434   0.445591
 Mulliken charges:
               1
     1  C    0.000000
     2  C    0.000000
     3  C    0.000000
     4  N    0.000000
     5  H    0.000000
     6  H    0.000000
     7  H    0.000000
     8  H    0.000000
     9  N    0.000000
    10  P    1.227098
    11  O   -0.615444
    12  O   -0.546665
    13  H    0.334199
    14  O   -0.563066
    15  H    0.343689
    16  O   -0.483154
    17  H    0.303344
 Sum of Mulliken charges =  -0.00000
 Mulliken charges with hydrogens summed into heavy atoms:
               1
     1  C    0.000000
     2  C    0.000000
     3  C    0.000000
     4  N    0.000000
     9  N    0.000000
    10  P    1.227098
    11  O   -0.615444
    12  O   -0.212466
    14  O   -0.219378
    16  O   -0.179810
         Mulliken charges condensed to fragments:
      1      0.000000
      2     -0.000000
 Electronic spatial extent (au):  <R**2>=          55715.0072
 Charge=             -0.0000 electrons
 Dipole moment (field-independent basis, Debye):
    X=              2.9531    Y=             -2.2730    Z=             -0.5508  Tot=              3.7670
 Quadrupole moment (field-independent basis, Debye-Ang):
   XX=              5.5100   YY=            -75.1341   ZZ=            -44.6829
   XY=             14.2896   XZ=             34.3324   YZ=            -35.1916
 Traceless Quadrupole moment (field-independent basis, Debye-Ang):
   XX=             43.6124   YY=            -37.0318   ZZ=             -6.5806
   XY=             14.2896   XZ=             34.3324   YZ=            -35.1916
 Octapole moment (field-independent basis, Debye-Ang**2):
  XXX=           -384.2610  YYY=          -1527.7128  ZZZ=          -1439.2893  XYY=           -239.4170
  XXY=            -14.3256  XXZ=             51.6357  XZZ=            154.5683  YZZ=           -829.2642
  YYZ=          -1021.2736  XYZ=            138.6590
 Hexadecapole moment (field-independent basis, Debye-Ang**3):
 XXXX=          -8572.6289 YYYY=         -25312.5061 ZZZZ=         -34515.6347 XXXY=          -3770.5229
 XXXZ=          -4994.5606 YYYX=          -8168.0220 YYYZ=         -20077.4791 ZZZX=          -4696.7502
 ZZZY=         -19253.9432 XXYY=          -2686.3056 XXZZ=          -1527.6738 YYZZ=         -16821.6354
 XXYZ=           -489.4910 YYXZ=          -3538.2741 ZZXY=          -1152.2985
 N-N= 2.802493789197D+02 E-N=-2.088243518844D+03  KE= 6.425329920603D+02
 No NMR shielding tensors so no spin-rotation constants.
 Leave Link  601 at Fri Feb 17 21:50:07 2023, MaxMem=  6710886400 cpu:               1.9 elap:               0.1
 (Enter /data0/home/software/g16/l122.exe)
 CPIOFr:  IOpCl= 0 IRwI=-1 IRwCP=  731 ICalc=  4 LCPTot=      158204 Len1MO=      416108 IndFrg=     2238744
 Restoring MOs from calculation   1 to rwf.
 CPIOFr:  IOpCl= 0 IRwI=-2 IRwCP=  731 ICalc=  0 LCPTot=      158204 Len1MO=      416108 IndFrg=      574312
 Counterpoise corrected energy =    -870.347708901784
                   BSSE energy =       0.000751567397
              sum of fragments =    -870.338519223582
           complexation energy =      -6.24 kcal/mole (raw)
           complexation energy =      -5.77 kcal/mole (corrected)
 Leave Link  122 at Fri Feb 17 21:50:07 2023, MaxMem=  6710886400 cpu:               0.2 elap:               0.0
 (Enter /data0/home/software/g16/l9999.exe)
 1\1\GINC-LOCALHOST\SP\RM062X\6-311+G(2d,p)\C3H7N2O4P1\WUHANYU\17-Feb-2
 023\0\\#p M062X/6-311+G(2d,p) nosymm em=GD3 counterpoise=2\\Title Card
  Required\\0,1\C,0,4.48369,5.432844,11.489475\C,0,5.41592,4.977543,12.
 423295\C,0,4.715339,6.9402,13.133457\N,0,4.043001,6.67472,11.949956\H,
 0,3.432369,7.305985,11.43784\H,0,4.108149,4.983802,10.595374\H,0,5.978
 397,4.064896,12.441755\H,0,4.576425,7.836886,13.720872\N,0,5.547356,5.
 920481,13.431168\P,0,7.615498,9.417807,12.710682\O,0,6.147478,9.402998
 ,12.786794\O,0,8.431551,9.068864,14.012951\H,0,8.088088,8.13171,14.386
 505\O,0,8.282148,8.491752,11.608566\H,0,7.55877,8.160368,10.937453\O,0
 ,8.121203,10.887963,12.361081\H,0,9.150834,10.882786,12.361933\\Versio
 n=ES64L-G16RevA.03\HF=-644.1504689\RMSD=5.660e-09\Dipole=0.1697834,-0.
 2018097,-1.1341855\Quadrupole=28.4094288,6.0236492,-34.433078,2.949652
 ,-5.5417766,-18.9786489\PG=C01 [X(C3H7N2O4P1)]\\@


 OLD AGE AND TREACHERY WILL ALWAYS PREVAIL OVER YOUTH AND SKILL.
 Job cpu time:       0 days  0 hours 30 minutes 27.5 seconds.
 Elapsed time:       0 days  0 hours  1 minutes 19.8 seconds.
 File lengths (MBytes):  RWF=     82 Int=      0 D2E=      0 Chk=     24 Scr=      1
 Normal termination of Gaussian 16 at Fri Feb 17 21:50:07 2023.
