 Entering Gaussian System, Link 0=g16
 Initial command:
 /data0/home/software/g16/l1.exe "/data0/home/software/g16/scratch/Gau-298493.inp" -scrdir="/data0/home/software/g16/scratch/"
 Default is to use a total of  22 processors:
                               22 via shared-memory
                                1 via Linda
 Entering Link 1 = /data0/home/software/g16/l1.exe PID=    298494.
  
 Copyright (c) 1988,1990,1992,1993,1995,1998,2003,2009,2016,
            Gaussian, Inc.  All Rights Reserved.
  
 This is part of the Gaussian(R) 16 program.  It is based on
 the Gaussian(R) 09 system (copyright 2009, Gaussian, Inc.),
 the Gaussian(R) 03 system (copyright 2003, Gaussian, Inc.),
 the Gaussian(R) 98 system (copyright 1998, Gaussian, Inc.),
 the Gaussian(R) 94 system (copyright 1995, Gaussian, Inc.),
 the Gaussian 92(TM) system (copyright 1992, Gaussian, Inc.),
 the Gaussian 90(TM) system (copyright 1990, Gaussian, Inc.),
 the Gaussian 88(TM) system (copyright 1988, Gaussian, Inc.),
 the Gaussian 86(TM) system (copyright 1986, Carnegie Mellon
 University), and the Gaussian 82(TM) system (copyright 1983,
 Carnegie Mellon University). Gaussian is a federally registered
 trademark of Gaussian, Inc.
  
 This software contains proprietary and confidential information,
 including trade secrets, belonging to Gaussian, Inc.
  
 This software is provided under written license and may be
 used, copied, transmitted, or stored only in accord with that
 written license.
  
 The following legend is applicable only to US Government
 contracts under FAR:
  
                    RESTRICTED RIGHTS LEGEND
  
 Use, reproduction and disclosure by the US Government is
 subject to restrictions as set forth in subparagraphs (a)
 and (c) of the Commercial Computer Software - Restricted
 Rights clause in FAR 52.227-19.
  
 Gaussian, Inc.
 340 Quinnipiac St., Bldg. 40, Wallingford CT 06492
  
  
 ---------------------------------------------------------------
 Warning -- This program may not be used in any manner that
 competes with the business of Gaussian, Inc. or will provide
 assistance to any competitor of Gaussian, Inc.  The licensee
 of this program is prohibited from giving any competitor of
 Gaussian, Inc. access to this program.  By using this program,
 the user acknowledges that Gaussian, Inc. is engaged in the
 business of creating and licensing software in the field of
 computational chemistry and represents and warrants to the
 licensee that it is not a competitor of Gaussian, Inc. and that
 it will not use this program in any manner prohibited above.
 ---------------------------------------------------------------
  

 Cite this work as:
 Gaussian 16, Revision A.03,
 M. J. Frisch, G. W. Trucks, H. B. Schlegel, G. E. Scuseria, 
 M. A. Robb, J. R. Cheeseman, G. Scalmani, V. Barone, 
 G. A. Petersson, H. Nakatsuji, X. Li, M. Caricato, A. V. Marenich, 
 J. Bloino, B. G. Janesko, R. Gomperts, B. Mennucci, H. P. Hratchian, 
 J. V. Ortiz, A. F. Izmaylov, J. L. Sonnenberg, D. Williams-Young, 
 F. Ding, F. Lipparini, F. Egidi, J. Goings, B. Peng, A. Petrone, 
 T. Henderson, D. Ranasinghe, V. G. Zakrzewski, J. Gao, N. Rega, 
 G. Zheng, W. Liang, M. Hada, M. Ehara, K. Toyota, R. Fukuda, 
 J. Hasegawa, M. Ishida, T. Nakajima, Y. Honda, O. Kitao, H. Nakai, 
 T. Vreven, K. Throssell, J. A. Montgomery, Jr., J. E. Peralta, 
 F. Ogliaro, M. J. Bearpark, J. J. Heyd, E. N. Brothers, K. N. Kudin, 
 V. N. Staroverov, T. A. Keith, R. Kobayashi, J. Normand, 
 K. Raghavachari, A. P. Rendell, J. C. Burant, S. S. Iyengar, 
 J. Tomasi, M. Cossi, J. M. Millam, M. Klene, C. Adamo, R. Cammi, 
 J. W. Ochterski, R. L. Martin, K. Morokuma, O. Farkas, 
 J. B. Foresman, and D. J. Fox, Gaussian, Inc., Wallingford CT, 2016.
 
 ******************************************
 Gaussian 16:  ES64L-G16RevA.03 25-Dec-2016
                19-Feb-2023 
 ******************************************
 %nproc=24
 Will use up to   24 processors via shared memory.
 %mem=50GB
 ---------------------------------------------------
 #p M062X/6-311+G(2d,p) nosymm em=GD3 counterpoise=3
 ---------------------------------------------------
 1/38=1,62=3,172=1/1;
 2/12=2,15=1,17=6,18=5,40=1/2;
 1/38=1,53=2,62=3,63=1/22;
 3/5=4,6=6,7=112,11=2,25=1,30=1,74=-55,124=31/1,2,3;
 4//1;
 5/5=2,38=5/2;
 6/7=2,8=2,9=2,10=2,28=1/1;
 1/53=2,62=3,63=1/22;
 3/5=7,6=11,7=112,11=2,25=1,30=1,74=-55,82=7,124=31/1,2,3;
 4//1;
 5/5=2,38=5/2;
 6/7=2,8=2,9=2,10=2,28=1/1;
 1/53=2,62=3,63=1/22(-4);
 99/5=1,9=1/99;
 Leave Link    1 at Sun Feb 19 13:48:36 2023, MaxMem=  6710886400 cpu:               0.7 elap:               0.0
 (Enter /data0/home/software/g16/l101.exe)
 -------------------
 Title Card Required
 -------------------
 Symbolic Z-matrix:
 Charge =  0 Multiplicity = 1 in supermolecule
 Charge =  0 Multiplicity = 1 in fragment      1.
 Charge =  0 Multiplicity = 1 in fragment      2.
 Charge =  0 Multiplicity = 1 in fragment      3.
 P                     9.12348   7.01634   8.18517    
 O                     9.61368   6.209     9.30061    
 O                     7.90164   7.89405   8.69607    
 H                     7.64227   8.65473   8.04182    
 O                     10.12297   7.95605   7.40251    
 H                     10.41044   8.77795   8.01208    
 O                     8.56627   6.09098   7.00999    
 H                     8.52484   6.64634   6.14667    
 O                     7.11141   10.24222   7.38556    
 H                     7.89381   10.78126   7.16761    
 H                     6.85186   10.55493   8.26357    
 O                     6.71101   11.18254   10.14418    
 H                     7.66716   11.44222   10.05576    
 H                     6.23457   12.00154   10.09009    
 
 ITRead=  0  0  0  0  0  0  0  0  0  0  0  0  0  0
 MicOpt= -1 -1 -1 -1 -1 -1 -1 -1 -1 -1 -1 -1 -1 -1
 NAtoms=     14 NQM=       14 NQMF=       0 NMMI=      0 NMMIF=      0
                NMic=       0 NMicF=      0.
                    Isotopes and Nuclear Properties:
 (Nuclear quadrupole moments (NQMom) in fm**2, nuclear magnetic moments (NMagM)
  in nuclear magnetons)

  Atom         1           2           3           4           5           6           7           8           9          10
 IAtWgt=          31          16          16           1          16           1          16           1          16           1
 AtmWgt=  30.9737634  15.9949146  15.9949146   1.0078250  15.9949146   1.0078250  15.9949146   1.0078250  15.9949146   1.0078250
 NucSpn=           1           0           0           1           0           1           0           1           0           1
 AtZEff=  -0.0000000  -0.0000000  -0.0000000  -0.0000000  -0.0000000  -0.0000000  -0.0000000  -0.0000000  -0.0000000  -0.0000000
 NQMom=    0.0000000   0.0000000   0.0000000   0.0000000   0.0000000   0.0000000   0.0000000   0.0000000   0.0000000   0.0000000
 NMagM=    1.1316000   0.0000000   0.0000000   2.7928460   0.0000000   2.7928460   0.0000000   2.7928460   0.0000000   2.7928460
 AtZNuc=  15.0000000   8.0000000   8.0000000   1.0000000   8.0000000   1.0000000   8.0000000   1.0000000   8.0000000   1.0000000

  Atom        11          12          13          14
 IAtWgt=           1          16           1           1
 AtmWgt=   1.0078250  15.9949146   1.0078250   1.0078250
 NucSpn=           1           0           1           1
 AtZEff=  -0.0000000  -0.0000000  -0.0000000  -0.0000000
 NQMom=    0.0000000   0.0000000   0.0000000   0.0000000
 NMagM=    2.7928460   0.0000000   2.7928460   2.7928460
 AtZNuc=   1.0000000   8.0000000   1.0000000   1.0000000
 Leave Link  101 at Sun Feb 19 13:48:36 2023, MaxMem=  6710886400 cpu:               1.9 elap:               0.1
 (Enter /data0/home/software/g16/l202.exe)
                          Input orientation:                          
 ---------------------------------------------------------------------
 Center     Atomic      Atomic             Coordinates (Angstroms)
 Number     Number       Type             X           Y           Z
 ---------------------------------------------------------------------
      1         15           0        9.123484    7.016339    8.185167
      2          8           0        9.613684    6.209003    9.300606
      3          8           0        7.901637    7.894052    8.696073
      4          1           0        7.642268    8.654725    8.041825
      5          8           0       10.122974    7.956047    7.402511
      6          1           0       10.410441    8.777952    8.012083
      7          8           0        8.566274    6.090978    7.009991
      8          1           0        8.524840    6.646337    6.146667
      9          8           0        7.111406   10.242216    7.385558
     10          1           0        7.893805   10.781262    7.167611
     11          1           0        6.851857   10.554925    8.263571
     12          8           0        6.711013   11.182545   10.144183
     13          1           0        7.667157   11.442221   10.055757
     14          1           0        6.234570   12.001537   10.090090
 ---------------------------------------------------------------------
                    Distance matrix (angstroms):
                    1          2          3          4          5
     1  P    0.000000
     2  O    1.461606   0.000000
     3  O    1.588809   2.477086   0.000000
     4  H    2.213336   3.384164   1.036309   0.000000
     5  O    1.579425   2.629506   2.571281   2.655330   0.000000
     6  H    2.188492   2.982384   2.746492   2.771074   1.062894
     7  O    1.596188   2.521491   2.556500   2.913978   2.460868
     8  H    2.156562   3.365141   2.905967   2.898996   2.417957
     9  O    3.885115   5.118165   2.802818   1.797951   3.781058
    10  H    4.089276   5.330404   3.266839   2.312938   3.606413
    11  H    4.205714   5.252634   2.892981   2.069947   4.265653
    12  O    5.197599   5.820072   3.785339   3.417165   5.437696
    13  H    5.020799   5.634340   3.806997   3.438993   5.022366
    14  H    6.068505   6.752418   4.646916   4.168711   6.221636
                    6          7          8          9         10
     6  H    0.000000
     7  O    3.409541   0.000000
     8  H    3.402800   1.027360   0.000000
     9  O    3.663364   4.414801   4.057461   0.000000
    10  H    3.325634   4.740867   4.305594   0.974792   0.000000
    11  H    3.985524   4.943431   4.749444   0.967502   1.529056
    12  O    4.900376   6.260128   6.312471   2.941861   3.228003
    13  H    4.335959   6.222612   6.246368   2.979737   2.971468
    14  H    5.669878   7.061059   7.033782   3.343433   3.575334
                   11         12         13         14
    11  H    0.000000
    12  O    1.987573   0.000000
    13  H    2.159615   0.994717   0.000000
    14  H    2.410374   0.949037   1.538284   0.000000
 Symmetry turned off by external request.
 Stoichiometry    H7O6P
 Framework group  C1[X(H7O6P)]
 Deg. of freedom    36
 Full point group                 C1      NOp   1
 Rotational constants (GHZ):           2.9673028           0.8071318           0.7372417
 Leave Link  202 at Sun Feb 19 13:48:36 2023, MaxMem=  6710886400 cpu:               0.1 elap:               0.0
 (Enter /data0/home/software/g16/l122.exe)
 Counterpoise: doing full-system calculation.
 Leave Link  122 at Sun Feb 19 13:48:36 2023, MaxMem=  6710886400 cpu:               0.0 elap:               0.0
 (Enter /data0/home/software/g16/l301.exe)
 Standard basis: 6-311+G(2d,p) (5D, 7F)
 Ernie: Thresh=  0.10000D-02 Tol=  0.10000D-05 Strict=F.
   239 basis functions,   364 primitive gaussians,   253 cartesian basis functions
    35 alpha electrons       35 beta electrons
       nuclear repulsion energy       437.1876296223 Hartrees.
 IExCor= 4336 DFT=T Ex+Corr=M062X ExCW=0 ScaHFX=  0.540000
 ScaDFX=  1.000000  1.000000  1.000000  1.000000 ScalE2=  1.000000  1.000000
 IRadAn=      5 IRanWt=     -1 IRanGd=            0 ICorTp=0 IEmpDi=131
 NAtoms=   14 NActive=   14 NUniq=   14 SFac= 1.00D+00 NAtFMM=   60 NAOKFM=F Big=F
 Integral buffers will be    131072 words long.
 Raffenetti 2 integral format.
 Two-electron integral symmetry is turned off.
 R6Disp:  Grimme-D3 Dispersion energy=       -0.0003560270 Hartrees.
 Nuclear repulsion after empirical dispersion term =      437.1872735953 Hartrees.
 Leave Link  301 at Sun Feb 19 13:48:36 2023, MaxMem=  6710886400 cpu:               1.1 elap:               0.1
 (Enter /data0/home/software/g16/l302.exe)
 NPDir=0 NMtPBC=     1 NCelOv=     1 NCel=       1 NClECP=     1 NCelD=      1
         NCelK=      1 NCelE2=     1 NClLst=     1 CellRange=     0.0.
 One-electron integrals computed using PRISM.
 NBasis=   239 RedAO= T EigKep=  4.93D-04  NBF=   239
 NBsUse=   239 1.00D-06 EigRej= -1.00D+00 NBFU=   239
 Precomputing XC quadrature grid using
 IXCGrd= 4 IRadAn=           5 IRanWt=          -1 IRanGd=           0 AccXCQ= 0.00D+00.
 Generated NRdTot=       0 NPtTot=           0 NUsed=           0 NTot=          32
 NSgBfM=   253   253   253   253   253 MxSgAt=    14 MxSgA2=    14.
 Leave Link  302 at Sun Feb 19 13:48:36 2023, MaxMem=  6710886400 cpu:               3.8 elap:               0.2
 (Enter /data0/home/software/g16/l303.exe)
 DipDrv:  MaxL=1.
 Leave Link  303 at Sun Feb 19 13:48:36 2023, MaxMem=  6710886400 cpu:               0.6 elap:               0.0
 (Enter /data0/home/software/g16/l401.exe)
 ExpMin= 3.48D-02 ExpMax= 7.75D+04 ExpMxC= 2.65D+03 IAcc=3 IRadAn=         5 AccDes= 0.00D+00
 Harris functional with IExCor= 1009 and IRadAn=       5 diagonalized for initial guess.
 HarFok:  IExCor= 1009 AccDes= 0.00D+00 IRadAn=         5 IDoV= 1 UseB2=F ITyADJ=14
 ICtDFT=  3500011 ScaDFX=  1.000000  1.000000  1.000000  1.000000
 FoFCou: FMM=F IPFlag=           0 FMFlag=      100000 FMFlg1=           0
         NFxFlg=           0 DoJE=T BraDBF=F KetDBF=T FulRan=T
         wScrn=  0.000000 ICntrl=       500 IOpCl=  0 I1Cent=   200000004 NGrid=           0
         NMat0=    1 NMatS0=      1 NMatT0=    0 NMatD0=    1 NMtDS0=    0 NMtDT0=    0
 Symmetry not used in FoFCou.
 Harris En= -796.781703633196    
 JPrj=0 DoOrth=F DoCkMO=F.
 Leave Link  401 at Sun Feb 19 13:48:37 2023, MaxMem=  6710886400 cpu:               9.9 elap:               0.4
 (Enter /data0/home/software/g16/l502.exe)
 Two-electron integral symmetry not used.
 Closed shell SCF:
 Using DIIS extrapolation, IDIIS=  1040.
 NGot=  6710886400 LenX=  6710750439 LenY=  6710685989
 Requested convergence on RMS density matrix=1.00D-08 within 128 cycles.
 Requested convergence on MAX density matrix=1.00D-06.
 Requested convergence on             energy=1.00D-06.
 No special actions if energy rises.
 Fock matrices will be formed incrementally for  20 cycles.

 Cycle   1  Pass 1  IDiag  1:
 FoFJK:  IHMeth= 1 ICntrl=       0 DoSepK=F KAlg= 0 I1Cent=           0 FoldK=F
 IRaf= 890000000 NMat=       1 IRICut=       1 DoRegI=T DoRafI=F ISym2E= 0 IDoP0=0 IntGTp=1.
 FoFCou: FMM=F IPFlag=           0 FMFlag=      100000 FMFlg1=           0
         NFxFlg=           0 DoJE=F BraDBF=F KetDBF=F FulRan=T
         wScrn=  0.000000 ICntrl=         0 IOpCl=  0 I1Cent=           0 NGrid=           0
         NMat0=    1 NMatS0=      1 NMatT0=    0 NMatD0=    1 NMtDS0=    0 NMtDT0=    0
 Symmetry not used in FoFCou.
 E= -796.583055766784    
 DIIS: error= 4.43D-02 at cycle   1 NSaved=   1.
 NSaved= 1 IEnMin= 1 EnMin= -796.583055766784     IErMin= 1 ErrMin= 4.43D-02
 ErrMax= 4.43D-02  0.00D+00 EMaxC= 1.00D-01 BMatC= 7.29D-01 BMatP= 7.29D-01
 IDIUse=3 WtCom= 5.57D-01 WtEn= 4.43D-01
 Coeff-Com:  0.100D+01
 Coeff-En:   0.100D+01
 Coeff:      0.100D+01
 Gap=     0.250 Goal=   None    Shift=    0.000
 GapD=    0.250 DampG=1.000 DampE=0.500 DampFc=0.5000 IDamp=-1.
 Damping current iteration by 5.00D-01
 RMSDP=7.65D-03 MaxDP=2.91D-01              OVMax= 2.63D-01

 Cycle   2  Pass 1  IDiag  1:
 RMSU=  3.82D-03    CP:  1.01D+00
 E= -796.757195474634     Delta-E=       -0.174139707849 Rises=F Damp=T
 DIIS: error= 9.60D-03 at cycle   2 NSaved=   2.
 NSaved= 2 IEnMin= 2 EnMin= -796.757195474634     IErMin= 2 ErrMin= 9.60D-03
 ErrMax= 9.60D-03  0.00D+00 EMaxC= 1.00D-01 BMatC= 3.59D-02 BMatP= 7.29D-01
 IDIUse=3 WtCom= 9.04D-01 WtEn= 9.60D-02
 Coeff-Com:  0.682D-01 0.932D+00
 Coeff-En:   0.190D+00 0.810D+00
 Coeff:      0.799D-01 0.920D+00
 Gap=     0.327 Goal=   None    Shift=    0.000
 RMSDP=1.67D-03 MaxDP=8.52D-02 DE=-1.74D-01 OVMax= 1.64D-01

 Cycle   3  Pass 1  IDiag  1:
 RMSU=  1.13D-03    CP:  1.00D+00  6.78D-01
 E= -796.998263625447     Delta-E=       -0.241068150814 Rises=F Damp=F
 DIIS: error= 5.25D-03 at cycle   3 NSaved=   3.
 NSaved= 3 IEnMin= 3 EnMin= -796.998263625447     IErMin= 3 ErrMin= 5.25D-03
 ErrMax= 5.25D-03  0.00D+00 EMaxC= 1.00D-01 BMatC= 1.20D-02 BMatP= 3.59D-02
 IDIUse=3 WtCom= 9.48D-01 WtEn= 5.25D-02
 Coeff-Com: -0.147D-01 0.318D+00 0.697D+00
 Coeff-En:   0.000D+00 0.000D+00 0.100D+01
 Coeff:     -0.139D-01 0.301D+00 0.713D+00
 Gap=     0.316 Goal=   None    Shift=    0.000
 RMSDP=5.21D-04 MaxDP=1.79D-02 DE=-2.41D-01 OVMax= 4.03D-02

 Cycle   4  Pass 1  IDiag  1:
 RMSU=  4.67D-04    CP:  1.00D+00  7.18D-01  8.44D-01
 E= -797.003321052161     Delta-E=       -0.005057426714 Rises=F Damp=F
 DIIS: error= 3.56D-03 at cycle   4 NSaved=   4.
 NSaved= 4 IEnMin= 4 EnMin= -797.003321052161     IErMin= 4 ErrMin= 3.56D-03
 ErrMax= 3.56D-03  0.00D+00 EMaxC= 1.00D-01 BMatC= 5.12D-03 BMatP= 1.20D-02
 IDIUse=3 WtCom= 9.64D-01 WtEn= 3.56D-02
 Coeff-Com: -0.202D-01 0.422D-01 0.416D+00 0.562D+00
 Coeff-En:   0.000D+00 0.000D+00 0.298D+00 0.702D+00
 Coeff:     -0.195D-01 0.407D-01 0.412D+00 0.567D+00
 Gap=     0.323 Goal=   None    Shift=    0.000
 RMSDP=2.17D-04 MaxDP=7.87D-03 DE=-5.06D-03 OVMax= 1.40D-02

 Cycle   5  Pass 1  IDiag  1:
 RMSU=  6.26D-05    CP:  1.00D+00  7.08D-01  9.40D-01  6.30D-01
 E= -797.006709868975     Delta-E=       -0.003388816813 Rises=F Damp=F
 DIIS: error= 2.04D-04 at cycle   5 NSaved=   5.
 NSaved= 5 IEnMin= 5 EnMin= -797.006709868975     IErMin= 5 ErrMin= 2.04D-04
 ErrMax= 2.04D-04  0.00D+00 EMaxC= 1.00D-01 BMatC= 2.10D-05 BMatP= 5.12D-03
 IDIUse=3 WtCom= 9.98D-01 WtEn= 2.04D-03
 Coeff-Com: -0.287D-02 0.110D-02 0.699D-01 0.125D+00 0.807D+00
 Coeff-En:   0.000D+00 0.000D+00 0.000D+00 0.000D+00 0.100D+01
 Coeff:     -0.286D-02 0.110D-02 0.698D-01 0.124D+00 0.808D+00
 Gap=     0.322 Goal=   None    Shift=    0.000
 RMSDP=2.15D-05 MaxDP=7.27D-04 DE=-3.39D-03 OVMax= 1.01D-03

 Cycle   6  Pass 1  IDiag  1:
 RMSU=  1.73D-05    CP:  1.00D+00  7.06D-01  9.42D-01  6.48D-01  1.03D+00
 E= -797.006723380500     Delta-E=       -0.000013511525 Rises=F Damp=F
 DIIS: error= 1.42D-04 at cycle   6 NSaved=   6.
 NSaved= 6 IEnMin= 6 EnMin= -797.006723380500     IErMin= 6 ErrMin= 1.42D-04
 ErrMax= 1.42D-04  0.00D+00 EMaxC= 1.00D-01 BMatC= 3.05D-06 BMatP= 2.10D-05
 IDIUse=3 WtCom= 9.99D-01 WtEn= 1.42D-03
 Coeff-Com: -0.325D-05-0.167D-02 0.382D-02 0.152D-01 0.292D+00 0.691D+00
 Coeff-En:   0.000D+00 0.000D+00 0.000D+00 0.000D+00 0.000D+00 0.100D+01
 Coeff:     -0.325D-05-0.167D-02 0.382D-02 0.151D-01 0.291D+00 0.692D+00
 Gap=     0.322 Goal=   None    Shift=    0.000
 RMSDP=9.98D-06 MaxDP=3.18D-04 DE=-1.35D-05 OVMax= 3.22D-04

 Cycle   7  Pass 1  IDiag  1:
 RMSU=  4.94D-06    CP:  1.00D+00  7.04D-01  9.42D-01  6.51D-01  1.11D+00
                    CP:  8.49D-01
 E= -797.006725482973     Delta-E=       -0.000002102474 Rises=F Damp=F
 DIIS: error= 4.39D-05 at cycle   7 NSaved=   7.
 NSaved= 7 IEnMin= 7 EnMin= -797.006725482973     IErMin= 7 ErrMin= 4.39D-05
 ErrMax= 4.39D-05  0.00D+00 EMaxC= 1.00D-01 BMatC= 4.41D-07 BMatP= 3.05D-06
 IDIUse=1 WtCom= 1.00D+00 WtEn= 0.00D+00
 Coeff-Com:  0.425D-03-0.732D-03-0.993D-02-0.145D-01-0.170D-01 0.264D+00
 Coeff-Com:  0.777D+00
 Coeff:      0.425D-03-0.732D-03-0.993D-02-0.145D-01-0.170D-01 0.264D+00
 Coeff:      0.777D+00
 Gap=     0.323 Goal=   None    Shift=    0.000
 RMSDP=3.96D-06 MaxDP=1.56D-04 DE=-2.10D-06 OVMax= 1.79D-04

 Cycle   8  Pass 1  IDiag  1:
 RMSU=  2.24D-06    CP:  1.00D+00  7.03D-01  9.43D-01  6.53D-01  1.13D+00
                    CP:  9.36D-01  8.98D-01
 E= -797.006725802046     Delta-E=       -0.000000319073 Rises=F Damp=F
 DIIS: error= 9.77D-06 at cycle   8 NSaved=   8.
 NSaved= 8 IEnMin= 8 EnMin= -797.006725802046     IErMin= 8 ErrMin= 9.77D-06
 ErrMax= 9.77D-06  0.00D+00 EMaxC= 1.00D-01 BMatC= 4.08D-08 BMatP= 4.41D-07
 IDIUse=1 WtCom= 1.00D+00 WtEn= 0.00D+00
 Coeff-Com:  0.160D-03-0.196D-03-0.424D-02-0.639D-02-0.185D-01 0.683D-01
 Coeff-Com:  0.319D+00 0.642D+00
 Coeff:      0.160D-03-0.196D-03-0.424D-02-0.639D-02-0.185D-01 0.683D-01
 Coeff:      0.319D+00 0.642D+00
 Gap=     0.323 Goal=   None    Shift=    0.000
 RMSDP=7.67D-07 MaxDP=3.48D-05 DE=-3.19D-07 OVMax= 3.59D-05

 Cycle   9  Pass 1  IDiag  1:
 RMSU=  5.49D-07    CP:  1.00D+00  7.03D-01  9.43D-01  6.53D-01  1.14D+00
                    CP:  9.51D-01  9.73D-01  8.87D-01
 E= -797.006725834097     Delta-E=       -0.000000032051 Rises=F Damp=F
 DIIS: error= 1.76D-06 at cycle   9 NSaved=   9.
 NSaved= 9 IEnMin= 9 EnMin= -797.006725834097     IErMin= 9 ErrMin= 1.76D-06
 ErrMax= 1.76D-06  0.00D+00 EMaxC= 1.00D-01 BMatC= 1.61D-09 BMatP= 4.08D-08
 IDIUse=1 WtCom= 1.00D+00 WtEn= 0.00D+00
 Coeff-Com: -0.186D-04 0.420D-04 0.118D-03 0.229D-03-0.189D-02-0.129D-01
 Coeff-Com: -0.161D-01 0.104D+00 0.926D+00
 Coeff:     -0.186D-04 0.420D-04 0.118D-03 0.229D-03-0.189D-02-0.129D-01
 Coeff:     -0.161D-01 0.104D+00 0.926D+00
 Gap=     0.323 Goal=   None    Shift=    0.000
 RMSDP=3.11D-07 MaxDP=9.31D-06 DE=-3.21D-08 OVMax= 1.16D-05

 Cycle  10  Pass 1  IDiag  1:
 RMSU=  1.57D-07    CP:  1.00D+00  7.03D-01  9.42D-01  6.54D-01  1.14D+00
                    CP:  9.53D-01  9.90D-01  9.71D-01  1.02D+00
 E= -797.006725835666     Delta-E=       -0.000000001569 Rises=F Damp=F
 DIIS: error= 1.58D-06 at cycle  10 NSaved=  10.
 NSaved=10 IEnMin=10 EnMin= -797.006725835666     IErMin=10 ErrMin= 1.58D-06
 ErrMax= 1.58D-06  0.00D+00 EMaxC= 1.00D-01 BMatC= 5.80D-10 BMatP= 1.61D-09
 IDIUse=1 WtCom= 1.00D+00 WtEn= 0.00D+00
 Coeff-Com: -0.222D-04 0.377D-04 0.397D-03 0.616D-03 0.288D-03-0.126D-01
 Coeff-Com: -0.350D-01 0.312D-03 0.476D+00 0.570D+00
 Coeff:     -0.222D-04 0.377D-04 0.397D-03 0.616D-03 0.288D-03-0.126D-01
 Coeff:     -0.350D-01 0.312D-03 0.476D+00 0.570D+00
 Gap=     0.323 Goal=   None    Shift=    0.000
 RMSDP=9.81D-08 MaxDP=2.82D-06 DE=-1.57D-09 OVMax= 5.02D-06

 Cycle  11  Pass 1  IDiag  1:
 RMSU=  5.64D-08    CP:  1.00D+00  7.03D-01  9.42D-01  6.54D-01  1.14D+00
                    CP:  9.53D-01  9.94D-01  9.80D-01  1.13D+00  8.40D-01
 E= -797.006725836073     Delta-E=       -0.000000000407 Rises=F Damp=F
 DIIS: error= 1.85D-07 at cycle  11 NSaved=  11.
 NSaved=11 IEnMin=11 EnMin= -797.006725836073     IErMin=11 ErrMin= 1.85D-07
 ErrMax= 1.85D-07  0.00D+00 EMaxC= 1.00D-01 BMatC= 1.49D-11 BMatP= 5.80D-10
 IDIUse=1 WtCom= 1.00D+00 WtEn= 0.00D+00
 Coeff-Com:  0.577D-06-0.124D-05 0.366D-04 0.445D-04 0.305D-03-0.302D-03
 Coeff-Com: -0.371D-02-0.120D-01-0.376D-01 0.898D-01 0.963D+00
 Coeff:      0.577D-06-0.124D-05 0.366D-04 0.445D-04 0.305D-03-0.302D-03
 Coeff:     -0.371D-02-0.120D-01-0.376D-01 0.898D-01 0.963D+00
 Gap=     0.323 Goal=   None    Shift=    0.000
 RMSDP=2.64D-08 MaxDP=8.69D-07 DE=-4.07D-10 OVMax= 1.32D-06

 Cycle  12  Pass 1  IDiag  1:
 RMSU=  1.32D-08    CP:  1.00D+00  7.03D-01  9.42D-01  6.54D-01  1.14D+00
                    CP:  9.53D-01  9.95D-01  9.84D-01  1.14D+00  9.32D-01
                    CP:  1.05D+00
 E= -797.006725836085     Delta-E=       -0.000000000012 Rises=F Damp=F
 DIIS: error= 4.79D-08 at cycle  12 NSaved=  12.
 NSaved=12 IEnMin=12 EnMin= -797.006725836085     IErMin=12 ErrMin= 4.79D-08
 ErrMax= 4.79D-08  0.00D+00 EMaxC= 1.00D-01 BMatC= 8.21D-13 BMatP= 1.49D-11
 IDIUse=1 WtCom= 1.00D+00 WtEn= 0.00D+00
 Coeff-Com:  0.903D-06-0.165D-05-0.134D-05-0.576D-05 0.788D-04 0.306D-03
 Coeff-Com:  0.177D-03-0.289D-02-0.265D-01 0.170D-02 0.253D+00 0.774D+00
 Coeff:      0.903D-06-0.165D-05-0.134D-05-0.576D-05 0.788D-04 0.306D-03
 Coeff:      0.177D-03-0.289D-02-0.265D-01 0.170D-02 0.253D+00 0.774D+00
 Gap=     0.323 Goal=   None    Shift=    0.000
 RMSDP=5.95D-09 MaxDP=1.54D-07 DE=-1.23D-11 OVMax= 2.18D-07

 SCF Done:  E(RM062X) =  -797.006725836     A.U. after   12 cycles
            NFock= 12  Conv=0.60D-08     -V/T= 2.0026
 KE= 7.949640060163D+02 PE=-2.763876731577D+03 EE= 7.347187261293D+02
 Leave Link  502 at Sun Feb 19 13:48:48 2023, MaxMem=  6710886400 cpu:             260.2 elap:              10.9
 (Enter /data0/home/software/g16/l601.exe)
 Copying SCF densities to generalized density rwf, IOpCl= 0 IROHF=0.

 **********************************************************************

            Population analysis using the SCF density.

 **********************************************************************

 Alpha  occ. eigenvalues --  -78.14727 -19.68914 -19.67596 -19.66925 -19.66073
 Alpha  occ. eigenvalues --  -19.64534 -19.55947  -6.95513  -5.07453  -5.07395
 Alpha  occ. eigenvalues --   -5.07179  -1.22849  -1.18477  -1.17472  -1.15668
 Alpha  occ. eigenvalues --   -1.14014  -1.06566  -0.71034  -0.65735  -0.65188
 Alpha  occ. eigenvalues --   -0.64431  -0.62338  -0.55902  -0.54091  -0.52562
 Alpha  occ. eigenvalues --   -0.52002  -0.48520  -0.46834  -0.46109  -0.44722
 Alpha  occ. eigenvalues --   -0.44062  -0.43448  -0.41367  -0.35888  -0.35478
 Alpha virt. eigenvalues --   -0.03224   0.01149   0.02166   0.04769   0.05999
 Alpha virt. eigenvalues --    0.07451   0.09172   0.09746   0.12038   0.12888
 Alpha virt. eigenvalues --    0.14047   0.14786   0.15407   0.16473   0.16845
 Alpha virt. eigenvalues --    0.17609   0.17989   0.19781   0.20466   0.20911
 Alpha virt. eigenvalues --    0.21345   0.22133   0.23001   0.24093   0.25373
 Alpha virt. eigenvalues --    0.26388   0.26709   0.28799   0.29198   0.29850
 Alpha virt. eigenvalues --    0.31703   0.32130   0.32844   0.33550   0.34256
 Alpha virt. eigenvalues --    0.35637   0.36501   0.37276   0.39325   0.42163
 Alpha virt. eigenvalues --    0.45181   0.46961   0.47243   0.49486   0.51330
 Alpha virt. eigenvalues --    0.51780   0.53633   0.56990   0.58948   0.61887
 Alpha virt. eigenvalues --    0.68527   0.76198   0.78427   0.80196   0.89403
 Alpha virt. eigenvalues --    0.94969   0.97246   0.98639   0.99435   1.00965
 Alpha virt. eigenvalues --    1.02304   1.04261   1.05189   1.07617   1.09497
 Alpha virt. eigenvalues --    1.11289   1.12089   1.14696   1.15515   1.16834
 Alpha virt. eigenvalues --    1.17419   1.18946   1.21431   1.22331   1.23320
 Alpha virt. eigenvalues --    1.24210   1.26874   1.27277   1.29153   1.31066
 Alpha virt. eigenvalues --    1.32670   1.34428   1.35321   1.38072   1.40208
 Alpha virt. eigenvalues --    1.41744   1.45062   1.47455   1.49431   1.53079
 Alpha virt. eigenvalues --    1.57938   1.60196   1.63868   1.64745   1.65018
 Alpha virt. eigenvalues --    1.67389   1.67743   1.68214   1.70446   1.72545
 Alpha virt. eigenvalues --    1.73278   1.74151   1.76984   1.82493   1.83904
 Alpha virt. eigenvalues --    1.86025   1.89372   1.90731   1.95716   1.96817
 Alpha virt. eigenvalues --    1.98798   2.00687   2.01822   2.06353   2.08794
 Alpha virt. eigenvalues --    2.09533   2.11631   2.13393   2.19744   2.21685
 Alpha virt. eigenvalues --    2.25205   2.29724   2.30843   2.34090   2.37062
 Alpha virt. eigenvalues --    2.39549   2.43999   2.47499   2.50518   2.53974
 Alpha virt. eigenvalues --    2.55785   2.56300   2.59747   2.62795   2.69670
 Alpha virt. eigenvalues --    2.72759   2.79517   2.85419   2.86190   2.89685
 Alpha virt. eigenvalues --    2.90118   2.95584   3.00467   3.03525   3.07261
 Alpha virt. eigenvalues --    5.04077   5.06049   5.08288   5.09144   5.10177
 Alpha virt. eigenvalues --    5.11327   5.15042   5.18988   5.21718   5.25559
 Alpha virt. eigenvalues --    5.36781   5.45026   5.45627   5.50107   5.55280
 Alpha virt. eigenvalues --    5.62343   5.87074   5.89703   6.73527   6.73960
 Alpha virt. eigenvalues --    6.75412   6.75734   6.76027   6.76774   6.78839
 Alpha virt. eigenvalues --    6.79493   6.80448   6.81256   6.85109   6.86785
 Alpha virt. eigenvalues --    6.86971   6.87811   6.90013   6.90343   6.95890
 Alpha virt. eigenvalues --    6.96567   6.98430   7.02022   7.03257   7.06402
 Alpha virt. eigenvalues --    7.06859   7.10203   7.11716   7.24532   7.30351
 Alpha virt. eigenvalues --    7.32753   7.36710   7.43178   7.66545  14.23856
 Alpha virt. eigenvalues --   14.27567  14.38795  49.93236  49.96829  49.99192
 Alpha virt. eigenvalues --   50.03019  50.05540  50.12642 163.88465
          Condensed to atoms (all electrons):
               1          2          3          4          5          6
     1  P   12.536655   0.550476   0.195418   0.067699   0.194577  -0.009482
     2  O    0.550476   8.199722  -0.070478   0.016717  -0.027668  -0.011541
     3  O    0.195418  -0.070478   8.246111   0.123112   0.055255  -0.006580
     4  H    0.067699   0.016717   0.123112   0.496424  -0.032942  -0.001008
     5  O    0.194577  -0.027668   0.055255  -0.032942   8.134443   0.255095
     6  H   -0.009482  -0.011541  -0.006580  -0.001008   0.255095   0.443693
     7  O    0.171536  -0.039402   0.006184   0.007283   0.010169   0.003861
     8  H    0.047625   0.004722  -0.008517  -0.001990  -0.017763   0.000920
     9  O   -0.027826  -0.001335   0.100582  -0.134504   0.017733   0.000438
    10  H    0.006197   0.000300  -0.014764   0.014753  -0.002671   0.000139
    11  H    0.003773   0.000260  -0.014051   0.022868  -0.000851  -0.000352
    12  O    0.001759  -0.000155  -0.002028  -0.000655  -0.001149   0.000109
    13  H   -0.000209   0.000051   0.001292  -0.000409   0.000174  -0.000077
    14  H   -0.000111  -0.000001   0.000805  -0.000189   0.000032  -0.000009
               7          8          9         10         11         12
     1  P    0.171536   0.047625  -0.027826   0.006197   0.003773   0.001759
     2  O   -0.039402   0.004722  -0.001335   0.000300   0.000260  -0.000155
     3  O    0.006184  -0.008517   0.100582  -0.014764  -0.014051  -0.002028
     4  H    0.007283  -0.001990  -0.134504   0.014753   0.022868  -0.000655
     5  O    0.010169  -0.017763   0.017733  -0.002671  -0.000851  -0.001149
     6  H    0.003861   0.000920   0.000438   0.000139  -0.000352   0.000109
     7  O    8.125345   0.221380  -0.007195   0.000722   0.000819   0.000040
     8  H    0.221380   0.454190   0.000504  -0.000318  -0.000206   0.000025
     9  O   -0.007195   0.000504   8.171519   0.301140   0.243891   0.042937
    10  H    0.000722  -0.000318   0.301140   0.426541  -0.022747  -0.006636
    11  H    0.000819  -0.000206   0.243891  -0.022747   0.384414  -0.015431
    12  O    0.000040   0.000025   0.042937  -0.006636  -0.015431   7.879273
    13  H   -0.000003  -0.000003  -0.001949  -0.000696  -0.004509   0.343414
    14  H   -0.000002   0.000000  -0.005120   0.000056  -0.000367   0.350923
              13         14
     1  P   -0.000209  -0.000111
     2  O    0.000051  -0.000001
     3  O    0.001292   0.000805
     4  H   -0.000409  -0.000189
     5  O    0.000174   0.000032
     6  H   -0.000077  -0.000009
     7  O   -0.000003  -0.000002
     8  H   -0.000003   0.000000
     9  O   -0.001949  -0.005120
    10  H   -0.000696   0.000056
    11  H   -0.004509  -0.000367
    12  O    0.343414   0.350923
    13  H    0.404913  -0.037073
    14  H   -0.037073   0.383167
 Mulliken charges:
               1
     1  P    1.261912
     2  O   -0.621668
     3  O   -0.612341
     4  H    0.422841
     5  O   -0.584433
     6  H    0.324793
     7  O   -0.500738
     8  H    0.299430
     9  O   -0.700815
    10  H    0.297984
    11  H    0.402489
    12  O   -0.592426
    13  H    0.295084
    14  H    0.307889
 Sum of Mulliken charges =  -0.00000
 Mulliken charges with hydrogens summed into heavy atoms:
               1
     1  P    1.261912
     2  O   -0.621668
     3  O   -0.189500
     5  O   -0.259640
     7  O   -0.201308
     9  O   -0.000343
    12  O    0.010547
         Mulliken charges condensed to fragments:
      1     -0.010204
      2     -0.000343
      3      0.010547
 Electronic spatial extent (au):  <R**2>=          53134.8096
 Charge=              0.0000 electrons
 Dipole moment (field-independent basis, Debye):
    X=              0.0558    Y=              9.7344    Z=             -2.6272  Tot=             10.0828
 Quadrupole moment (field-independent basis, Debye-Ang):
   XX=            -49.8967   YY=            122.3155   ZZ=            -94.1871
   XY=             86.0340   XZ=            -23.9868   YZ=             69.3071
 Traceless Quadrupole moment (field-independent basis, Debye-Ang):
   XX=            -42.6406   YY=            129.5716   ZZ=            -86.9310
   XY=             86.0340   XZ=            -23.9868   YZ=             69.3071
 Octapole moment (field-independent basis, Debye-Ang**2):
  XXX=          -1286.4983  YYY=           1179.4497  ZZZ=          -1821.3097  XYY=           1058.4102
  XXY=            368.5204  XXZ=           -633.5668  XZZ=           -830.4699  YZZ=             74.6025
  YYZ=           1021.0657  XYZ=            593.8085
 Hexadecapole moment (field-independent basis, Debye-Ang**3):
 XXXX=         -22384.4508 YYYY=          10093.7833 ZZZZ=         -27885.7790 XXXY=          -3070.0871
 XXXZ=         -12548.2966 YYYX=           9980.7833 YYYZ=          10821.4022 ZZZX=         -15787.1492
 ZZZY=          -7132.2354 XXYY=           5978.2780 XXZZ=         -10860.2874 YYZZ=           5077.7958
 XXYZ=           1898.2590 YYXZ=           8560.4553 ZZXY=            587.0396
 N-N= 4.371872735953D+02 E-N=-2.763876733954D+03  KE= 7.949640060163D+02
 No NMR shielding tensors so no spin-rotation constants.
 Leave Link  601 at Sun Feb 19 13:48:48 2023, MaxMem=  6710886400 cpu:               2.1 elap:               0.1
 (Enter /data0/home/software/g16/l122.exe)
 CPIOFr:  IOpCl= 0 IRwI=-1 IRwCP=  731 ICalc= -1 LCPTot=       89292 Len1MO=      233639 IndFrg=       89292
 CPIOFr:  IOpCl= 0 IRwI=-1 IRwCP=  731 ICalc=  0 LCPTot=       89292 Len1MO=      233639 IndFrg=      322931
 Counterpoise: doing calculation for fragment   1 using the basis set of the full-system, NewBq=T
 Leave Link  122 at Sun Feb 19 13:48:48 2023, MaxMem=  6710886400 cpu:               0.2 elap:               0.0
 (Enter /data0/home/software/g16/l301.exe)
 Basis read from rwf:  (5D, 7F)
 No pseudopotential information found on rwf file.
   239 basis functions,   364 primitive gaussians,   253 cartesian basis functions
    25 alpha electrons       25 beta electrons
       nuclear repulsion energy       280.1451147783 Hartrees.
 IExCor= 4336 DFT=T Ex+Corr=M062X ExCW=0 ScaHFX=  0.540000
 ScaDFX=  1.000000  1.000000  1.000000  1.000000 ScalE2=  1.000000  1.000000
 IRadAn=      5 IRanWt=     -1 IRanGd=            0 ICorTp=0 IEmpDi=131
 NAtoms=   14 NActive=   14 NUniq=   14 SFac= 1.00D+00 NAtFMM=   60 NAOKFM=F Big=F
 Integral buffers will be    131072 words long.
 Raffenetti 2 integral format.
 Two-electron integral symmetry is turned off.
 R6Disp:  Grimme-D3 Dispersion energy=       -0.0000400825 Hartrees.
 Nuclear repulsion after empirical dispersion term =      280.1450746957 Hartrees.
 No density basis found on file   718.
 Leave Link  301 at Sun Feb 19 13:48:48 2023, MaxMem=  6710886400 cpu:               1.3 elap:               0.1
 (Enter /data0/home/software/g16/l302.exe)
 NPDir=0 NMtPBC=     1 NCelOv=     1 NCel=       1 NClECP=     1 NCelD=      1
         NCelK=      1 NCelE2=     1 NClLst=     1 CellRange=     0.0.
 One-electron integrals computed using PRISM.
 NBasis=   239 RedAO= T EigKep=  4.93D-04  NBF=   239
 NBsUse=   239 1.00D-06 EigRej= -1.00D+00 NBFU=   239
 Precomputing XC quadrature grid using
 IXCGrd= 4 IRadAn=           5 IRanWt=          -1 IRanGd=           0 AccXCQ= 0.00D+00.
 Generated NRdTot=       0 NPtTot=           0 NUsed=           0 NTot=          32
 NSgBfM=   253   253   253   253   253 MxSgAt=    14 MxSgA2=    14.
 Leave Link  302 at Sun Feb 19 13:48:48 2023, MaxMem=  6710886400 cpu:               3.8 elap:               0.2
 (Enter /data0/home/software/g16/l303.exe)
 DipDrv:  MaxL=1.
 Leave Link  303 at Sun Feb 19 13:48:48 2023, MaxMem=  6710886400 cpu:               0.6 elap:               0.0
 (Enter /data0/home/software/g16/l401.exe)
 ExpMin= 3.48D-02 ExpMax= 7.75D+04 ExpMxC= 2.65D+03 IAcc=3 IRadAn=         5 AccDes= 0.00D+00
 Harris functional with IExCor= 1009 and IRadAn=       5 diagonalized for initial guess.
 HarFok:  IExCor= 1009 AccDes= 0.00D+00 IRadAn=         5 IDoV= 1 UseB2=F ITyADJ=14
 ICtDFT=  3500011 ScaDFX=  1.000000  1.000000  1.000000  1.000000
 FoFCou: FMM=F IPFlag=           0 FMFlag=      100000 FMFlg1=           0
         NFxFlg=           0 DoJE=T BraDBF=F KetDBF=T FulRan=T
         wScrn=  0.000000 ICntrl=       500 IOpCl=  0 I1Cent=   200000004 NGrid=           0
         NMat0=    1 NMatS0=      1 NMatT0=    0 NMatD0=    1 NMtDS0=    0 NMtDT0=    0
 Symmetry not used in FoFCou.
 Harris En= -643.944679594000    
 JPrj=0 DoOrth=F DoCkMO=F.
 Leave Link  401 at Sun Feb 19 13:48:48 2023, MaxMem=  6710886400 cpu:               9.7 elap:               0.4
 (Enter /data0/home/software/g16/l502.exe)
 Two-electron integral symmetry not used.
 Closed shell SCF:
 Using DIIS extrapolation, IDIIS=  1040.
 NGot=  6710886400 LenX=  6710750439 LenY=  6710685989
 Requested convergence on RMS density matrix=1.00D-08 within 128 cycles.
 Requested convergence on MAX density matrix=1.00D-06.
 Requested convergence on             energy=1.00D-06.
 No special actions if energy rises.
 Fock matrices will be formed incrementally for  20 cycles.

 Cycle   1  Pass 1  IDiag  1:
 FoFJK:  IHMeth= 1 ICntrl=       0 DoSepK=F KAlg= 0 I1Cent=           0 FoldK=F
 IRaf= 890000000 NMat=       1 IRICut=       1 DoRegI=T DoRafI=F ISym2E= 0 IDoP0=0 IntGTp=1.
 FoFCou: FMM=F IPFlag=           0 FMFlag=      100000 FMFlg1=           0
         NFxFlg=           0 DoJE=F BraDBF=F KetDBF=F FulRan=T
         wScrn=  0.000000 ICntrl=         0 IOpCl=  0 I1Cent=           0 NGrid=           0
         NMat0=    1 NMatS0=      1 NMatT0=    0 NMatD0=    1 NMtDS0=    0 NMtDT0=    0
 Symmetry not used in FoFCou.
 E= -643.844008866052    
 DIIS: error= 4.40D-02 at cycle   1 NSaved=   1.
 NSaved= 1 IEnMin= 1 EnMin= -643.844008866052     IErMin= 1 ErrMin= 4.40D-02
 ErrMax= 4.40D-02  0.00D+00 EMaxC= 1.00D-01 BMatC= 5.17D-01 BMatP= 5.17D-01
 IDIUse=3 WtCom= 5.60D-01 WtEn= 4.40D-01
 Coeff-Com:  0.100D+01
 Coeff-En:   0.100D+01
 Coeff:      0.100D+01
 Gap=     0.268 Goal=   None    Shift=    0.000
 GapD=    0.268 DampG=1.000 DampE=0.500 DampFc=0.5000 IDamp=-1.
 Damping current iteration by 5.00D-01
 RMSDP=6.33D-03 MaxDP=2.18D-01              OVMax= 2.68D-01

 Cycle   2  Pass 1  IDiag  1:
 RMSU=  3.16D-03    CP:  1.01D+00
 E= -643.960126635168     Delta-E=       -0.116117769117 Rises=F Damp=T
 DIIS: error= 7.34D-03 at cycle   2 NSaved=   2.
 NSaved= 2 IEnMin= 2 EnMin= -643.960126635168     IErMin= 2 ErrMin= 7.34D-03
 ErrMax= 7.34D-03  0.00D+00 EMaxC= 1.00D-01 BMatC= 2.91D-02 BMatP= 5.17D-01
 IDIUse=3 WtCom= 9.27D-01 WtEn= 7.34D-02
 Coeff-Com:  0.815D-01 0.918D+00
 Coeff-En:   0.223D+00 0.777D+00
 Coeff:      0.919D-01 0.908D+00
 Gap=     0.341 Goal=   None    Shift=    0.000
 RMSDP=1.49D-03 MaxDP=7.38D-02 DE=-1.16D-01 OVMax= 1.72D-01

 Cycle   3  Pass 1  IDiag  1:
 RMSU=  9.94D-04    CP:  9.99D-01  6.49D-01
 E= -644.134268185535     Delta-E=       -0.174141550367 Rises=F Damp=F
 DIIS: error= 5.55D-03 at cycle   3 NSaved=   3.
 NSaved= 3 IEnMin= 3 EnMin= -644.134268185535     IErMin= 3 ErrMin= 5.55D-03
 ErrMax= 5.55D-03  0.00D+00 EMaxC= 1.00D-01 BMatC= 1.24D-02 BMatP= 2.91D-02
 IDIUse=3 WtCom= 9.44D-01 WtEn= 5.55D-02
 Coeff-Com: -0.138D-01 0.360D+00 0.654D+00
 Coeff-En:   0.000D+00 0.000D+00 0.100D+01
 Coeff:     -0.130D-01 0.340D+00 0.673D+00
 Gap=     0.331 Goal=   None    Shift=    0.000
 RMSDP=4.80D-04 MaxDP=1.64D-02 DE=-1.74D-01 OVMax= 3.75D-02

 Cycle   4  Pass 1  IDiag  1:
 RMSU=  4.12D-04    CP:  1.00D+00  7.08D-01  8.42D-01
 E= -644.140570383708     Delta-E=       -0.006302198173 Rises=F Damp=F
 DIIS: error= 2.95D-03 at cycle   4 NSaved=   4.
 NSaved= 4 IEnMin= 4 EnMin= -644.140570383708     IErMin= 4 ErrMin= 2.95D-03
 ErrMax= 2.95D-03  0.00D+00 EMaxC= 1.00D-01 BMatC= 3.67D-03 BMatP= 1.24D-02
 IDIUse=3 WtCom= 9.70D-01 WtEn= 2.95D-02
 Coeff-Com: -0.238D-01 0.514D-01 0.376D+00 0.596D+00
 Coeff-En:   0.000D+00 0.000D+00 0.217D+00 0.783D+00
 Coeff:     -0.231D-01 0.499D-01 0.372D+00 0.601D+00
 Gap=     0.336 Goal=   None    Shift=    0.000
 RMSDP=1.75D-04 MaxDP=6.20D-03 DE=-6.30D-03 OVMax= 1.05D-02

 Cycle   5  Pass 1  IDiag  1:
 RMSU=  5.25D-05    CP:  9.99D-01  7.01D-01  9.34D-01  6.66D-01
 E= -644.142969135564     Delta-E=       -0.002398751856 Rises=F Damp=F
 DIIS: error= 2.33D-04 at cycle   5 NSaved=   5.
 NSaved= 5 IEnMin= 5 EnMin= -644.142969135564     IErMin= 5 ErrMin= 2.33D-04
 ErrMax= 2.33D-04  0.00D+00 EMaxC= 1.00D-01 BMatC= 1.46D-05 BMatP= 3.67D-03
 IDIUse=3 WtCom= 9.98D-01 WtEn= 2.33D-03
 Coeff-Com: -0.289D-02 0.630D-03 0.487D-01 0.114D+00 0.839D+00
 Coeff-En:   0.000D+00 0.000D+00 0.000D+00 0.000D+00 0.100D+01
 Coeff:     -0.288D-02 0.628D-03 0.486D-01 0.114D+00 0.840D+00
 Gap=     0.335 Goal=   None    Shift=    0.000
 RMSDP=1.82D-05 MaxDP=6.28D-04 DE=-2.40D-03 OVMax= 7.00D-04

 Cycle   6  Pass 1  IDiag  1:
 RMSU=  1.30D-05    CP:  9.99D-01  6.98D-01  9.36D-01  6.87D-01  1.07D+00
 E= -644.142978679233     Delta-E=       -0.000009543669 Rises=F Damp=F
 DIIS: error= 5.86D-05 at cycle   6 NSaved=   6.
 NSaved= 6 IEnMin= 6 EnMin= -644.142978679233     IErMin= 6 ErrMin= 5.86D-05
 ErrMax= 5.86D-05  0.00D+00 EMaxC= 1.00D-01 BMatC= 1.07D-06 BMatP= 1.46D-05
 IDIUse=1 WtCom= 1.00D+00 WtEn= 0.00D+00
 Coeff-Com:  0.935D-04-0.139D-02-0.176D-02 0.379D-02 0.188D+00 0.811D+00
 Coeff:      0.935D-04-0.139D-02-0.176D-02 0.379D-02 0.188D+00 0.811D+00
 Gap=     0.336 Goal=   None    Shift=    0.000
 RMSDP=7.57D-06 MaxDP=2.12D-04 DE=-9.54D-06 OVMax= 2.51D-04

 Cycle   7  Pass 1  IDiag  1:
 RMSU=  4.09D-06    CP:  9.99D-01  6.97D-01  9.36D-01  6.90D-01  1.15D+00
                    CP:  8.69D-01
 E= -644.142979396344     Delta-E=       -0.000000717111 Rises=F Damp=F
 DIIS: error= 3.18D-05 at cycle   7 NSaved=   7.
 NSaved= 7 IEnMin= 7 EnMin= -644.142979396344     IErMin= 7 ErrMin= 3.18D-05
 ErrMax= 3.18D-05  0.00D+00 EMaxC= 1.00D-01 BMatC= 3.48D-07 BMatP= 1.07D-06
 IDIUse=1 WtCom= 1.00D+00 WtEn= 0.00D+00
 Coeff-Com:  0.417D-03-0.686D-03-0.773D-02-0.140D-01-0.202D-01 0.375D+00
 Coeff-Com:  0.667D+00
 Coeff:      0.417D-03-0.686D-03-0.773D-02-0.140D-01-0.202D-01 0.375D+00
 Coeff:      0.667D+00
 Gap=     0.336 Goal=   None    Shift=    0.000
 RMSDP=2.63D-06 MaxDP=8.63D-05 DE=-7.17D-07 OVMax= 1.22D-04

 Cycle   8  Pass 1  IDiag  1:
 RMSU=  1.78D-06    CP:  9.99D-01  6.97D-01  9.36D-01  6.91D-01  1.16D+00
                    CP:  9.65D-01  8.72D-01
 E= -644.142979629271     Delta-E=       -0.000000232927 Rises=F Damp=F
 DIIS: error= 8.30D-06 at cycle   8 NSaved=   8.
 NSaved= 8 IEnMin= 8 EnMin= -644.142979629271     IErMin= 8 ErrMin= 8.30D-06
 ErrMax= 8.30D-06  0.00D+00 EMaxC= 1.00D-01 BMatC= 2.75D-08 BMatP= 3.48D-07
 IDIUse=1 WtCom= 1.00D+00 WtEn= 0.00D+00
 Coeff-Com:  0.153D-03-0.205D-03-0.317D-02-0.572D-02-0.146D-01 0.112D+00
 Coeff-Com:  0.292D+00 0.620D+00
 Coeff:      0.153D-03-0.205D-03-0.317D-02-0.572D-02-0.146D-01 0.112D+00
 Coeff:      0.292D+00 0.620D+00
 Gap=     0.336 Goal=   None    Shift=    0.000
 RMSDP=6.08D-07 MaxDP=2.07D-05 DE=-2.33D-07 OVMax= 3.21D-05

 Cycle   9  Pass 1  IDiag  1:
 RMSU=  3.62D-07    CP:  9.99D-01  6.97D-01  9.36D-01  6.91D-01  1.16D+00
                    CP:  9.73D-01  9.54D-01  8.27D-01
 E= -644.142979649884     Delta-E=       -0.000000020612 Rises=F Damp=F
 DIIS: error= 1.40D-06 at cycle   9 NSaved=   9.
 NSaved= 9 IEnMin= 9 EnMin= -644.142979649884     IErMin= 9 ErrMin= 1.40D-06
 ErrMax= 1.40D-06  0.00D+00 EMaxC= 1.00D-01 BMatC= 1.05D-09 BMatP= 2.75D-08
 IDIUse=1 WtCom= 1.00D+00 WtEn= 0.00D+00
 Coeff-Com: -0.318D-04 0.582D-04 0.300D-03 0.663D-03-0.890D-03-0.259D-01
 Coeff-Com: -0.289D-01 0.104D+00 0.951D+00
 Coeff:     -0.318D-04 0.582D-04 0.300D-03 0.663D-03-0.890D-03-0.259D-01
 Coeff:     -0.289D-01 0.104D+00 0.951D+00
 Gap=     0.336 Goal=   None    Shift=    0.000
 RMSDP=2.71D-07 MaxDP=1.01D-05 DE=-2.06D-08 OVMax= 1.18D-05

 Cycle  10  Pass 1  IDiag  1:
 RMSU=  1.23D-07    CP:  9.99D-01  6.97D-01  9.36D-01  6.91D-01  1.17D+00
                    CP:  9.73D-01  9.81D-01  9.11D-01  1.14D+00
 E= -644.142979651154     Delta-E=       -0.000000001271 Rises=F Damp=F
 DIIS: error= 2.53D-07 at cycle  10 NSaved=  10.
 NSaved=10 IEnMin=10 EnMin= -644.142979651154     IErMin=10 ErrMin= 2.53D-07
 ErrMax= 2.53D-07  0.00D+00 EMaxC= 1.00D-01 BMatC= 2.06D-11 BMatP= 1.05D-09
 IDIUse=1 WtCom= 1.00D+00 WtEn= 0.00D+00
 Coeff-Com: -0.305D-05 0.480D-05 0.105D-03 0.177D-03 0.670D-03-0.420D-02
 Coeff-Com: -0.117D-01-0.225D-01-0.148D-01 0.105D+01
 Coeff:     -0.305D-05 0.480D-05 0.105D-03 0.177D-03 0.670D-03-0.420D-02
 Coeff:     -0.117D-01-0.225D-01-0.148D-01 0.105D+01
 Gap=     0.336 Goal=   None    Shift=    0.000
 RMSDP=5.89D-08 MaxDP=1.70D-06 DE=-1.27D-09 OVMax= 3.02D-06

 Cycle  11  Pass 1  IDiag  1:
 RMSU=  2.63D-08    CP:  9.99D-01  6.97D-01  9.36D-01  6.91D-01  1.17D+00
                    CP:  9.73D-01  9.87D-01  9.23D-01  1.22D+00  1.17D+00
 E= -644.142979651192     Delta-E=       -0.000000000038 Rises=F Damp=F
 DIIS: error= 9.10D-08 at cycle  11 NSaved=  11.
 NSaved=11 IEnMin=11 EnMin= -644.142979651192     IErMin=11 ErrMin= 9.10D-08
 ErrMax= 9.10D-08  0.00D+00 EMaxC= 1.00D-01 BMatC= 4.05D-12 BMatP= 2.06D-11
 IDIUse=1 WtCom= 1.00D+00 WtEn= 0.00D+00
 Coeff-Com:  0.757D-06-0.149D-05 0.200D-04 0.231D-04 0.229D-03-0.295D-03
 Coeff-Com: -0.225D-02-0.112D-01-0.522D-01 0.334D+00 0.731D+00
 Coeff:      0.757D-06-0.149D-05 0.200D-04 0.231D-04 0.229D-03-0.295D-03
 Coeff:     -0.225D-02-0.112D-01-0.522D-01 0.334D+00 0.731D+00
 Gap=     0.336 Goal=   None    Shift=    0.000
 RMSDP=1.36D-08 MaxDP=3.70D-07 DE=-3.77D-11 OVMax= 7.52D-07

 Cycle  12  Pass 1  IDiag  1:
 RMSU=  9.03D-09    CP:  9.99D-01  6.97D-01  9.36D-01  6.91D-01  1.17D+00
                    CP:  9.73D-01  9.87D-01  9.23D-01  1.23D+00  1.24D+00
                    CP:  1.02D+00
 E= -644.142979651209     Delta-E=       -0.000000000016 Rises=F Damp=F
 DIIS: error= 5.46D-08 at cycle  12 NSaved=  12.
 NSaved=12 IEnMin=12 EnMin= -644.142979651209     IErMin=12 ErrMin= 5.46D-08
 ErrMax= 5.46D-08  0.00D+00 EMaxC= 1.00D-01 BMatC= 1.20D-12 BMatP= 4.05D-12
 IDIUse=1 WtCom= 1.00D+00 WtEn= 0.00D+00
 Coeff-Com:  0.784D-06-0.146D-05-0.311D-05-0.108D-04 0.253D-04 0.406D-03
 Coeff-Com:  0.500D-03-0.245D-02-0.246D-01 0.227D-01 0.376D+00 0.627D+00
 Coeff:      0.784D-06-0.146D-05-0.311D-05-0.108D-04 0.253D-04 0.406D-03
 Coeff:      0.500D-03-0.245D-02-0.246D-01 0.227D-01 0.376D+00 0.627D+00
 Gap=     0.336 Goal=   None    Shift=    0.000
 RMSDP=4.82D-09 MaxDP=1.35D-07 DE=-1.64D-11 OVMax= 2.41D-07

 SCF Done:  E(RM062X) =  -644.142979651     A.U. after   12 cycles
            NFock= 12  Conv=0.48D-08     -V/T= 2.0025
 KE= 6.425559122001D+02 PE=-2.087956843834D+03 EE= 5.211128772866D+02
 Leave Link  502 at Sun Feb 19 13:48:59 2023, MaxMem=  6710886400 cpu:             246.3 elap:              10.3
 (Enter /data0/home/software/g16/l601.exe)
 Copying SCF densities to generalized density rwf, IOpCl= 0 IROHF=0.

 **********************************************************************

            Population analysis using the SCF density.

 **********************************************************************

 Alpha  occ. eigenvalues --  -78.16733 -19.70268 -19.68486 -19.67831 -19.57768
 Alpha  occ. eigenvalues --   -6.97526  -5.09454  -5.09420  -5.09185  -1.24784
 Alpha  occ. eigenvalues --   -1.17640  -1.16711  -1.08399  -0.72886  -0.67092
 Alpha  occ. eigenvalues --   -0.64368  -0.57520  -0.55912  -0.50274  -0.48958
 Alpha  occ. eigenvalues --   -0.47567  -0.45505  -0.43879  -0.37623  -0.37383
 Alpha virt. eigenvalues --   -0.03789   0.00704   0.01598   0.04551   0.06299
 Alpha virt. eigenvalues --    0.07181   0.09196   0.10203   0.10895   0.12314
 Alpha virt. eigenvalues --    0.13623   0.14962   0.15448   0.16532   0.17241
 Alpha virt. eigenvalues --    0.18628   0.18975   0.20096   0.20410   0.21320
 Alpha virt. eigenvalues --    0.22240   0.23232   0.24184   0.25643   0.26416
 Alpha virt. eigenvalues --    0.27082   0.28280   0.28907   0.29624   0.30296
 Alpha virt. eigenvalues --    0.30888   0.31331   0.31945   0.32865   0.34573
 Alpha virt. eigenvalues --    0.35137   0.36605   0.36874   0.39208   0.41886
 Alpha virt. eigenvalues --    0.44910   0.46705   0.47057   0.50065   0.54393
 Alpha virt. eigenvalues --    0.55935   0.61324   0.64486   0.66286   0.71039
 Alpha virt. eigenvalues --    0.74491   0.75627   0.76405   0.77182   0.78385
 Alpha virt. eigenvalues --    0.78863   0.81055   0.84527   0.88521   0.94968
 Alpha virt. eigenvalues --    0.98752   1.00904   1.01770   1.04713   1.05654
 Alpha virt. eigenvalues --    1.07163   1.10684   1.12637   1.14405   1.15272
 Alpha virt. eigenvalues --    1.17711   1.18501   1.20276   1.22714   1.25619
 Alpha virt. eigenvalues --    1.26242   1.27347   1.30709   1.33466   1.37361
 Alpha virt. eigenvalues --    1.38529   1.45569   1.47252   1.50140   1.55603
 Alpha virt. eigenvalues --    1.58394   1.61059   1.62126   1.64720   1.66050
 Alpha virt. eigenvalues --    1.67533   1.70823   1.73684   1.76217   1.77648
 Alpha virt. eigenvalues --    1.81251   1.83387   1.83893   1.85166   1.86206
 Alpha virt. eigenvalues --    1.88380   1.94773   1.95980   1.99519   1.99853
 Alpha virt. eigenvalues --    2.00718   2.02549   2.05603   2.12522   2.15197
 Alpha virt. eigenvalues --    2.18167   2.20101   2.21494   2.23516   2.27281
 Alpha virt. eigenvalues --    2.28101   2.34059   2.37517   2.40232   2.43554
 Alpha virt. eigenvalues --    2.45372   2.49152   2.51417   2.54826   2.55491
 Alpha virt. eigenvalues --    2.57642   2.58894   2.61133   2.61513   2.65620
 Alpha virt. eigenvalues --    2.68640   2.69477   2.71664   2.74741   2.76363
 Alpha virt. eigenvalues --    2.78839   2.81544   2.84547   2.88601   2.92921
 Alpha virt. eigenvalues --    2.93928   2.94125   3.04613   3.08899   3.12671
 Alpha virt. eigenvalues --    3.50256   3.58381   3.60956   3.67962   4.51057
 Alpha virt. eigenvalues --    4.58487   5.02454   5.04246   5.05272   5.06869
 Alpha virt. eigenvalues --    5.08460   5.12623   5.17032   5.19559   5.22100
 Alpha virt. eigenvalues --    5.23168   5.35119   5.44220   5.53554   5.61200
 Alpha virt. eigenvalues --    6.72188   6.73867   6.73973   6.76321   6.77883
 Alpha virt. eigenvalues --    6.79717   6.84771   6.88230   6.88361   6.93710
 Alpha virt. eigenvalues --    6.96464   6.99638   7.01034   7.03005   7.08334
 Alpha virt. eigenvalues --    7.22694   7.28669   7.29889   7.34358   7.41145
 Alpha virt. eigenvalues --    7.64475   9.74538   9.77934   9.87959   9.92053
 Alpha virt. eigenvalues --   10.05626  10.13481  10.18175  10.27678  10.29546
 Alpha virt. eigenvalues --   10.45574  12.85952  13.19814  13.33218  13.63875
 Alpha virt. eigenvalues --   13.67479  14.13893  14.21871  14.25568  14.36797
 Alpha virt. eigenvalues --   17.62703  18.24172  49.97409  50.01055  50.01523
 Alpha virt. eigenvalues --   50.10813 135.48854 139.31201 163.86460
          Condensed to atoms (all electrons):
               1          2          3          4          5          6
     1  P   12.529294   0.553668   0.184410   0.060484   0.221092  -0.009200
     2  O    0.553668   8.173642  -0.061543   0.016991  -0.034800  -0.011571
     3  O    0.184410  -0.061543   8.149742   0.169977   0.057682  -0.007175
     4  H    0.060484   0.016991   0.169977   0.453575  -0.035240  -0.000019
     5  O    0.221092  -0.034800   0.057682  -0.035240   8.094029   0.263204
     6  H   -0.009200  -0.011571  -0.007175  -0.000019   0.263204   0.422656
     7  O    0.178315  -0.040492   0.017794   0.000861   0.010824   0.003343
     8  H    0.051801   0.005781  -0.011416  -0.000734  -0.017919   0.000824
     9  O   -0.010236  -0.001580   0.040473  -0.011999   0.011448   0.000112
    10  H    0.002551   0.000225  -0.008324   0.006709  -0.002837   0.000441
    11  H    0.001692   0.000246  -0.009115   0.002479  -0.001942  -0.000165
    12  O   -0.000231  -0.000049   0.002953  -0.000011   0.000038   0.000017
    13  H   -0.000046   0.000016  -0.000696   0.000311  -0.000106  -0.000035
    14  H   -0.000024  -0.000002   0.000343  -0.000189  -0.000007  -0.000004
               7          8          9         10         11         12
     1  P    0.178315   0.051801  -0.010236   0.002551   0.001692  -0.000231
     2  O   -0.040492   0.005781  -0.001580   0.000225   0.000246  -0.000049
     3  O    0.017794  -0.011416   0.040473  -0.008324  -0.009115   0.002953
     4  H    0.000861  -0.000734  -0.011999   0.006709   0.002479  -0.000011
     5  O    0.010824  -0.017919   0.011448  -0.002837  -0.001942   0.000038
     6  H    0.003343   0.000824   0.000112   0.000441  -0.000165   0.000017
     7  O    8.104700   0.221136  -0.004075   0.000558   0.000680  -0.000023
     8  H    0.221136   0.450611   0.000241  -0.000161  -0.000064   0.000004
     9  O   -0.004075   0.000241   0.047024  -0.016477  -0.018246   0.001568
    10  H    0.000558  -0.000161  -0.016477   0.008397   0.004736  -0.000048
    11  H    0.000680  -0.000064  -0.018246   0.004736   0.010220  -0.001575
    12  O   -0.000023   0.000004   0.001568  -0.000048  -0.001575   0.003289
    13  H    0.000014  -0.000000  -0.001080   0.000193   0.000750  -0.000659
    14  H    0.000001   0.000000   0.000167  -0.000137   0.000296  -0.002057
              13         14
     1  P   -0.000046  -0.000024
     2  O    0.000016  -0.000002
     3  O   -0.000696   0.000343
     4  H    0.000311  -0.000189
     5  O   -0.000106  -0.000007
     6  H   -0.000035  -0.000004
     7  O    0.000014   0.000001
     8  H   -0.000000   0.000000
     9  O   -0.001080   0.000167
    10  H    0.000193  -0.000137
    11  H    0.000750   0.000296
    12  O   -0.000659  -0.002057
    13  H    0.000577   0.000059
    14  H    0.000059   0.001838
 Mulliken charges:
               1
     1  P    1.236428
     2  O   -0.600535
     3  O   -0.525106
     4  H    0.336805
     5  O   -0.565466
     6  H    0.337572
     7  O   -0.493637
     8  H    0.299897
     9  O   -0.037341
    10  H    0.004175
    11  H    0.010008
    12  O   -0.003217
    13  H    0.000702
    14  H   -0.000284
 Sum of Mulliken charges =  -0.00000
 Mulliken charges with hydrogens summed into heavy atoms:
               1
     1  P    1.236428
     2  O   -0.600535
     3  O   -0.188301
     5  O   -0.227894
     7  O   -0.193740
     9  O   -0.023158
    12  O   -0.002799
         Mulliken charges condensed to fragments:
      1      0.025957
      2     -0.023158
      3     -0.002799
 Electronic spatial extent (au):  <R**2>=          35711.3231
 Charge=             -0.0000 electrons
 Dipole moment (field-independent basis, Debye):
    X=             -0.8082    Y=              5.3522    Z=             -3.8038  Tot=              6.6158
 Quadrupole moment (field-independent basis, Debye-Ang):
   XX=            -49.5238   YY=             43.6968   ZZ=            -98.2633
   XY=             43.9263   XZ=            -38.7609   YZ=             17.9990
 Traceless Quadrupole moment (field-independent basis, Debye-Ang):
   XX=            -14.8270   YY=             78.3935   ZZ=            -63.5665
   XY=             43.9263   XZ=            -38.7609   YZ=             17.9990
 Octapole moment (field-independent basis, Debye-Ang**2):
  XXX=          -1147.6327  YYY=            142.9747  ZZZ=          -1656.1289  XYY=            372.5564
  XXY=            118.9111  XXZ=           -674.5696  XZZ=           -912.4526  YZZ=           -317.7321
  YYZ=            185.0493  XYZ=            147.6940
 Hexadecapole moment (field-independent basis, Debye-Ang**3):
 XXXX=         -19749.4909 YYYY=          -1630.6052 ZZZZ=         -23207.6990 XXXY=          -3607.8027
 XXXZ=         -11618.2244 YYYX=           1203.3361 YYYZ=             33.7171 ZZZX=         -15119.0653
 ZZZY=          -8531.1191 XXYY=           1511.8059 XXZZ=         -10843.0701 YYZZ=          -1749.1044
 XXYZ=           -740.0680 YYXZ=           1682.4046 ZZXY=          -2866.0109
 N-N= 2.801450746957D+02 E-N=-2.087956847387D+03  KE= 6.425559122001D+02
 No NMR shielding tensors so no spin-rotation constants.
 Leave Link  601 at Sun Feb 19 13:48:59 2023, MaxMem=  6710886400 cpu:               2.1 elap:               0.1
 (Enter /data0/home/software/g16/l122.exe)
 CPIOFr:  IOpCl= 0 IRwI=-1 IRwCP=  731 ICalc=  1 LCPTot=       89292 Len1MO=      233639 IndFrg=      556570
 Counterpoise: doing calculation for fragment   2 using the basis set of the full-system, NewBq=T
 Leave Link  122 at Sun Feb 19 13:48:59 2023, MaxMem=  6710886400 cpu:               0.1 elap:               0.0
 (Enter /data0/home/software/g16/l301.exe)
 Basis read from rwf:  (5D, 7F)
 No pseudopotential information found on rwf file.
   239 basis functions,   364 primitive gaussians,   253 cartesian basis functions
     5 alpha electrons        5 beta electrons
       nuclear repulsion energy         9.0645918623 Hartrees.
 IExCor= 4336 DFT=T Ex+Corr=M062X ExCW=0 ScaHFX=  0.540000
 ScaDFX=  1.000000  1.000000  1.000000  1.000000 ScalE2=  1.000000  1.000000
 IRadAn=      5 IRanWt=     -1 IRanGd=            0 ICorTp=0 IEmpDi=131
 NAtoms=   14 NActive=   14 NUniq=   14 SFac= 1.00D+00 NAtFMM=   60 NAOKFM=F Big=F
 Integral buffers will be    131072 words long.
 Raffenetti 2 integral format.
 Two-electron integral symmetry is turned off.
 R6Disp:  Grimme-D3 Dispersion energy=       -0.0000000079 Hartrees.
 Nuclear repulsion after empirical dispersion term =        9.0645918544 Hartrees.
 No density basis found on file   718.
 Leave Link  301 at Sun Feb 19 13:48:59 2023, MaxMem=  6710886400 cpu:               1.3 elap:               0.1
 (Enter /data0/home/software/g16/l302.exe)
 NPDir=0 NMtPBC=     1 NCelOv=     1 NCel=       1 NClECP=     1 NCelD=      1
         NCelK=      1 NCelE2=     1 NClLst=     1 CellRange=     0.0.
 One-electron integrals computed using PRISM.
 NBasis=   239 RedAO= T EigKep=  4.93D-04  NBF=   239
 NBsUse=   239 1.00D-06 EigRej= -1.00D+00 NBFU=   239
 Precomputing XC quadrature grid using
 IXCGrd= 4 IRadAn=           5 IRanWt=          -1 IRanGd=           0 AccXCQ= 0.00D+00.
 Generated NRdTot=       0 NPtTot=           0 NUsed=           0 NTot=          32
 NSgBfM=   253   253   253   253   253 MxSgAt=    14 MxSgA2=    14.
 Leave Link  302 at Sun Feb 19 13:48:59 2023, MaxMem=  6710886400 cpu:               3.9 elap:               0.2
 (Enter /data0/home/software/g16/l303.exe)
 DipDrv:  MaxL=1.
 Leave Link  303 at Sun Feb 19 13:48:59 2023, MaxMem=  6710886400 cpu:               0.6 elap:               0.0
 (Enter /data0/home/software/g16/l401.exe)
 ExpMin= 3.48D-02 ExpMax= 7.75D+04 ExpMxC= 2.65D+03 IAcc=3 IRadAn=         5 AccDes= 0.00D+00
 Harris functional with IExCor= 1009 and IRadAn=       5 diagonalized for initial guess.
 HarFok:  IExCor= 1009 AccDes= 0.00D+00 IRadAn=         5 IDoV= 1 UseB2=F ITyADJ=14
 ICtDFT=  3500011 ScaDFX=  1.000000  1.000000  1.000000  1.000000
 FoFCou: FMM=F IPFlag=           0 FMFlag=      100000 FMFlg1=           0
         NFxFlg=           0 DoJE=T BraDBF=F KetDBF=T FulRan=T
         wScrn=  0.000000 ICntrl=       500 IOpCl=  0 I1Cent=   200000004 NGrid=           0
         NMat0=    1 NMatS0=      1 NMatT0=    0 NMatD0=    1 NMtDS0=    0 NMtDT0=    0
 Symmetry not used in FoFCou.
 Harris En= -76.4170518862205    
 JPrj=0 DoOrth=F DoCkMO=F.
 Leave Link  401 at Sun Feb 19 13:49:00 2023, MaxMem=  6710886400 cpu:               9.9 elap:               0.4
 (Enter /data0/home/software/g16/l502.exe)
 Two-electron integral symmetry not used.
 Closed shell SCF:
 Using DIIS extrapolation, IDIIS=  1040.
 NGot=  6710886400 LenX=  6710750439 LenY=  6710685989
 Requested convergence on RMS density matrix=1.00D-08 within 128 cycles.
 Requested convergence on MAX density matrix=1.00D-06.
 Requested convergence on             energy=1.00D-06.
 No special actions if energy rises.
 Fock matrices will be formed incrementally for  20 cycles.

 Cycle   1  Pass 1  IDiag  1:
 FoFJK:  IHMeth= 1 ICntrl=       0 DoSepK=F KAlg= 0 I1Cent=           0 FoldK=F
 IRaf= 890000000 NMat=       1 IRICut=       1 DoRegI=T DoRafI=F ISym2E= 0 IDoP0=0 IntGTp=1.
 FoFCou: FMM=F IPFlag=           0 FMFlag=      100000 FMFlg1=           0
         NFxFlg=           0 DoJE=F BraDBF=F KetDBF=F FulRan=T
         wScrn=  0.000000 ICntrl=         0 IOpCl=  0 I1Cent=           0 NGrid=           0
         NMat0=    1 NMatS0=      1 NMatT0=    0 NMatD0=    1 NMtDS0=    0 NMtDT0=    0
 Symmetry not used in FoFCou.
 E= -76.3480348735559    
 DIIS: error= 2.58D-02 at cycle   1 NSaved=   1.
 NSaved= 1 IEnMin= 1 EnMin= -76.3480348735559     IErMin= 1 ErrMin= 2.58D-02
 ErrMax= 2.58D-02  0.00D+00 EMaxC= 1.00D-01 BMatC= 1.19D-01 BMatP= 1.19D-01
 IDIUse=3 WtCom= 7.42D-01 WtEn= 2.58D-01
 Coeff-Com:  0.100D+01
 Coeff-En:   0.100D+01
 Coeff:      0.100D+01
 Gap=     0.275 Goal=   None    Shift=    0.000
 GapD=    0.275 DampG=1.000 DampE=0.500 DampFc=0.5000 IDamp=-1.
 Damping current iteration by 5.00D-01
 RMSDP=2.42D-03 MaxDP=9.87D-02              OVMax= 1.71D-01

 Cycle   2  Pass 1  IDiag  1:
 RMSU=  1.21D-03    CP:  1.00D+00
 E= -76.3787195909542     Delta-E=       -0.030684717398 Rises=F Damp=T
 DIIS: error= 3.83D-03 at cycle   2 NSaved=   2.
 NSaved= 2 IEnMin= 2 EnMin= -76.3787195909542     IErMin= 2 ErrMin= 3.83D-03
 ErrMax= 3.83D-03  0.00D+00 EMaxC= 1.00D-01 BMatC= 5.04D-03 BMatP= 1.19D-01
 IDIUse=3 WtCom= 9.62D-01 WtEn= 3.83D-02
 Coeff-Com:  0.881D-01 0.912D+00
 Coeff-En:   0.198D+00 0.802D+00
 Coeff:      0.923D-01 0.908D+00
 Gap=     0.403 Goal=   None    Shift=    0.000
 RMSDP=3.82D-04 MaxDP=1.97D-02 DE=-3.07D-02 OVMax= 1.04D-01

 Cycle   3  Pass 1  IDiag  1:
 RMSU=  2.52D-04    CP:  1.00D+00  7.63D-01
 E= -76.4227355425178     Delta-E=       -0.044015951564 Rises=F Damp=F
 DIIS: error= 9.83D-04 at cycle   3 NSaved=   3.
 NSaved= 3 IEnMin= 3 EnMin= -76.4227355425178     IErMin= 3 ErrMin= 9.83D-04
 ErrMax= 9.83D-04  0.00D+00 EMaxC= 1.00D-01 BMatC= 1.71D-04 BMatP= 5.04D-03
 IDIUse=3 WtCom= 9.90D-01 WtEn= 9.83D-03
 Coeff-Com: -0.295D-01 0.549D-01 0.975D+00
 Coeff-En:   0.000D+00 0.000D+00 0.100D+01
 Coeff:     -0.292D-01 0.544D-01 0.975D+00
 Gap=     0.404 Goal=   None    Shift=    0.000
 RMSDP=3.49D-05 MaxDP=1.48D-03 DE=-4.40D-02 OVMax= 4.07D-03

 Cycle   4  Pass 1  IDiag  1:
 RMSU=  2.86D-05    CP:  9.98D-01  7.65D-01  1.06D+00
 E= -76.4228696723607     Delta-E=       -0.000134129843 Rises=F Damp=F
 DIIS: error= 1.24D-04 at cycle   4 NSaved=   4.
 NSaved= 4 IEnMin= 4 EnMin= -76.4228696723607     IErMin= 4 ErrMin= 1.24D-04
 ErrMax= 1.24D-04  0.00D+00 EMaxC= 1.00D-01 BMatC= 2.73D-06 BMatP= 1.71D-04
 IDIUse=3 WtCom= 9.99D-01 WtEn= 1.24D-03
 Coeff-Com: -0.336D-02 0.103D-02 0.147D+00 0.856D+00
 Coeff-En:   0.000D+00 0.000D+00 0.000D+00 0.100D+01
 Coeff:     -0.335D-02 0.103D-02 0.146D+00 0.856D+00
 Gap=     0.405 Goal=   None    Shift=    0.000
 RMSDP=6.88D-06 MaxDP=3.17D-04 DE=-1.34D-04 OVMax= 5.23D-04

 Cycle   5  Pass 1  IDiag  1:
 RMSU=  4.04D-06    CP:  9.98D-01  7.61D-01  1.07D+00  1.08D+00
 E= -76.4228714263848     Delta-E=       -0.000001754024 Rises=F Damp=F
 DIIS: error= 2.23D-05 at cycle   5 NSaved=   5.
 NSaved= 5 IEnMin= 5 EnMin= -76.4228714263848     IErMin= 5 ErrMin= 2.23D-05
 ErrMax= 2.23D-05  0.00D+00 EMaxC= 1.00D-01 BMatC= 7.55D-08 BMatP= 2.73D-06
 IDIUse=1 WtCom= 1.00D+00 WtEn= 0.00D+00
 Coeff-Com:  0.153D-02-0.240D-02-0.371D-01-0.513D-01 0.109D+01
 Coeff:      0.153D-02-0.240D-02-0.371D-01-0.513D-01 0.109D+01
 Gap=     0.405 Goal=   None    Shift=    0.000
 RMSDP=5.60D-06 MaxDP=2.81D-04 DE=-1.75D-06 OVMax= 2.15D-04

 Cycle   6  Pass 1  IDiag  1:
 RMSU=  1.08D-06    CP:  9.98D-01  7.58D-01  1.07D+00  1.17D+00  1.30D+00
 E= -76.4228715621498     Delta-E=       -0.000000135765 Rises=F Damp=F
 DIIS: error= 2.38D-06 at cycle   6 NSaved=   6.
 NSaved= 6 IEnMin= 6 EnMin= -76.4228715621498     IErMin= 6 ErrMin= 2.38D-06
 ErrMax= 2.38D-06  0.00D+00 EMaxC= 1.00D-01 BMatC= 1.72D-09 BMatP= 7.55D-08
 IDIUse=1 WtCom= 1.00D+00 WtEn= 0.00D+00
 Coeff-Com: -0.286D-03 0.407D-03 0.392D-02-0.568D-02-0.164D+00 0.117D+01
 Coeff:     -0.286D-03 0.407D-03 0.392D-02-0.568D-02-0.164D+00 0.117D+01
 Gap=     0.405 Goal=   None    Shift=    0.000
 RMSDP=7.59D-07 MaxDP=3.92D-05 DE=-1.36D-07 OVMax= 3.89D-05

 Cycle   7  Pass 1  IDiag  1:
 RMSU=  1.27D-07    CP:  9.98D-01  7.57D-01  1.07D+00  1.19D+00  1.36D+00
                    CP:  1.23D+00
 E= -76.4228715657269     Delta-E=       -0.000000003577 Rises=F Damp=F
 DIIS: error= 3.73D-07 at cycle   7 NSaved=   7.
 NSaved= 7 IEnMin= 7 EnMin= -76.4228715657269     IErMin= 7 ErrMin= 3.73D-07
 ErrMax= 3.73D-07  0.00D+00 EMaxC= 1.00D-01 BMatC= 2.01D-11 BMatP= 1.72D-09
 IDIUse=1 WtCom= 1.00D+00 WtEn= 0.00D+00
 Coeff-Com:  0.361D-04-0.322D-04-0.431D-03 0.206D-02 0.736D-02-0.169D+00
 Coeff-Com:  0.116D+01
 Coeff:      0.361D-04-0.322D-04-0.431D-03 0.206D-02 0.736D-02-0.169D+00
 Coeff:      0.116D+01
 Gap=     0.405 Goal=   None    Shift=    0.000
 RMSDP=9.90D-08 MaxDP=5.61D-06 DE=-3.58D-09 OVMax= 5.12D-06

 Cycle   8  Pass 1  IDiag  1:
 RMSU=  1.75D-08    CP:  9.98D-01  7.57D-01  1.07D+00  1.19D+00  1.37D+00
                    CP:  1.26D+00  1.19D+00
 E= -76.4228715657765     Delta-E=       -0.000000000050 Rises=F Damp=F
 DIIS: error= 4.00D-08 at cycle   8 NSaved=   8.
 NSaved= 8 IEnMin= 8 EnMin= -76.4228715657765     IErMin= 8 ErrMin= 4.00D-08
 ErrMax= 4.00D-08  0.00D+00 EMaxC= 1.00D-01 BMatC= 4.27D-13 BMatP= 2.01D-11
 IDIUse=1 WtCom= 1.00D+00 WtEn= 0.00D+00
 Coeff-Com:  0.839D-06-0.445D-05 0.195D-04-0.138D-04 0.151D-02-0.129D-02
 Coeff-Com: -0.110D+00 0.111D+01
 Coeff:      0.839D-06-0.445D-05 0.195D-04-0.138D-04 0.151D-02-0.129D-02
 Coeff:     -0.110D+00 0.111D+01
 Gap=     0.405 Goal=   None    Shift=    0.000
 RMSDP=3.91D-09 MaxDP=1.07D-07 DE=-4.96D-11 OVMax= 4.36D-07

 SCF Done:  E(RM062X) =  -76.4228715658     A.U. after    8 cycles
            NFock=  8  Conv=0.39D-08     -V/T= 2.0033
 KE= 7.617227741636D+01 PE=-1.989648704433D+02 EE= 3.730512960668D+01
 Leave Link  502 at Sun Feb 19 13:49:07 2023, MaxMem=  6710886400 cpu:             171.4 elap:               7.2
 (Enter /data0/home/software/g16/l601.exe)
 Copying SCF densities to generalized density rwf, IOpCl= 0 IROHF=0.

 **********************************************************************

            Population analysis using the SCF density.

 **********************************************************************

 Alpha  occ. eigenvalues --  -19.62755  -1.13170  -0.60503  -0.47569  -0.39996
 Alpha virt. eigenvalues --    0.00488   0.03715   0.04846   0.05581   0.07379
 Alpha virt. eigenvalues --    0.10331   0.12363   0.13682   0.14215   0.15635
 Alpha virt. eigenvalues --    0.16252   0.17912   0.18591   0.19135   0.20370
 Alpha virt. eigenvalues --    0.20776   0.21045   0.22428   0.23863   0.24780
 Alpha virt. eigenvalues --    0.25325   0.26540   0.28471   0.28701   0.29205
 Alpha virt. eigenvalues --    0.31106   0.32016   0.33617   0.34983   0.35991
 Alpha virt. eigenvalues --    0.37144   0.37901   0.38540   0.39630   0.39733
 Alpha virt. eigenvalues --    0.41895   0.43651   0.45417   0.50374   0.54668
 Alpha virt. eigenvalues --    0.57414   0.63431   0.68177   0.70348   0.71174
 Alpha virt. eigenvalues --    0.72276   0.73147   0.74086   0.75318   0.76647
 Alpha virt. eigenvalues --    0.77590   0.79675   0.80902   0.82532   0.86674
 Alpha virt. eigenvalues --    0.88316   0.91414   0.94849   0.96714   0.98558
 Alpha virt. eigenvalues --    0.98700   1.03462   1.06206   1.06696   1.07416
 Alpha virt. eigenvalues --    1.09343   1.11844   1.12034   1.15288   1.16507
 Alpha virt. eigenvalues --    1.18759   1.21122   1.25938   1.26456   1.28950
 Alpha virt. eigenvalues --    1.30463   1.38412   1.42348   1.45029   1.45836
 Alpha virt. eigenvalues --    1.51599   1.64717   1.69455   1.73041   1.74808
 Alpha virt. eigenvalues --    1.76732   1.83998   1.89163   1.92222   1.94166
 Alpha virt. eigenvalues --    1.96738   2.01044   2.02366   2.11369   2.12856
 Alpha virt. eigenvalues --    2.13597   2.19405   2.23545   2.24142   2.26353
 Alpha virt. eigenvalues --    2.27650   2.34535   2.37801   2.38179   2.40009
 Alpha virt. eigenvalues --    2.42159   2.42617   2.46418   2.49191   2.49684
 Alpha virt. eigenvalues --    2.51454   2.57002   2.58021   2.59655   2.59927
 Alpha virt. eigenvalues --    2.61264   2.62090   2.62948   2.64671   2.66242
 Alpha virt. eigenvalues --    2.66881   2.68463   2.70364   2.73189   2.77095
 Alpha virt. eigenvalues --    2.80191   2.82452   2.84215   2.88508   2.89902
 Alpha virt. eigenvalues --    2.90352   2.92603   2.96487   2.99039   2.99647
 Alpha virt. eigenvalues --    2.99725   3.03116   3.04940   3.05883   3.08499
 Alpha virt. eigenvalues --    3.13308   3.16349   3.18854   3.20947   3.24591
 Alpha virt. eigenvalues --    3.26620   3.31004   3.37381   3.42260   3.45713
 Alpha virt. eigenvalues --    3.47930   3.53519   3.70138   3.74149   3.78732
 Alpha virt. eigenvalues --    4.41556   4.43920   4.47804   4.54162   4.56818
 Alpha virt. eigenvalues --    4.62305   4.78958   4.89936   4.93714   5.03491
 Alpha virt. eigenvalues --    5.03673   5.16825   5.54712   5.94502   6.81324
 Alpha virt. eigenvalues --    6.83900   6.91778   7.01303   7.13938   9.77010
 Alpha virt. eigenvalues --    9.79713   9.84000   9.84355   9.86500   9.92240
 Alpha virt. eigenvalues --    9.94918  10.00024  10.09757  10.11648  10.15100
 Alpha virt. eigenvalues --   10.17628  10.19261  10.23214  10.27928  10.30051
 Alpha virt. eigenvalues --   10.32754  10.37995  10.39322  10.40124  10.44042
 Alpha virt. eigenvalues --   10.47731  10.51149  10.61595  10.71585  10.72447
 Alpha virt. eigenvalues --   10.79476  10.85292  12.84461  12.91995  12.95376
 Alpha virt. eigenvalues --   13.23578  13.28370  13.33766  13.38607  13.43094
 Alpha virt. eigenvalues --   13.46209  13.49951  13.52541  13.70033  13.74192
 Alpha virt. eigenvalues --   13.79839  13.95231  14.19442  17.67175  17.71486
 Alpha virt. eigenvalues --   18.25578  18.50370  18.52025  50.01393  52.79486
 Alpha virt. eigenvalues --   52.85590  53.02998  70.62434 136.39044 136.41020
 Alpha virt. eigenvalues --  139.17128 139.65821 139.76426 483.41222
          Condensed to atoms (all electrons):
               1          2          3          4          5          6
     1  P    0.015398  -0.002411  -0.013139   0.011199  -0.008981   0.001320
     2  O   -0.002411   0.001854   0.003428  -0.002933   0.000358   0.000000
     3  O   -0.013139   0.003428   0.057536  -0.065054   0.004302  -0.000036
     4  H    0.011199  -0.002933  -0.065054   0.085736  -0.001264  -0.000428
     5  O   -0.008981   0.000358   0.004302  -0.001264   0.013523  -0.002084
     6  H    0.001320   0.000000  -0.000036  -0.000428  -0.002084   0.000554
     7  O   -0.001411  -0.000786  -0.004986   0.004466  -0.002863   0.000120
     8  H   -0.000095   0.000056   0.000212  -0.000310  -0.000686   0.000047
     9  O   -0.014528   0.001671   0.102368  -0.149231   0.004261   0.000853
    10  H    0.002102  -0.000091  -0.005579   0.007609  -0.000373  -0.000078
    11  H    0.001390  -0.000086  -0.006653   0.011115   0.000569  -0.000142
    12  O    0.000551  -0.000004  -0.001613   0.000105  -0.000396   0.000058
    13  H   -0.000292   0.000013   0.000873  -0.000438   0.000159  -0.000026
    14  H   -0.000077   0.000001   0.000288  -0.000184   0.000017  -0.000002
               7          8          9         10         11         12
     1  P   -0.001411  -0.000095  -0.014528   0.002102   0.001390   0.000551
     2  O   -0.000786   0.000056   0.001671  -0.000091  -0.000086  -0.000004
     3  O   -0.004986   0.000212   0.102368  -0.005579  -0.006653  -0.001613
     4  H    0.004466  -0.000310  -0.149231   0.007609   0.011115   0.000105
     5  O   -0.002863  -0.000686   0.004261  -0.000373   0.000569  -0.000396
     6  H    0.000120   0.000047   0.000853  -0.000078  -0.000142   0.000058
     7  O    0.005598   0.000265  -0.003052   0.000090   0.000024   0.000019
     8  H    0.000265   0.000287  -0.000114  -0.000020  -0.000043   0.000004
     9  O   -0.003052  -0.000114   7.977513   0.341487   0.345496   0.022594
    10  H    0.000090  -0.000020   0.341487   0.419534  -0.037984   0.002085
    11  H    0.000024  -0.000043   0.345496  -0.037984   0.339396   0.008268
    12  O    0.000019   0.000004   0.022594   0.002085   0.008268   0.018480
    13  H   -0.000007  -0.000001  -0.004389  -0.000572  -0.001288  -0.006217
    14  H   -0.000001  -0.000000  -0.003599  -0.000188  -0.001236  -0.006269
              13         14
     1  P   -0.000292  -0.000077
     2  O    0.000013   0.000001
     3  O    0.000873   0.000288
     4  H   -0.000438  -0.000184
     5  O    0.000159   0.000017
     6  H   -0.000026  -0.000002
     7  O   -0.000007  -0.000001
     8  H   -0.000001  -0.000000
     9  O   -0.004389  -0.003599
    10  H   -0.000572  -0.000188
    11  H   -0.001288  -0.001236
    12  O   -0.006217  -0.006269
    13  H    0.002794   0.001800
    14  H    0.001800   0.003007
 Mulliken charges:
               1
     1  P    0.008974
     2  O   -0.001068
     3  O   -0.071947
     4  H    0.099614
     5  O   -0.006541
     6  H   -0.000157
     7  O    0.002525
     8  H    0.000398
     9  O   -0.621329
    10  H    0.271980
    11  H    0.341177
    12  O   -0.037663
    13  H    0.007591
    14  H    0.006445
 Sum of Mulliken charges =   0.00000
 Mulliken charges with hydrogens summed into heavy atoms:
               1
     1  P    0.008974
     2  O   -0.001068
     3  O    0.027667
     5  O   -0.006698
     7  O    0.002923
     9  O   -0.008171
    12  O   -0.023627
         Mulliken charges condensed to fragments:
      1      0.031798
      2     -0.008171
      3     -0.023627
 Electronic spatial extent (au):  <R**2>=           7600.2137
 Charge=              0.0000 electrons
 Dipole moment (field-independent basis, Debye):
    X=              0.8793    Y=              1.4379    Z=              1.1327  Tot=              2.0307
 Quadrupole moment (field-independent basis, Debye-Ang):
   XX=              6.6478   YY=             22.7515   ZZ=             11.2320
   XY=             20.1586   XZ=             13.3449   YZ=             22.5948
 Traceless Quadrupole moment (field-independent basis, Debye-Ang):
   XX=             -6.8960   YY=              9.2077   ZZ=             -2.3118
   XY=             20.1586   XZ=             13.3449   YZ=             22.5948
 Octapole moment (field-independent basis, Debye-Ang**2):
  XXX=              8.5192  YYY=            245.6382  ZZZ=             63.8593  XYY=            273.1897
  XXY=            154.3107  XXZ=             88.7380  XZZ=            109.4106  YZZ=            199.1051
  YYZ=            294.2078  XYZ=            221.3523
 Hexadecapole moment (field-independent basis, Debye-Ang**3):
 XXXX=           -516.9970 YYYY=           1915.4966 ZZZZ=             28.9826 XXXY=            752.3484
 XXXZ=            276.3712 YYYX=           2988.5055 YYYZ=           3139.3908 ZZZX=            596.7557
 ZZZY=           1297.3647 XXYY=           2124.7347 XXZZ=            658.4767 YYZZ=           2527.7333
 XXYZ=           1559.3700 YYXZ=           2781.2444 ZZXY=           1763.6487
 N-N= 9.064591854450D+00 E-N=-1.989648732064D+02  KE= 7.617227741636D+01
 No NMR shielding tensors so no spin-rotation constants.
 Leave Link  601 at Sun Feb 19 13:49:07 2023, MaxMem=  6710886400 cpu:               2.1 elap:               0.1
 (Enter /data0/home/software/g16/l122.exe)
 CPIOFr:  IOpCl= 0 IRwI=-1 IRwCP=  731 ICalc=  2 LCPTot=       89292 Len1MO=      233639 IndFrg=      790209
 Counterpoise: doing calculation for fragment   3 using the basis set of the full-system, NewBq=T
 Leave Link  122 at Sun Feb 19 13:49:07 2023, MaxMem=  6710886400 cpu:               0.1 elap:               0.0
 (Enter /data0/home/software/g16/l301.exe)
 Basis read from rwf:  (5D, 7F)
 No pseudopotential information found on rwf file.
   239 basis functions,   364 primitive gaussians,   253 cartesian basis functions
     5 alpha electrons        5 beta electrons
       nuclear repulsion energy         9.0606552722 Hartrees.
 IExCor= 4336 DFT=T Ex+Corr=M062X ExCW=0 ScaHFX=  0.540000
 ScaDFX=  1.000000  1.000000  1.000000  1.000000 ScalE2=  1.000000  1.000000
 IRadAn=      5 IRanWt=     -1 IRanGd=            0 ICorTp=0 IEmpDi=131
 NAtoms=   14 NActive=   14 NUniq=   14 SFac= 1.00D+00 NAtFMM=   60 NAOKFM=F Big=F
 Integral buffers will be    131072 words long.
 Raffenetti 2 integral format.
 Two-electron integral symmetry is turned off.
 R6Disp:  Grimme-D3 Dispersion energy=       -0.0000000082 Hartrees.
 Nuclear repulsion after empirical dispersion term =        9.0606552640 Hartrees.
 No density basis found on file   718.
 Leave Link  301 at Sun Feb 19 13:49:07 2023, MaxMem=  6710886400 cpu:               1.2 elap:               0.1
 (Enter /data0/home/software/g16/l302.exe)
 NPDir=0 NMtPBC=     1 NCelOv=     1 NCel=       1 NClECP=     1 NCelD=      1
         NCelK=      1 NCelE2=     1 NClLst=     1 CellRange=     0.0.
 One-electron integrals computed using PRISM.
 NBasis=   239 RedAO= T EigKep=  4.93D-04  NBF=   239
 NBsUse=   239 1.00D-06 EigRej= -1.00D+00 NBFU=   239
 Precomputing XC quadrature grid using
 IXCGrd= 4 IRadAn=           5 IRanWt=          -1 IRanGd=           0 AccXCQ= 0.00D+00.
 Generated NRdTot=       0 NPtTot=           0 NUsed=           0 NTot=          32
 NSgBfM=   253   253   253   253   253 MxSgAt=    14 MxSgA2=    14.
 Leave Link  302 at Sun Feb 19 13:49:07 2023, MaxMem=  6710886400 cpu:               3.8 elap:               0.2
 (Enter /data0/home/software/g16/l303.exe)
 DipDrv:  MaxL=1.
 Leave Link  303 at Sun Feb 19 13:49:07 2023, MaxMem=  6710886400 cpu:               0.6 elap:               0.0
 (Enter /data0/home/software/g16/l401.exe)
 ExpMin= 3.48D-02 ExpMax= 7.75D+04 ExpMxC= 2.65D+03 IAcc=3 IRadAn=         5 AccDes= 0.00D+00
 Harris functional with IExCor= 1009 and IRadAn=       5 diagonalized for initial guess.
 HarFok:  IExCor= 1009 AccDes= 0.00D+00 IRadAn=         5 IDoV= 1 UseB2=F ITyADJ=14
 ICtDFT=  3500011 ScaDFX=  1.000000  1.000000  1.000000  1.000000
 FoFCou: FMM=F IPFlag=           0 FMFlag=      100000 FMFlg1=           0
         NFxFlg=           0 DoJE=T BraDBF=F KetDBF=T FulRan=T
         wScrn=  0.000000 ICntrl=       500 IOpCl=  0 I1Cent=   200000004 NGrid=           0
         NMat0=    1 NMatS0=      1 NMatT0=    0 NMatD0=    1 NMtDS0=    0 NMtDT0=    0
 Symmetry not used in FoFCou.
 Harris En= -76.4159981510861    
 JPrj=0 DoOrth=F DoCkMO=F.
 Leave Link  401 at Sun Feb 19 13:49:08 2023, MaxMem=  6710886400 cpu:               9.4 elap:               0.4
 (Enter /data0/home/software/g16/l502.exe)
 Two-electron integral symmetry not used.
 Closed shell SCF:
 Using DIIS extrapolation, IDIIS=  1040.
 NGot=  6710886400 LenX=  6710750439 LenY=  6710685989
 Requested convergence on RMS density matrix=1.00D-08 within 128 cycles.
 Requested convergence on MAX density matrix=1.00D-06.
 Requested convergence on             energy=1.00D-06.
 No special actions if energy rises.
 Fock matrices will be formed incrementally for  20 cycles.

 Cycle   1  Pass 1  IDiag  1:
 FoFJK:  IHMeth= 1 ICntrl=       0 DoSepK=F KAlg= 0 I1Cent=           0 FoldK=F
 IRaf= 890000000 NMat=       1 IRICut=       1 DoRegI=T DoRafI=F ISym2E= 0 IDoP0=0 IntGTp=1.
 FoFCou: FMM=F IPFlag=           0 FMFlag=      100000 FMFlg1=           0
         NFxFlg=           0 DoJE=F BraDBF=F KetDBF=F FulRan=T
[...]
 (Enter /data0/home/software/g16/l601.exe)
 Copying SCF densities to generalized density rwf, IOpCl= 0 IROHF=0.

 **********************************************************************

            Population analysis using the SCF density.

 **********************************************************************

 Alpha  occ. eigenvalues --  -19.62683  -1.13178  -0.60512  -0.47519  -0.39957
 Alpha virt. eigenvalues --    0.06186   0.13255   0.17417   0.17950   0.18914
 Alpha virt. eigenvalues --    0.23346   0.50982   0.52941   0.98091   1.00280
 Alpha virt. eigenvalues --    1.06023   1.18197   1.19882   1.32190   1.34117
 Alpha virt. eigenvalues --    1.69700   1.74066   1.75329   2.07673   2.08760
 Alpha virt. eigenvalues --    2.35718   2.40590   2.54412   2.87757   3.00416
 Alpha virt. eigenvalues --    5.05621   5.47717   5.90427   6.78373   6.80216
 Alpha virt. eigenvalues --    6.87273   6.91449   7.09852  49.95287
          Condensed to atoms (all electrons):
               9         10         11
     9  O    7.919955   0.317760   0.318978
    10  H    0.317760   0.427301  -0.023949
    11  H    0.318978  -0.023949   0.427168
 Mulliken charges:
               1
     1  P    0.000000
     2  O    0.000000
     3  O    0.000000
     4  H    0.000000
     5  O    0.000000
     6  H    0.000000
     7  O    0.000000
     8  H    0.000000
     9  O   -0.556693
    10  H    0.278889
    11  H    0.277804
    12  O    0.000000
    13  H    0.000000
    14  H    0.000000
 Sum of Mulliken charges =   0.00000
 Mulliken charges with hydrogens summed into heavy atoms:
               1
     1  P    0.000000
     2  O    0.000000
     3  O    0.000000
     5  O    0.000000
     7  O    0.000000
     9  O    0.000000
    12  O    0.000000
         Mulliken charges condensed to fragments:
      1      0.000000
      2      0.000000
      3      0.000000
 Electronic spatial extent (au):  <R**2>=           7598.1177
 Charge=             -0.0000 electrons
 Dipole moment (field-independent basis, Debye):
    X=              0.9247    Y=              1.5107    Z=              1.1744  Tot=              2.1252
 Quadrupole moment (field-independent basis, Debye-Ang):
   XX=              7.3199   YY=             24.2266   ZZ=             11.9041
   XY=             21.1380   XZ=             13.9957   YZ=             23.5746
 Traceless Quadrupole moment (field-independent basis, Debye-Ang):
   XX=             -7.1636   YY=              9.7431   ZZ=             -2.5795
   XY=             21.1380   XZ=             13.9957   YZ=             23.5746
 Octapole moment (field-independent basis, Debye-Ang**2):
  XXX=             16.1083  YYY=            268.2153  ZZZ=             72.0765  XYY=            288.3834
  XXY=            164.8446  XXZ=             96.1473  XZZ=            117.0136  YZZ=            210.2380
  YYZ=            309.8430  XYZ=            231.9391
 Hexadecapole moment (field-independent basis, Debye-Ang**3):
 XXXX=           -439.5260 YYYY=           2224.9566 ZZZZ=            119.2774 XXXY=            856.0560
 XXXZ=            351.7945 YYYX=           3197.0187 YYYZ=           3357.3710 ZZZX=            678.1015
 ZZZY=           1414.4959 XXYY=           2269.3944 XXZZ=            735.1439 YYZZ=           2685.2542
 XXYZ=           1663.1971 YYXZ=           2929.4340 ZZXY=           1871.7212
 N-N= 9.064591854450D+00 E-N=-1.989741139020D+02  KE= 7.618094921219D+01
 No NMR shielding tensors so no spin-rotation constants.
 Leave Link  601 at Sun Feb 19 13:49:23 2023, MaxMem=  6710886400 cpu:               1.7 elap:               0.1
 (Enter /data0/home/software/g16/l122.exe)
 CPIOFr:  IOpCl= 0 IRwI=-1 IRwCP=  731 ICalc=  5 LCPTot=       89292 Len1MO=      233639 IndFrg=     1491126
 Counterpoise: doing calculation for fragment   3 using the basis set of the fragment.
 Leave Link  122 at Sun Feb 19 13:49:23 2023, MaxMem=  6710886400 cpu:               0.1 elap:               0.0
 (Enter /data0/home/software/g16/l301.exe)
 Basis read from rwf:  (5D, 7F)
 No pseudopotential information found on rwf file.
    39 basis functions,    58 primitive gaussians,    41 cartesian basis functions
     5 alpha electrons        5 beta electrons
       nuclear repulsion energy         9.0606552722 Hartrees.
 IExCor= 4336 DFT=T Ex+Corr=M062X ExCW=0 ScaHFX=  0.540000
 ScaDFX=  1.000000  1.000000  1.000000  1.000000 ScalE2=  1.000000  1.000000
 IRadAn=      5 IRanWt=     -1 IRanGd=            0 ICorTp=0 IEmpDi=131
 NAtoms=   14 NActive=    3 NUniq=    3 SFac= 1.00D+00 NAtFMM=   60 NAOKFM=F Big=F
 Integral buffers will be    131072 words long.
 Raffenetti 2 integral format.
 Two-electron integral symmetry is turned off.
 R6Disp:  Grimme-D3 Dispersion energy=       -0.0000000082 Hartrees.
 Nuclear repulsion after empirical dispersion term =        9.0606552640 Hartrees.
 No density basis found on file   718.
 Leave Link  301 at Sun Feb 19 13:49:23 2023, MaxMem=  6710886400 cpu:               1.2 elap:               0.1
 (Enter /data0/home/software/g16/l302.exe)
 NPDir=0 NMtPBC=     1 NCelOv=     1 NCel=       1 NClECP=     1 NCelD=      1
         NCelK=      1 NCelE2=     1 NClLst=     1 CellRange=     0.0.
 One-electron integrals computed using PRISM.
 NBasis=    39 RedAO= T EigKep=  3.11D-03  NBF=    39
 NBsUse=    39 1.00D-06 EigRej= -1.00D+00 NBFU=    39
 Precomputing XC quadrature grid using
 IXCGrd= 4 IRadAn=           5 IRanWt=          -1 IRanGd=           0 AccXCQ= 0.00D+00.
 Generated NRdTot=       0 NPtTot=           0 NUsed=           0 NTot=          32
 NSgBfM=    41    41    41    41    41 MxSgAt=     3 MxSgA2=     3.
 Leave Link  302 at Sun Feb 19 13:49:23 2023, MaxMem=  6710886400 cpu:               2.2 elap:               0.1
 (Enter /data0/home/software/g16/l303.exe)
 DipDrv:  MaxL=1.
 Leave Link  303 at Sun Feb 19 13:49:23 2023, MaxMem=  6710886400 cpu:               0.4 elap:               0.0
 (Enter /data0/home/software/g16/l401.exe)
 ExpMin= 8.45D-02 ExpMax= 8.59D+03 ExpMxC= 1.30D+03 IAcc=3 IRadAn=         5 AccDes= 0.00D+00
 Harris functional with IExCor= 1009 and IRadAn=       5 diagonalized for initial guess.
 HarFok:  IExCor= 1009 AccDes= 0.00D+00 IRadAn=         5 IDoV= 1 UseB2=F ITyADJ=14
 ICtDFT=  3500011 ScaDFX=  1.000000  1.000000  1.000000  1.000000
 FoFCou: FMM=F IPFlag=           0 FMFlag=      100000 FMFlg1=           0
         NFxFlg=           0 DoJE=T BraDBF=F KetDBF=T FulRan=T
         wScrn=  0.000000 ICntrl=       500 IOpCl=  0 I1Cent=   200000004 NGrid=           0
         NMat0=    1 NMatS0=      1 NMatT0=    0 NMatD0=    1 NMtDS0=    0 NMtDT0=    0
 Symmetry not used in FoFCou.
 Harris En= -76.4155305986141    
 JPrj=0 DoOrth=F DoCkMO=F.
 Leave Link  401 at Sun Feb 19 13:49:23 2023, MaxMem=  6710886400 cpu:               2.9 elap:               0.1
 (Enter /data0/home/software/g16/l502.exe)
 Keep R1 ints in memory in canonical form, NReq=21037771.
 FoFCou: FMM=F IPFlag=           0 FMFlag=           0 FMFlg1=           0
         NFxFlg=           0 DoJE=F BraDBF=F KetDBF=F FulRan=T
         wScrn=  0.000000 ICntrl=       600 IOpCl=  0 I1Cent=           0 NGrid=           0
         NMat0=    1 NMatS0=    780 NMatT0=    0 NMatD0=    1 NMtDS0=    0 NMtDT0=    0
 Symmetry not used in FoFCou.
 Two-electron integral symmetry not used.
 Closed shell SCF:
 Using DIIS extrapolation, IDIIS=  1040.
 NGot=  6710886400 LenX=  6710576653 LenY=  6710574531
 Requested convergence on RMS density matrix=1.00D-08 within 128 cycles.
 Requested convergence on MAX density matrix=1.00D-06.
 Requested convergence on             energy=1.00D-06.
 No special actions if energy rises.
 Integral accuracy reduced to 1.0D-05 until final iterations.

 Cycle   1  Pass 0  IDiag  1:
 E= -76.3454980853924    
 DIIS: error= 6.99D-02 at cycle   1 NSaved=   1.
 NSaved= 1 IEnMin= 1 EnMin= -76.3454980853924     IErMin= 1 ErrMin= 6.99D-02
 ErrMax= 6.99D-02  0.00D+00 EMaxC= 1.00D-01 BMatC= 1.20D-01 BMatP= 1.20D-01
 IDIUse=3 WtCom= 3.01D-01 WtEn= 6.99D-01
 Coeff-Com:  0.100D+01
 Coeff-En:   0.100D+01
 Coeff:      0.100D+01
 Gap=     0.323 Goal=   None    Shift=    0.000
 GapD=    0.323 DampG=1.000 DampE=0.500 DampFc=0.5000 IDamp=-1.
 Damping current iteration by 5.00D-01
 RMSDP=7.90D-03 MaxDP=1.01D-01              OVMax= 1.68D-01

 Cycle   2  Pass 0  IDiag  1:
 E= -76.3767225024562     Delta-E=       -0.031224417064 Rises=F Damp=T
 DIIS: error= 1.10D-02 at cycle   2 NSaved=   2.
 NSaved= 2 IEnMin= 2 EnMin= -76.3767225024562     IErMin= 2 ErrMin= 1.10D-02
 ErrMax= 1.10D-02  0.00D+00 EMaxC= 1.00D-01 BMatC= 4.91D-03 BMatP= 1.20D-01
 IDIUse=3 WtCom= 8.90D-01 WtEn= 1.10D-01
 Coeff-Com:  0.846D-01 0.915D+00
 Coeff-En:   0.191D+00 0.809D+00
 Coeff:      0.963D-01 0.904D+00
 Gap=     0.456 Goal=   None    Shift=    0.000
 RMSDP=9.53D-04 MaxDP=1.42D-02 DE=-3.12D-02 OVMax= 1.01D-01

 Cycle   3  Pass 0  IDiag  1:
 E= -76.4207377253594     Delta-E=       -0.044015222903 Rises=F Damp=F
 DIIS: error= 2.22D-03 at cycle   3 NSaved=   3.
 NSaved= 3 IEnMin= 3 EnMin= -76.4207377253594     IErMin= 3 ErrMin= 2.22D-03
 ErrMax= 2.22D-03  0.00D+00 EMaxC= 1.00D-01 BMatC= 9.57D-05 BMatP= 4.91D-03
 IDIUse=3 WtCom= 9.78D-01 WtEn= 2.22D-02
 Coeff-Com: -0.202D-01 0.414D-01 0.979D+00
 Coeff-En:   0.000D+00 0.000D+00 0.100D+01
 Coeff:     -0.198D-01 0.405D-01 0.979D+00
 Gap=     0.460 Goal=   None    Shift=    0.000
 RMSDP=1.17D-04 MaxDP=1.11D-03 DE=-4.40D-02 OVMax= 3.39D-03

 Cycle   4  Pass 0  IDiag  1:
 E= -76.4208190950278     Delta-E=       -0.000081369668 Rises=F Damp=F
 DIIS: error= 4.23D-04 at cycle   4 NSaved=   4.
 NSaved= 4 IEnMin= 4 EnMin= -76.4208190950278     IErMin= 4 ErrMin= 4.23D-04
 ErrMax= 4.23D-04  0.00D+00 EMaxC= 1.00D-01 BMatC= 3.47D-06 BMatP= 9.57D-05
 IDIUse=3 WtCom= 9.96D-01 WtEn= 4.23D-03
 Coeff-Com: -0.207D-02-0.207D-02 0.166D+00 0.838D+00
 Coeff-En:   0.000D+00 0.000D+00 0.000D+00 0.100D+01
 Coeff:     -0.206D-02-0.206D-02 0.165D+00 0.839D+00
 Gap=     0.461 Goal=   None    Shift=    0.000
 RMSDP=2.25D-05 MaxDP=3.57D-04 DE=-8.14D-05 OVMax= 5.46D-04

 Cycle   5  Pass 0  IDiag  1:
 E= -76.4208212383725     Delta-E=       -0.000002143345 Rises=F Damp=F
 DIIS: error= 9.23D-05 at cycle   5 NSaved=   5.
 NSaved= 5 IEnMin= 5 EnMin= -76.4208212383725     IErMin= 5 ErrMin= 9.23D-05
 ErrMax= 9.23D-05  0.00D+00 EMaxC= 1.00D-01 BMatC= 8.84D-08 BMatP= 3.47D-06
 IDIUse=1 WtCom= 1.00D+00 WtEn= 0.00D+00
 Coeff-Com:  0.121D-02-0.185D-02-0.371D-01-0.713D-01 0.111D+01
 Coeff:      0.121D-02-0.185D-02-0.371D-01-0.713D-01 0.111D+01
 Gap=     0.461 Goal=   None    Shift=    0.000
 RMSDP=9.25D-06 MaxDP=1.05D-04 DE=-2.14D-06 OVMax= 2.10D-04

 Initial convergence to 1.0D-05 achieved.  Increase integral accuracy.
 Cycle   6  Pass 1  IDiag  1:
 E= -76.4208230803577     Delta-E=       -0.000001841985 Rises=F Damp=F
 DIIS: error= 2.47D-05 at cycle   1 NSaved=   1.
 NSaved= 1 IEnMin= 1 EnMin= -76.4208230803577     IErMin= 1 ErrMin= 2.47D-05
 ErrMax= 2.47D-05  0.00D+00 EMaxC= 1.00D-01 BMatC= 2.24D-08 BMatP= 2.24D-08
 IDIUse=1 WtCom= 1.00D+00 WtEn= 0.00D+00
 Coeff-Com:  0.100D+01
 Coeff:      0.100D+01
 Gap=     0.461 Goal=   None    Shift=    0.000
 RMSDP=9.25D-06 MaxDP=1.05D-04 DE=-1.84D-06 OVMax= 5.63D-05

 Cycle   7  Pass 1  IDiag  1:
 E= -76.4208230989489     Delta-E=       -0.000000018591 Rises=F Damp=F
 DIIS: error= 1.06D-05 at cycle   2 NSaved=   2.
 NSaved= 2 IEnMin= 2 EnMin= -76.4208230989489     IErMin= 2 ErrMin= 1.06D-05
 ErrMax= 1.06D-05  0.00D+00 EMaxC= 1.00D-01 BMatC= 1.65D-09 BMatP= 2.24D-08
 IDIUse=1 WtCom= 1.00D+00 WtEn= 0.00D+00
 Coeff-Com:  0.544D-01 0.946D+00
 Coeff:      0.544D-01 0.946D+00
 Gap=     0.461 Goal=   None    Shift=    0.000
 RMSDP=8.58D-07 MaxDP=1.34D-05 DE=-1.86D-08 OVMax= 2.34D-05

 Cycle   8  Pass 1  IDiag  1:
 E= -76.4208230992777     Delta-E=       -0.000000000329 Rises=F Damp=F
 DIIS: error= 7.78D-06 at cycle   3 NSaved=   3.
 NSaved= 3 IEnMin= 3 EnMin= -76.4208230992777     IErMin= 3 ErrMin= 7.78D-06
 ErrMax= 7.78D-06  0.00D+00 EMaxC= 1.00D-01 BMatC= 1.61D-09 BMatP= 1.65D-09
 IDIUse=1 WtCom= 1.00D+00 WtEn= 0.00D+00
 Coeff-Com: -0.447D-01 0.510D+00 0.535D+00
 Coeff:     -0.447D-01 0.510D+00 0.535D+00
 Gap=     0.461 Goal=   None    Shift=    0.000
 RMSDP=4.53D-07 MaxDP=6.12D-06 DE=-3.29D-10 OVMax= 1.10D-05

 Cycle   9  Pass 1  IDiag  1:
 E= -76.4208231003426     Delta-E=       -0.000000001065 Rises=F Damp=F
 DIIS: error= 8.40D-07 at cycle   4 NSaved=   4.
 NSaved= 4 IEnMin= 4 EnMin= -76.4208231003426     IErMin= 4 ErrMin= 8.40D-07
 ErrMax= 8.40D-07  0.00D+00 EMaxC= 1.00D-01 BMatC= 7.48D-12 BMatP= 1.61D-09
 IDIUse=1 WtCom= 1.00D+00 WtEn= 0.00D+00
 Coeff-Com: -0.374D-02-0.115D-01 0.255D-01 0.990D+00
 Coeff:     -0.374D-02-0.115D-01 0.255D-01 0.990D+00
 Gap=     0.461 Goal=   None    Shift=    0.000
 RMSDP=8.33D-08 MaxDP=6.54D-07 DE=-1.06D-09 OVMax= 1.82D-06

 Cycle  10  Pass 1  IDiag  1:
 E= -76.4208231003547     Delta-E=       -0.000000000012 Rises=F Damp=F
 DIIS: error= 1.32D-07 at cycle   5 NSaved=   5.
 NSaved= 5 IEnMin= 5 EnMin= -76.4208231003547     IErMin= 5 ErrMin= 1.32D-07
 ErrMax= 1.32D-07  0.00D+00 EMaxC= 1.00D-01 BMatC= 4.54D-13 BMatP= 7.48D-12
 IDIUse=1 WtCom= 1.00D+00 WtEn= 0.00D+00
 Coeff-Com:  0.319D-02-0.416D-01-0.379D-01 0.729D-01 0.100D+01
 Coeff:      0.319D-02-0.416D-01-0.379D-01 0.729D-01 0.100D+01
 Gap=     0.461 Goal=   None    Shift=    0.000
 RMSDP=2.82D-08 MaxDP=2.51D-07 DE=-1.21D-11 OVMax= 6.92D-07

 Cycle  11  Pass 1  IDiag  1:
 E= -76.4208231003555     Delta-E=       -0.000000000001 Rises=F Damp=F
 DIIS: error= 1.17D-08 at cycle   6 NSaved=   6.
 NSaved= 6 IEnMin= 6 EnMin= -76.4208231003555     IErMin= 6 ErrMin= 1.17D-08
 ErrMax= 1.17D-08  0.00D+00 EMaxC= 1.00D-01 BMatC= 3.76D-15 BMatP= 4.54D-13
 IDIUse=1 WtCom= 1.00D+00 WtEn= 0.00D+00
 Coeff-Com:  0.151D-04 0.675D-03 0.455D-03-0.144D-01-0.697D-01 0.108D+01
 Coeff:      0.151D-04 0.675D-03 0.455D-03-0.144D-01-0.697D-01 0.108D+01
 Gap=     0.461 Goal=   None    Shift=    0.000
 RMSDP=3.92D-09 MaxDP=3.18D-08 DE=-8.53D-13 OVMax= 8.17D-08

 SCF Done:  E(RM062X) =  -76.4208231004     A.U. after   11 cycles
            NFock= 11  Conv=0.39D-08     -V/T= 2.0032
 KE= 7.618020258727D+01 PE=-1.989665841417D+02 EE= 3.730490319011D+01
 Leave Link  502 at Sun Feb 19 13:49:24 2023, MaxMem=  6710886400 cpu:               8.5 elap:               0.4
 (Enter /data0/home/software/g16/l601.exe)
 Copying SCF densities to generalized density rwf, IOpCl= 0 IROHF=0.

 **********************************************************************

            Population analysis using the SCF density.

 **********************************************************************

 Alpha  occ. eigenvalues --  -19.62652  -1.13136  -0.60618  -0.47364  -0.39935
 Alpha virt. eigenvalues --    0.06139   0.13245   0.17408   0.17955   0.18952
 Alpha virt. eigenvalues --    0.23287   0.50005   0.53889   0.97839   1.00484
 Alpha virt. eigenvalues --    1.06018   1.18783   1.19712   1.32478   1.34106
 Alpha virt. eigenvalues --    1.69019   1.73593   1.75766   2.06153   2.10066
 Alpha virt. eigenvalues --    2.34925   2.41835   2.54139   2.87209   3.01188
 Alpha virt. eigenvalues --    5.05662   5.46526   5.91310   6.78236   6.80321
 Alpha virt. eigenvalues --    6.87083   6.91345   7.09949  49.95524
          Condensed to atoms (all electrons):
              12         13         14
    12  O    7.920415   0.315621   0.323310
    13  H    0.315621   0.425406  -0.024145
    14  H    0.323310  -0.024145   0.424607
 Mulliken charges:
               1
     1  P    0.000000
     2  O    0.000000
     3  O    0.000000
     4  H    0.000000
     5  O    0.000000
     6  H    0.000000
     7  O    0.000000
     8  H    0.000000
     9  O    0.000000
    10  H    0.000000
    11  H    0.000000
    12  O   -0.559346
    13  H    0.283118
    14  H    0.276229
 Sum of Mulliken charges =  -0.00000
 Mulliken charges with hydrogens summed into heavy atoms:
               1
     1  P    0.000000
     2  O    0.000000
     3  O    0.000000
     5  O    0.000000
     7  O    0.000000
     9  O    0.000000
    12  O   -0.000000
         Mulliken charges condensed to fragments:
      1      0.000000
      2      0.000000
      3     -0.000000
 Electronic spatial extent (au):  <R**2>=           9831.1170
 Charge=             -0.0000 electrons
 Dipole moment (field-independent basis, Debye):
    X=              0.8282    Y=              1.9292    Z=             -0.2530  Tot=              2.1146
 Quadrupole moment (field-independent basis, Debye-Ang):
   XX=              6.5867   YY=             37.4099   ZZ=            -12.8568
   XY=             21.7109   XZ=              6.5473   YZ=             16.5641
 Traceless Quadrupole moment (field-independent basis, Debye-Ang):
   XX=             -3.7933   YY=             27.0300   ZZ=            -23.2367
   XY=             21.7109   XZ=              6.5473   YZ=             16.5641
 Octapole moment (field-independent basis, Debye-Ang**2):
  XXX=             21.5782  YYY=            531.0429  ZZZ=           -312.9758  XYY=            342.7393
  XXY=            154.2703  XXZ=             53.2003  XZZ=             -4.4537  YZZ=             50.7058
  YYZ=            343.8840  XYZ=            198.3219
 Hexadecapole moment (field-independent basis, Debye-Ang**3):
 XXXX=           -205.4835 YYYY=           6468.9747 ZZZZ=          -5825.0166 XXXY=            765.4990
 XXXZ=            118.6339 YYYX=           4509.0469 YYYZ=           4966.1976 ZZZX=          -1290.9516
 ZZZY=          -1554.4636 XXYY=           2355.7421 XXZZ=             48.0202 YYZZ=           2148.5444
 XXYZ=           1404.6513 YYXZ=           3218.3486 ZZXY=           1204.1776
 N-N= 9.060655263986D+00 E-N=-1.989665842051D+02  KE= 7.618020258727D+01
 No NMR shielding tensors so no spin-rotation constants.
 Leave Link  601 at Sun Feb 19 13:49:24 2023, MaxMem=  6710886400 cpu:               1.8 elap:               0.1
 (Enter /data0/home/software/g16/l122.exe)
 CPIOFr:  IOpCl= 0 IRwI=-1 IRwCP=  731 ICalc=  6 LCPTot=       89292 Len1MO=      233639 IndFrg=     1724765
 Restoring MOs from calculation   1 to rwf.
 CPIOFr:  IOpCl= 0 IRwI=-2 IRwCP=  731 ICalc=  0 LCPTot=       89292 Len1MO=      233639 IndFrg=      322931
 Counterpoise corrected energy =    -797.004558171109
                   BSSE energy =       0.002167664976
              sum of fragments =    -796.985152326111
           complexation energy =     -13.54 kcal/mole (raw)
           complexation energy =     -12.18 kcal/mole (corrected)
 Leave Link  122 at Sun Feb 19 13:49:24 2023, MaxMem=  6710886400 cpu:               0.2 elap:               0.0
 (Enter /data0/home/software/g16/l9999.exe)
 1\1\GINC-LOCALHOST\SP\RM062X\6-311+G(2d,p)\H7O6P1\WUHANYU\19-Feb-2023\
 0\\#p M062X/6-311+G(2d,p) nosymm em=GD3 counterpoise=3\\Title Card Req
 uired\\0,1\P,0,9.123484,7.016339,8.185167\O,0,9.613684,6.209003,9.3006
 06\O,0,7.901637,7.894052,8.696073\H,0,7.642268,8.654725,8.041825\O,0,1
 0.122974,7.956047,7.402511\H,0,10.410441,8.777952,8.012083\O,0,8.56627
 4,6.090978,7.009991\H,0,8.52484,6.646337,6.146667\O,0,7.111406,10.2422
 16,7.385558\H,0,7.893805,10.781262,7.167611\H,0,6.851857,10.554925,8.2
 63571\O,0,6.711013,11.182545,10.144183\H,0,7.667157,11.442221,10.05575
 7\H,0,6.23457,12.001537,10.09009\\Version=ES64L-G16RevA.03\HF=-76.4208
 231\RMSD=3.921e-09\Dipole=0.044,3.8875418,-1.0192644\Quadrupole=-32.19
 66309,97.4819434,-65.2853125,65.169546,-17.304747,52.7343588\PG=C01 [X
 (H7O6P1)]\\@


 IT WAS AN ACT OF DESPARATION. FOR SIX YEARS I HAD STRUGGLED WITH THE
 BLACKBODY THEORY. I KNEW THE PROBLEM WAS FUNDAMENTAL, AND I KNEW
 THE ANSWER. I HAD TO FIND A THEORETICAL EXPLANATION AT ANY COST,
 EXCEPT FOR THE INVIOLABLITY OF THE TWO LAWS OF THERMODYNAMICS.
   -- MAX PLANCK, 1931
 Job cpu time:       0 days  0 hours 18 minutes  3.1 seconds.
 Elapsed time:       0 days  0 hours  0 minutes 47.8 seconds.
 File lengths (MBytes):  RWF=     53 Int=      0 D2E=      0 Chk=     17 Scr=      1
 Normal termination of Gaussian 16 at Sun Feb 19 13:49:24 2023.
