 Entering Gaussian System, Link 0=g16
 Initial command:
 /data0/home/software/g16/l1.exe "/data0/home/software/g16/scratch/Gau-2481139.inp" -scrdir="/data0/home/software/g16/scratch/"
 Default is to use a total of  22 processors:
                               22 via shared-memory
                                1 via Linda
 Entering Link 1 = /data0/home/software/g16/l1.exe PID=   2481140.
  
 Copyright (c) 1988,1990,1992,1993,1995,1998,2003,2009,2016,
            Gaussian, Inc.  All Rights Reserved.
  
 This is part of the Gaussian(R) 16 program.  It is based on
 the Gaussian(R) 09 system (copyright 2009, Gaussian, Inc.),
 the Gaussian(R) 03 system (copyright 2003, Gaussian, Inc.),
 the Gaussian(R) 98 system (copyright 1998, Gaussian, Inc.),
 the Gaussian(R) 94 system (copyright 1995, Gaussian, Inc.),
 the Gaussian 92(TM) system (copyright 1992, Gaussian, Inc.),
 the Gaussian 90(TM) system (copyright 1990, Gaussian, Inc.),
 the Gaussian 88(TM) system (copyright 1988, Gaussian, Inc.),
 the Gaussian 86(TM) system (copyright 1986, Carnegie Mellon
 University), and the Gaussian 82(TM) system (copyright 1983,
 Carnegie Mellon University). Gaussian is a federally registered
 trademark of Gaussian, Inc.
  
 This software contains proprietary and confidential information,
 including trade secrets, belonging to Gaussian, Inc.
  
 This software is provided under written license and may be
 used, copied, transmitted, or stored only in accord with that
 written license.
  
 The following legend is applicable only to US Government
 contracts under FAR:
  
                    RESTRICTED RIGHTS LEGEND
  
 Use, reproduction and disclosure by the US Government is
 subject to restrictions as set forth in subparagraphs (a)
 and (c) of the Commercial Computer Software - Restricted
 Rights clause in FAR 52.227-19.
  
 Gaussian, Inc.
 340 Quinnipiac St., Bldg. 40, Wallingford CT 06492
  
  
 ---------------------------------------------------------------
 Warning -- This program may not be used in any manner that
 competes with the business of Gaussian, Inc. or will provide
 assistance to any competitor of Gaussian, Inc.  The licensee
 of this program is prohibited from giving any competitor of
 Gaussian, Inc. access to this program.  By using this program,
 the user acknowledges that Gaussian, Inc. is engaged in the
 business of creating and licensing software in the field of
 computational chemistry and represents and warrants to the
 licensee that it is not a competitor of Gaussian, Inc. and that
 it will not use this program in any manner prohibited above.
 ---------------------------------------------------------------
  

 Cite this work as:
 Gaussian 16, Revision A.03,
 M. J. Frisch, G. W. Trucks, H. B. Schlegel, G. E. Scuseria, 
 M. A. Robb, J. R. Cheeseman, G. Scalmani, V. Barone, 
 G. A. Petersson, H. Nakatsuji, X. Li, M. Caricato, A. V. Marenich, 
 J. Bloino, B. G. Janesko, R. Gomperts, B. Mennucci, H. P. Hratchian, 
 J. V. Ortiz, A. F. Izmaylov, J. L. Sonnenberg, D. Williams-Young, 
 F. Ding, F. Lipparini, F. Egidi, J. Goings, B. Peng, A. Petrone, 
 T. Henderson, D. Ranasinghe, V. G. Zakrzewski, J. Gao, N. Rega, 
 G. Zheng, W. Liang, M. Hada, M. Ehara, K. Toyota, R. Fukuda, 
 J. Hasegawa, M. Ishida, T. Nakajima, Y. Honda, O. Kitao, H. Nakai, 
 T. Vreven, K. Throssell, J. A. Montgomery, Jr., J. E. Peralta, 
 F. Ogliaro, M. J. Bearpark, J. J. Heyd, E. N. Brothers, K. N. Kudin, 
 V. N. Staroverov, T. A. Keith, R. Kobayashi, J. Normand, 
 K. Raghavachari, A. P. Rendell, J. C. Burant, S. S. Iyengar, 
 J. Tomasi, M. Cossi, J. M. Millam, M. Klene, C. Adamo, R. Cammi, 
 J. W. Ochterski, R. L. Martin, K. Morokuma, O. Farkas, 
 J. B. Foresman, and D. J. Fox, Gaussian, Inc., Wallingford CT, 2016.
 
 ******************************************
 Gaussian 16:  ES64L-G16RevA.03 25-Dec-2016
                20-Feb-2023 
 ******************************************
 %nproc=24
 Will use up to   24 processors via shared memory.
 %mem=50GB
 ---------------------------------------------------
 #p M062X/6-311+G(2d,p) nosymm em=GD3 counterpoise=2
 ---------------------------------------------------
 1/38=1,62=2,172=1/1;
 2/12=2,15=1,17=6,18=5,40=1/2;
 1/38=1,53=2,62=2,63=1/22;
 3/5=4,6=6,7=112,11=2,25=1,30=1,74=-55,124=31/1,2,3;
 4//1;
 5/5=2,38=5/2;
 6/7=2,8=2,9=2,10=2,28=1/1;
 1/53=2,62=2,63=1/22;
 3/5=7,6=11,7=112,11=2,25=1,30=1,74=-55,82=7,124=31/1,2,3;
 4//1;
 5/5=2,38=5/2;
 6/7=2,8=2,9=2,10=2,28=1/1;
 1/53=2,62=2,63=1/22(-4);
 99/5=1,9=1/99;
 Leave Link    1 at Mon Feb 20 21:14:58 2023, MaxMem=  6710886400 cpu:               0.7 elap:               0.0
 (Enter /data0/home/software/g16/l101.exe)
 -------------------
 Title Card Required
 -------------------
 Symbolic Z-matrix:
 Charge =  0 Multiplicity = 1 in supermolecule
 Charge =  0 Multiplicity = 1 in fragment      1.
 Charge =  0 Multiplicity = 1 in fragment      2.
 C                     6.28524   11.3766   12.55828    
 C                     5.05399   11.42225   11.92319    
 C                     5.77245   13.54387   12.19182    
 N                     6.72527   12.69749   12.69371    
 H                     6.83925   10.54071   12.94805    
 H                     4.39507   10.62761   11.63804    
 H                     5.80722   14.6609   12.19122    
 C                     7.86269   13.13486   13.4858    
 H                     8.34529   12.27551   13.99166    
 H                     8.60413   13.65902   12.86018    
 H                     7.51264   13.81564   14.29961    
 N                     4.75584   12.77429   11.69152    
 C                     3.43369   13.28474   11.32065    
 H                     3.0749    12.72907   10.42699    
 H                     3.52908   14.36186   11.02314    
 C                     2.43891   13.13405   12.49604    
 H                     1.45584   12.822    12.08934    
 H                     2.76289   12.2984   13.15815    
 C                     2.26151   14.39986   13.32301    
 H                     1.52785   14.22874   14.13081    
 H                     1.85112   15.22343   12.71462    
 S                     3.81003   14.98952   14.08435    
 O                     3.42864   15.76466   15.25503    
 O                     4.59602   13.73882   14.34986    
 O                     4.48397   15.70839   12.96275    
 O                     6.20303   11.71159   15.21494    
 H                     5.93332   11.54763   16.10971    
 H                     5.60013   12.43849   14.91756    
 
 ITRead=  0  0  0  0  0  0  0  0  0  0  0  0  0  0  0  0  0  0  0  0
 ITRead=  0  0  0  0  0  0  0  0
 MicOpt= -1 -1 -1 -1 -1 -1 -1 -1 -1 -1 -1 -1 -1 -1 -1 -1 -1 -1 -1 -1
 MicOpt= -1 -1 -1 -1 -1 -1 -1 -1
 NAtoms=     28 NQM=       28 NQMF=       0 NMMI=      0 NMMIF=      0
                NMic=       0 NMicF=      0.
                    Isotopes and Nuclear Properties:
 (Nuclear quadrupole moments (NQMom) in fm**2, nuclear magnetic moments (NMagM)
  in nuclear magnetons)

  Atom         1           2           3           4           5           6           7           8           9          10
 IAtWgt=          12          12          12          14           1           1           1          12           1           1
 AtmWgt=  12.0000000  12.0000000  12.0000000  14.0030740   1.0078250   1.0078250   1.0078250  12.0000000   1.0078250   1.0078250
 NucSpn=           0           0           0           2           1           1           1           0           1           1
 AtZEff=  -0.0000000  -0.0000000  -0.0000000  -0.0000000  -0.0000000  -0.0000000  -0.0000000  -0.0000000  -0.0000000  -0.0000000
 NQMom=    0.0000000   0.0000000   0.0000000   2.0440000   0.0000000   0.0000000   0.0000000   0.0000000   0.0000000   0.0000000
 NMagM=    0.0000000   0.0000000   0.0000000   0.4037610   2.7928460   2.7928460   2.7928460   0.0000000   2.7928460   2.7928460
 AtZNuc=   6.0000000   6.0000000   6.0000000   7.0000000   1.0000000   1.0000000   1.0000000   6.0000000   1.0000000   1.0000000

  Atom        11          12          13          14          15          16          17          18          19          20
 IAtWgt=           1          14          12           1           1          12           1           1          12           1
 AtmWgt=   1.0078250  14.0030740  12.0000000   1.0078250   1.0078250  12.0000000   1.0078250   1.0078250  12.0000000   1.0078250
 NucSpn=           1           2           0           1           1           0           1           1           0           1
 AtZEff=  -0.0000000  -0.0000000  -0.0000000  -0.0000000  -0.0000000  -0.0000000  -0.0000000  -0.0000000  -0.0000000  -0.0000000
 NQMom=    0.0000000   2.0440000   0.0000000   0.0000000   0.0000000   0.0000000   0.0000000   0.0000000   0.0000000   0.0000000
 NMagM=    2.7928460   0.4037610   0.0000000   2.7928460   2.7928460   0.0000000   2.7928460   2.7928460   0.0000000   2.7928460
 AtZNuc=   1.0000000   7.0000000   6.0000000   1.0000000   1.0000000   6.0000000   1.0000000   1.0000000   6.0000000   1.0000000

  Atom        21          22          23          24          25          26          27          28
 IAtWgt=           1          32          16          16          16          16           1           1
 AtmWgt=   1.0078250  31.9720718  15.9949146  15.9949146  15.9949146  15.9949146   1.0078250   1.0078250
 NucSpn=           1           0           0           0           0           0           1           1
 AtZEff=  -0.0000000  -0.0000000  -0.0000000  -0.0000000  -0.0000000  -0.0000000  -0.0000000  -0.0000000
 NQMom=    0.0000000   0.0000000   0.0000000   0.0000000   0.0000000   0.0000000   0.0000000   0.0000000
 NMagM=    2.7928460   0.0000000   0.0000000   0.0000000   0.0000000   0.0000000   2.7928460   2.7928460
 AtZNuc=   1.0000000  16.0000000   8.0000000   8.0000000   8.0000000   8.0000000   1.0000000   1.0000000
 Leave Link  101 at Mon Feb 20 21:14:58 2023, MaxMem=  6710886400 cpu:               2.2 elap:               0.1
 (Enter /data0/home/software/g16/l202.exe)
                          Input orientation:                          
 ---------------------------------------------------------------------
 Center     Atomic      Atomic             Coordinates (Angstroms)
 Number     Number       Type             X           Y           Z
 ---------------------------------------------------------------------
      1          6           0        6.285244   11.376596   12.558280
      2          6           0        5.053994   11.422255   11.923193
      3          6           0        5.772447   13.543872   12.191818
      4          7           0        6.725266   12.697488   12.693713
      5          1           0        6.839252   10.540709   12.948045
      6          1           0        4.395072   10.627611   11.638037
      7          1           0        5.807223   14.660905   12.191217
      8          6           0        7.862688   13.134865   13.485803
      9          1           0        8.345287   12.275512   13.991659
     10          1           0        8.604127   13.659022   12.860178
     11          1           0        7.512635   13.815643   14.299609
     12          7           0        4.755843   12.774288   11.691516
     13          6           0        3.433691   13.284737   11.320645
     14          1           0        3.074900   12.729067   10.426989
     15          1           0        3.529081   14.361859   11.023140
     16          6           0        2.438906   13.134053   12.496039
     17          1           0        1.455835   12.821996   12.089343
     18          1           0        2.762894   12.298403   13.158148
     19          6           0        2.261513   14.399862   13.323008
     20          1           0        1.527846   14.228736   14.130812
     21          1           0        1.851116   15.223434   12.714615
     22         16           0        3.810033   14.989519   14.084348
     23          8           0        3.428643   15.764661   15.255034
     24          8           0        4.596023   13.738815   14.349859
     25          8           0        4.483972   15.708393   12.962751
     26          8           0        6.203027   11.711590   15.214941
     27          1           0        5.933317   11.547632   16.109714
     28          1           0        5.600127   12.438495   14.917562
 ---------------------------------------------------------------------
                    Distance matrix (angstroms):
                    1          2          3          4          5
     1  C    0.000000
     2  C    1.386145   0.000000
     3  C    2.257065   2.256013   0.000000
     4  N    1.398827   2.238989   1.369718   0.000000
     5  H    1.075894   2.239328   3.275506   2.174712   0.000000
     6  H    2.231720   1.070958   3.272371   3.290691   2.774471
     7  H    3.339150   3.335872   1.117574   2.224930   4.314381
     8  C    2.537743   3.641915   2.492146   1.453421   2.840114
     9  H    2.665784   3.979850   3.386395   2.118300   2.523254
    10  H    3.267695   4.299362   2.911765   2.117162   3.584185
    11  H    3.238467   4.173796   2.746798   2.109294   3.606295
    12  N    2.245861   1.403767   1.369688   2.211091   3.302777
    13  C    3.647478   2.541119   2.509158   3.614505   4.666473
    14  H    4.083857   2.804139   3.324949   4.297000   5.031399
    15  H    4.343372   3.431724   2.658496   3.971970   5.409591
    16  C    4.229284   3.177592   3.372388   4.313067   5.127649
    17  H    5.062833   3.864405   4.377756   5.305438   5.909553
    18  H    3.690057   2.746250   3.397410   4.009409   4.444134
    19  C    5.090713   4.315504   3.786683   4.818628   5.999113
    20  H    5.765448   5.018330   4.716500   5.605635   6.573547
    21  H    5.872316   5.033263   4.297800   5.489825   6.845722
    22  S    4.637754   4.352402   3.085876   3.960537   5.500842
    23  O    5.889632   5.709590   4.450687   5.180313   6.651626
    24  O    3.412228   3.385985   2.465587   2.891515   4.150306
    25  O    4.708784   4.447087   2.634323   3.763154   5.679130
    26  O    2.678960   3.498513   3.561170   2.757049   2.629555
    27  H    3.572924   4.279706   4.400087   3.690314   3.439588
    28  H    2.676420   3.208933   2.946393   2.505697   3.002669
                    6          7          8          9         10
     6  H    0.000000
     7  H    4.309018   0.000000
     8  C    4.661000   2.868743   0.000000
     9  H    4.884600   3.920900   1.107827   0.000000
    10  H    5.329092   3.045316   1.102669   1.805920   0.000000
    11  H    5.192948   2.840460   1.117263   1.777680   1.813242
    12  N    2.177438   2.216850   3.605824   4.292266   4.117987
    13  C    2.843468   2.878435   4.932179   5.681252   5.407741
    14  H    2.761450   3.782868   5.695957   6.378837   6.112084
    15  H    3.882351   2.577550   5.133261   6.029991   5.442865
    16  C    3.293175   3.710762   5.513351   6.152992   6.198237
    17  H    3.695689   4.725097   6.564736   7.168124   7.238292
    18  H    2.786806   3.972947   5.178313   5.644322   6.005004
    19  C    4.649847   3.731106   5.744552   6.478600   6.402485
    20  H    5.234789   4.718248   6.460868   7.093092   7.211993
    21  H    5.362119   4.030033   6.410604   7.245367   6.933378
    22  S    5.035171   2.771408   4.496889   5.286110   5.123685
    23  O    6.356566   4.032728   5.450391   6.159843   6.079037
    24  O    4.132064   2.641399   3.432557   4.040612   4.276729
    25  O    5.251392   1.855664   4.279293   5.268119   4.602838
    26  O    4.151862   4.242408   2.787491   2.530554   3.886217
    27  H    4.817523   5.006295   3.623077   3.291438   4.706451
    28  H    3.935320   3.523486   2.766595   2.901683   3.840121
                   11         12         13         14         15
    11  H    0.000000
    12  N    3.935285   0.000000
    13  C    5.078767   1.464988   0.000000
    14  H    5.989267   2.103959   1.111810   0.000000
    15  H    5.186743   2.114723   1.121517   1.796576   0.000000
    16  C    5.427721   2.478888   1.547208   2.202151   2.205770
    17  H    6.523606   3.324244   2.171852   2.322376   2.793979
    18  H    5.115173   2.519786   2.190717   2.782454   3.066456
    19  C    5.373020   3.394987   2.574289   3.440942   2.626322
    20  H    6.001403   4.299482   3.524261   4.284937   3.698687
    21  H    6.045401   3.934779   2.864654   3.598992   2.533568
    22  S    3.890191   3.395210   3.268940   4.361919   3.137497
    23  O    4.624986   4.837608   4.650749   5.714016   4.459469
    24  O    2.918056   2.832427   3.276178   4.326929   3.548747
    25  O    3.813462   3.209194   3.110259   4.158360   2.546971
    26  O    2.641959   3.954515   5.030860   5.809038   5.634280
    27  H    3.303725   4.734090   5.674579   6.469907   6.290744
    28  H    2.436409   3.351559   4.283384   5.160082   4.811973
                   16         17         18         19         20
    16  C    0.000000
    17  H    1.108697   0.000000
    18  H    1.114301   1.767738   0.000000
    19  C    1.522373   2.158867   2.166724   0.000000
    20  H    2.168143   2.480262   2.489499   1.104581   0.000000
    21  H    2.181464   2.512791   3.095782   1.103104   1.760551
    22  S    2.800976   3.771001   3.032565   1.823526   2.406102
    23  O    3.938494   4.751089   4.105496   2.637725   2.689976
    24  O    2.907841   3.976339   2.618267   2.634643   3.114757
    25  O    3.320744   4.273610   3.824699   2.604105   3.506057
    26  O    4.856381   5.791217   4.050835   5.132421   5.419288
    27  H    5.271270   6.151035   4.396246   5.420617   5.523816
    28  H    4.042387   5.032003   3.341415   4.187590   4.517456
                   21         22         23         24         25
    21  H    0.000000
    22  S    2.401716   0.000000
    23  O    3.038955   1.454926   0.000000
    24  O    3.523156   1.500845   2.507224   0.000000
    25  O    2.688622   1.492968   2.524172   2.411610   0.000000
    26  O    6.125668   4.213013   4.911843   2.727722   4.899178
    27  H    6.457754   4.522945   4.978675   3.112351   5.414417
    28  H    5.163714   3.225896   3.986554   1.738201   3.969801
                   26         27         28
    26  O    0.000000
    27  H    0.948812   0.000000
    28  H    0.990108   1.525083   0.000000
 Symmetry turned off by external request.
 Stoichiometry    C7H14N2O4S
 Framework group  C1[X(C7H14N2O4S)]
 Deg. of freedom    78
 Full point group                 C1      NOp   1
 Rotational constants (GHZ):           0.9037356           0.5382787           0.4375419
 Leave Link  202 at Mon Feb 20 21:14:58 2023, MaxMem=  6710886400 cpu:               0.1 elap:               0.0
 (Enter /data0/home/software/g16/l122.exe)
 Counterpoise: doing full-system calculation.
 Leave Link  122 at Mon Feb 20 21:14:58 2023, MaxMem=  6710886400 cpu:               0.1 elap:               0.0
 (Enter /data0/home/software/g16/l301.exe)
 Standard basis: 6-311+G(2d,p) (5D, 7F)
 Ernie: Thresh=  0.10000D-02 Tol=  0.10000D-05 Strict=F.
   470 basis functions,   714 primitive gaussians,   498 cartesian basis functions
    59 alpha electrons       59 beta electrons
       nuclear repulsion energy      1199.0106354726 Hartrees.
 IExCor= 4336 DFT=T Ex+Corr=M062X ExCW=0 ScaHFX=  0.540000
 ScaDFX=  1.000000  1.000000  1.000000  1.000000 ScalE2=  1.000000  1.000000
 IRadAn=      5 IRanWt=     -1 IRanGd=            0 ICorTp=0 IEmpDi=131
 NAtoms=   28 NActive=   28 NUniq=   28 SFac= 1.00D+00 NAtFMM=   60 NAOKFM=F Big=F
 Integral buffers will be    131072 words long.
 Raffenetti 2 integral format.
 Two-electron integral symmetry is turned off.
 R6Disp:  Grimme-D3 Dispersion energy=       -0.0016165315 Hartrees.
 Nuclear repulsion after empirical dispersion term =     1199.0090189411 Hartrees.
 Leave Link  301 at Mon Feb 20 21:14:58 2023, MaxMem=  6710886400 cpu:               1.1 elap:               0.1
 (Enter /data0/home/software/g16/l302.exe)
 NPDir=0 NMtPBC=     1 NCelOv=     1 NCel=       1 NClECP=     1 NCelD=      1
         NCelK=      1 NCelE2=     1 NClLst=     1 CellRange=     0.0.
 One-electron integrals computed using PRISM.
 NBasis=   470 RedAO= T EigKep=  1.11D-05  NBF=   470
 NBsUse=   470 1.00D-06 EigRej= -1.00D+00 NBFU=   470
 Precomputing XC quadrature grid using
 IXCGrd= 4 IRadAn=           5 IRanWt=          -1 IRanGd=           0 AccXCQ= 0.00D+00.
 Generated NRdTot=       0 NPtTot=           0 NUsed=           0 NTot=          32
 NSgBfM=   498   498   498   498   498 MxSgAt=    28 MxSgA2=    28.
 Leave Link  302 at Mon Feb 20 21:14:58 2023, MaxMem=  6710886400 cpu:              10.2 elap:               0.4
 (Enter /data0/home/software/g16/l303.exe)
 DipDrv:  MaxL=1.
 Leave Link  303 at Mon Feb 20 21:14:58 2023, MaxMem=  6710886400 cpu:               1.1 elap:               0.1
 (Enter /data0/home/software/g16/l401.exe)
 ExpMin= 4.05D-02 ExpMax= 9.34D+04 ExpMxC= 3.17D+03 IAcc=3 IRadAn=         5 AccDes= 0.00D+00
 Harris functional with IExCor= 1009 and IRadAn=       5 diagonalized for initial guess.
 HarFok:  IExCor= 1009 AccDes= 0.00D+00 IRadAn=         5 IDoV= 1 UseB2=F ITyADJ=14
 ICtDFT=  3500011 ScaDFX=  1.000000  1.000000  1.000000  1.000000
 FoFCou: FMM=F IPFlag=           0 FMFlag=      100000 FMFlg1=           0
         NFxFlg=           0 DoJE=T BraDBF=F KetDBF=T FulRan=T
         wScrn=  0.000000 ICntrl=       500 IOpCl=  0 I1Cent=   200000004 NGrid=           0
         NMat0=    1 NMatS0=      1 NMatT0=    0 NMatD0=    1 NMtDS0=    0 NMtDT0=    0
 Symmetry not used in FoFCou.
 Harris En= -1083.21030760337    
 JPrj=0 DoOrth=F DoCkMO=F.
 Leave Link  401 at Mon Feb 20 21:15:00 2023, MaxMem=  6710886400 cpu:              42.8 elap:               1.8
 (Enter /data0/home/software/g16/l502.exe)
 Two-electron integral symmetry not used.
 Closed shell SCF:
 Using DIIS extrapolation, IDIIS=  1040.
 NGot=  6710886400 LenX=  6710374910 LenY=  6710126408
 Requested convergence on RMS density matrix=1.00D-08 within 128 cycles.
 Requested convergence on MAX density matrix=1.00D-06.
 Requested convergence on             energy=1.00D-06.
 No special actions if energy rises.
 Fock matrices will be formed incrementally for  20 cycles.

 Cycle   1  Pass 1  IDiag  1:
 FoFJK:  IHMeth= 1 ICntrl=       0 DoSepK=F KAlg= 0 I1Cent=           0 FoldK=F
 IRaf= 910000000 NMat=       1 IRICut=       1 DoRegI=T DoRafI=F ISym2E= 0 IDoP0=0 IntGTp=1.
 FoFCou: FMM=F IPFlag=           0 FMFlag=      100000 FMFlg1=           0
         NFxFlg=           0 DoJE=F BraDBF=F KetDBF=F FulRan=T
         wScrn=  0.000000 ICntrl=         0 IOpCl=  0 I1Cent=           0 NGrid=           0
         NMat0=    1 NMatS0=      1 NMatT0=    0 NMatD0=    1 NMtDS0=    0 NMtDT0=    0
 Symmetry not used in FoFCou.
 E= -1083.16389109862    
 DIIS: error= 1.93D-02 at cycle   1 NSaved=   1.
 NSaved= 1 IEnMin= 1 EnMin= -1083.16389109862     IErMin= 1 ErrMin= 1.93D-02
 ErrMax= 1.93D-02  0.00D+00 EMaxC= 1.00D-01 BMatC= 8.14D-01 BMatP= 8.14D-01
 IDIUse=3 WtCom= 8.07D-01 WtEn= 1.93D-01
 Coeff-Com:  0.100D+01
 Coeff-En:   0.100D+01
 Coeff:      0.100D+01
 Gap=     0.286 Goal=   None    Shift=    0.000
 GapD=    0.286 DampG=1.000 DampE=0.500 DampFc=0.5000 IDamp=-1.
 Damping current iteration by 5.00D-01
 RMSDP=4.76D-03 MaxDP=2.50D-01              OVMax= 1.74D-01

 Cycle   2  Pass 1  IDiag  1:
 RMSU=  2.35D-03    CP:  9.69D-01
 E= -1083.38243490443     Delta-E=       -0.218543805817 Rises=F Damp=T
 DIIS: error= 4.88D-03 at cycle   2 NSaved=   2.
 NSaved= 2 IEnMin= 2 EnMin= -1083.38243490443     IErMin= 2 ErrMin= 4.88D-03
 ErrMax= 4.88D-03  0.00D+00 EMaxC= 1.00D-01 BMatC= 5.30D-02 BMatP= 8.14D-01
 IDIUse=3 WtCom= 9.51D-01 WtEn= 4.88D-02
 Coeff-Com:  0.291D-01 0.971D+00
 Coeff-En:   0.111D+00 0.889D+00
 Coeff:      0.331D-01 0.967D+00
 Gap=     0.301 Goal=   None    Shift=    0.000
 RMSDP=2.02D-03 MaxDP=2.64D-01 DE=-2.19D-01 OVMax= 1.01D-01

 Cycle   3  Pass 1  IDiag  1:
 RMSU=  1.75D-03    CP:  8.84D-01  9.38D-01
 E= -1083.64646002496     Delta-E=       -0.264025120525 Rises=F Damp=F
 DIIS: error= 3.76D-03 at cycle   3 NSaved=   3.
 NSaved= 3 IEnMin= 3 EnMin= -1083.64646002496     IErMin= 3 ErrMin= 3.76D-03
 ErrMax= 3.76D-03  0.00D+00 EMaxC= 1.00D-01 BMatC= 1.74D-02 BMatP= 5.30D-02
 IDIUse=3 WtCom= 9.62D-01 WtEn= 3.76D-02
 Coeff-Com: -0.597D-01 0.326D+00 0.734D+00
 Coeff-En:   0.000D+00 0.000D+00 0.100D+01
 Coeff:     -0.575D-01 0.314D+00 0.744D+00
 Gap=     0.302 Goal=   None    Shift=    0.000
 RMSDP=4.84D-04 MaxDP=2.73D-02 DE=-2.64D-01 OVMax= 2.97D-02

 Cycle   4  Pass 1  IDiag  1:
 RMSU=  4.24D-04    CP:  8.78D-01  1.03D+00  9.71D-01
 E= -1083.65679282035     Delta-E=       -0.010332795393 Rises=F Damp=F
 DIIS: error= 1.93D-03 at cycle   4 NSaved=   4.
 NSaved= 4 IEnMin= 4 EnMin= -1083.65679282035     IErMin= 4 ErrMin= 1.93D-03
 ErrMax= 1.93D-03  0.00D+00 EMaxC= 1.00D-01 BMatC= 3.31D-03 BMatP= 1.74D-02
 IDIUse=3 WtCom= 9.81D-01 WtEn= 1.93D-02
 Coeff-Com: -0.283D-01 0.818D-01 0.367D+00 0.580D+00
 Coeff-En:   0.000D+00 0.000D+00 0.137D+00 0.863D+00
 Coeff:     -0.278D-01 0.803D-01 0.362D+00 0.585D+00
 Gap=     0.298 Goal=   None    Shift=    0.000
 RMSDP=1.97D-04 MaxDP=8.82D-03 DE=-1.03D-02 OVMax= 1.25D-02

 Cycle   5  Pass 1  IDiag  1:
 RMSU=  1.38D-04    CP:  8.75D-01  1.02D+00  9.93D-01  7.01D-01
 E= -1083.65962152278     Delta-E=       -0.002828702423 Rises=F Damp=F
 DIIS: error= 3.55D-04 at cycle   5 NSaved=   5.
 NSaved= 5 IEnMin= 5 EnMin= -1083.65962152278     IErMin= 5 ErrMin= 3.55D-04
 ErrMax= 3.55D-04  0.00D+00 EMaxC= 1.00D-01 BMatC= 1.93D-04 BMatP= 3.31D-03
 IDIUse=3 WtCom= 9.96D-01 WtEn= 3.55D-03
 Coeff-Com: -0.918D-02 0.192D-01 0.124D+00 0.275D+00 0.590D+00
 Coeff-En:   0.000D+00 0.000D+00 0.000D+00 0.000D+00 0.100D+01
 Coeff:     -0.914D-02 0.192D-01 0.124D+00 0.274D+00 0.592D+00
 Gap=     0.297 Goal=   None    Shift=    0.000
 RMSDP=5.45D-05 MaxDP=2.34D-03 DE=-2.83D-03 OVMax= 2.68D-03

 Cycle   6  Pass 1  IDiag  1:
 RMSU=  3.40D-05    CP:  8.75D-01  1.02D+00  9.96D-01  7.48D-01  7.30D-01
 E= -1083.65976286864     Delta-E=       -0.000141345865 Rises=F Damp=F
 DIIS: error= 1.38D-04 at cycle   6 NSaved=   6.
 NSaved= 6 IEnMin= 6 EnMin= -1083.65976286864     IErMin= 6 ErrMin= 1.38D-04
 ErrMax= 1.38D-04  0.00D+00 EMaxC= 1.00D-01 BMatC= 2.17D-05 BMatP= 1.93D-04
 IDIUse=3 WtCom= 9.99D-01 WtEn= 1.38D-03
 Coeff-Com: -0.184D-02 0.183D-02 0.271D-01 0.854D-01 0.302D+00 0.586D+00
 Coeff-En:   0.000D+00 0.000D+00 0.000D+00 0.000D+00 0.000D+00 0.100D+01
 Coeff:     -0.184D-02 0.183D-02 0.271D-01 0.853D-01 0.301D+00 0.586D+00
 Gap=     0.297 Goal=   None    Shift=    0.000
 RMSDP=1.33D-05 MaxDP=5.96D-04 DE=-1.41D-04 OVMax= 8.26D-04

 Cycle   7  Pass 1  IDiag  1:
 RMSU=  1.24D-05    CP:  8.75D-01  1.02D+00  9.97D-01  7.55D-01  7.29D-01
                    CP:  8.99D-01
 E= -1083.65977987234     Delta-E=       -0.000017003703 Rises=F Damp=F
 DIIS: error= 2.98D-05 at cycle   7 NSaved=   7.
 NSaved= 7 IEnMin= 7 EnMin= -1083.65977987234     IErMin= 7 ErrMin= 2.98D-05
 ErrMax= 2.98D-05  0.00D+00 EMaxC= 1.00D-01 BMatC= 1.47D-06 BMatP= 2.17D-05
 IDIUse=1 WtCom= 1.00D+00 WtEn= 0.00D+00
 Coeff-Com:  0.342D-03-0.148D-02-0.389D-02 0.408D-02 0.564D-01 0.233D+00
 Coeff-Com:  0.712D+00
 Coeff:      0.342D-03-0.148D-02-0.389D-02 0.408D-02 0.564D-01 0.233D+00
 Coeff:      0.712D+00
 Gap=     0.297 Goal=   None    Shift=    0.000
 RMSDP=5.24D-06 MaxDP=3.00D-04 DE=-1.70D-05 OVMax= 3.07D-04

 Cycle   8  Pass 1  IDiag  1:
 RMSU=  3.92D-06    CP:  8.75D-01  1.02D+00  9.98D-01  7.58D-01  7.47D-01
                    CP:  9.42D-01  9.09D-01
 E= -1083.65978118986     Delta-E=       -0.000001317513 Rises=F Damp=F
 DIIS: error= 1.66D-05 at cycle   8 NSaved=   8.
 NSaved= 8 IEnMin= 8 EnMin= -1083.65978118986     IErMin= 8 ErrMin= 1.66D-05
 ErrMax= 1.66D-05  0.00D+00 EMaxC= 1.00D-01 BMatC= 1.82D-07 BMatP= 1.47D-06
 IDIUse=1 WtCom= 1.00D+00 WtEn= 0.00D+00
 Coeff-Com:  0.369D-03-0.795D-03-0.548D-02-0.998D-02-0.200D-01 0.708D-02
 Coeff-Com:  0.273D+00 0.756D+00
 Coeff:      0.369D-03-0.795D-03-0.548D-02-0.998D-02-0.200D-01 0.708D-02
 Coeff:      0.273D+00 0.756D+00
 Gap=     0.297 Goal=   None    Shift=    0.000
 RMSDP=2.17D-06 MaxDP=2.13D-04 DE=-1.32D-06 OVMax= 1.41D-04

 Cycle   9  Pass 1  IDiag  1:
 RMSU=  1.59D-06    CP:  8.75D-01  1.02D+00  9.98D-01  7.59D-01  7.53D-01
                    CP:  9.61D-01  9.64D-01  9.69D-01
 E= -1083.65978136877     Delta-E=       -0.000000178916 Rises=F Damp=F
 DIIS: error= 5.77D-06 at cycle   9 NSaved=   9.
 NSaved= 9 IEnMin= 9 EnMin= -1083.65978136877     IErMin= 9 ErrMin= 5.77D-06
 ErrMax= 5.77D-06  0.00D+00 EMaxC= 1.00D-01 BMatC= 2.15D-08 BMatP= 1.82D-07
 IDIUse=1 WtCom= 1.00D+00 WtEn= 0.00D+00
 Coeff-Com:  0.114D-03-0.190D-03-0.193D-02-0.425D-02-0.126D-01-0.153D-01
 Coeff-Com:  0.538D-01 0.315D+00 0.665D+00
 Coeff:      0.114D-03-0.190D-03-0.193D-02-0.425D-02-0.126D-01-0.153D-01
 Coeff:      0.538D-01 0.315D+00 0.665D+00
 Gap=     0.297 Goal=   None    Shift=    0.000
 RMSDP=6.22D-07 MaxDP=3.36D-05 DE=-1.79D-07 OVMax= 4.18D-05

 Cycle  10  Pass 1  IDiag  1:
 RMSU=  4.66D-07    CP:  8.75D-01  1.02D+00  9.98D-01  7.59D-01  7.53D-01
                    CP:  9.66D-01  9.72D-01  1.04D+00  9.17D-01
 E= -1083.65978139021     Delta-E=       -0.000000021434 Rises=F Damp=F
 DIIS: error= 1.43D-06 at cycle  10 NSaved=  10.
 NSaved=10 IEnMin=10 EnMin= -1083.65978139021     IErMin=10 ErrMin= 1.43D-06
 ErrMax= 1.43D-06  0.00D+00 EMaxC= 1.00D-01 BMatC= 2.11D-09 BMatP= 2.15D-08
 IDIUse=1 WtCom= 1.00D+00 WtEn= 0.00D+00
 Coeff-Com: -0.114D-04 0.390D-04 0.541D-04-0.172D-03-0.195D-02-0.654D-02
 Coeff-Com: -0.190D-01-0.333D-03 0.209D+00 0.819D+00
 Coeff:     -0.114D-04 0.390D-04 0.541D-04-0.172D-03-0.195D-02-0.654D-02
 Coeff:     -0.190D-01-0.333D-03 0.209D+00 0.819D+00
 Gap=     0.297 Goal=   None    Shift=    0.000
 RMSDP=2.73D-07 MaxDP=2.13D-05 DE=-2.14D-08 OVMax= 2.80D-05

 Cycle  11  Pass 1  IDiag  1:
 RMSU=  1.97D-07    CP:  8.75D-01  1.02D+00  9.98D-01  7.59D-01  7.53D-01
                    CP:  9.67D-01  9.73D-01  1.07D+00  9.92D-01  1.09D+00
 E= -1083.65978139299     Delta-E=       -0.000000002787 Rises=F Damp=F
 DIIS: error= 7.42D-07 at cycle  11 NSaved=  11.
 NSaved=11 IEnMin=11 EnMin= -1083.65978139299     IErMin=11 ErrMin= 7.42D-07
 ErrMax= 7.42D-07  0.00D+00 EMaxC= 1.00D-01 BMatC= 6.23D-10 BMatP= 2.11D-09
 IDIUse=1 WtCom= 1.00D+00 WtEn= 0.00D+00
 Coeff-Com: -0.207D-04 0.452D-04 0.295D-03 0.495D-03 0.715D-03-0.108D-02
 Coeff-Com: -0.165D-01-0.451D-01 0.526D-02 0.414D+00 0.642D+00
 Coeff:     -0.207D-04 0.452D-04 0.295D-03 0.495D-03 0.715D-03-0.108D-02
 Coeff:     -0.165D-01-0.451D-01 0.526D-02 0.414D+00 0.642D+00
 Gap=     0.297 Goal=   None    Shift=    0.000
 RMSDP=1.25D-07 MaxDP=6.20D-06 DE=-2.79D-09 OVMax= 8.97D-06

 Cycle  12  Pass 1  IDiag  1:
 RMSU=  7.26D-08    CP:  8.75D-01  1.02D+00  9.98D-01  7.59D-01  7.53D-01
                    CP:  9.66D-01  9.73D-01  1.07D+00  1.02D+00  1.21D+00
                    CP:  8.46D-01
 E= -1083.65978139361     Delta-E=       -0.000000000618 Rises=F Damp=F
 DIIS: error= 2.78D-07 at cycle  12 NSaved=  12.
 NSaved=12 IEnMin=12 EnMin= -1083.65978139361     IErMin=12 ErrMin= 2.78D-07
 ErrMax= 2.78D-07  0.00D+00 EMaxC= 1.00D-01 BMatC= 7.47D-11 BMatP= 6.23D-10
 IDIUse=1 WtCom= 1.00D+00 WtEn= 0.00D+00
 Coeff-Com: -0.697D-05 0.138D-04 0.126D-03 0.251D-03 0.623D-03 0.598D-03
 Coeff-Com: -0.452D-02-0.209D-01-0.280D-01 0.743D-01 0.299D+00 0.679D+00
 Coeff:     -0.697D-05 0.138D-04 0.126D-03 0.251D-03 0.623D-03 0.598D-03
 Coeff:     -0.452D-02-0.209D-01-0.280D-01 0.743D-01 0.299D+00 0.679D+00
 Gap=     0.297 Goal=   None    Shift=    0.000
 RMSDP=3.74D-08 MaxDP=3.66D-06 DE=-6.18D-10 OVMax= 2.77D-06

 Cycle  13  Pass 1  IDiag  1:
 RMSU=  2.57D-08    CP:  8.75D-01  1.02D+00  9.98D-01  7.59D-01  7.53D-01
                    CP:  9.67D-01  9.73D-01  1.07D+00  1.03D+00  1.22D+00
                    CP:  9.49D-01  9.69D-01
 E= -1083.65978139376     Delta-E=       -0.000000000146 Rises=F Damp=F
 DIIS: error= 5.36D-08 at cycle  13 NSaved=  13.
 NSaved=13 IEnMin=13 EnMin= -1083.65978139376     IErMin=13 ErrMin= 5.36D-08
 ErrMax= 5.36D-08  0.00D+00 EMaxC= 1.00D-01 BMatC= 5.99D-12 BMatP= 7.47D-11
 IDIUse=1 WtCom= 1.00D+00 WtEn= 0.00D+00
 Coeff-Com:  0.512D-06-0.135D-05 0.527D-05 0.164D-04 0.893D-04 0.276D-03
 Coeff-Com:  0.482D-03-0.954D-03-0.886D-02-0.299D-01 0.171D-01 0.244D+00
 Coeff-Com:  0.778D+00
 Coeff:      0.512D-06-0.135D-05 0.527D-05 0.164D-04 0.893D-04 0.276D-03
 Coeff:      0.482D-03-0.954D-03-0.886D-02-0.299D-01 0.171D-01 0.244D+00
 Coeff:      0.778D+00
 Gap=     0.297 Goal=   None    Shift=    0.000
 RMSDP=1.32D-08 MaxDP=1.65D-06 DE=-1.46D-10 OVMax= 1.36D-06

 Cycle  14  Pass 1  IDiag  1:
 RMSU=  8.41D-09    CP:  8.75D-01  1.02D+00  9.98D-01  7.59D-01  7.53D-01
                    CP:  9.67D-01  9.73D-01  1.07D+00  1.03D+00  1.23D+00
                    CP:  9.78D-01  1.06D+00  9.97D-01
 E= -1083.65978139374     Delta-E=        0.000000000023 Rises=F Damp=F
 DIIS: error= 2.28D-08 at cycle  14 NSaved=  14.
 NSaved=14 IEnMin=13 EnMin= -1083.65978139376     IErMin=14 ErrMin= 2.28D-08
 ErrMax= 2.28D-08  0.00D+00 EMaxC= 1.00D-01 BMatC= 4.63D-13 BMatP= 5.99D-12
 IDIUse=1 WtCom= 1.00D+00 WtEn= 0.00D+00
 Coeff-Com:  0.750D-06-0.160D-05-0.800D-05-0.139D-04-0.181D-04 0.495D-04
 Coeff-Com:  0.529D-03 0.142D-02-0.839D-03-0.178D-01-0.220D-01 0.236D-01
 Coeff-Com:  0.258D+00 0.757D+00
 Coeff:      0.750D-06-0.160D-05-0.800D-05-0.139D-04-0.181D-04 0.495D-04
 Coeff:      0.529D-03 0.142D-02-0.839D-03-0.178D-01-0.220D-01 0.236D-01
 Coeff:      0.258D+00 0.757D+00
 Gap=     0.297 Goal=   None    Shift=    0.000
 RMSDP=4.43D-09 MaxDP=2.90D-07 DE= 2.27D-11 OVMax= 2.71D-07

 SCF Done:  E(RM062X) =  -1083.65978139     A.U. after   14 cycles
            NFock= 14  Conv=0.44D-08     -V/T= 2.0033
 KE= 1.080046272787D+03 PE=-4.948510605703D+03 EE= 1.585795532581D+03
 Leave Link  502 at Mon Feb 20 21:16:25 2023, MaxMem=  6710886400 cpu:            2028.6 elap:              84.8
 (Enter /data0/home/software/g16/l601.exe)
 Copying SCF densities to generalized density rwf, IOpCl= 0 IROHF=0.

 **********************************************************************

            Population analysis using the SCF density.

 **********************************************************************

 Alpha  occ. eigenvalues --  -90.06726 -19.59899 -19.57744 -19.57391 -19.56999
 Alpha  occ. eigenvalues --  -14.85296 -14.85228 -10.65962 -10.61664 -10.61597
 Alpha  occ. eigenvalues --  -10.61351 -10.60087 -10.56555 -10.55530  -8.40133
 Alpha  occ. eigenvalues --   -6.32427  -6.32374  -6.32357  -1.21129  -1.18245
 Alpha  occ. eigenvalues --   -1.11207  -1.08026  -1.07090  -1.06436  -0.92305
 Alpha  occ. eigenvalues --   -0.89272  -0.85390  -0.80655  -0.74628  -0.71991
 Alpha  occ. eigenvalues --   -0.69828  -0.65294  -0.64035  -0.60825  -0.57972
 Alpha  occ. eigenvalues --   -0.57224  -0.55926  -0.55779  -0.54769  -0.53755
 Alpha  occ. eigenvalues --   -0.53283  -0.52323  -0.50966  -0.50063  -0.48459
 Alpha  occ. eigenvalues --   -0.48043  -0.46138  -0.45183  -0.44105  -0.42646
 Alpha  occ. eigenvalues --   -0.39648  -0.38728  -0.38343  -0.37250  -0.35085
 Alpha  occ. eigenvalues --   -0.34765  -0.32947  -0.32156  -0.30811
 Alpha virt. eigenvalues --   -0.01111   0.00134   0.00526   0.01678   0.01994
 Alpha virt. eigenvalues --    0.02393   0.03168   0.03700   0.04160   0.05134
 Alpha virt. eigenvalues --    0.05675   0.06341   0.06718   0.06837   0.07620
 Alpha virt. eigenvalues --    0.08109   0.09275   0.09531   0.10153   0.10381
 Alpha virt. eigenvalues --    0.11382   0.11548   0.12170   0.12254   0.13048
 Alpha virt. eigenvalues --    0.13480   0.14388   0.15132   0.15482   0.15762
 Alpha virt. eigenvalues --    0.15979   0.16363   0.17044   0.17490   0.17749
 Alpha virt. eigenvalues --    0.18279   0.18550   0.18739   0.19066   0.19533
 Alpha virt. eigenvalues --    0.20026   0.20875   0.20920   0.21516   0.21718
 Alpha virt. eigenvalues --    0.22187   0.22931   0.23883   0.24739   0.24826
 Alpha virt. eigenvalues --    0.25492   0.25562   0.25971   0.26342   0.27472
 Alpha virt. eigenvalues --    0.27988   0.28459   0.29090   0.30150   0.30635
 Alpha virt. eigenvalues --    0.31014   0.31349   0.31741   0.32271   0.32767
 Alpha virt. eigenvalues --    0.32975   0.33869   0.34786   0.35677   0.36219
 Alpha virt. eigenvalues --    0.36583   0.36653   0.36965   0.37559   0.38780
 Alpha virt. eigenvalues --    0.39597   0.39927   0.41171   0.41852   0.42303
 Alpha virt. eigenvalues --    0.42973   0.43572   0.44046   0.44964   0.45495
 Alpha virt. eigenvalues --    0.46229   0.47889   0.48158   0.49453   0.50192
 Alpha virt. eigenvalues --    0.51367   0.52821   0.53642   0.53891   0.54495
 Alpha virt. eigenvalues --    0.55686   0.56572   0.58066   0.58193   0.58578
 Alpha virt. eigenvalues --    0.59594   0.60704   0.61908   0.62636   0.62980
 Alpha virt. eigenvalues --    0.64517   0.65413   0.65746   0.66343   0.66977
 Alpha virt. eigenvalues --    0.67541   0.68180   0.68793   0.69559   0.70658
 Alpha virt. eigenvalues --    0.71824   0.72275   0.73181   0.73820   0.75296
 Alpha virt. eigenvalues --    0.75512   0.75904   0.76182   0.77735   0.78492
 Alpha virt. eigenvalues --    0.79669   0.81076   0.82208   0.82975   0.84742
 Alpha virt. eigenvalues --    0.86612   0.87600   0.88054   0.90189   0.91644
 Alpha virt. eigenvalues --    0.92480   0.93275   0.93446   0.93916   0.95459
 Alpha virt. eigenvalues --    0.97236   0.97332   0.99413   1.00259   1.02700
 Alpha virt. eigenvalues --    1.03045   1.04285   1.06785   1.07817   1.09191
 Alpha virt. eigenvalues --    1.11043   1.11419   1.13767   1.15424   1.16449
 Alpha virt. eigenvalues --    1.17594   1.18149   1.19308   1.20168   1.21411
 Alpha virt. eigenvalues --    1.22627   1.24051   1.24616   1.25179   1.26176
 Alpha virt. eigenvalues --    1.26425   1.27736   1.28163   1.28194   1.28539
 Alpha virt. eigenvalues --    1.29596   1.31347   1.33091   1.33429   1.33717
 Alpha virt. eigenvalues --    1.35576   1.35987   1.36161   1.37353   1.39257
 Alpha virt. eigenvalues --    1.40100   1.41163   1.41767   1.42016   1.42671
 Alpha virt. eigenvalues --    1.43174   1.44836   1.46542   1.47597   1.47972
 Alpha virt. eigenvalues --    1.49715   1.51564   1.51866   1.53023   1.54885
 Alpha virt. eigenvalues --    1.56008   1.57924   1.58800   1.59898   1.61093
 Alpha virt. eigenvalues --    1.62542   1.64752   1.65578   1.66387   1.69403
 Alpha virt. eigenvalues --    1.71452   1.73054   1.73445   1.76149   1.78369
 Alpha virt. eigenvalues --    1.79121   1.79679   1.80452   1.82427   1.83443
 Alpha virt. eigenvalues --    1.84689   1.86707   1.87301   1.87621   1.88598
 Alpha virt. eigenvalues --    1.89295   1.92832   1.93144   1.94771   1.95346
 Alpha virt. eigenvalues --    1.98363   1.99066   2.00513   2.01793   2.04699
 Alpha virt. eigenvalues --    2.06173   2.07013   2.08658   2.11605   2.12378
 Alpha virt. eigenvalues --    2.13462   2.16054   2.16310   2.17670   2.17822
 Alpha virt. eigenvalues --    2.19079   2.20556   2.23389   2.23895   2.25446
 Alpha virt. eigenvalues --    2.26760   2.27416   2.28274   2.31324   2.32001
 Alpha virt. eigenvalues --    2.33975   2.35263   2.35703   2.36811   2.37302
 Alpha virt. eigenvalues --    2.38694   2.40708   2.42772   2.42829   2.44177
 Alpha virt. eigenvalues --    2.46276   2.49868   2.50258   2.52331   2.54507
 Alpha virt. eigenvalues --    2.57639   2.59825   2.67047   2.70585   2.72706
 Alpha virt. eigenvalues --    2.74782   2.76618   2.79286   2.79328   2.81007
 Alpha virt. eigenvalues --    2.82130   2.85896   2.87623   2.88812   2.89673
 Alpha virt. eigenvalues --    2.92155   2.93881   2.94676   2.95030   2.99894
 Alpha virt. eigenvalues --    3.01255   3.02789   3.03782   3.05788   3.07673
 Alpha virt. eigenvalues --    3.09798   3.11926   3.14822   3.21637   3.22001
 Alpha virt. eigenvalues --    3.26265   3.27790   3.29406   3.30081   3.32872
 Alpha virt. eigenvalues --    3.35170   3.36833   3.37692   3.38939   3.42103
 Alpha virt. eigenvalues --    3.42745   3.44527   3.46913   3.48774   3.50150
 Alpha virt. eigenvalues --    3.51457   3.51902   3.53945   3.54968   3.56346
 Alpha virt. eigenvalues --    3.57548   3.58368   3.61285   3.61584   3.62670
 Alpha virt. eigenvalues --    3.64195   3.65159   3.67315   3.68632   3.69156
 Alpha virt. eigenvalues --    3.69437   3.73407   3.74278   3.81428   3.85096
 Alpha virt. eigenvalues --    3.88427   3.89848   3.90042   3.93272   3.98691
 Alpha virt. eigenvalues --    4.03581   4.04454   4.06813   4.12207   4.16344
 Alpha virt. eigenvalues --    4.18053   4.20216   4.22192   4.24974   4.39816
 Alpha virt. eigenvalues --    4.51589   4.54341   4.99322   5.02385   5.03961
 Alpha virt. eigenvalues --    5.07805   5.08162   5.14116   5.16956   5.19235
 Alpha virt. eigenvalues --    5.21590   5.22701   5.24472   5.26998   5.29329
 Alpha virt. eigenvalues --    5.32381   5.33556   5.40537   5.42384   5.45746
 Alpha virt. eigenvalues --    5.48281   5.53443   5.57387   5.60702   5.62302
 Alpha virt. eigenvalues --    5.68287   5.81906   6.02723   6.81494   6.82200
 Alpha virt. eigenvalues --    6.82855   6.85504   6.87255   6.89514   6.93491
 Alpha virt. eigenvalues --    6.95551   6.95961   6.98347   6.99423   7.00361
 Alpha virt. eigenvalues --    7.01490   7.05966   7.19352   7.21652   7.22849
 Alpha virt. eigenvalues --    7.33258   7.42471   7.47767   8.63191  17.77654
 Alpha virt. eigenvalues --   17.80079  17.91164  23.91964  23.97222  24.00858
 Alpha virt. eigenvalues --   24.03545  24.05742  24.11457  24.17758  35.63757
 Alpha virt. eigenvalues --   35.69989  50.08050  50.09281  50.14489  50.20433
 Alpha virt. eigenvalues --  189.94215
          Condensed to atoms (all electrons):
               1          2          3          4          5          6
     1  C    5.888250  -0.041158  -0.236250   0.295762   0.392311  -0.023786
     2  C   -0.041158   5.910529  -0.408598  -0.064200  -0.000695   0.394569
     3  C   -0.236250  -0.408598   7.102050   0.090338   0.005961   0.009735
     4  N    0.295762  -0.064200   0.090338   6.363964  -0.035673   0.009809
     5  H    0.392311  -0.000695   0.005961  -0.035673   0.470510  -0.001171
     6  H   -0.023786   0.394569   0.009735   0.009809  -0.001171   0.483218
     7  H    0.012592   0.000483   0.377656  -0.038758  -0.000023  -0.000026
     8  C   -0.113788   0.060873  -0.219235   0.198860  -0.004011  -0.000636
     9  H    0.007532   0.010039   0.023731  -0.067596   0.002572  -0.000030
    10  H    0.006625   0.001032  -0.021582  -0.061458   0.000433   0.000001
    11  H   -0.021122   0.000037  -0.003257  -0.017436  -0.000041   0.000017
    12  N   -0.081293   0.407098   0.130259   0.022580   0.007518  -0.041826
    13  C   -0.052802   0.007728  -0.353607   0.018186   0.001390   0.010016
    14  H    0.004006  -0.010972   0.013869  -0.003420  -0.000026   0.000203
    15  H   -0.001321  -0.006580  -0.009660   0.000465   0.000005   0.000013
    16  C    0.104494  -0.230688   0.193745  -0.054952  -0.000737   0.006094
    17  H    0.001193   0.004694  -0.004003   0.000112  -0.000001  -0.000175
    18  H   -0.006007   0.006747  -0.011408  -0.001007   0.000039  -0.000373
    19  C   -0.057336   0.120854   0.000397   0.041184   0.000246  -0.003777
    20  H   -0.000574   0.001678   0.000711   0.000140  -0.000000  -0.000004
    21  H    0.000401  -0.001488  -0.000002  -0.000453  -0.000000   0.000004
    22  S    0.011670  -0.012021  -0.127004  -0.012403  -0.000248   0.001201
    23  O   -0.005310   0.004804   0.006525   0.002519   0.000001  -0.000009
    24  O    0.042288   0.025913  -0.201290   0.058274  -0.000453  -0.000545
    25  O    0.007428   0.000970  -0.029599   0.013287   0.000034  -0.000026
    26  O   -0.002291   0.010494  -0.054764   0.026748  -0.009236  -0.000479
    27  H    0.013245  -0.001374  -0.003223  -0.010209   0.000097  -0.000003
    28  H   -0.015688  -0.011742   0.038440  -0.002743   0.000883   0.000246
               7          8          9         10         11         12
     1  C    0.012592  -0.113788   0.007532   0.006625  -0.021122  -0.081293
     2  C    0.000483   0.060873   0.010039   0.001032   0.000037   0.407098
     3  C    0.377656  -0.219235   0.023731  -0.021582  -0.003257   0.130259
     4  N   -0.038758   0.198860  -0.067596  -0.061458  -0.017436   0.022580
     5  H   -0.000023  -0.004011   0.002572   0.000433  -0.000041   0.007518
     6  H   -0.000026  -0.000636  -0.000030   0.000001   0.000017  -0.041826
     7  H    0.373305   0.002068  -0.000143   0.001093   0.000691  -0.018790
     8  C    0.002068   5.338100   0.409687   0.431347   0.411827  -0.007515
     9  H   -0.000143   0.409687   0.478854  -0.017952  -0.020926  -0.003618
    10  H    0.001093   0.431347  -0.017952   0.508957  -0.026275  -0.004077
    11  H    0.000691   0.411827  -0.020926  -0.026275   0.435972   0.007771
    12  N   -0.018790  -0.007515  -0.003618  -0.004077   0.007771   6.189282
    13  C   -0.004469  -0.002856   0.000106  -0.000852   0.001218   0.189533
    14  H    0.000057   0.000054  -0.000001  -0.000006   0.000004  -0.053591
    15  H    0.001485  -0.000326   0.000000  -0.000010   0.000015  -0.052455
    16  C    0.009603  -0.024145   0.000462   0.000350   0.000936  -0.102421
    17  H   -0.000004   0.000025  -0.000000  -0.000000  -0.000000  -0.000096
    18  H    0.000125  -0.000415  -0.000004   0.000001   0.000003   0.001901
    19  C   -0.003947   0.016375  -0.000078  -0.000133  -0.001934   0.042209
    20  H   -0.000059   0.000126  -0.000000  -0.000000   0.000000   0.000293
    21  H    0.000178  -0.000121   0.000000  -0.000000  -0.000000  -0.000258
    22  S   -0.000990  -0.025392  -0.001395   0.000779   0.002996   0.031315
    23  O   -0.001020   0.002108   0.000000   0.000020  -0.000426  -0.002273
    24  O   -0.010500   0.015284  -0.002674  -0.000247   0.005994   0.045659
    25  O    0.001772  -0.000921  -0.000028  -0.000087   0.000954  -0.014539
    26  O    0.000646  -0.006989  -0.017944   0.003071  -0.009008   0.001046
    27  H    0.000011   0.000888   0.000413  -0.000025   0.000098   0.001107
    28  H    0.000151  -0.009595   0.002232  -0.000377  -0.000365   0.003082
              13         14         15         16         17         18
     1  C   -0.052802   0.004006  -0.001321   0.104494   0.001193  -0.006007
     2  C    0.007728  -0.010972  -0.006580  -0.230688   0.004694   0.006747
     3  C   -0.353607   0.013869  -0.009660   0.193745  -0.004003  -0.011408
     4  N    0.018186  -0.003420   0.000465  -0.054952   0.000112  -0.001007
     5  H    0.001390  -0.000026   0.000005  -0.000737  -0.000001   0.000039
     6  H    0.010016   0.000203   0.000013   0.006094  -0.000175  -0.000373
     7  H   -0.004469   0.000057   0.001485   0.009603  -0.000004   0.000125
     8  C   -0.002856   0.000054  -0.000326  -0.024145   0.000025  -0.000415
     9  H    0.000106  -0.000001   0.000000   0.000462  -0.000000  -0.000004
    10  H   -0.000852  -0.000006  -0.000010   0.000350  -0.000000   0.000001
    11  H    0.001218   0.000004   0.000015   0.000936  -0.000000   0.000003
    12  N    0.189533  -0.053591  -0.052455  -0.102421  -0.000096   0.001901
    13  C    6.063917   0.436173   0.477366  -0.232543  -0.028769  -0.033541
    14  H    0.436173   0.513059  -0.019352  -0.062017  -0.008511   0.000450
    15  H    0.477366  -0.019352   0.432164  -0.034452   0.001431   0.002645
    16  C   -0.232543  -0.062017  -0.034452   6.486952   0.396382   0.480798
    17  H   -0.028769  -0.008511   0.001431   0.396382   0.538232  -0.031370
    18  H   -0.033541   0.000450   0.002645   0.480798  -0.031370   0.472128
    19  C   -0.036386   0.011433  -0.015120  -0.749722  -0.019160  -0.066954
    20  H    0.024961  -0.000123  -0.000064  -0.098419  -0.004346  -0.004975
    21  H   -0.021091  -0.000049   0.001766  -0.011113  -0.006021   0.005072
    22  S    0.032717  -0.003124  -0.000824   0.109014   0.002121   0.004720
    23  O    0.006727  -0.000045  -0.000895  -0.021671  -0.000468  -0.000247
    24  O   -0.015211   0.000669   0.000923  -0.016774  -0.000068  -0.008826
    25  O   -0.034487   0.002176   0.003662   0.013455  -0.000654   0.002065
    26  O   -0.000225   0.000057   0.000003   0.002763  -0.000028  -0.000936
    27  H    0.000411  -0.000001  -0.000001  -0.000628  -0.000000   0.000029
    28  H   -0.004022  -0.000041   0.000008   0.007856  -0.000012   0.000068
              19         20         21         22         23         24
     1  C   -0.057336  -0.000574   0.000401   0.011670  -0.005310   0.042288
     2  C    0.120854   0.001678  -0.001488  -0.012021   0.004804   0.025913
     3  C    0.000397   0.000711  -0.000002  -0.127004   0.006525  -0.201290
     4  N    0.041184   0.000140  -0.000453  -0.012403   0.002519   0.058274
     5  H    0.000246  -0.000000  -0.000000  -0.000248   0.000001  -0.000453
     6  H   -0.003777  -0.000004   0.000004   0.001201  -0.000009  -0.000545
     7  H   -0.003947  -0.000059   0.000178  -0.000990  -0.001020  -0.010500
     8  C    0.016375   0.000126  -0.000121  -0.025392   0.002108   0.015284
     9  H   -0.000078  -0.000000   0.000000  -0.001395   0.000000  -0.002674
    10  H   -0.000133  -0.000000  -0.000000   0.000779   0.000020  -0.000247
    11  H   -0.001934   0.000000  -0.000000   0.002996  -0.000426   0.005994
    12  N    0.042209   0.000293  -0.000258   0.031315  -0.002273   0.045659
    13  C   -0.036386   0.024961  -0.021091   0.032717   0.006727  -0.015211
    14  H    0.011433  -0.000123  -0.000049  -0.003124  -0.000045   0.000669
    15  H   -0.015120  -0.000064   0.001766  -0.000824  -0.000895   0.000923
    16  C   -0.749722  -0.098419  -0.011113   0.109014  -0.021671  -0.016774
    17  H   -0.019160  -0.004346  -0.006021   0.002121  -0.000468  -0.000068
    18  H   -0.066954  -0.004975   0.005072   0.004720  -0.000247  -0.008826
    19  C    6.614898   0.485609   0.415006  -0.126717  -0.109956  -0.076247
    20  H    0.485609   0.471388  -0.028016  -0.070555   0.017453   0.005655
    21  H    0.415006  -0.028016   0.471238  -0.035416  -0.000714  -0.002939
    22  S   -0.126717  -0.070555  -0.035416  14.136723   0.539066   0.190228
    23  O   -0.109956   0.017453  -0.000714   0.539066   8.085555  -0.023769
    24  O   -0.076247   0.005655  -0.002939   0.190228  -0.023769   8.766776
    25  O   -0.006043  -0.003726   0.011959   0.234703  -0.061155  -0.045655
    26  O   -0.001253   0.000055   0.000012   0.002118   0.000436  -0.007031
    27  H    0.000401   0.000006  -0.000000   0.001068   0.000255   0.001858
    28  H   -0.014969  -0.000022   0.000021   0.001640  -0.001892   0.050435
              25         26         27         28
     1  C    0.007428  -0.002291   0.013245  -0.015688
     2  C    0.000970   0.010494  -0.001374  -0.011742
     3  C   -0.029599  -0.054764  -0.003223   0.038440
     4  N    0.013287   0.026748  -0.010209  -0.002743
     5  H    0.000034  -0.009236   0.000097   0.000883
     6  H   -0.000026  -0.000479  -0.000003   0.000246
     7  H    0.001772   0.000646   0.000011   0.000151
     8  C   -0.000921  -0.006989   0.000888  -0.009595
     9  H   -0.000028  -0.017944   0.000413   0.002232
    10  H   -0.000087   0.003071  -0.000025  -0.000377
    11  H    0.000954  -0.009008   0.000098  -0.000365
    12  N   -0.014539   0.001046   0.001107   0.003082
    13  C   -0.034487  -0.000225   0.000411  -0.004022
    14  H    0.002176   0.000057  -0.000001  -0.000041
    15  H    0.003662   0.000003  -0.000001   0.000008
    16  C    0.013455   0.002763  -0.000628   0.007856
    17  H   -0.000654  -0.000028  -0.000000  -0.000012
    18  H    0.002065  -0.000936   0.000029   0.000068
    19  C   -0.006043  -0.001253   0.000401  -0.014969
    20  H   -0.003726   0.000055   0.000006  -0.000022
    21  H    0.011959   0.000012  -0.000000   0.000021
    22  S    0.234703   0.002118   0.001068   0.001640
    23  O   -0.061155   0.000436   0.000255  -0.001892
    24  O   -0.045655  -0.007031   0.001858   0.050435
    25  O    8.578858   0.002149  -0.000001  -0.004935
    26  O    0.002149   8.256866   0.266591   0.218259
    27  H   -0.000001   0.266591   0.444394  -0.013262
    28  H   -0.004935   0.218259  -0.013262   0.326547
 Mulliken charges:
               1
     1  C   -0.129071
     2  C   -0.179027
     3  C   -0.309932
     4  N    0.228078
     5  H    0.170316
     6  H    0.157743
     7  H    0.296812
     8  C   -0.471676
     9  H    0.196762
    10  H    0.179374
    11  H    0.232260
    12  N    0.302101
    13  C   -0.449589
    14  H    0.179068
    15  H    0.219107
    16  C   -0.172623
    17  H    0.159498
    18  H    0.189270
    19  C   -0.458881
    20  H    0.202808
    21  H    0.202026
    22  S    1.114011
    23  O   -0.435619
    24  O   -0.797727
    25  O   -0.671613
    26  O   -0.681130
    27  H    0.297855
    28  H    0.429798
 Sum of Mulliken charges =  -0.00000
 Mulliken charges with hydrogens summed into heavy atoms:
               1
     1  C    0.041246
     2  C   -0.021284
     3  C   -0.013120
     4  N    0.228078
     8  C    0.136720
    12  N    0.302101
    13  C   -0.051414
    16  C    0.176145
    19  C   -0.054047
    22  S    1.114011
    23  O   -0.435619
    24  O   -0.797727
    25  O   -0.671613
    26  O    0.046524
         Mulliken charges condensed to fragments:
      1     -0.046524
      2      0.046524
 Electronic spatial extent (au):  <R**2>=         163659.8852
 Charge=              0.0000 electrons
 Dipole moment (field-independent basis, Debye):
    X=              1.4131    Y=             -6.5190    Z=             -5.3200  Tot=              8.5321
 Quadrupole moment (field-independent basis, Debye-Ang):
   XX=            -62.2042   YY=           -276.5447   ZZ=           -233.1741
   XY=             -7.8521   XZ=              0.2360   YZ=           -163.7897
 Traceless Quadrupole moment (field-independent basis, Debye-Ang):
   XX=            128.4368   YY=            -85.9037   ZZ=            -42.5331
   XY=             -7.8521   XZ=              0.2360   YZ=           -163.7897
 Octapole moment (field-independent basis, Debye-Ang**2):
  XXX=           -958.2089  YYY=          -7695.5534  ZZZ=          -6455.6235  XYY=           -931.0677
  XXY=           -952.2514  XXZ=           -884.6374  XZZ=           -675.8316  YZZ=          -4465.2905
  YYZ=          -4801.4672  XYZ=           -373.3989
 Hexadecapole moment (field-independent basis, Debye-Ang**3):
 XXXX=         -10591.5522 YYYY=        -178546.9017 ZZZZ=        -146896.8939 XXXY=         -13128.6871
 XXXZ=         -12887.8904 YYYX=         -29905.9520 YYYZ=        -118961.3848 ZZZX=         -23613.1138
 ZZZY=        -106485.1681 XXYY=         -16938.5850 XXZZ=         -14988.0017 YYZZ=         -96526.8364
 XXYZ=         -13559.5354 YYXZ=         -16296.2924 ZZXY=         -14357.4464
 N-N= 1.199009018941D+03 E-N=-4.948510611493D+03  KE= 1.080046272787D+03
 No NMR shielding tensors so no spin-rotation constants.
 Leave Link  601 at Mon Feb 20 21:16:25 2023, MaxMem=  6710886400 cpu:               3.3 elap:               0.2
 (Enter /data0/home/software/g16/l122.exe)
 CPIOFr:  IOpCl= 0 IRwI=-1 IRwCP=  731 ICalc= -1 LCPTot=      340231 Len1MO=      893396 IndFrg=      340231
 CPIOFr:  IOpCl= 0 IRwI=-1 IRwCP=  731 ICalc=  0 LCPTot=      340231 Len1MO=      893396 IndFrg=     1233627
 Counterpoise: doing calculation for fragment   1 using the basis set of the full-system, NewBq=T
 Leave Link  122 at Mon Feb 20 21:16:25 2023, MaxMem=  6710886400 cpu:               0.3 elap:               0.0
 (Enter /data0/home/software/g16/l301.exe)
 Basis read from rwf:  (5D, 7F)
 No pseudopotential information found on rwf file.
   470 basis functions,   714 primitive gaussians,   498 cartesian basis functions
    54 alpha electrons       54 beta electrons
       nuclear repulsion energy      1037.3155688878 Hartrees.
 IExCor= 4336 DFT=T Ex+Corr=M062X ExCW=0 ScaHFX=  0.540000
 ScaDFX=  1.000000  1.000000  1.000000  1.000000 ScalE2=  1.000000  1.000000
 IRadAn=      5 IRanWt=     -1 IRanGd=            0 ICorTp=0 IEmpDi=131
 NAtoms=   28 NActive=   28 NUniq=   28 SFac= 1.00D+00 NAtFMM=   60 NAOKFM=F Big=F
 Integral buffers will be    131072 words long.
 Raffenetti 2 integral format.
 Two-electron integral symmetry is turned off.
 R6Disp:  Grimme-D3 Dispersion energy=       -0.0012091846 Hartrees.
 Nuclear repulsion after empirical dispersion term =     1037.3143597032 Hartrees.
 No density basis found on file   718.
 Leave Link  301 at Mon Feb 20 21:16:25 2023, MaxMem=  6710886400 cpu:               1.3 elap:               0.1
 (Enter /data0/home/software/g16/l302.exe)
 NPDir=0 NMtPBC=     1 NCelOv=     1 NCel=       1 NClECP=     1 NCelD=      1
         NCelK=      1 NCelE2=     1 NClLst=     1 CellRange=     0.0.
 One-electron integrals computed using PRISM.
 NBasis=   470 RedAO= T EigKep=  1.11D-05  NBF=   470
 NBsUse=   470 1.00D-06 EigRej= -1.00D+00 NBFU=   470
 Precomputing XC quadrature grid using
 IXCGrd= 4 IRadAn=           5 IRanWt=          -1 IRanGd=           0 AccXCQ= 0.00D+00.
 Generated NRdTot=       0 NPtTot=           0 NUsed=           0 NTot=          32
 NSgBfM=   498   498   498   498   498 MxSgAt=    28 MxSgA2=    28.
 Leave Link  302 at Mon Feb 20 21:16:26 2023, MaxMem=  6710886400 cpu:              10.2 elap:               0.4
 (Enter /data0/home/software/g16/l303.exe)
 DipDrv:  MaxL=1.
 Leave Link  303 at Mon Feb 20 21:16:26 2023, MaxMem=  6710886400 cpu:               1.1 elap:               0.1
 (Enter /data0/home/software/g16/l401.exe)
 ExpMin= 4.05D-02 ExpMax= 9.34D+04 ExpMxC= 3.17D+03 IAcc=3 IRadAn=         5 AccDes= 0.00D+00
 Harris functional with IExCor= 1009 and IRadAn=       5 diagonalized for initial guess.
 HarFok:  IExCor= 1009 AccDes= 0.00D+00 IRadAn=         5 IDoV= 1 UseB2=F ITyADJ=14
 ICtDFT=  3500011 ScaDFX=  1.000000  1.000000  1.000000  1.000000
 FoFCou: FMM=F IPFlag=           0 FMFlag=      100000 FMFlg1=           0
         NFxFlg=           0 DoJE=T BraDBF=F KetDBF=T FulRan=T
         wScrn=  0.000000 ICntrl=       500 IOpCl=  0 I1Cent=   200000004 NGrid=           0
         NMat0=    1 NMatS0=      1 NMatT0=    0 NMatD0=    1 NMtDS0=    0 NMtDT0=    0
 Symmetry not used in FoFCou.
 Harris En= -1006.79917496560    
 JPrj=0 DoOrth=F DoCkMO=F.
 Leave Link  401 at Mon Feb 20 21:16:28 2023, MaxMem=  6710886400 cpu:              44.4 elap:               1.9
 (Enter /data0/home/software/g16/l502.exe)
 Two-electron integral symmetry not used.
 Closed shell SCF:
 Using DIIS extrapolation, IDIIS=  1040.
 NGot=  6710886400 LenX=  6710374910 LenY=  6710126408
 Requested convergence on RMS density matrix=1.00D-08 within 128 cycles.
 Requested convergence on MAX density matrix=1.00D-06.
 Requested convergence on             energy=1.00D-06.
 No special actions if energy rises.
 Fock matrices will be formed incrementally for  20 cycles.

 Cycle   1  Pass 1  IDiag  1:
 FoFJK:  IHMeth= 1 ICntrl=       0 DoSepK=F KAlg= 0 I1Cent=           0 FoldK=F
 IRaf= 910000000 NMat=       1 IRICut=       1 DoRegI=T DoRafI=F ISym2E= 0 IDoP0=0 IntGTp=1.
 FoFCou: FMM=F IPFlag=           0 FMFlag=      100000 FMFlg1=           0
         NFxFlg=           0 DoJE=F BraDBF=F KetDBF=F FulRan=T
         wScrn=  0.000000 ICntrl=         0 IOpCl=  0 I1Cent=           0 NGrid=           0
         NMat0=    1 NMatS0=      1 NMatT0=    0 NMatD0=    1 NMtDS0=    0 NMtDT0=    0
 Symmetry not used in FoFCou.
 E= -1006.78528262201    
 DIIS: error= 2.01D-02 at cycle   1 NSaved=   1.
 NSaved= 1 IEnMin= 1 EnMin= -1006.78528262201     IErMin= 1 ErrMin= 2.01D-02
 ErrMax= 2.01D-02  0.00D+00 EMaxC= 1.00D-01 BMatC= 7.06D-01 BMatP= 7.06D-01
 IDIUse=3 WtCom= 7.99D-01 WtEn= 2.01D-01
 Coeff-Com:  0.100D+01
 Coeff-En:   0.100D+01
 Coeff:      0.100D+01
 Gap=     0.294 Goal=   None    Shift=    0.000
 GapD=    0.294 DampG=1.000 DampE=0.500 DampFc=0.5000 IDamp=-1.
 Damping current iteration by 5.00D-01
 RMSDP=5.10D-03 MaxDP=4.24D-01              OVMax= 1.76D-01

 Cycle   2  Pass 1  IDiag  1:
 RMSU=  2.55D-03    CP:  9.99D-01
 E= -1006.97681715356     Delta-E=       -0.191534531550 Rises=F Damp=T
 DIIS: error= 4.65D-03 at cycle   2 NSaved=   2.
 NSaved= 2 IEnMin= 2 EnMin= -1006.97681715356     IErMin= 2 ErrMin= 4.65D-03
 ErrMax= 4.65D-03  0.00D+00 EMaxC= 1.00D-01 BMatC= 4.89D-02 BMatP= 7.06D-01
 IDIUse=3 WtCom= 9.53D-01 WtEn= 4.65D-02
 Coeff-Com:  0.251D-01 0.975D+00
 Coeff-En:   0.101D+00 0.899D+00
 Coeff:      0.287D-01 0.971D+00
 Gap=     0.284 Goal=   None    Shift=    0.000
 RMSDP=2.00D-03 MaxDP=2.87D-01 DE=-1.92D-01 OVMax= 1.11D-01

 Cycle   3  Pass 1  IDiag  1:
 RMSU=  1.71D-03    CP:  9.14D-01  8.18D-01
 E= -1007.20433756314     Delta-E=       -0.227520409578 Rises=F Damp=F
 DIIS: error= 3.40D-03 at cycle   3 NSaved=   3.
 NSaved= 3 IEnMin= 3 EnMin= -1007.20433756314     IErMin= 3 ErrMin= 3.40D-03
 ErrMax= 3.40D-03  0.00D+00 EMaxC= 1.00D-01 BMatC= 1.79D-02 BMatP= 4.89D-02
 IDIUse=3 WtCom= 9.66D-01 WtEn= 3.40D-02
 Coeff-Com: -0.655D-01 0.347D+00 0.719D+00
 Coeff-En:   0.000D+00 0.000D+00 0.100D+01
 Coeff:     -0.633D-01 0.335D+00 0.728D+00
 Gap=     0.283 Goal=   None    Shift=    0.000
 RMSDP=4.76D-04 MaxDP=2.66D-02 DE=-2.28D-01 OVMax= 2.74D-02

 Cycle   4  Pass 1  IDiag  1:
 RMSU=  4.05D-04    CP:  9.12D-01  9.13D-01  9.69D-01
 E= -1007.21526289652     Delta-E=       -0.010925333380 Rises=F Damp=F
 DIIS: error= 1.93D-03 at cycle   4 NSaved=   4.
 NSaved= 4 IEnMin= 4 EnMin= -1007.21526289652     IErMin= 4 ErrMin= 1.93D-03
 ErrMax= 1.93D-03  0.00D+00 EMaxC= 1.00D-01 BMatC= 2.74D-03 BMatP= 1.79D-02
 IDIUse=3 WtCom= 9.81D-01 WtEn= 1.93D-02
 Coeff-Com: -0.294D-01 0.824D-01 0.345D+00 0.602D+00
 Coeff-En:   0.000D+00 0.000D+00 0.965D-01 0.903D+00
 Coeff:     -0.288D-01 0.809D-01 0.340D+00 0.608D+00
 Gap=     0.281 Goal=   None    Shift=    0.000
 RMSDP=1.80D-04 MaxDP=1.08D-02 DE=-1.09D-02 OVMax= 1.17D-02

 Cycle   5  Pass 1  IDiag  1:
 RMSU=  1.19D-04    CP:  9.09D-01  8.94D-01  9.93D-01  7.18D-01
 E= -1007.21766185587     Delta-E=       -0.002398959352 Rises=F Damp=F
 DIIS: error= 2.23D-04 at cycle   5 NSaved=   5.
 NSaved= 5 IEnMin= 5 EnMin= -1007.21766185587     IErMin= 5 ErrMin= 2.23D-04
 ErrMax= 2.23D-04  0.00D+00 EMaxC= 1.00D-01 BMatC= 1.12D-04 BMatP= 2.74D-03
 IDIUse=3 WtCom= 9.98D-01 WtEn= 2.23D-03
 Coeff-Com: -0.805D-02 0.159D-01 0.997D-01 0.249D+00 0.643D+00
 Coeff-En:   0.000D+00 0.000D+00 0.000D+00 0.000D+00 0.100D+01
 Coeff:     -0.803D-02 0.159D-01 0.995D-01 0.249D+00 0.644D+00
 Gap=     0.280 Goal=   None    Shift=    0.000
 RMSDP=4.88D-05 MaxDP=2.43D-03 DE=-2.40D-03 OVMax= 2.34D-03

 Cycle   6  Pass 1  IDiag  1:
 RMSU=  3.33D-05    CP:  9.09D-01  9.00D-01  9.94D-01  7.69D-01  7.84D-01
 E= -1007.21774459289     Delta-E=       -0.000082737019 Rises=F Damp=F
 DIIS: error= 1.13D-04 at cycle   6 NSaved=   6.
 NSaved= 6 IEnMin= 6 EnMin= -1007.21774459289     IErMin= 6 ErrMin= 1.13D-04
 ErrMax= 1.13D-04  0.00D+00 EMaxC= 1.00D-01 BMatC= 1.81D-05 BMatP= 1.12D-04
 IDIUse=3 WtCom= 9.99D-01 WtEn= 1.13D-03
 Coeff-Com: -0.159D-02 0.128D-02 0.215D-01 0.786D-01 0.340D+00 0.561D+00
 Coeff-En:   0.000D+00 0.000D+00 0.000D+00 0.000D+00 0.185D-01 0.982D+00
 Coeff:     -0.159D-02 0.127D-02 0.215D-01 0.786D-01 0.339D+00 0.561D+00
 Gap=     0.280 Goal=   None    Shift=    0.000
 RMSDP=1.50D-05 MaxDP=1.26D-03 DE=-8.27D-05 OVMax= 8.83D-04

 Cycle   7  Pass 1  IDiag  1:
 RMSU=  1.26D-05    CP:  9.09D-01  8.98D-01  9.96D-01  7.76D-01  7.93D-01
                    CP:  8.77D-01
 E= -1007.21775875723     Delta-E=       -0.000014164335 Rises=F Damp=F
 DIIS: error= 2.72D-05 at cycle   7 NSaved=   7.
 NSaved= 7 IEnMin= 7 EnMin= -1007.21775875723     IErMin= 7 ErrMin= 2.72D-05
 ErrMax= 2.72D-05  0.00D+00 EMaxC= 1.00D-01 BMatC= 1.41D-06 BMatP= 1.81D-05
 IDIUse=1 WtCom= 1.00D+00 WtEn= 0.00D+00
 Coeff-Com:  0.464D-03-0.173D-02-0.538D-02-0.524D-03 0.576D-01 0.238D+00
 Coeff-Com:  0.711D+00
 Coeff:      0.464D-03-0.173D-02-0.538D-02-0.524D-03 0.576D-01 0.238D+00
 Coeff:      0.711D+00
 Gap=     0.281 Goal=   None    Shift=    0.000
 RMSDP=5.17D-06 MaxDP=2.93D-04 DE=-1.42D-05 OVMax= 3.20D-04

 Cycle   8  Pass 1  IDiag  1:
 RMSU=  3.77D-06    CP:  9.09D-01  8.98D-01  9.97D-01  7.78D-01  8.15D-01
                    CP:  9.17D-01  9.09D-01
 E= -1007.21776005973     Delta-E=       -0.000001302505 Rises=F Damp=F
 DIIS: error= 8.75D-06 at cycle   8 NSaved=   8.
 NSaved= 8 IEnMin= 8 EnMin= -1007.21776005973     IErMin= 8 ErrMin= 8.75D-06
 ErrMax= 8.75D-06  0.00D+00 EMaxC= 1.00D-01 BMatC= 1.15D-07 BMatP= 1.41D-06
 IDIUse=1 WtCom= 1.00D+00 WtEn= 0.00D+00
 Coeff-Com:  0.346D-03-0.720D-03-0.486D-02-0.102D-01-0.239D-01 0.871D-02
 Coeff-Com:  0.236D+00 0.795D+00
 Coeff:      0.346D-03-0.720D-03-0.486D-02-0.102D-01-0.239D-01 0.871D-02
 Coeff:      0.236D+00 0.795D+00
 Gap=     0.281 Goal=   None    Shift=    0.000
 RMSDP=1.88D-06 MaxDP=1.25D-04 DE=-1.30D-06 OVMax= 1.52D-04

 Cycle   9  Pass 1  IDiag  1:
 RMSU=  1.32D-06    CP:  9.09D-01  8.98D-01  9.97D-01  7.79D-01  8.22D-01
                    CP:  9.35D-01  9.43D-01  1.04D+00
 E= -1007.21776020159     Delta-E=       -0.000000141855 Rises=F Damp=F
 DIIS: error= 3.07D-06 at cycle   9 NSaved=   9.
 NSaved= 9 IEnMin= 9 EnMin= -1007.21776020159     IErMin= 9 ErrMin= 3.07D-06
 ErrMax= 3.07D-06  0.00D+00 EMaxC= 1.00D-01 BMatC= 1.09D-08 BMatP= 1.15D-07
 IDIUse=1 WtCom= 1.00D+00 WtEn= 0.00D+00
 Coeff-Com:  0.883D-04-0.136D-03-0.143D-02-0.365D-02-0.124D-01-0.116D-01
 Coeff-Com:  0.378D-01 0.279D+00 0.713D+00
 Coeff:      0.883D-04-0.136D-03-0.143D-02-0.365D-02-0.124D-01-0.116D-01
 Coeff:      0.378D-01 0.279D+00 0.713D+00
 Gap=     0.281 Goal=   None    Shift=    0.000
 RMSDP=5.84D-07 MaxDP=6.07D-05 DE=-1.42D-07 OVMax= 5.06D-05

 Cycle  10  Pass 1  IDiag  1:
 RMSU=  3.96D-07    CP:  9.08D-01  8.98D-01  9.97D-01  7.80D-01  8.21D-01
                    CP:  9.38D-01  9.61D-01  1.09D+00  9.56D-01
 E= -1007.21776021443     Delta-E=       -0.000000012839 Rises=F Damp=F
 DIIS: error= 1.38D-06 at cycle  10 NSaved=  10.
 NSaved=10 IEnMin=10 EnMin= -1007.21776021443     IErMin=10 ErrMin= 1.38D-06
 ErrMax= 1.38D-06  0.00D+00 EMaxC= 1.00D-01 BMatC= 2.35D-09 BMatP= 1.09D-08
 IDIUse=1 WtCom= 1.00D+00 WtEn= 0.00D+00
 Coeff-Com: -0.143D-04 0.452D-04 0.107D-03-0.842D-04-0.209D-02-0.659D-02
 Coeff-Com: -0.194D-01-0.279D-02 0.313D+00 0.718D+00
 Coeff:     -0.143D-04 0.452D-04 0.107D-03-0.842D-04-0.209D-02-0.659D-02
 Coeff:     -0.194D-01-0.279D-02 0.313D+00 0.718D+00
 Gap=     0.281 Goal=   None    Shift=    0.000
 RMSDP=2.51D-07 MaxDP=1.49D-05 DE=-1.28D-08 OVMax= 2.41D-05

 Cycle  11  Pass 1  IDiag  1:
 RMSU=  1.48D-07    CP:  9.08D-01  8.98D-01  9.97D-01  7.80D-01  8.22D-01
                    CP:  9.37D-01  9.58D-01  1.12D+00  1.05D+00  1.08D+00
 E= -1007.21776021698     Delta-E=       -0.000000002551 Rises=F Damp=F
 DIIS: error= 5.38D-07 at cycle  11 NSaved=  11.
 NSaved=11 IEnMin=11 EnMin= -1007.21776021698     IErMin=11 ErrMin= 5.38D-07
 ErrMax= 5.38D-07  0.00D+00 EMaxC= 1.00D-01 BMatC= 3.85D-10 BMatP= 2.35D-09
 IDIUse=1 WtCom= 1.00D+00 WtEn= 0.00D+00
 Coeff-Com: -0.191D-04 0.403D-04 0.271D-03 0.528D-03 0.101D-02-0.896D-03
 Coeff-Com: -0.142D-01-0.479D-01 0.246D-01 0.334D+00 0.703D+00
 Coeff:     -0.191D-04 0.403D-04 0.271D-03 0.528D-03 0.101D-02-0.896D-03
 Coeff:     -0.142D-01-0.479D-01 0.246D-01 0.334D+00 0.703D+00
 Gap=     0.281 Goal=   None    Shift=    0.000
 RMSDP=9.49D-08 MaxDP=7.30D-06 DE=-2.55D-09 OVMax= 9.36D-06

 Cycle  12  Pass 1  IDiag  1:
 RMSU=  5.75D-08    CP:  9.08D-01  8.98D-01  9.97D-01  7.80D-01  8.22D-01
                    CP:  9.37D-01  9.58D-01  1.13D+00  1.09D+00  1.17D+00
                    CP:  9.22D-01
 E= -1007.21776021745     Delta-E=       -0.000000000475 Rises=F Damp=F
 DIIS: error= 2.46D-07 at cycle  12 NSaved=  12.
 NSaved=12 IEnMin=12 EnMin= -1007.21776021745     IErMin=12 ErrMin= 2.46D-07
 ErrMax= 2.46D-07  0.00D+00 EMaxC= 1.00D-01 BMatC= 4.50D-11 BMatP= 3.85D-10
 IDIUse=1 WtCom= 1.00D+00 WtEn= 0.00D+00
 Coeff-Com: -0.591D-05 0.119D-04 0.103D-03 0.224D-03 0.627D-03 0.317D-03
 Coeff-Com: -0.382D-02-0.194D-01-0.199D-01 0.701D-01 0.313D+00 0.659D+00
 Coeff:     -0.591D-05 0.119D-04 0.103D-03 0.224D-03 0.627D-03 0.317D-03
 Coeff:     -0.382D-02-0.194D-01-0.199D-01 0.701D-01 0.313D+00 0.659D+00
 Gap=     0.281 Goal=   None    Shift=    0.000
 RMSDP=2.66D-08 MaxDP=1.63D-06 DE=-4.75D-10 OVMax= 2.90D-06

 Cycle  13  Pass 1  IDiag  1:
 RMSU=  1.90D-08    CP:  9.08D-01  8.98D-01  9.97D-01  7.80D-01  8.22D-01
                    CP:  9.36D-01  9.58D-01  1.13D+00  1.09D+00  1.19D+00
                    CP:  1.01D+00  9.97D-01
 E= -1007.21776021751     Delta-E=       -0.000000000062 Rises=F Damp=F
 DIIS: error= 6.91D-08 at cycle  13 NSaved=  13.
 NSaved=13 IEnMin=13 EnMin= -1007.21776021751     IErMin=13 ErrMin= 6.91D-08
 ErrMax= 6.91D-08  0.00D+00 EMaxC= 1.00D-01 BMatC= 7.18D-12 BMatP= 4.50D-11
 IDIUse=1 WtCom= 1.00D+00 WtEn= 0.00D+00
 Coeff-Com:  0.622D-06-0.165D-05 0.293D-05 0.127D-04 0.109D-03 0.236D-03
 Coeff-Com:  0.476D-03-0.793D-03-0.138D-01-0.284D-01 0.259D-01 0.310D+00
 Coeff-Com:  0.706D+00
 Coeff:      0.622D-06-0.165D-05 0.293D-05 0.127D-04 0.109D-03 0.236D-03
 Coeff:      0.476D-03-0.793D-03-0.138D-01-0.284D-01 0.259D-01 0.310D+00
 Coeff:      0.706D+00
 Gap=     0.281 Goal=   None    Shift=    0.000
 RMSDP=1.40D-08 MaxDP=2.05D-06 DE=-6.23D-11 OVMax= 1.29D-06

 Cycle  14  Pass 1  IDiag  1:
 RMSU=  8.43D-09    CP:  9.08D-01  8.98D-01  9.97D-01  7.80D-01  8.22D-01
                    CP:  9.36D-01  9.58D-01  1.13D+00  1.09D+00  1.20D+00
                    CP:  1.04D+00  1.09D+00  9.73D-01
 E= -1007.21776021751     Delta-E=        0.000000000008 Rises=F Damp=F
 DIIS: error= 1.46D-08 at cycle  14 NSaved=  14.
 NSaved=14 IEnMin=13 EnMin= -1007.21776021751     IErMin=14 ErrMin= 1.46D-08
 ErrMax= 1.46D-08  0.00D+00 EMaxC= 1.00D-01 BMatC= 2.79D-13 BMatP= 7.18D-12
 IDIUse=1 WtCom= 1.00D+00 WtEn= 0.00D+00
 Coeff-Com:  0.711D-06-0.155D-05-0.769D-05-0.150D-04-0.188D-04 0.433D-04
 Coeff-Com:  0.498D-03 0.156D-02-0.223D-02-0.156D-01-0.204D-01 0.282D-01
 Coeff-Com:  0.191D+00 0.817D+00
 Coeff:      0.711D-06-0.155D-05-0.769D-05-0.150D-04-0.188D-04 0.433D-04
 Coeff:      0.498D-03 0.156D-02-0.223D-02-0.156D-01-0.204D-01 0.282D-01
 Coeff:      0.191D+00 0.817D+00
 Gap=     0.281 Goal=   None    Shift=    0.000
 RMSDP=3.88D-09 MaxDP=2.02D-07 DE= 8.19D-12 OVMax= 2.57D-07

 SCF Done:  E(RM062X) =  -1007.21776022     A.U. after   14 cycles
            NFock= 14  Conv=0.39D-08     -V/T= 2.0034
 KE= 1.003765781908D+03 PE=-4.444379898986D+03 EE= 1.396081997157D+03
 Leave Link  502 at Mon Feb 20 21:17:52 2023, MaxMem=  6710886400 cpu:            2016.3 elap:              84.3
 (Enter /data0/home/software/g16/l601.exe)
 Copying SCF densities to generalized density rwf, IOpCl= 0 IROHF=0.

 **********************************************************************

            Population analysis using the SCF density.

 **********************************************************************

 Alpha  occ. eigenvalues --  -90.05169 -19.56121 -19.55916 -19.55658 -14.85959
 Alpha  occ. eigenvalues --  -14.85710 -10.66469 -10.62524 -10.62274 -10.61501
 Alpha  occ. eigenvalues --  -10.61485 -10.56111 -10.54611  -8.38592  -6.30865
 Alpha  occ. eigenvalues --   -6.30843  -6.30824  -1.19731  -1.18637  -1.07760
 Alpha  occ. eigenvalues --   -1.06601  -1.04634  -0.92476  -0.89560  -0.85797
 Alpha  occ. eigenvalues --   -0.80810  -0.74765  -0.72305  -0.70103  -0.65265
 Alpha  occ. eigenvalues --   -0.62578  -0.59728  -0.57799  -0.56495  -0.56124
 Alpha  occ. eigenvalues --   -0.55015  -0.53840  -0.52931  -0.51631  -0.50287
 Alpha  occ. eigenvalues --   -0.49371  -0.49143  -0.47766  -0.45771  -0.43701
 Alpha  occ. eigenvalues --   -0.42055  -0.38305  -0.37974  -0.37152  -0.34053
 Alpha  occ. eigenvalues --   -0.33104  -0.32469  -0.31692  -0.29460
 Alpha virt. eigenvalues --   -0.01407  -0.00308  -0.00131   0.00874   0.01434
 Alpha virt. eigenvalues --    0.02201   0.02748   0.03485   0.03840   0.04723
 Alpha virt. eigenvalues --    0.05320   0.06177   0.06544   0.06794   0.07682
 Alpha virt. eigenvalues --    0.07989   0.09059   0.09543   0.10323   0.10511
 Alpha virt. eigenvalues --    0.11287   0.11639   0.11873   0.12423   0.12885
 Alpha virt. eigenvalues --    0.13644   0.14204   0.14928   0.15277   0.15938
 Alpha virt. eigenvalues --    0.15985   0.16525   0.16782   0.17422   0.17762
 Alpha virt. eigenvalues --    0.18119   0.18411   0.18565   0.19113   0.19341
 Alpha virt. eigenvalues --    0.19825   0.21126   0.21258   0.21482   0.22000
 Alpha virt. eigenvalues --    0.22348   0.23301   0.23902   0.24381   0.24838
 Alpha virt. eigenvalues --    0.25070   0.25301   0.25687   0.26255   0.26956
 Alpha virt. eigenvalues --    0.27743   0.28594   0.29340   0.29959   0.30100
 Alpha virt. eigenvalues --    0.31193   0.31273   0.31969   0.32748   0.33098
 Alpha virt. eigenvalues --    0.33880   0.34741   0.34892   0.35839   0.37151
 Alpha virt. eigenvalues --    0.37311   0.37897   0.37993   0.38448   0.39350
 Alpha virt. eigenvalues --    0.40083   0.40447   0.41781   0.42067   0.42424
 Alpha virt. eigenvalues --    0.43206   0.43794   0.44604   0.45223   0.45547
 Alpha virt. eigenvalues --    0.46703   0.48455   0.49269   0.49415   0.50281
 Alpha virt. eigenvalues --    0.51220   0.52538   0.52879   0.53568   0.54249
 Alpha virt. eigenvalues --    0.56566   0.56957   0.57760   0.58599   0.58779
 Alpha virt. eigenvalues --    0.60545   0.61714   0.62137   0.62829   0.63565
 Alpha virt. eigenvalues --    0.64871   0.65147   0.65924   0.66956   0.67151
 Alpha virt. eigenvalues --    0.67496   0.69071   0.69568   0.71358   0.71438
 Alpha virt. eigenvalues --    0.71980   0.72464   0.73755   0.74541   0.75641
 Alpha virt. eigenvalues --    0.76355   0.77423   0.77784   0.78823   0.78980
 Alpha virt. eigenvalues --    0.80986   0.81493   0.82891   0.84211   0.86067
 Alpha virt. eigenvalues --    0.86695   0.87313   0.88041   0.88809   0.89502
 Alpha virt. eigenvalues --    0.91210   0.92378   0.94111   0.94864   0.95036
 Alpha virt. eigenvalues --    0.95760   0.97636   0.98468   0.99419   1.00604
 Alpha virt. eigenvalues --    1.02451   1.02891   1.03861   1.04244   1.07527
 Alpha virt. eigenvalues --    1.09161   1.09727   1.11150   1.11220   1.12675
 Alpha virt. eigenvalues --    1.14720   1.15686   1.17955   1.19507   1.20922
 Alpha virt. eigenvalues --    1.21100   1.21652   1.23486   1.24009   1.25643
 Alpha virt. eigenvalues --    1.26313   1.26944   1.27387   1.27943   1.29168
 Alpha virt. eigenvalues --    1.29852   1.30556   1.32291   1.33469   1.34932
 Alpha virt. eigenvalues --    1.35480   1.36423   1.37813   1.38993   1.39809
 Alpha virt. eigenvalues --    1.40484   1.41784   1.42619   1.43237   1.44144
 Alpha virt. eigenvalues --    1.47384   1.47919   1.48777   1.49319   1.50244
 Alpha virt. eigenvalues --    1.51819   1.53097   1.54686   1.57228   1.58882
 Alpha virt. eigenvalues --    1.60454   1.61520   1.61700   1.64534   1.64795
 Alpha virt. eigenvalues --    1.66299   1.69289   1.72507   1.73635   1.74397
 Alpha virt. eigenvalues --    1.77103   1.77668   1.78167   1.79834   1.80599
 Alpha virt. eigenvalues --    1.81733   1.84662   1.84921   1.87131   1.88269
 Alpha virt. eigenvalues --    1.88791   1.89369   1.90718   1.92995   1.94772
 Alpha virt. eigenvalues --    1.95684   1.96355   1.97349   1.99577   2.00831
 Alpha virt. eigenvalues --    2.01734   2.03708   2.04725   2.06231   2.08695
 Alpha virt. eigenvalues --    2.10142   2.11188   2.13299   2.15437   2.16316
 Alpha virt. eigenvalues --    2.18543   2.19184   2.19827   2.21399   2.23194
 Alpha virt. eigenvalues --    2.25811   2.26327   2.27445   2.30103   2.30526
 Alpha virt. eigenvalues --    2.32593   2.33159   2.34190   2.35609   2.35784
 Alpha virt. eigenvalues --    2.36197   2.37496   2.38784   2.40094   2.43032
 Alpha virt. eigenvalues --    2.43556   2.44021   2.48003   2.49158   2.51085
 Alpha virt. eigenvalues --    2.52781   2.56762   2.57160   2.59410   2.61099
 Alpha virt. eigenvalues --    2.65527   2.69725   2.72534   2.73533   2.76661
 Alpha virt. eigenvalues --    2.78572   2.79639   2.80112   2.80750   2.82404
 Alpha virt. eigenvalues --    2.84369   2.85948   2.86950   2.89336   2.92302
 Alpha virt. eigenvalues --    2.93613   2.93863   2.94391   2.95768   2.98135
 Alpha virt. eigenvalues --    3.00482   3.01421   3.03455   3.04083   3.05671
 Alpha virt. eigenvalues --    3.07758   3.08502   3.11714   3.14681   3.20941
 Alpha virt. eigenvalues --    3.22164   3.27491   3.28883   3.30539   3.32607
 Alpha virt. eigenvalues --    3.36013   3.36703   3.38018   3.38526   3.42051
 Alpha virt. eigenvalues --    3.43029   3.44396   3.46226   3.47895   3.49279
 Alpha virt. eigenvalues --    3.50290   3.51614   3.51880   3.54028   3.54368
 Alpha virt. eigenvalues --    3.56132   3.57623   3.58209   3.60036   3.61221
 Alpha virt. eigenvalues --    3.62630   3.64003   3.65272   3.67034   3.68482
 Alpha virt. eigenvalues --    3.68937   3.69594   3.73159   3.73803   3.79020
 Alpha virt. eigenvalues --    3.82511   3.84950   3.88424   3.90426   3.90823
 Alpha virt. eigenvalues --    3.93030   3.98179   4.03309   4.04003   4.06893
 Alpha virt. eigenvalues --    4.12009   4.16431   4.17124   4.18914   4.22823
 Alpha virt. eigenvalues --    4.25216   4.40101   4.52057   4.53586   4.73012
 Alpha virt. eigenvalues --    4.98914   5.01963   5.03806   5.07113   5.07746
 Alpha virt. eigenvalues --    5.13807   5.17029   5.17650   5.20647   5.22726
 Alpha virt. eigenvalues --    5.25677   5.28292   5.31377   5.32253   5.34975
 Alpha virt. eigenvalues --    5.41412   5.43210   5.46366   5.48512   5.55062
 Alpha virt. eigenvalues --    5.56999   5.60806   5.65042   5.81346   6.82993
 Alpha virt. eigenvalues --    6.83861   6.87005   6.88656   6.91550   6.96819
 Alpha virt. eigenvalues --    6.99457   7.01626   7.02574   7.07612   7.22146
 Alpha virt. eigenvalues --    7.23427   7.34211   7.43670   7.49814   8.64692
 Alpha virt. eigenvalues --    9.77120   9.88984   9.90932   9.97415  10.16592
 Alpha virt. eigenvalues --   12.89689  13.34802  13.75059  17.71038  17.79881
 Alpha virt. eigenvalues --   17.83012  17.94981  23.91398  23.97486  24.01252
 Alpha virt. eigenvalues --   24.03621  24.04667  24.11066  24.16881  35.63139
 Alpha virt. eigenvalues --   35.69484  50.09856  50.15145  50.22016 134.47091
 Alpha virt. eigenvalues --  189.95771
          Condensed to atoms (all electrons):
               1          2          3          4          5          6
     1  C    5.753532   0.080455  -0.291060   0.374491   0.393894  -0.024608
     2  C    0.080455   5.879567  -0.470274  -0.134399  -0.007144   0.394428
     3  C   -0.291060  -0.470274   7.337278   0.071232   0.009666   0.006985
     4  N    0.374491  -0.134399   0.071232   6.231555  -0.039947   0.011161
     5  H    0.393894  -0.007144   0.009666  -0.039947   0.479255  -0.001088
     6  H   -0.024608   0.394428   0.006985   0.011161  -0.001088   0.479644
     7  H    0.015745   0.000010   0.366557  -0.033718  -0.000059  -0.000023
     8  C   -0.117849   0.052527  -0.191009   0.170761  -0.003224  -0.000522
     9  H    0.008860   0.012089   0.018830  -0.066712   0.002233  -0.000034
    10  H    0.005958   0.001055  -0.014558  -0.064119   0.000425   0.000003
    11  H   -0.027750   0.004351  -0.006523  -0.021037   0.000131   0.000009
    12  N   -0.084395   0.429246   0.100793   0.052950   0.007057  -0.039777
    13  C   -0.053444   0.014201  -0.346533   0.021045   0.001207   0.010137
    14  H    0.004600  -0.011701   0.016042  -0.002454  -0.000018   0.000077
    15  H   -0.001610  -0.004590  -0.014371   0.001923   0.000006   0.000015
    16  C    0.090644  -0.235809   0.180738  -0.013091  -0.000469   0.006196
    17  H    0.000894   0.005581  -0.004770  -0.000019  -0.000002  -0.000183
    18  H   -0.006806   0.011414  -0.014572  -0.001605   0.000031  -0.000464
[...]
     2  C   -0.203918
     3  C   -0.344888
     4  N    0.328011
     5  H    0.154672
     6  H    0.159253
     7  H    0.297608
     8  C   -0.449661
     9  H    0.161076
    10  H    0.182266
    11  H    0.230999
    12  N    0.284955
    13  C   -0.440055
    14  H    0.177800
    15  H    0.220400
    16  C   -0.166029
    17  H    0.157128
    18  H    0.184184
    19  C   -0.495544
    20  H    0.200746
    21  H    0.197849
    22  S    1.140855
    23  O   -0.458095
    24  O   -0.693524
    25  O   -0.721614
    26  O    0.000000
    27  H    0.000000
    28  H    0.000000
 Sum of Mulliken charges =  -0.00000
 Mulliken charges with hydrogens summed into heavy atoms:
               1
     1  C    0.050199
     2  C   -0.044665
     3  C   -0.047280
     4  N    0.328011
     8  C    0.124680
    12  N    0.284955
    13  C   -0.041855
    16  C    0.175282
    19  C   -0.096949
    22  S    1.140855
    23  O   -0.458095
    24  O   -0.693524
    25  O   -0.721614
    26  O    0.000000
         Mulliken charges condensed to fragments:
      1     -0.000000
      2      0.000000
 Electronic spatial extent (au):  <R**2>=         149056.3391
 Charge=             -0.0000 electrons
 Dipole moment (field-independent basis, Debye):
    X=              3.1853    Y=             -7.7285    Z=             -6.3175  Tot=             10.4779
 Quadrupole moment (field-independent basis, Debye-Ang):
   XX=            -34.7259   YY=           -300.1732   ZZ=           -257.8857
   XY=              7.9490   XZ=             20.8999   YZ=           -192.9096
 Traceless Quadrupole moment (field-independent basis, Debye-Ang):
   XX=            162.8690   YY=           -102.5783   ZZ=            -60.2907
   XY=              7.9490   XZ=             20.8999   YZ=           -192.9096
 Octapole moment (field-independent basis, Debye-Ang**2):
  XXX=           -646.2788  YYY=          -8036.4189  ZZZ=          -6893.7970  XYY=           -768.4698
  XXY=           -649.4921  XXZ=           -504.1966  XZZ=           -421.0328  YZZ=          -5005.1175
  YYZ=          -5272.6568  XYZ=           -203.7972
 Hexadecapole moment (field-independent basis, Debye-Ang**3):
 XXXX=          -7523.0294 YYYY=        -182878.0323 ZZZZ=        -153277.2622 XXXY=          -9526.6537
 XXXZ=          -8366.5588 YYYX=         -27872.9725 YYYZ=        -125252.6892 ZZZX=         -20112.5382
 ZZZY=        -115195.9414 XXYY=         -13370.3830 XXZZ=          -9542.3350 YYZZ=        -104619.2196
 XXYZ=          -9388.4972 YYXZ=         -14610.6457 ZZXY=         -12421.1576
 N-N= 1.037314359703D+03 E-N=-4.444384780803D+03  KE= 1.003772221103D+03
 No NMR shielding tensors so no spin-rotation constants.
 Leave Link  601 at Mon Feb 20 21:19:53 2023, MaxMem=  6710886400 cpu:               3.1 elap:               0.2
 (Enter /data0/home/software/g16/l122.exe)
 CPIOFr:  IOpCl= 0 IRwI=-1 IRwCP=  731 ICalc=  3 LCPTot=      340231 Len1MO=      893396 IndFrg=     3913815
 Counterpoise: doing calculation for fragment   2 using the basis set of the fragment.
 Leave Link  122 at Mon Feb 20 21:19:53 2023, MaxMem=  6710886400 cpu:               0.2 elap:               0.0
 (Enter /data0/home/software/g16/l301.exe)
 Basis read from rwf:  (5D, 7F)
 No pseudopotential information found on rwf file.
    39 basis functions,    58 primitive gaussians,    41 cartesian basis functions
     5 alpha electrons        5 beta electrons
       nuclear repulsion energy         9.0845044013 Hartrees.
 IExCor= 4336 DFT=T Ex+Corr=M062X ExCW=0 ScaHFX=  0.540000
 ScaDFX=  1.000000  1.000000  1.000000  1.000000 ScalE2=  1.000000  1.000000
 IRadAn=      5 IRanWt=     -1 IRanGd=            0 ICorTp=0 IEmpDi=131
 NAtoms=   28 NActive=    3 NUniq=    3 SFac= 1.00D+00 NAtFMM=   60 NAOKFM=F Big=F
 Integral buffers will be    131072 words long.
 Raffenetti 2 integral format.
 Two-electron integral symmetry is turned off.
 R6Disp:  Grimme-D3 Dispersion energy=       -0.0000000077 Hartrees.
 Nuclear repulsion after empirical dispersion term =        9.0845043936 Hartrees.
 No density basis found on file   718.
 Leave Link  301 at Mon Feb 20 21:19:53 2023, MaxMem=  6710886400 cpu:               1.3 elap:               0.1
 (Enter /data0/home/software/g16/l302.exe)
 NPDir=0 NMtPBC=     1 NCelOv=     1 NCel=       1 NClECP=     1 NCelD=      1
         NCelK=      1 NCelE2=     1 NClLst=     1 CellRange=     0.0.
 One-electron integrals computed using PRISM.
 NBasis=    39 RedAO= T EigKep=  3.04D-03  NBF=    39
 NBsUse=    39 1.00D-06 EigRej= -1.00D+00 NBFU=    39
 Precomputing XC quadrature grid using
 IXCGrd= 4 IRadAn=           5 IRanWt=          -1 IRanGd=           0 AccXCQ= 0.00D+00.
 Generated NRdTot=       0 NPtTot=           0 NUsed=           0 NTot=          32
 NSgBfM=    41    41    41    41    41 MxSgAt=     3 MxSgA2=     3.
 Leave Link  302 at Mon Feb 20 21:19:53 2023, MaxMem=  6710886400 cpu:               2.3 elap:               0.1
 (Enter /data0/home/software/g16/l303.exe)
 DipDrv:  MaxL=1.
 Leave Link  303 at Mon Feb 20 21:19:53 2023, MaxMem=  6710886400 cpu:               0.4 elap:               0.0
 (Enter /data0/home/software/g16/l401.exe)
 ExpMin= 8.45D-02 ExpMax= 8.59D+03 ExpMxC= 1.30D+03 IAcc=3 IRadAn=         5 AccDes= 0.00D+00
 Harris functional with IExCor= 1009 and IRadAn=       5 diagonalized for initial guess.
 HarFok:  IExCor= 1009 AccDes= 0.00D+00 IRadAn=         5 IDoV= 1 UseB2=F ITyADJ=14
 ICtDFT=  3500011 ScaDFX=  1.000000  1.000000  1.000000  1.000000
 FoFCou: FMM=F IPFlag=           0 FMFlag=      100000 FMFlg1=           0
         NFxFlg=           0 DoJE=T BraDBF=F KetDBF=T FulRan=T
         wScrn=  0.000000 ICntrl=       500 IOpCl=  0 I1Cent=   200000004 NGrid=           0
         NMat0=    1 NMatS0=      1 NMatT0=    0 NMatD0=    1 NMtDS0=    0 NMtDT0=    0
 Symmetry not used in FoFCou.
 Harris En= -76.4157753218168    
 JPrj=0 DoOrth=F DoCkMO=F.
 Leave Link  401 at Mon Feb 20 21:19:53 2023, MaxMem=  6710886400 cpu:               2.8 elap:               0.1
 (Enter /data0/home/software/g16/l502.exe)
 Keep R1 ints in memory in canonical form, NReq=21041397.
 FoFCou: FMM=F IPFlag=           0 FMFlag=           0 FMFlg1=           0
         NFxFlg=           0 DoJE=F BraDBF=F KetDBF=F FulRan=T
         wScrn=  0.000000 ICntrl=       600 IOpCl=  0 I1Cent=           0 NGrid=           0
         NMat0=    1 NMatS0=    780 NMatT0=    0 NMatD0=    1 NMtDS0=    0 NMtDT0=    0
 Symmetry not used in FoFCou.
 Two-electron integral symmetry not used.
 Closed shell SCF:
 Using DIIS extrapolation, IDIIS=  1040.
 NGot=  6710886400 LenX=  6710576219 LenY=  6710574097
 Requested convergence on RMS density matrix=1.00D-08 within 128 cycles.
 Requested convergence on MAX density matrix=1.00D-06.
 Requested convergence on             energy=1.00D-06.
 No special actions if energy rises.
 Integral accuracy reduced to 1.0D-05 until final iterations.

 Cycle   1  Pass 0  IDiag  1:
 E= -76.3456550335877    
 DIIS: error= 6.99D-02 at cycle   1 NSaved=   1.
 NSaved= 1 IEnMin= 1 EnMin= -76.3456550335877     IErMin= 1 ErrMin= 6.99D-02
 ErrMax= 6.99D-02  0.00D+00 EMaxC= 1.00D-01 BMatC= 1.20D-01 BMatP= 1.20D-01
 IDIUse=3 WtCom= 3.01D-01 WtEn= 6.99D-01
 Coeff-Com:  0.100D+01
 Coeff-En:   0.100D+01
 Coeff:      0.100D+01
 Gap=     0.324 Goal=   None    Shift=    0.000
 GapD=    0.324 DampG=1.000 DampE=0.500 DampFc=0.5000 IDamp=-1.
 Damping current iteration by 5.00D-01
 RMSDP=7.94D-03 MaxDP=1.01D-01              OVMax= 1.68D-01

 Cycle   2  Pass 0  IDiag  1:
 E= -76.3769832113810     Delta-E=       -0.031328177793 Rises=F Damp=T
 DIIS: error= 1.11D-02 at cycle   2 NSaved=   2.
 NSaved= 2 IEnMin= 2 EnMin= -76.3769832113810     IErMin= 2 ErrMin= 1.11D-02
 ErrMax= 1.11D-02  0.00D+00 EMaxC= 1.00D-01 BMatC= 4.87D-03 BMatP= 1.20D-01
 IDIUse=3 WtCom= 8.89D-01 WtEn= 1.11D-01
 Coeff-Com:  0.837D-01 0.916D+00
 Coeff-En:   0.189D+00 0.811D+00
 Coeff:      0.954D-01 0.905D+00
 Gap=     0.456 Goal=   None    Shift=    0.000
 RMSDP=9.52D-04 MaxDP=1.41D-02 DE=-3.13D-02 OVMax= 1.01D-01

 Cycle   3  Pass 0  IDiag  1:
 E= -76.4209698542970     Delta-E=       -0.043986642916 Rises=F Damp=F
 DIIS: error= 2.19D-03 at cycle   3 NSaved=   3.
 NSaved= 3 IEnMin= 3 EnMin= -76.4209698542970     IErMin= 3 ErrMin= 2.19D-03
 ErrMax= 2.19D-03  0.00D+00 EMaxC= 1.00D-01 BMatC= 9.36D-05 BMatP= 4.87D-03
 IDIUse=3 WtCom= 9.78D-01 WtEn= 2.19D-02
 Coeff-Com: -0.202D-01 0.403D-01 0.980D+00
 Coeff-En:   0.000D+00 0.000D+00 0.100D+01
 Coeff:     -0.197D-01 0.394D-01 0.980D+00
 Gap=     0.461 Goal=   None    Shift=    0.000
 RMSDP=1.16D-04 MaxDP=9.53D-04 DE=-4.40D-02 OVMax= 3.36D-03

 Cycle   4  Pass 0  IDiag  1:
 E= -76.4210495516439     Delta-E=       -0.000079697347 Rises=F Damp=F
 DIIS: error= 4.18D-04 at cycle   4 NSaved=   4.
 NSaved= 4 IEnMin= 4 EnMin= -76.4210495516439     IErMin= 4 ErrMin= 4.18D-04
 ErrMax= 4.18D-04  0.00D+00 EMaxC= 1.00D-01 BMatC= 3.36D-06 BMatP= 9.36D-05
 IDIUse=3 WtCom= 9.96D-01 WtEn= 4.18D-03
 Coeff-Com: -0.197D-02-0.217D-02 0.163D+00 0.841D+00
 Coeff-En:   0.000D+00 0.000D+00 0.000D+00 0.100D+01
 Coeff:     -0.196D-02-0.216D-02 0.163D+00 0.842D+00
 Gap=     0.461 Goal=   None    Shift=    0.000
 RMSDP=2.24D-05 MaxDP=3.56D-04 DE=-7.97D-05 OVMax= 5.42D-04

 Cycle   5  Pass 0  IDiag  1:
 E= -76.4210516339296     Delta-E=       -0.000002082286 Rises=F Damp=F
 DIIS: error= 9.02D-05 at cycle   5 NSaved=   5.
 NSaved= 5 IEnMin= 5 EnMin= -76.4210516339296     IErMin= 5 ErrMin= 9.02D-05
 ErrMax= 9.02D-05  0.00D+00 EMaxC= 1.00D-01 BMatC= 8.55D-08 BMatP= 3.36D-06
 IDIUse=1 WtCom= 1.00D+00 WtEn= 0.00D+00
 Coeff-Com:  0.120D-02-0.184D-02-0.370D-01-0.659D-01 0.110D+01
 Coeff:      0.120D-02-0.184D-02-0.370D-01-0.659D-01 0.110D+01
 Gap=     0.462 Goal=   None    Shift=    0.000
 RMSDP=9.10D-06 MaxDP=1.03D-04 DE=-2.08D-06 OVMax= 2.06D-04

 Initial convergence to 1.0D-05 achieved.  Increase integral accuracy.
 Cycle   6  Pass 1  IDiag  1:
 E= -76.4210461006737     Delta-E=        0.000005533256 Rises=F Damp=F
 DIIS: error= 4.28D-05 at cycle   1 NSaved=   1.
 NSaved= 1 IEnMin= 1 EnMin= -76.4210461006737     IErMin= 1 ErrMin= 4.28D-05
 ErrMax= 4.28D-05  0.00D+00 EMaxC= 1.00D-01 BMatC= 2.36D-08 BMatP= 2.36D-08
 IDIUse=1 WtCom= 1.00D+00 WtEn= 0.00D+00
 Coeff-Com:  0.100D+01
 Coeff:      0.100D+01
 Gap=     0.462 Goal=   None    Shift=    0.000
 RMSDP=9.10D-06 MaxDP=1.03D-04 DE= 5.53D-06 OVMax= 5.01D-05

 Cycle   7  Pass 1  IDiag  1:
 E= -76.4210461196314     Delta-E=       -0.000000018958 Rises=F Damp=F
 DIIS: error= 1.14D-05 at cycle   2 NSaved=   2.
 NSaved= 2 IEnMin= 2 EnMin= -76.4210461196314     IErMin= 2 ErrMin= 1.14D-05
 ErrMax= 1.14D-05  0.00D+00 EMaxC= 1.00D-01 BMatC= 1.76D-09 BMatP= 2.36D-08
 IDIUse=1 WtCom= 1.00D+00 WtEn= 0.00D+00
 Coeff-Com:  0.400D-01 0.960D+00
 Coeff:      0.400D-01 0.960D+00
 Gap=     0.462 Goal=   None    Shift=    0.000
 RMSDP=9.29D-07 MaxDP=1.44D-05 DE=-1.90D-08 OVMax= 2.56D-05

 Cycle   8  Pass 1  IDiag  1:
 E= -76.4210461199274     Delta-E=       -0.000000000296 Rises=F Damp=F
 DIIS: error= 8.51D-06 at cycle   3 NSaved=   3.
 NSaved= 3 IEnMin= 3 EnMin= -76.4210461199274     IErMin= 3 ErrMin= 8.51D-06
 ErrMax= 8.51D-06  0.00D+00 EMaxC= 1.00D-01 BMatC= 1.83D-09 BMatP= 1.76D-09
 IDIUse=1 WtCom= 1.00D+00 WtEn= 0.00D+00
 Coeff-Com: -0.526D-01 0.525D+00 0.528D+00
 Coeff:     -0.526D-01 0.525D+00 0.528D+00
 Gap=     0.462 Goal=   None    Shift=    0.000
 RMSDP=4.75D-07 MaxDP=6.51D-06 DE=-2.96D-10 OVMax= 1.12D-05

 Cycle   9  Pass 1  IDiag  1:
 E= -76.4210461211342     Delta-E=       -0.000000001207 Rises=F Damp=F
 DIIS: error= 6.04D-07 at cycle   4 NSaved=   4.
 NSaved= 4 IEnMin= 4 EnMin= -76.4210461211342     IErMin= 4 ErrMin= 6.04D-07
 ErrMax= 6.04D-07  0.00D+00 EMaxC= 1.00D-01 BMatC= 4.53D-12 BMatP= 1.76D-09
 IDIUse=1 WtCom= 1.00D+00 WtEn= 0.00D+00
 Coeff-Com:  0.869D-02-0.126D+00-0.991D-01 0.122D+01
 Coeff:      0.869D-02-0.126D+00-0.991D-01 0.122D+01
 Gap=     0.462 Goal=   None    Shift=    0.000
 RMSDP=1.13D-07 MaxDP=9.32D-07 DE=-1.21D-09 OVMax= 2.35D-06

 Cycle  10  Pass 1  IDiag  1:
 E= -76.4210461211466     Delta-E=       -0.000000000012 Rises=F Damp=F
 DIIS: error= 7.14D-08 at cycle   5 NSaved=   5.
 NSaved= 5 IEnMin= 5 EnMin= -76.4210461211466     IErMin= 5 ErrMin= 7.14D-08
 ErrMax= 7.14D-08  0.00D+00 EMaxC= 1.00D-01 BMatC= 2.07D-13 BMatP= 4.53D-12
 IDIUse=1 WtCom= 1.00D+00 WtEn= 0.00D+00
 Coeff-Com:  0.347D-02-0.414D-01-0.357D-01 0.190D+00 0.884D+00
 Coeff:      0.347D-02-0.414D-01-0.357D-01 0.190D+00 0.884D+00
 Gap=     0.462 Goal=   None    Shift=    0.000
 RMSDP=1.81D-08 MaxDP=1.77D-07 DE=-1.24D-11 OVMax= 3.42D-07

 Cycle  11  Pass 1  IDiag  1:
 E= -76.4210461211468     Delta-E=       -0.000000000000 Rises=F Damp=F
 DIIS: error= 1.17D-08 at cycle   6 NSaved=   6.
 NSaved= 6 IEnMin= 6 EnMin= -76.4210461211468     IErMin= 6 ErrMin= 1.17D-08
 ErrMax= 1.17D-08  0.00D+00 EMaxC= 1.00D-01 BMatC= 3.89D-15 BMatP= 2.07D-13
 IDIUse=1 WtCom= 1.00D+00 WtEn= 0.00D+00
 Coeff-Com: -0.391D-03 0.540D-02 0.464D-02-0.487D-01-0.318D-01 0.107D+01
 Coeff:     -0.391D-03 0.540D-02 0.464D-02-0.487D-01-0.318D-01 0.107D+01
 Gap=     0.462 Goal=   None    Shift=    0.000
 RMSDP=3.97D-09 MaxDP=4.02D-08 DE=-2.27D-13 OVMax= 7.89D-08

 SCF Done:  E(RM062X) =  -76.4210461211     A.U. after   11 cycles
            NFock= 11  Conv=0.40D-08     -V/T= 2.0030
 KE= 7.618986191968D+01 PE=-1.990165681591D+02 EE= 3.732115572477D+01
 Leave Link  502 at Mon Feb 20 21:19:54 2023, MaxMem=  6710886400 cpu:               8.3 elap:               0.4
 (Enter /data0/home/software/g16/l601.exe)
 Copying SCF densities to generalized density rwf, IOpCl= 0 IROHF=0.

 **********************************************************************

            Population analysis using the SCF density.

 **********************************************************************

 Alpha  occ. eigenvalues --  -19.62654  -1.13299  -0.60561  -0.47562  -0.39977
 Alpha virt. eigenvalues --    0.06180   0.13291   0.17412   0.17947   0.18932
 Alpha virt. eigenvalues --    0.23350   0.50232   0.54007   0.97911   1.00411
 Alpha virt. eigenvalues --    1.06007   1.18105   1.19972   1.32206   1.34006
 Alpha virt. eigenvalues --    1.69836   1.73882   1.75644   2.06517   2.10209
 Alpha virt. eigenvalues --    2.35861   2.40516   2.54587   2.87398   3.01705
 Alpha virt. eigenvalues --    5.05656   5.47706   5.91473   6.78359   6.80151
 Alpha virt. eigenvalues --    6.87269   6.91419   7.09638  49.95682
          Condensed to atoms (all electrons):
              26         27         28
    26  O    7.918530   0.322063   0.315165
    27  H    0.322063   0.427151  -0.024016
    28  H    0.315165  -0.024016   0.427896
 Mulliken charges:
               1
     1  C    0.000000
     2  C    0.000000
     3  C    0.000000
     4  N    0.000000
     5  H    0.000000
     6  H    0.000000
     7  H    0.000000
     8  C    0.000000
     9  H    0.000000
    10  H    0.000000
    11  H    0.000000
    12  N    0.000000
    13  C    0.000000
    14  H    0.000000
    15  H    0.000000
    16  C    0.000000
    17  H    0.000000
    18  H    0.000000
    19  C    0.000000
    20  H    0.000000
    21  H    0.000000
    22  S    0.000000
    23  O    0.000000
    24  O    0.000000
    25  O    0.000000
    26  O   -0.555758
    27  H    0.274803
    28  H    0.280955
 Sum of Mulliken charges =  -0.00000
 Mulliken charges with hydrogens summed into heavy atoms:
               1
     1  C    0.000000
     2  C    0.000000
     3  C    0.000000
     4  N    0.000000
     8  C    0.000000
    12  N    0.000000
    13  C    0.000000
    16  C    0.000000
    19  C    0.000000
    22  S    0.000000
    23  O    0.000000
    24  O    0.000000
    25  O    0.000000
    26  O   -0.000000
         Mulliken charges condensed to fragments:
      1      0.000000
      2     -0.000000
 Electronic spatial extent (au):  <R**2>=          14605.0772
 Charge=             -0.0000 electrons
 Dipole moment (field-independent basis, Debye):
    X=             -1.5441    Y=              0.9851    Z=              1.0804  Tot=              2.1265
 Quadrupole moment (field-independent basis, Debye-Ang):
   XX=            -25.7470   YY=             16.8691   ZZ=             27.6802
   XY=            -13.0304   XZ=            -16.9272   YZ=             26.5606
 Traceless Quadrupole moment (field-independent basis, Debye-Ang):
   XX=            -32.0145   YY=             10.6017   ZZ=             21.4128
   XY=            -13.0304   XZ=            -16.9272   YZ=             26.5606
 Octapole moment (field-independent basis, Debye-Ang**2):
  XXX=           -300.1964  YYY=            187.3369  ZZZ=            513.7910  XYY=           -132.1805
  XXY=           -276.4943  XXZ=           -352.1799  XZZ=           -190.0333  YZZ=            518.9259
  YYZ=            379.0181  XYZ=           -127.7030
 Hexadecapole moment (field-independent basis, Debye-Ang**3):
 XXXX=          -2986.0947 YYYY=           1215.7824 ZZZZ=           8038.0260 XXXY=          -3398.1185
 XXXZ=          -4331.2780 YYYX=          -1763.1706 YYYZ=           4122.6712 ZZZX=          -2353.2234
 ZZZY=           8717.7314 XXYY=          -3189.1673 XXZZ=          -4960.8579 YYZZ=           6903.7058
 XXYZ=          -3780.9421 YYXZ=          -1262.1898 ZZXY=          -1251.3620
 N-N= 9.084504393550D+00 E-N=-1.990165682504D+02  KE= 7.618986191968D+01
 No NMR shielding tensors so no spin-rotation constants.
 Leave Link  601 at Mon Feb 20 21:19:54 2023, MaxMem=  6710886400 cpu:               1.8 elap:               0.1
 (Enter /data0/home/software/g16/l122.exe)
 CPIOFr:  IOpCl= 0 IRwI=-1 IRwCP=  731 ICalc=  4 LCPTot=      340231 Len1MO=      893396 IndFrg=     4807211
 Restoring MOs from calculation   1 to rwf.
 CPIOFr:  IOpCl= 0 IRwI=-2 IRwCP=  731 ICalc=  0 LCPTot=      340231 Len1MO=      893396 IndFrg=     1233627
 Counterpoise corrected energy =   -1083.658082685733
                   BSSE energy =       0.001698708003
              sum of fragments =   -1083.638374558309
           complexation energy =     -13.43 kcal/mole (raw)
           complexation energy =     -12.37 kcal/mole (corrected)
 Leave Link  122 at Mon Feb 20 21:19:54 2023, MaxMem=  6710886400 cpu:               0.4 elap:               0.0
 (Enter /data0/home/software/g16/l9999.exe)
 1\1\GINC-LOCALHOST\SP\RM062X\6-311+G(2d,p)\C7H14N2O4S1\WUHANYU\20-Feb-
 2023\0\\#p M062X/6-311+G(2d,p) nosymm em=GD3 counterpoise=2\\Title Car
 d Required\\0,1\C,0,6.285244,11.376596,12.55828\C,0,5.053994,11.422255
 ,11.923193\C,0,5.772447,13.543872,12.191818\N,0,6.725266,12.697488,12.
 693713\H,0,6.839252,10.540709,12.948045\H,0,4.395072,10.627611,11.6380
 37\H,0,5.807223,14.660905,12.191217\C,0,7.862688,13.134865,13.485803\H
 ,0,8.345287,12.275512,13.991659\H,0,8.604127,13.659022,12.860178\H,0,7
 .512635,13.815643,14.299609\N,0,4.755843,12.774288,11.691516\C,0,3.433
 691,13.284737,11.320645\H,0,3.0749,12.729067,10.426989\H,0,3.529081,14
 .361859,11.02314\C,0,2.438906,13.134053,12.496039\H,0,1.455835,12.8219
 96,12.089343\H,0,2.762894,12.298403,13.158148\C,0,2.261513,14.399862,1
 3.323008\H,0,1.527846,14.228736,14.130812\H,0,1.851116,15.223434,12.71
 4615\S,0,3.810033,14.989519,14.084348\O,0,3.428643,15.764661,15.255034
 \O,0,4.596023,13.738815,14.349859\O,0,4.483972,15.708393,12.962751\O,0
 ,6.203027,11.71159,15.214941\H,0,5.933317,11.547632,16.109714\H,0,5.60
 0127,12.438495,14.917562\\Version=ES64L-G16RevA.03\HF=-76.4210461\RMSD
 =3.972e-09\Dipole=0.5254428,-2.5454525,-2.0711838\Quadrupole=94.326620
 8,-63.4786359,-30.8479849,-6.308556,-0.4294333,-120.7318216\PG=C01 [X(
 C7H14N2O4S1)]\\@


 THERE ARE PEOPLE SO ADDICTED TO EXAGERATING THEY
 CAN'T TELL THE TRUTH WITHOUT LYING. -- FORTUNE COOKIE
 Job cpu time:       0 days  1 hours 57 minutes 47.7 seconds.
 Elapsed time:       0 days  0 hours  4 minutes 56.3 seconds.
 File lengths (MBytes):  RWF=    175 Int=      0 D2E=      0 Chk=     50 Scr=      1
 Normal termination of Gaussian 16 at Mon Feb 20 21:19:54 2023.
