 Entering Gaussian System, Link 0=g16
 Initial command:
 /data0/home/software/g16/l1.exe "/data0/home/software/g16/scratch/Gau-3497305.inp" -scrdir="/data0/home/software/g16/scratch/"
 Default is to use a total of  22 processors:
                               22 via shared-memory
                                1 via Linda
 Entering Link 1 = /data0/home/software/g16/l1.exe PID=   3497306.
  
 Copyright (c) 1988,1990,1992,1993,1995,1998,2003,2009,2016,
            Gaussian, Inc.  All Rights Reserved.
  
 This is part of the Gaussian(R) 16 program.  It is based on
 the Gaussian(R) 09 system (copyright 2009, Gaussian, Inc.),
 the Gaussian(R) 03 system (copyright 2003, Gaussian, Inc.),
 the Gaussian(R) 98 system (copyright 1998, Gaussian, Inc.),
 the Gaussian(R) 94 system (copyright 1995, Gaussian, Inc.),
 the Gaussian 92(TM) system (copyright 1992, Gaussian, Inc.),
 the Gaussian 90(TM) system (copyright 1990, Gaussian, Inc.),
 the Gaussian 88(TM) system (copyright 1988, Gaussian, Inc.),
 the Gaussian 86(TM) system (copyright 1986, Carnegie Mellon
 University), and the Gaussian 82(TM) system (copyright 1983,
 Carnegie Mellon University). Gaussian is a federally registered
 trademark of Gaussian, Inc.
  
 This software contains proprietary and confidential information,
 including trade secrets, belonging to Gaussian, Inc.
  
 This software is provided under written license and may be
 used, copied, transmitted, or stored only in accord with that
 written license.
  
 The following legend is applicable only to US Government
 contracts under FAR:
  
                    RESTRICTED RIGHTS LEGEND
  
 Use, reproduction and disclosure by the US Government is
 subject to restrictions as set forth in subparagraphs (a)
 and (c) of the Commercial Computer Software - Restricted
 Rights clause in FAR 52.227-19.
  
 Gaussian, Inc.
 340 Quinnipiac St., Bldg. 40, Wallingford CT 06492
  
  
 ---------------------------------------------------------------
 Warning -- This program may not be used in any manner that
 competes with the business of Gaussian, Inc. or will provide
 assistance to any competitor of Gaussian, Inc.  The licensee
 of this program is prohibited from giving any competitor of
 Gaussian, Inc. access to this program.  By using this program,
 the user acknowledges that Gaussian, Inc. is engaged in the
 business of creating and licensing software in the field of
 computational chemistry and represents and warrants to the
 licensee that it is not a competitor of Gaussian, Inc. and that
 it will not use this program in any manner prohibited above.
 ---------------------------------------------------------------
  

 Cite this work as:
 Gaussian 16, Revision A.03,
 M. J. Frisch, G. W. Trucks, H. B. Schlegel, G. E. Scuseria, 
 M. A. Robb, J. R. Cheeseman, G. Scalmani, V. Barone, 
 G. A. Petersson, H. Nakatsuji, X. Li, M. Caricato, A. V. Marenich, 
 J. Bloino, B. G. Janesko, R. Gomperts, B. Mennucci, H. P. Hratchian, 
 J. V. Ortiz, A. F. Izmaylov, J. L. Sonnenberg, D. Williams-Young, 
 F. Ding, F. Lipparini, F. Egidi, J. Goings, B. Peng, A. Petrone, 
 T. Henderson, D. Ranasinghe, V. G. Zakrzewski, J. Gao, N. Rega, 
 G. Zheng, W. Liang, M. Hada, M. Ehara, K. Toyota, R. Fukuda, 
 J. Hasegawa, M. Ishida, T. Nakajima, Y. Honda, O. Kitao, H. Nakai, 
 T. Vreven, K. Throssell, J. A. Montgomery, Jr., J. E. Peralta, 
 F. Ogliaro, M. J. Bearpark, J. J. Heyd, E. N. Brothers, K. N. Kudin, 
 V. N. Staroverov, T. A. Keith, R. Kobayashi, J. Normand, 
 K. Raghavachari, A. P. Rendell, J. C. Burant, S. S. Iyengar, 
 J. Tomasi, M. Cossi, J. M. Millam, M. Klene, C. Adamo, R. Cammi, 
 J. W. Ochterski, R. L. Martin, K. Morokuma, O. Farkas, 
 J. B. Foresman, and D. J. Fox, Gaussian, Inc., Wallingford CT, 2016.
 
 ******************************************
 Gaussian 16:  ES64L-G16RevA.03 25-Dec-2016
                23-Nov-2022 
 ******************************************
 %nproc=22
 Will use up to   22 processors via shared memory.
 %mem=50GB
 ---------------------------------------------------
 #p M062X/6-311+G(2d,p) nosymm em=GD3 counterpoise=2
 ---------------------------------------------------
 1/38=1,62=2,172=1/1;
 2/12=2,15=1,17=6,18=5,40=1/2;
 1/38=1,53=2,62=2,63=1/22;
 3/5=4,6=6,7=112,11=2,25=1,30=1,74=-55,124=31/1,2,3;
 4//1;
 5/5=2,38=5/2;
 6/7=2,8=2,9=2,10=2,28=1/1;
 1/53=2,62=2,63=1/22;
 3/5=7,6=11,7=112,11=2,25=1,30=1,74=-55,82=7,124=31/1,2,3;
 4//1;
 5/5=2,38=5/2;
 6/7=2,8=2,9=2,10=2,28=1/1;
 1/53=2,62=2,63=1/22(-4);
 99/5=1,9=1/99;
 Leave Link    1 at Wed Nov 23 20:03:09 2022, MaxMem=  6710886400 cpu:               0.6 elap:               0.0
 (Enter /data0/home/software/g16/l101.exe)
 -------------------
 Title Card Required
 -------------------
 Symbolic Z-matrix:
 Charge =  0 Multiplicity = 1 in supermolecule
 Charge =  0 Multiplicity = 1 in fragment      1.
 Charge =  0 Multiplicity = 1 in fragment      2.
 C                     13.03429   10.81703   8.59199    
 C                     12.84356   12.16893   8.89804    
 C                     12.16506   12.49693   10.0714    
 C                     11.70045   11.47749   10.89831    
 C                     11.93192   10.1473   10.52178    
 N                     12.58674   9.82829   9.38987    
 H                     12.0007   13.54088   10.33707    
 H                     13.55928   10.49751   7.68444    
 H                     13.21671   12.94287   8.23447    
 H                     11.16821   11.70159   11.8183    
 H                     11.58636   9.30233   11.13849    
 P                     12.1413   6.12561   9.78923    
 O                     11.72262   6.67406   11.06934    
 O                     10.89542   5.63968   8.92877    
 H                     11.24226   5.22091   8.05681    
 O                     13.00756   7.04352   8.82386    
 H                     12.8087   8.06036   9.01861    
 O                     13.03379   4.79541   9.81392    
 H                     14.01506   5.06931   9.91531    
 
 ITRead=  0  0  0  0  0  0  0  0  0  0  0  0  0  0  0  0  0  0  0
 MicOpt= -1 -1 -1 -1 -1 -1 -1 -1 -1 -1 -1 -1 -1 -1 -1 -1 -1 -1 -1
 NAtoms=     19 NQM=       19 NQMF=       0 NMMI=      0 NMMIF=      0
                NMic=       0 NMicF=      0.
                    Isotopes and Nuclear Properties:
 (Nuclear quadrupole moments (NQMom) in fm**2, nuclear magnetic moments (NMagM)
  in nuclear magnetons)

  Atom         1           2           3           4           5           6           7           8           9          10
 IAtWgt=          12          12          12          12          12          14           1           1           1           1
 AtmWgt=  12.0000000  12.0000000  12.0000000  12.0000000  12.0000000  14.0030740   1.0078250   1.0078250   1.0078250   1.0078250
 NucSpn=           0           0           0           0           0           2           1           1           1           1
 AtZEff=  -0.0000000  -0.0000000  -0.0000000  -0.0000000  -0.0000000  -0.0000000  -0.0000000  -0.0000000  -0.0000000  -0.0000000
 NQMom=    0.0000000   0.0000000   0.0000000   0.0000000   0.0000000   2.0440000   0.0000000   0.0000000   0.0000000   0.0000000
 NMagM=    0.0000000   0.0000000   0.0000000   0.0000000   0.0000000   0.4037610   2.7928460   2.7928460   2.7928460   2.7928460
 AtZNuc=   6.0000000   6.0000000   6.0000000   6.0000000   6.0000000   7.0000000   1.0000000   1.0000000   1.0000000   1.0000000

  Atom        11          12          13          14          15          16          17          18          19
 IAtWgt=           1          31          16          16           1          16           1          16           1
 AtmWgt=   1.0078250  30.9737634  15.9949146  15.9949146   1.0078250  15.9949146   1.0078250  15.9949146   1.0078250
 NucSpn=           1           1           0           0           1           0           1           0           1
 AtZEff=  -0.0000000  -0.0000000  -0.0000000  -0.0000000  -0.0000000  -0.0000000  -0.0000000  -0.0000000  -0.0000000
 NQMom=    0.0000000   0.0000000   0.0000000   0.0000000   0.0000000   0.0000000   0.0000000   0.0000000   0.0000000
 NMagM=    2.7928460   1.1316000   0.0000000   0.0000000   2.7928460   0.0000000   2.7928460   0.0000000   2.7928460
 AtZNuc=   1.0000000  15.0000000   8.0000000   8.0000000   1.0000000   8.0000000   1.0000000   8.0000000   1.0000000
 Leave Link  101 at Wed Nov 23 20:03:09 2022, MaxMem=  6710886400 cpu:               1.7 elap:               0.1
 (Enter /data0/home/software/g16/l202.exe)
                          Input orientation:                          
 ---------------------------------------------------------------------
 Center     Atomic      Atomic             Coordinates (Angstroms)
 Number     Number       Type             X           Y           Z
 ---------------------------------------------------------------------
      1          6           0       13.034286   10.817029    8.591990
      2          6           0       12.843564   12.168927    8.898038
      3          6           0       12.165064   12.496934   10.071403
      4          6           0       11.700454   11.477486   10.898311
      5          6           0       11.931921   10.147298   10.521781
      6          7           0       12.586743    9.828290    9.389868
      7          1           0       12.000705   13.540882   10.337065
      8          1           0       13.559281   10.497514    7.684441
      9          1           0       13.216710   12.942865    8.234467
     10          1           0       11.168211   11.701594   11.818301
     11          1           0       11.586357    9.302335   11.138490
     12         15           0       12.141298    6.125611    9.789233
     13          8           0       11.722618    6.674057   11.069336
     14          8           0       10.895422    5.639675    8.928774
     15          1           0       11.242262    5.220915    8.056811
     16          8           0       13.007561    7.043521    8.823861
     17          1           0       12.808703    8.060357    9.018610
     18          8           0       13.033791    4.795409    9.813919
     19          1           0       14.015057    5.069309    9.915310
 ---------------------------------------------------------------------
                    Distance matrix (angstroms):
                    1          2          3          4          5
     1  C    0.000000
     2  C    1.399167   0.000000
     3  C    2.401310   1.394538   0.000000
     4  C    2.744891   2.405386   1.392449   0.000000
     5  C    2.321172   2.748567   2.403744   1.401696   0.000000
     6  N    1.347037   2.405501   2.786389   2.404320   1.346026
     7  H    3.396020   2.159507   1.089687   2.159340   3.399303
     8  H    1.096063   2.186021   3.411614   3.839862   3.289597
     9  H    2.163395   1.085608   2.163134   3.397416   3.833756
    10  H    3.830636   3.398992   2.162853   1.086227   2.163343
    11  H    3.297796   3.849356   3.417461   2.191343   1.101684
    12  P    4.923436   6.148908   6.377613   5.483335   4.093218
    13  O    5.002193   6.013705   5.924316   4.806524   3.522361
    14  O    5.611876   6.813761   7.066795   6.213468   4.891898
    15  H    5.900361   7.179603   7.605958   6.886853   5.551662
    16  O    3.780720   5.128565   5.657374   5.066746   3.697751
    17  H    2.798595   4.110487   4.604982   4.054413   2.717277
    18  O    6.144348   7.432617   7.754642   6.899554   5.509801
    19  H    5.979078   7.267174   7.656138   6.883924   5.522068
                    6          7          8          9         10
     6  N    0.000000
     7  H    3.876076   0.000000
     8  H    2.074168   4.327547   0.000000
     9  H    3.381181   2.501442   2.529748   0.000000
    10  H    3.379170   2.504014   4.925020   4.310565   0.000000
    11  H    2.082085   4.333503   4.153473   4.934051   2.528524
    12  P    3.750699   7.436809   5.055132   7.074515   6.012953
    13  O    3.676481   6.911356   5.426755   7.040366   5.113164
    14  O    4.540668   8.101482   5.678302   7.694610   6.720911
    15  H    4.981222   8.660060   5.774923   7.972360   7.493563
    16  O    2.872697   6.746795   3.678687   5.932402   5.835026
    17  H    1.820079   5.694501   2.878039   4.961878   4.877304
    18  O    5.070460   8.821805   6.109404   8.301155   7.429221
    19  H    4.996406   8.717972   5.886418   8.090456   7.464122
                   11         12         13         14         15
    11  H    0.000000
    12  P    3.495716   0.000000
    13  O    2.632716   1.454218   0.000000
    14  O    4.333049   1.590198   2.517182   0.000000
    15  H    5.125733   2.151285   3.379004   1.027608   0.000000
    16  O    3.532643   1.588998   2.613377   2.538291   2.650762
    17  H    2.744181   2.186900   2.703125   3.086813   3.382488
    18  O    4.915479   1.602058   2.612387   2.463511   2.545203
    19  H    5.031229   2.154679   3.026924   3.321249   3.341466
                   16         17         18         19
    16  O    0.000000
    17  H    1.054242   0.000000
    18  O    2.456605   3.367947   0.000000
    19  H    2.470591   3.347496   1.023809   0.000000
 Symmetry turned off by external request.
 Stoichiometry    C5H8NO4P
 Framework group  C1[X(C5H8NO4P)]
 Deg. of freedom    51
 Full point group                 C1      NOp   1
 Rotational constants (GHZ):           2.5544440           0.3804554           0.3564930
 Leave Link  202 at Wed Nov 23 20:03:09 2022, MaxMem=  6710886400 cpu:               0.1 elap:               0.0
 (Enter /data0/home/software/g16/l122.exe)
 Counterpoise: doing full-system calculation.
 Leave Link  122 at Wed Nov 23 20:03:09 2022, MaxMem=  6710886400 cpu:               0.1 elap:               0.0
 (Enter /data0/home/software/g16/l301.exe)
 Standard basis: 6-311+G(2d,p) (5D, 7F)
 Ernie: Thresh=  0.10000D-02 Tol=  0.10000D-05 Strict=F.
   353 basis functions,   540 primitive gaussians,   375 cartesian basis functions
    46 alpha electrons       46 beta electrons
       nuclear repulsion energy       707.7891359124 Hartrees.
 IExCor= 4336 DFT=T Ex+Corr=M062X ExCW=0 ScaHFX=  0.540000
 ScaDFX=  1.000000  1.000000  1.000000  1.000000 ScalE2=  1.000000  1.000000
 IRadAn=      5 IRanWt=     -1 IRanGd=            0 ICorTp=0 IEmpDi=131
 NAtoms=   19 NActive=   19 NUniq=   19 SFac= 1.00D+00 NAtFMM=   60 NAOKFM=F Big=F
 Integral buffers will be    131072 words long.
 Raffenetti 2 integral format.
 Two-electron integral symmetry is turned off.
 R6Disp:  Grimme-D3 Dispersion energy=       -0.0006138747 Hartrees.
 Nuclear repulsion after empirical dispersion term =      707.7885220376 Hartrees.
 Leave Link  301 at Wed Nov 23 20:03:09 2022, MaxMem=  6710886400 cpu:               1.0 elap:               0.1
 (Enter /data0/home/software/g16/l302.exe)
 NPDir=0 NMtPBC=     1 NCelOv=     1 NCel=       1 NClECP=     1 NCelD=      1
         NCelK=      1 NCelE2=     1 NClLst=     1 CellRange=     0.0.
 One-electron integrals computed using PRISM.
 NBasis=   353 RedAO= T EigKep=  7.27D-06  NBF=   353
 NBsUse=   353 1.00D-06 EigRej= -1.00D+00 NBFU=   353
 Precomputing XC quadrature grid using
 IXCGrd= 4 IRadAn=           5 IRanWt=          -1 IRanGd=           0 AccXCQ= 0.00D+00.
 Generated NRdTot=       0 NPtTot=           0 NUsed=           0 NTot=          32
 NSgBfM=   375   375   375   375   375 MxSgAt=    19 MxSgA2=    19.
 Leave Link  302 at Wed Nov 23 20:03:09 2022, MaxMem=  6710886400 cpu:               5.1 elap:               0.3
 (Enter /data0/home/software/g16/l303.exe)
 DipDrv:  MaxL=1.
 Leave Link  303 at Wed Nov 23 20:03:09 2022, MaxMem=  6710886400 cpu:               0.7 elap:               0.1
 (Enter /data0/home/software/g16/l401.exe)
 ExpMin= 3.48D-02 ExpMax= 7.75D+04 ExpMxC= 2.65D+03 IAcc=3 IRadAn=         5 AccDes= 0.00D+00
 Harris functional with IExCor= 1009 and IRadAn=       5 diagonalized for initial guess.
 HarFok:  IExCor= 1009 AccDes= 0.00D+00 IRadAn=         5 IDoV= 1 UseB2=F ITyADJ=14
 ICtDFT=  3500011 ScaDFX=  1.000000  1.000000  1.000000  1.000000
 FoFCou: FMM=F IPFlag=           0 FMFlag=      100000 FMFlg1=           0
         NFxFlg=           0 DoJE=T BraDBF=F KetDBF=T FulRan=T
         wScrn=  0.000000 ICntrl=       500 IOpCl=  0 I1Cent=   200000004 NGrid=           0
         NMat0=    1 NMatS0=      1 NMatT0=    0 NMatD0=    1 NMtDS0=    0 NMtDT0=    0
 Symmetry not used in FoFCou.
 Harris En= -892.075785816119    
 JPrj=0 DoOrth=F DoCkMO=F.
 Leave Link  401 at Wed Nov 23 20:03:10 2022, MaxMem=  6710886400 cpu:              18.4 elap:               0.9
 (Enter /data0/home/software/g16/l502.exe)
 Two-electron integral symmetry not used.
 Closed shell SCF:
 Using DIIS extrapolation, IDIIS=  1040.
 NGot=  6710886400 LenX=  6710594264 LenY=  6710453198
 Requested convergence on RMS density matrix=1.00D-08 within 128 cycles.
 Requested convergence on MAX density matrix=1.00D-06.
 Requested convergence on             energy=1.00D-06.
 No special actions if energy rises.
 Fock matrices will be formed incrementally for  20 cycles.

 Cycle   1  Pass 1  IDiag  1:
 FoFJK:  IHMeth= 1 ICntrl=       0 DoSepK=F KAlg= 0 I1Cent=           0 FoldK=F
 IRaf= 850000000 NMat=       1 IRICut=       1 DoRegI=T DoRafI=F ISym2E= 0 IDoP0=0 IntGTp=1.
 FoFCou: FMM=F IPFlag=           0 FMFlag=      100000 FMFlg1=           0
         NFxFlg=           0 DoJE=F BraDBF=F KetDBF=F FulRan=T
         wScrn=  0.000000 ICntrl=         0 IOpCl=  0 I1Cent=           0 NGrid=           0
         NMat0=    1 NMatS0=      1 NMatT0=    0 NMatD0=    1 NMtDS0=    0 NMtDT0=    0
 Symmetry not used in FoFCou.
 E= -892.033225533287    
 DIIS: error= 3.16D-02 at cycle   1 NSaved=   1.
 NSaved= 1 IEnMin= 1 EnMin= -892.033225533287     IErMin= 1 ErrMin= 3.16D-02
 ErrMax= 3.16D-02  0.00D+00 EMaxC= 1.00D-01 BMatC= 6.50D-01 BMatP= 6.50D-01
 IDIUse=3 WtCom= 6.84D-01 WtEn= 3.16D-01
 Coeff-Com:  0.100D+01
 Coeff-En:   0.100D+01
 Coeff:      0.100D+01
 Gap=     0.315 Goal=   None    Shift=    0.000
 GapD=    0.315 DampG=1.000 DampE=0.500 DampFc=0.5000 IDamp=-1.
 Damping current iteration by 5.00D-01
 RMSDP=6.29D-03 MaxDP=4.77D-01              OVMax= 2.33D-01

 Cycle   2  Pass 1  IDiag  1:
 RMSU=  3.06D-03    CP:  1.05D+00
 E= -892.209242761725     Delta-E=       -0.176017228438 Rises=F Damp=T
 DIIS: error= 9.23D-03 at cycle   2 NSaved=   2.
 NSaved= 2 IEnMin= 2 EnMin= -892.209242761725     IErMin= 2 ErrMin= 9.23D-03
 ErrMax= 9.23D-03  0.00D+00 EMaxC= 1.00D-01 BMatC= 4.00D-02 BMatP= 6.50D-01
 IDIUse=3 WtCom= 9.08D-01 WtEn= 9.23D-02
 Coeff-Com:  0.180D-01 0.982D+00
 Coeff-En:   0.970D-01 0.903D+00
 Coeff:      0.253D-01 0.975D+00
 Gap=     0.374 Goal=   None    Shift=    0.000
 RMSDP=1.98D-03 MaxDP=1.89D-01 DE=-1.76D-01 OVMax= 1.28D-01

 Cycle   3  Pass 1  IDiag  1:
 RMSU=  1.50D-03    CP:  9.77D-01  7.89D-01
 E= -892.416090483878     Delta-E=       -0.206847722153 Rises=F Damp=F
 DIIS: error= 6.50D-03 at cycle   3 NSaved=   3.
 NSaved= 3 IEnMin= 3 EnMin= -892.416090483878     IErMin= 3 ErrMin= 6.50D-03
 ErrMax= 6.50D-03  0.00D+00 EMaxC= 1.00D-01 BMatC= 1.55D-02 BMatP= 4.00D-02
 IDIUse=3 WtCom= 9.35D-01 WtEn= 6.50D-02
 Coeff-Com: -0.527D-01 0.357D+00 0.696D+00
 Coeff-En:   0.000D+00 0.000D+00 0.100D+01
 Coeff:     -0.493D-01 0.334D+00 0.716D+00
 Gap=     0.314 Goal=   None    Shift=    0.000
 RMSDP=9.96D-04 MaxDP=1.36D-01 DE=-2.07D-01 OVMax= 3.91D-02

 Cycle   4  Pass 1  IDiag  1:
 RMSU=  8.30D-04    CP:  9.42D-01  8.04D-01  1.05D+00
 E= -892.424060811803     Delta-E=       -0.007970327926 Rises=F Damp=F
 DIIS: error= 2.90D-03 at cycle   4 NSaved=   4.
 NSaved= 4 IEnMin= 4 EnMin= -892.424060811803     IErMin= 4 ErrMin= 2.90D-03
 ErrMax= 2.90D-03  0.00D+00 EMaxC= 1.00D-01 BMatC= 4.59D-03 BMatP= 1.55D-02
 IDIUse=3 WtCom= 9.71D-01 WtEn= 2.90D-02
 Coeff-Com: -0.298D-01 0.867D-01 0.396D+00 0.548D+00
 Coeff-En:   0.000D+00 0.000D+00 0.215D+00 0.785D+00
 Coeff:     -0.289D-01 0.842D-01 0.390D+00 0.554D+00
 Gap=     0.314 Goal=   None    Shift=    0.000
 RMSDP=2.75D-04 MaxDP=2.46D-02 DE=-7.97D-03 OVMax= 1.34D-02

 Cycle   5  Pass 1  IDiag  1:
 RMSU=  1.45D-04    CP:  9.49D-01  8.10D-01  1.06D+00  7.54D-01
 E= -892.427239370439     Delta-E=       -0.003178558636 Rises=F Damp=F
 DIIS: error= 4.23D-04 at cycle   5 NSaved=   5.
 NSaved= 5 IEnMin= 5 EnMin= -892.427239370439     IErMin= 5 ErrMin= 4.23D-04
 ErrMax= 4.23D-04  0.00D+00 EMaxC= 1.00D-01 BMatC= 8.66D-05 BMatP= 4.59D-03
 IDIUse=3 WtCom= 9.96D-01 WtEn= 4.23D-03
 Coeff-Com: -0.713D-02 0.124D-01 0.101D+00 0.203D+00 0.691D+00
 Coeff-En:   0.000D+00 0.000D+00 0.000D+00 0.000D+00 0.100D+01
 Coeff:     -0.710D-02 0.123D-01 0.100D+00 0.202D+00 0.693D+00
 Gap=     0.314 Goal=   None    Shift=    0.000
 RMSDP=5.49D-05 MaxDP=4.89D-03 DE=-3.18D-03 OVMax= 1.49D-03

 Cycle   6  Pass 1  IDiag  1:
 RMSU=  2.95D-05    CP:  9.47D-01  8.05D-01  1.06D+00  7.82D-01  8.68D-01
 E= -892.427302408693     Delta-E=       -0.000063038254 Rises=F Damp=F
 DIIS: error= 1.36D-04 at cycle   6 NSaved=   6.
 NSaved= 6 IEnMin= 6 EnMin= -892.427302408693     IErMin= 6 ErrMin= 1.36D-04
 ErrMax= 1.36D-04  0.00D+00 EMaxC= 1.00D-01 BMatC= 5.13D-06 BMatP= 8.66D-05
 IDIUse=3 WtCom= 9.99D-01 WtEn= 1.36D-03
 Coeff-Com: -0.135D-02 0.974D-03 0.200D-01 0.501D-01 0.264D+00 0.666D+00
 Coeff-En:   0.000D+00 0.000D+00 0.000D+00 0.000D+00 0.000D+00 0.100D+01
 Coeff:     -0.135D-02 0.973D-03 0.200D-01 0.500D-01 0.264D+00 0.667D+00
 Gap=     0.314 Goal=   None    Shift=    0.000
 RMSDP=1.11D-05 MaxDP=3.82D-04 DE=-6.30D-05 OVMax= 4.47D-04

 Cycle   7  Pass 1  IDiag  1:
 RMSU=  9.51D-06    CP:  9.47D-01  8.04D-01  1.06D+00  7.84D-01  8.94D-01
                    CP:  1.06D+00
 E= -892.427307043041     Delta-E=       -0.000004634348 Rises=F Damp=F
 DIIS: error= 3.45D-05 at cycle   7 NSaved=   7.
 NSaved= 7 IEnMin= 7 EnMin= -892.427307043041     IErMin= 7 ErrMin= 3.45D-05
 ErrMax= 3.45D-05  0.00D+00 EMaxC= 1.00D-01 BMatC= 2.26D-07 BMatP= 5.13D-06
 IDIUse=1 WtCom= 1.00D+00 WtEn= 0.00D+00
 Coeff-Com:  0.530D-03-0.115D-02-0.753D-02-0.135D-01-0.229D-01 0.117D+00
 Coeff-Com:  0.927D+00
 Coeff:      0.530D-03-0.115D-02-0.753D-02-0.135D-01-0.229D-01 0.117D+00
 Coeff:      0.927D+00
 Gap=     0.314 Goal=   None    Shift=    0.000
 RMSDP=6.24D-06 MaxDP=6.44D-04 DE=-4.63D-06 OVMax= 2.46D-04

 Cycle   8  Pass 1  IDiag  1:
 RMSU=  2.46D-06    CP:  9.47D-01  8.03D-01  1.07D+00  7.87D-01  9.09D-01
                    CP:  1.13D+00  1.11D+00
 E= -892.427307254098     Delta-E=       -0.000000211057 Rises=F Damp=F
 DIIS: error= 2.29D-05 at cycle   8 NSaved=   8.
 NSaved= 8 IEnMin= 8 EnMin= -892.427307254098     IErMin= 8 ErrMin= 2.29D-05
 ErrMax= 2.29D-05  0.00D+00 EMaxC= 1.00D-01 BMatC= 7.48D-08 BMatP= 2.26D-07
 IDIUse=1 WtCom= 1.00D+00 WtEn= 0.00D+00
 Coeff-Com:  0.329D-03-0.643D-03-0.486D-02-0.930D-02-0.241D-01 0.266D-01
 Coeff-Com:  0.470D+00 0.542D+00
 Coeff:      0.329D-03-0.643D-03-0.486D-02-0.930D-02-0.241D-01 0.266D-01
 Coeff:      0.470D+00 0.542D+00
 Gap=     0.314 Goal=   None    Shift=    0.000
 RMSDP=1.03D-06 MaxDP=8.26D-05 DE=-2.11D-07 OVMax= 1.06D-04

 Cycle   9  Pass 1  IDiag  1:
 RMSU=  8.18D-07    CP:  9.47D-01  8.03D-01  1.07D+00  7.87D-01  9.09D-01
                    CP:  1.14D+00  1.12D+00  9.04D-01
 E= -892.427307324088     Delta-E=       -0.000000069990 Rises=F Damp=F
 DIIS: error= 7.07D-06 at cycle   9 NSaved=   9.
 NSaved= 9 IEnMin= 9 EnMin= -892.427307324088     IErMin= 9 ErrMin= 7.07D-06
 ErrMax= 7.07D-06  0.00D+00 EMaxC= 1.00D-01 BMatC= 5.46D-09 BMatP= 7.48D-08
 IDIUse=1 WtCom= 1.00D+00 WtEn= 0.00D+00
 Coeff-Com:  0.278D-04-0.371D-04-0.597D-03-0.126D-02-0.498D-02-0.653D-02
 Coeff-Com:  0.323D-01 0.211D+00 0.770D+00
 Coeff:      0.278D-04-0.371D-04-0.597D-03-0.126D-02-0.498D-02-0.653D-02
 Coeff:      0.323D-01 0.211D+00 0.770D+00
 Gap=     0.314 Goal=   None    Shift=    0.000
 RMSDP=4.24D-07 MaxDP=2.88D-05 DE=-7.00D-08 OVMax= 3.00D-05

 Cycle  10  Pass 1  IDiag  1:
 RMSU=  2.61D-07    CP:  9.47D-01  8.03D-01  1.07D+00  7.87D-01  9.09D-01
                    CP:  1.14D+00  1.13D+00  9.92D-01  9.92D-01
 E= -892.427307329780     Delta-E=       -0.000000005693 Rises=F Damp=F
 DIIS: error= 2.29D-06 at cycle  10 NSaved=  10.
 NSaved=10 IEnMin=10 EnMin= -892.427307329780     IErMin=10 ErrMin= 2.29D-06
 ErrMax= 2.29D-06  0.00D+00 EMaxC= 1.00D-01 BMatC= 4.49D-10 BMatP= 5.46D-09
 IDIUse=1 WtCom= 1.00D+00 WtEn= 0.00D+00
 Coeff-Com: -0.180D-04 0.400D-04 0.192D-03 0.320D-03-0.393D-04-0.542D-02
 Coeff-Com: -0.308D-01 0.239D-01 0.268D+00 0.744D+00
 Coeff:     -0.180D-04 0.400D-04 0.192D-03 0.320D-03-0.393D-04-0.542D-02
 Coeff:     -0.308D-01 0.239D-01 0.268D+00 0.744D+00
 Gap=     0.314 Goal=   None    Shift=    0.000
 RMSDP=1.54D-07 MaxDP=1.64D-05 DE=-5.69D-09 OVMax= 1.04D-05

 Cycle  11  Pass 1  IDiag  1:
 RMSU=  8.61D-08    CP:  9.47D-01  8.03D-01  1.07D+00  7.87D-01  9.09D-01
                    CP:  1.14D+00  1.13D+00  1.01D+00  1.09D+00  1.17D+00
 E= -892.427307330226     Delta-E=       -0.000000000446 Rises=F Damp=F
 DIIS: error= 9.89D-07 at cycle  11 NSaved=  11.
 NSaved=11 IEnMin=11 EnMin= -892.427307330226     IErMin=11 ErrMin= 9.89D-07
 ErrMax= 9.89D-07  0.00D+00 EMaxC= 1.00D-01 BMatC= 1.08D-10 BMatP= 4.49D-10
 IDIUse=1 WtCom= 1.00D+00 WtEn= 0.00D+00
 Coeff-Com: -0.109D-04 0.226D-04 0.153D-03 0.281D-03 0.464D-03-0.189D-02
 Coeff-Com: -0.178D-01-0.133D-01 0.377D-01 0.379D+00 0.616D+00
 Coeff:     -0.109D-04 0.226D-04 0.153D-03 0.281D-03 0.464D-03-0.189D-02
 Coeff:     -0.178D-01-0.133D-01 0.377D-01 0.379D+00 0.616D+00
 Gap=     0.314 Goal=   None    Shift=    0.000
 RMSDP=5.32D-08 MaxDP=4.18D-06 DE=-4.46D-10 OVMax= 3.32D-06

 Cycle  12  Pass 1  IDiag  1:
 RMSU=  2.91D-08    CP:  9.47D-01  8.03D-01  1.07D+00  7.87D-01  9.09D-01
                    CP:  1.14D+00  1.14D+00  1.02D+00  1.10D+00  1.22D+00
                    CP:  8.60D-01
 E= -892.427307330354     Delta-E=       -0.000000000128 Rises=F Damp=F
 DIIS: error= 2.93D-07 at cycle  12 NSaved=  12.
 NSaved=12 IEnMin=12 EnMin= -892.427307330354     IErMin=12 ErrMin= 2.93D-07
 ErrMax= 2.93D-07  0.00D+00 EMaxC= 1.00D-01 BMatC= 7.93D-12 BMatP= 1.08D-10
 IDIUse=1 WtCom= 1.00D+00 WtEn= 0.00D+00
 Coeff-Com: -0.894D-06 0.157D-05 0.285D-04 0.565D-04 0.176D-03 0.163D-03
 Coeff-Com: -0.171D-02-0.955D-02-0.308D-01 0.489D-01 0.230D+00 0.763D+00
 Coeff:     -0.894D-06 0.157D-05 0.285D-04 0.565D-04 0.176D-03 0.163D-03
 Coeff:     -0.171D-02-0.955D-02-0.308D-01 0.489D-01 0.230D+00 0.763D+00
 Gap=     0.314 Goal=   None    Shift=    0.000
 RMSDP=2.24D-08 MaxDP=2.43D-06 DE=-1.28D-10 OVMax= 1.70D-06

 Cycle  13  Pass 1  IDiag  1:
 RMSU=  1.19D-08    CP:  9.47D-01  8.03D-01  1.07D+00  7.87D-01  9.09D-01
                    CP:  1.14D+00  1.14D+00  1.02D+00  1.11D+00  1.26D+00
                    CP:  9.16D-01  9.72D-01
 E= -892.427307330371     Delta-E=       -0.000000000018 Rises=F Damp=F
 DIIS: error= 1.12D-07 at cycle  13 NSaved=  13.
 NSaved=13 IEnMin=13 EnMin= -892.427307330371     IErMin=13 ErrMin= 1.12D-07
 ErrMax= 1.12D-07  0.00D+00 EMaxC= 1.00D-01 BMatC= 8.94D-13 BMatP= 7.93D-12
 IDIUse=1 WtCom= 1.00D+00 WtEn= 0.00D+00
 Coeff-Com:  0.717D-06-0.151D-05-0.395D-05-0.688D-05 0.782D-05 0.205D-03
 Coeff-Com:  0.105D-02-0.160D-02-0.129D-01-0.159D-01 0.458D-02 0.276D+00
 Coeff-Com:  0.749D+00
 Coeff:      0.717D-06-0.151D-05-0.395D-05-0.688D-05 0.782D-05 0.205D-03
 Coeff:      0.105D-02-0.160D-02-0.129D-01-0.159D-01 0.458D-02 0.276D+00
 Coeff:      0.749D+00
 Gap=     0.314 Goal=   None    Shift=    0.000
 RMSDP=5.00D-09 MaxDP=4.45D-07 DE=-1.75D-11 OVMax= 5.54D-07

 SCF Done:  E(RM062X) =  -892.427307330     A.U. after   13 cycles
            NFock= 13  Conv=0.50D-08     -V/T= 2.0031
 KE= 8.896634723205D+02 PE=-3.520226366176D+03 EE= 1.030347064487D+03
 Leave Link  502 at Wed Nov 23 20:03:45 2022, MaxMem=  6710886400 cpu:             766.7 elap:              35.0
 (Enter /data0/home/software/g16/l601.exe)
 Copying SCF densities to generalized density rwf, IOpCl= 0 IROHF=0.

 **********************************************************************

            Population analysis using the SCF density.

 **********************************************************************

 Alpha  occ. eigenvalues --  -78.14478 -19.65792 -19.65485 -19.64045 -19.57345
 Alpha  occ. eigenvalues --  -14.78382 -10.60591 -10.60028 -10.58349 -10.57450
 Alpha  occ. eigenvalues --  -10.57193  -6.95253  -5.07161  -5.07144  -5.06955
 Alpha  occ. eigenvalues --   -1.21656  -1.14281  -1.13242  -1.08019  -1.07590
 Alpha  occ. eigenvalues --   -0.92617  -0.88074  -0.73842  -0.73271  -0.70153
 Alpha  occ. eigenvalues --   -0.63565  -0.62249  -0.61706  -0.57240  -0.56189
 Alpha  occ. eigenvalues --   -0.53807  -0.52589  -0.51700  -0.49625  -0.49456
 Alpha  occ. eigenvalues --   -0.48303  -0.46188  -0.45627  -0.44624  -0.43306
 Alpha  occ. eigenvalues --   -0.40935  -0.37129  -0.36967  -0.36898  -0.35816
 Alpha  occ. eigenvalues --   -0.33730
 Alpha virt. eigenvalues --   -0.02350  -0.00861  -0.00269   0.00620   0.01962
 Alpha virt. eigenvalues --    0.02848   0.02998   0.04328   0.05095   0.05648
 Alpha virt. eigenvalues --    0.06513   0.06911   0.08286   0.08619   0.09084
 Alpha virt. eigenvalues --    0.10121   0.12360   0.12497   0.12648   0.13203
 Alpha virt. eigenvalues --    0.13917   0.14211   0.14838   0.15974   0.16074
 Alpha virt. eigenvalues --    0.16970   0.17409   0.17920   0.19150   0.19363
 Alpha virt. eigenvalues --    0.19857   0.20132   0.20457   0.21206   0.21625
 Alpha virt. eigenvalues --    0.21879   0.22908   0.23056   0.23477   0.24348
 Alpha virt. eigenvalues --    0.24454   0.25240   0.26174   0.26994   0.27778
 Alpha virt. eigenvalues --    0.28475   0.29181   0.29316   0.30337   0.30908
 Alpha virt. eigenvalues --    0.31298   0.31738   0.32463   0.33208   0.33514
 Alpha virt. eigenvalues --    0.34238   0.34728   0.34875   0.36276   0.36958
 Alpha virt. eigenvalues --    0.39182   0.39603   0.42797   0.44704   0.44987
 Alpha virt. eigenvalues --    0.46413   0.48110   0.49077   0.49223   0.50831
 Alpha virt. eigenvalues --    0.51801   0.52961   0.53702   0.54570   0.54960
 Alpha virt. eigenvalues --    0.56800   0.57816   0.59165   0.59305   0.61210
 Alpha virt. eigenvalues --    0.63119   0.63809   0.65820   0.66010   0.67017
 Alpha virt. eigenvalues --    0.67608   0.67940   0.71495   0.72819   0.74557
 Alpha virt. eigenvalues --    0.75731   0.77425   0.78560   0.79242   0.79378
 Alpha virt. eigenvalues --    0.79801   0.81254   0.82499   0.82988   0.83885
 Alpha virt. eigenvalues --    0.85159   0.86260   0.88400   0.89108   0.89912
 Alpha virt. eigenvalues --    0.91168   0.92269   0.92437   0.94513   1.00829
 Alpha virt. eigenvalues --    1.02930   1.04586   1.06320   1.07235   1.10920
 Alpha virt. eigenvalues --    1.12915   1.14051   1.15083   1.16517   1.17949
 Alpha virt. eigenvalues --    1.19011   1.20049   1.20331   1.20719   1.23578
 Alpha virt. eigenvalues --    1.24774   1.26345   1.26837   1.28293   1.29974
 Alpha virt. eigenvalues --    1.30450   1.32353   1.32831   1.33437   1.34910
 Alpha virt. eigenvalues --    1.35787   1.36981   1.37667   1.38168   1.41022
 Alpha virt. eigenvalues --    1.44111   1.44794   1.45900   1.48098   1.49032
 Alpha virt. eigenvalues --    1.50343   1.50915   1.52323   1.53220   1.54643
 Alpha virt. eigenvalues --    1.57293   1.59813   1.61812   1.62229   1.63998
 Alpha virt. eigenvalues --    1.64703   1.66982   1.69382   1.70700   1.71687
 Alpha virt. eigenvalues --    1.72068   1.73854   1.77831   1.82256   1.83008
 Alpha virt. eigenvalues --    1.85630   1.86138   1.87918   1.89343   1.91496
 Alpha virt. eigenvalues --    1.95303   1.98212   1.99273   1.99788   2.00926
 Alpha virt. eigenvalues --    2.05203   2.06400   2.11543   2.14288   2.14711
 Alpha virt. eigenvalues --    2.16987   2.19038   2.21993   2.24243   2.26052
 Alpha virt. eigenvalues --    2.31176   2.32957   2.38202   2.39090   2.41029
 Alpha virt. eigenvalues --    2.45189   2.49394   2.51604   2.53432   2.63090
 Alpha virt. eigenvalues --    2.63352   2.65686   2.67040   2.69486   2.72976
 Alpha virt. eigenvalues --    2.73873   2.74538   2.75336   2.75791   2.82402
 Alpha virt. eigenvalues --    2.83211   2.85816   2.86127   2.86502   2.87485
 Alpha virt. eigenvalues --    2.88161   2.94259   2.96456   3.00030   3.01770
 Alpha virt. eigenvalues --    3.05779   3.07354   3.10528   3.12399   3.12614
 Alpha virt. eigenvalues --    3.21510   3.22603   3.26970   3.27686   3.28918
 Alpha virt. eigenvalues --    3.31296   3.35029   3.40683   3.44333   3.45685
 Alpha virt. eigenvalues --    3.54443   3.54807   3.55179   3.56044   3.57071
 Alpha virt. eigenvalues --    3.57913   3.63925   3.68208   3.71919   3.73277
 Alpha virt. eigenvalues --    3.75318   3.79892   3.83387   3.86622   3.91688
 Alpha virt. eigenvalues --    3.94878   3.95265   3.98794   4.01325   4.47692
 Alpha virt. eigenvalues --    4.49427   4.54558   4.80841   4.94349   4.97077
 Alpha virt. eigenvalues --    5.01871   5.06065   5.08838   5.11363   5.13263
 Alpha virt. eigenvalues --    5.13635   5.15818   5.18786   5.22452   5.23706
 Alpha virt. eigenvalues --    5.28717   5.39611   5.49832   5.55822   5.56160
 Alpha virt. eigenvalues --    5.59135   5.84472   6.74682   6.76304   6.76686
 Alpha virt. eigenvalues --    6.79624   6.83091   6.84642   6.86744   6.89537
 Alpha virt. eigenvalues --    6.92074   6.95321   6.99041   7.01102   7.02700
 Alpha virt. eigenvalues --    7.10380   7.13554   7.23819   7.28815   7.34345
 Alpha virt. eigenvalues --    7.35727   7.42685   7.69098  14.24232  14.27896
 Alpha virt. eigenvalues --   14.40685  23.82444  24.03902  24.04951  24.08531
 Alpha virt. eigenvalues --   24.12232  35.72215  50.02655  50.04223  50.06826
 Alpha virt. eigenvalues --   50.12441 163.91905
          Condensed to atoms (all electrons):
               1          2          3          4          5          6
     1  C    6.263156  -0.393169   0.253981  -0.158547  -0.406261   0.188844
     2  C   -0.393169   5.530292   0.307255   0.179776  -0.057008   0.094190
     3  C    0.253981   0.307255   5.141110  -0.124098   0.427481  -0.125369
     4  C   -0.158547   0.179776  -0.124098   8.016603  -2.383393   0.143482
     5  C   -0.406261  -0.057008   0.427481  -2.383393   7.931877   0.217366
     6  N    0.188844   0.094190  -0.125369   0.143482   0.217366   6.809841
     7  H   -0.001217  -0.015002   0.373385  -0.011870  -0.000183   0.000341
     8  H    0.440354  -0.056330   0.015570  -0.005461   0.008773  -0.061009
     9  H   -0.019348   0.376122  -0.023200   0.006593  -0.003204   0.007808
    10  H   -0.000554   0.005637  -0.028463   0.381755  -0.020710   0.007252
    11  H    0.010967  -0.010434   0.012214  -0.095398   0.471701  -0.050819
    12  P   -0.006778   0.000758   0.003102  -0.069164   0.057123  -0.013766
    13  O    0.014720   0.003508  -0.009303   0.073034  -0.028033  -0.018341
    14  O    0.001084  -0.000158  -0.000279   0.002808  -0.003531  -0.002080
    15  H    0.000115  -0.000028   0.000035  -0.000584  -0.000391   0.001029
    16  O   -0.009648  -0.001874   0.002229  -0.045675   0.004791   0.029766
    17  H   -0.011173   0.017720  -0.005999   0.025559  -0.027181   0.047349
    18  O   -0.001577  -0.000203   0.000199  -0.003746  -0.001550   0.001440
    19  H    0.000671   0.000122  -0.000008  -0.000604  -0.000917   0.000085
               7          8          9         10         11         12
     1  C   -0.001217   0.440354  -0.019348  -0.000554   0.010967  -0.006778
     2  C   -0.015002  -0.056330   0.376122   0.005637  -0.010434   0.000758
     3  C    0.373385   0.015570  -0.023200  -0.028463   0.012214   0.003102
     4  C   -0.011870  -0.005461   0.006593   0.381755  -0.095398  -0.069164
     5  C   -0.000183   0.008773  -0.003204  -0.020710   0.471701   0.057123
     6  N    0.000341  -0.061009   0.007808   0.007252  -0.050819  -0.013766
     7  H    0.524542  -0.000268  -0.004498  -0.004672  -0.000215   0.000011
     8  H   -0.000268   0.522146  -0.002686   0.000082  -0.000103  -0.000136
     9  H   -0.004498  -0.002686   0.523953  -0.000189   0.000073  -0.000001
    10  H   -0.004672   0.000082  -0.000189   0.519283  -0.001793   0.000072
    11  H   -0.000215  -0.000103   0.000073  -0.001793   0.461736   0.005318
    12  P    0.000011  -0.000136  -0.000001   0.000072   0.005318  12.504403
    13  O   -0.000000   0.000038  -0.000001   0.000006   0.000421   0.514139
    14  O    0.000000   0.000007   0.000000   0.000001  -0.000305   0.203610
    15  H   -0.000000   0.000002   0.000000  -0.000000   0.000032   0.032237
    16  O   -0.000007   0.002100   0.000045   0.000045   0.001020   0.302554
    17  H    0.000013  -0.001402  -0.000051  -0.000044   0.000150   0.012730
    18  O   -0.000000   0.000001   0.000000   0.000000   0.000256   0.209029
    19  H   -0.000000   0.000000   0.000000   0.000000   0.000019   0.002521
              13         14         15         16         17         18
     1  C    0.014720   0.001084   0.000115  -0.009648  -0.011173  -0.001577
     2  C    0.003508  -0.000158  -0.000028  -0.001874   0.017720  -0.000203
     3  C   -0.009303  -0.000279   0.000035   0.002229  -0.005999   0.000199
     4  C    0.073034   0.002808  -0.000584  -0.045675   0.025559  -0.003746
     5  C   -0.028033  -0.003531  -0.000391   0.004791  -0.027181  -0.001550
     6  N   -0.018341  -0.002080   0.001029   0.029766   0.047349   0.001440
     7  H   -0.000000   0.000000  -0.000000  -0.000007   0.000013  -0.000000
     8  H    0.000038   0.000007   0.000002   0.002100  -0.001402   0.000001
     9  H   -0.000001   0.000000   0.000000   0.000045  -0.000051   0.000000
    10  H    0.000006   0.000001  -0.000000   0.000045  -0.000044   0.000000
    11  H    0.000421  -0.000305   0.000032   0.001020   0.000150   0.000256
    12  P    0.514139   0.203610   0.032237   0.302554   0.012730   0.209029
    13  O    8.141586   0.006834   0.003040  -0.086566   0.024077  -0.018136
    14  O    0.006834   8.070010   0.226075  -0.002952  -0.001073  -0.017667
    15  H    0.003040   0.226075   0.458244  -0.012377  -0.002499  -0.014657
    16  O   -0.086566  -0.002952  -0.012377   8.290006   0.200958   0.022624
    17  H    0.024077  -0.001073  -0.002499   0.200958   0.241008  -0.000124
    18  O   -0.018136  -0.017667  -0.014657   0.022624  -0.000124   8.115206
    19  H   -0.008074   0.000431   0.002109  -0.008793   0.000965   0.263977
              19
     1  C    0.000671
     2  C    0.000122
     3  C   -0.000008
     4  C   -0.000604
     5  C   -0.000917
     6  N    0.000085
     7  H   -0.000000
     8  H    0.000000
     9  H    0.000000
    10  H    0.000000
    11  H    0.000019
    12  P    0.002521
    13  O   -0.008074
    14  O    0.000431
    15  H    0.002109
    16  O   -0.008793
    17  H    0.000965
    18  O    0.263977
    19  H    0.429429
 Mulliken charges:
               1
     1  C   -0.165618
     2  C    0.018824
     3  C   -0.219842
     4  C    0.068928
     5  C   -0.186749
     6  N   -0.277407
     7  H    0.139640
     8  H    0.138322
     9  H    0.138585
    10  H    0.142291
    11  H    0.195162
    12  P    1.242239
    13  O   -0.612948
    14  O   -0.482814
    15  H    0.307618
    16  O   -0.688247
    17  H    0.479017
    18  O   -0.555070
    19  H    0.318068
 Sum of Mulliken charges =  -0.00000
 Mulliken charges with hydrogens summed into heavy atoms:
               1
     1  C   -0.027296
     2  C    0.157410
     3  C   -0.080202
     4  C    0.211219
     5  C    0.008413
     6  N   -0.277407
    12  P    1.242239
    13  O   -0.612948
    14  O   -0.175196
    16  O   -0.209230
    18  O   -0.237002
         Mulliken charges condensed to fragments:
      1     -0.007863
      2      0.007863
 Electronic spatial extent (au):  <R**2>=         106442.5764
 Charge=              0.0000 electrons
 Dipole moment (field-independent basis, Debye):
    X=              2.1492    Y=              4.5844    Z=             -2.4555  Tot=              5.6272
 Quadrupole moment (field-independent basis, Debye-Ang):
   XX=            -18.2047   YY=             20.9679   ZZ=           -116.4755
   XY=             68.5574   XZ=             -9.4284   YZ=             31.3077
 Traceless Quadrupole moment (field-independent basis, Debye-Ang):
   XX=             19.6994   YY=             58.8720   ZZ=            -78.5714
   XY=             68.5574   XZ=             -9.4284   YZ=             31.3077
 Octapole moment (field-independent basis, Debye-Ang**2):
  XXX=          -1627.6131  YYY=           -402.3484  ZZZ=          -2710.9842  XYY=            327.3101
  XXY=            372.9359  XXZ=           -549.0725  XZZ=          -1231.9978  YZZ=           -407.0382
  YYZ=            134.5045  XYZ=            479.8827
 Hexadecapole moment (field-independent basis, Debye-Ang**3):
 XXXX=         -47817.8438 YYYY=         -14414.8673 ZZZZ=         -48758.5603 XXXY=          -8756.3014
 XXXZ=         -20305.1515 YYYX=          -4583.0984 YYYZ=          -4251.9111 ZZZX=         -31357.3273
 ZZZY=         -16599.6928 XXYY=          -1084.0967 XXZZ=         -19457.6761 YYZZ=          -4839.2973
 XXYZ=           1049.5125 YYXZ=           1947.4700 ZZXY=          -4320.6699
 N-N= 7.077885220376D+02 E-N=-3.520226371335D+03  KE= 8.896634723205D+02
 No NMR shielding tensors so no spin-rotation constants.
 Leave Link  601 at Wed Nov 23 20:03:45 2022, MaxMem=  6710886400 cpu:               2.3 elap:               0.1
 (Enter /data0/home/software/g16/l122.exe)
 CPIOFr:  IOpCl= 0 IRwI=-1 IRwCP=  731 ICalc= -1 LCPTot=      192217 Len1MO=      505607 IndFrg=      192217
 CPIOFr:  IOpCl= 0 IRwI=-1 IRwCP=  731 ICalc=  0 LCPTot=      192217 Len1MO=      505607 IndFrg=      697824
 Counterpoise: doing calculation for fragment   1 using the basis set of the full-system, NewBq=T
 Leave Link  122 at Wed Nov 23 20:03:45 2022, MaxMem=  6710886400 cpu:               0.2 elap:               0.0
 (Enter /data0/home/software/g16/l301.exe)
 Basis read from rwf:  (5D, 7F)
 No pseudopotential information found on rwf file.
   353 basis functions,   540 primitive gaussians,   375 cartesian basis functions
    21 alpha electrons       21 beta electrons
       nuclear repulsion energy       205.2271099897 Hartrees.
 IExCor= 4336 DFT=T Ex+Corr=M062X ExCW=0 ScaHFX=  0.540000
 ScaDFX=  1.000000  1.000000  1.000000  1.000000 ScalE2=  1.000000  1.000000
 IRadAn=      5 IRanWt=     -1 IRanGd=            0 ICorTp=0 IEmpDi=131
 NAtoms=   19 NActive=   19 NUniq=   19 SFac= 1.00D+00 NAtFMM=   60 NAOKFM=F Big=F
 Integral buffers will be    131072 words long.
 Raffenetti 2 integral format.
 Two-electron integral symmetry is turned off.
 R6Disp:  Grimme-D3 Dispersion energy=       -0.0000989670 Hartrees.
 Nuclear repulsion after empirical dispersion term =      205.2270110227 Hartrees.
 No density basis found on file   718.
 Leave Link  301 at Wed Nov 23 20:03:46 2022, MaxMem=  6710886400 cpu:               1.1 elap:               0.1
 (Enter /data0/home/software/g16/l302.exe)
 NPDir=0 NMtPBC=     1 NCelOv=     1 NCel=       1 NClECP=     1 NCelD=      1
         NCelK=      1 NCelE2=     1 NClLst=     1 CellRange=     0.0.
 One-electron integrals computed using PRISM.
 NBasis=   353 RedAO= T EigKep=  7.27D-06  NBF=   353
 NBsUse=   353 1.00D-06 EigRej= -1.00D+00 NBFU=   353
 Precomputing XC quadrature grid using
 IXCGrd= 4 IRadAn=           5 IRanWt=          -1 IRanGd=           0 AccXCQ= 0.00D+00.
 Generated NRdTot=       0 NPtTot=           0 NUsed=           0 NTot=          32
 NSgBfM=   375   375   375   375   375 MxSgAt=    19 MxSgA2=    19.
 Leave Link  302 at Wed Nov 23 20:03:46 2022, MaxMem=  6710886400 cpu:               5.1 elap:               0.3
 (Enter /data0/home/software/g16/l303.exe)
 DipDrv:  MaxL=1.
 Leave Link  303 at Wed Nov 23 20:03:46 2022, MaxMem=  6710886400 cpu:               0.7 elap:               0.1
 (Enter /data0/home/software/g16/l401.exe)
 ExpMin= 3.48D-02 ExpMax= 7.75D+04 ExpMxC= 2.65D+03 IAcc=3 IRadAn=         5 AccDes= 0.00D+00
 Harris functional with IExCor= 1009 and IRadAn=       5 diagonalized for initial guess.
 HarFok:  IExCor= 1009 AccDes= 0.00D+00 IRadAn=         5 IDoV= 1 UseB2=F ITyADJ=14
 ICtDFT=  3500011 ScaDFX=  1.000000  1.000000  1.000000  1.000000
 FoFCou: FMM=F IPFlag=           0 FMFlag=      100000 FMFlg1=           0
         NFxFlg=           0 DoJE=T BraDBF=F KetDBF=T FulRan=T
         wScrn=  0.000000 ICntrl=       500 IOpCl=  0 I1Cent=   200000004 NGrid=           0
         NMat0=    1 NMatS0=      1 NMatT0=    0 NMatD0=    1 NMtDS0=    0 NMtDT0=    0
 Symmetry not used in FoFCou.
 Harris En= -248.119086707457    
 JPrj=0 DoOrth=F DoCkMO=F.
 Leave Link  401 at Wed Nov 23 20:03:47 2022, MaxMem=  6710886400 cpu:              17.8 elap:               0.8
 (Enter /data0/home/software/g16/l502.exe)
 Two-electron integral symmetry not used.
 Closed shell SCF:
 Using DIIS extrapolation, IDIIS=  1040.
 NGot=  6710886400 LenX=  6710594264 LenY=  6710453198
 Requested convergence on RMS density matrix=1.00D-08 within 128 cycles.
 Requested convergence on MAX density matrix=1.00D-06.
 Requested convergence on             energy=1.00D-06.
 No special actions if energy rises.
 Fock matrices will be formed incrementally for  20 cycles.

 Cycle   1  Pass 1  IDiag  1:
 FoFJK:  IHMeth= 1 ICntrl=       0 DoSepK=F KAlg= 0 I1Cent=           0 FoldK=F
 IRaf= 850000000 NMat=       1 IRICut=       1 DoRegI=T DoRafI=F ISym2E= 0 IDoP0=0 IntGTp=1.
 FoFCou: FMM=F IPFlag=           0 FMFlag=      100000 FMFlg1=           0
         NFxFlg=           0 DoJE=F BraDBF=F KetDBF=F FulRan=T
         wScrn=  0.000000 ICntrl=         0 IOpCl=  0 I1Cent=           0 NGrid=           0
         NMat0=    1 NMatS0=      1 NMatT0=    0 NMatD0=    1 NMtDS0=    0 NMtDT0=    0
 Symmetry not used in FoFCou.
 E= -248.122012930983    
 DIIS: error= 3.31D-02 at cycle   1 NSaved=   1.
 NSaved= 1 IEnMin= 1 EnMin= -248.122012930983     IErMin= 1 ErrMin= 3.31D-02
 ErrMax= 3.31D-02  0.00D+00 EMaxC= 1.00D-01 BMatC= 1.52D-01 BMatP= 1.52D-01
 IDIUse=3 WtCom= 6.69D-01 WtEn= 3.31D-01
 Coeff-Com:  0.100D+01
 Coeff-En:   0.100D+01
 Coeff:      0.100D+01
 Gap=     0.339 Goal=   None    Shift=    0.000
 GapD=    0.339 DampG=1.000 DampE=0.500 DampFc=0.5000 IDamp=-1.
 Damping current iteration by 5.00D-01
 RMSDP=2.80D-03 MaxDP=1.92D-01              OVMax= 1.39D-01

 Cycle   2  Pass 1  IDiag  1:
 RMSU=  1.40D-03    CP:  1.00D+00
 E= -248.185931512258     Delta-E=       -0.063918581275 Rises=F Damp=T
 DIIS: error= 9.04D-03 at cycle   2 NSaved=   2.
 NSaved= 2 IEnMin= 2 EnMin= -248.185931512258     IErMin= 2 ErrMin= 9.04D-03
 ErrMax= 9.04D-03  0.00D+00 EMaxC= 1.00D-01 BMatC= 1.47D-02 BMatP= 1.52D-01
 IDIUse=3 WtCom= 9.10D-01 WtEn= 9.04D-02
 Coeff-Com: -0.223D+00 0.122D+01
 Coeff-En:   0.000D+00 0.100D+01
 Coeff:     -0.203D+00 0.120D+01
 Gap=     0.336 Goal=   None    Shift=    0.000
 RMSDP=9.17D-04 MaxDP=5.18D-02 DE=-6.39D-02 OVMax= 7.64D-02

 Cycle   3  Pass 1  IDiag  1:
 RMSU=  8.74D-04    CP:  9.70D-01  1.10D+00
 E= -248.242391415382     Delta-E=       -0.056459903124 Rises=F Damp=F
 DIIS: error= 4.93D-03 at cycle   3 NSaved=   3.
 NSaved= 3 IEnMin= 3 EnMin= -248.242391415382     IErMin= 3 ErrMin= 4.93D-03
 ErrMax= 4.93D-03  0.00D+00 EMaxC= 1.00D-01 BMatC= 2.61D-03 BMatP= 1.47D-02
 IDIUse=3 WtCom= 9.51D-01 WtEn= 4.93D-02
 Coeff-Com: -0.133D+00 0.393D+00 0.740D+00
 Coeff-En:   0.000D+00 0.000D+00 0.100D+01
 Coeff:     -0.126D+00 0.374D+00 0.752D+00
 Gap=     0.324 Goal=   None    Shift=    0.000
 RMSDP=2.61D-04 MaxDP=2.92D-02 DE=-5.65D-02 OVMax= 2.30D-02

 Cycle   4  Pass 1  IDiag  1:
 RMSU=  2.27D-04    CP:  9.56D-01  1.04D+00  1.04D+00
 E= -248.244635537014     Delta-E=       -0.002244121632 Rises=F Damp=F
 DIIS: error= 2.34D-03 at cycle   4 NSaved=   4.
 NSaved= 4 IEnMin= 4 EnMin= -248.244635537014     IErMin= 4 ErrMin= 2.34D-03
 ErrMax= 2.34D-03  0.00D+00 EMaxC= 1.00D-01 BMatC= 2.72D-04 BMatP= 2.61D-03
 IDIUse=3 WtCom= 9.77D-01 WtEn= 2.34D-02
 Coeff-Com: -0.450D-01 0.112D+00 0.321D+00 0.612D+00
 Coeff-En:   0.000D+00 0.000D+00 0.000D+00 0.100D+01
 Coeff:     -0.440D-01 0.109D+00 0.313D+00 0.621D+00
 Gap=     0.317 Goal=   None    Shift=    0.000
 RMSDP=6.38D-05 MaxDP=3.78D-03 DE=-2.24D-03 OVMax= 9.06D-03

 Cycle   5  Pass 1  IDiag  1:
 RMSU=  4.31D-05    CP:  9.58D-01  1.05D+00  1.01D+00  8.36D-01
 E= -248.244880088922     Delta-E=       -0.000244551909 Rises=F Damp=F
 DIIS: error= 8.74D-04 at cycle   5 NSaved=   5.
 NSaved= 5 IEnMin= 5 EnMin= -248.244880088922     IErMin= 5 ErrMin= 8.74D-04
 ErrMax= 8.74D-04  0.00D+00 EMaxC= 1.00D-01 BMatC= 3.83D-05 BMatP= 2.72D-04
 IDIUse=3 WtCom= 9.91D-01 WtEn= 8.74D-03
 Coeff-Com: -0.115D-01 0.232D-01 0.955D-01 0.319D+00 0.573D+00
 Coeff-En:   0.000D+00 0.000D+00 0.000D+00 0.685D-01 0.931D+00
 Coeff:     -0.114D-01 0.230D-01 0.946D-01 0.317D+00 0.576D+00
 Gap=     0.317 Goal=   None    Shift=    0.000
 RMSDP=3.23D-05 MaxDP=1.36D-03 DE=-2.45D-04 OVMax= 2.53D-03

 Cycle   6  Pass 1  IDiag  1:
 RMSU=  2.12D-05    CP:  9.58D-01  1.04D+00  1.03D+00  8.34D-01  6.86D-01
 E= -248.244918841934     Delta-E=       -0.000038753011 Rises=F Damp=F
 DIIS: error= 1.39D-04 at cycle   6 NSaved=   6.
 NSaved= 6 IEnMin= 6 EnMin= -248.244918841934     IErMin= 6 ErrMin= 1.39D-04
 ErrMax= 1.39D-04  0.00D+00 EMaxC= 1.00D-01 BMatC= 1.72D-06 BMatP= 3.83D-05
 IDIUse=3 WtCom= 9.99D-01 WtEn= 1.39D-03
 Coeff-Com: -0.360D-02 0.659D-02 0.322D-01 0.122D+00 0.270D+00 0.573D+00
 Coeff-En:   0.000D+00 0.000D+00 0.000D+00 0.000D+00 0.000D+00 0.100D+01
 Coeff:     -0.359D-02 0.658D-02 0.321D-01 0.122D+00 0.270D+00 0.573D+00
 Gap=     0.317 Goal=   None    Shift=    0.000
 RMSDP=4.33D-06 MaxDP=2.44D-04 DE=-3.88D-05 OVMax= 6.14D-04

 Cycle   7  Pass 1  IDiag  1:
 RMSU=  3.51D-06    CP:  9.58D-01  1.04D+00  1.03D+00  8.30D-01  7.22D-01
                    CP:  1.04D+00
 E= -248.244920296580     Delta-E=       -0.000001454647 Rises=F Damp=F
 DIIS: error= 2.81D-05 at cycle   7 NSaved=   7.
 NSaved= 7 IEnMin= 7 EnMin= -248.244920296580     IErMin= 7 ErrMin= 2.81D-05
 ErrMax= 2.81D-05  0.00D+00 EMaxC= 1.00D-01 BMatC= 1.85D-07 BMatP= 1.72D-06
 IDIUse=1 WtCom= 1.00D+00 WtEn= 0.00D+00
 Coeff-Com:  0.147D-02-0.323D-02-0.104D-01-0.315D-01-0.320D-01 0.226D+00
 Coeff-Com:  0.850D+00
 Coeff:      0.147D-02-0.323D-02-0.104D-01-0.315D-01-0.320D-01 0.226D+00
 Coeff:      0.850D+00
 Gap=     0.317 Goal=   None    Shift=    0.000
 RMSDP=4.53D-06 MaxDP=2.03D-04 DE=-1.45D-06 OVMax= 1.28D-04

 Cycle   8  Pass 1  IDiag  1:
 RMSU=  1.12D-06    CP:  9.58D-01  1.04D+00  1.03D+00  8.30D-01  7.26D-01
                    CP:  1.18D+00  9.69D-01
 E= -248.244920465585     Delta-E=       -0.000000169005 Rises=F Damp=F
 DIIS: error= 4.53D-06 at cycle   8 NSaved=   8.
 NSaved= 8 IEnMin= 8 EnMin= -248.244920465585     IErMin= 8 ErrMin= 4.53D-06
 ErrMax= 4.53D-06  0.00D+00 EMaxC= 1.00D-01 BMatC= 3.46D-09 BMatP= 1.85D-07
 IDIUse=1 WtCom= 1.00D+00 WtEn= 0.00D+00
 Coeff-Com:  0.374D-03-0.804D-03-0.280D-02-0.951D-02-0.141D-01 0.377D-01
 Coeff-Com:  0.133D+00 0.856D+00
 Coeff:      0.374D-03-0.804D-03-0.280D-02-0.951D-02-0.141D-01 0.377D-01
 Coeff:      0.133D+00 0.856D+00
 Gap=     0.317 Goal=   None    Shift=    0.000
 RMSDP=3.64D-07 MaxDP=1.64D-05 DE=-1.69D-07 OVMax= 2.38D-05

 Cycle   9  Pass 1  IDiag  1:
 RMSU=  2.27D-07    CP:  9.58D-01  1.04D+00  1.03D+00  8.29D-01  7.25D-01
                    CP:  1.19D+00  9.81D-01  1.12D+00
 E= -248.244920469035     Delta-E=       -0.000000003450 Rises=F Damp=F
 DIIS: error= 3.02D-06 at cycle   9 NSaved=   9.
 NSaved= 9 IEnMin= 9 EnMin= -248.244920469035     IErMin= 9 ErrMin= 3.02D-06
 ErrMax= 3.02D-06  0.00D+00 EMaxC= 1.00D-01 BMatC= 1.06D-09 BMatP= 3.46D-09
 IDIUse=1 WtCom= 1.00D+00 WtEn= 0.00D+00
 Coeff-Com: -0.723D-04 0.161D-03 0.489D-03 0.769D-03-0.733D-03-0.106D-01
 Coeff-Com: -0.716D-01 0.364D+00 0.717D+00
 Coeff:     -0.723D-04 0.161D-03 0.489D-03 0.769D-03-0.733D-03-0.106D-01
 Coeff:     -0.716D-01 0.364D+00 0.717D+00
 Gap=     0.317 Goal=   None    Shift=    0.000
 RMSDP=1.31D-07 MaxDP=6.34D-06 DE=-3.45D-09 OVMax= 1.86D-05

 Cycle  10  Pass 1  IDiag  1:
 RMSU=  9.14D-08    CP:  9.58D-01  1.04D+00  1.03D+00  8.29D-01  7.24D-01
                    CP:  1.19D+00  9.78D-01  1.17D+00  1.06D+00
 E= -248.244920470343     Delta-E=       -0.000000001308 Rises=F Damp=F
 DIIS: error= 5.42D-07 at cycle  10 NSaved=  10.
 NSaved=10 IEnMin=10 EnMin= -248.244920470343     IErMin=10 ErrMin= 5.42D-07
 ErrMax= 5.42D-07  0.00D+00 EMaxC= 1.00D-01 BMatC= 7.02D-11 BMatP= 1.06D-09
 IDIUse=1 WtCom= 1.00D+00 WtEn= 0.00D+00
 Coeff-Com: -0.148D-04 0.342D-04 0.155D-03 0.344D-03 0.638D-03-0.494D-04
 Coeff-Com: -0.971D-02-0.953D-01 0.605D-01 0.104D+01
 Coeff:     -0.148D-04 0.342D-04 0.155D-03 0.344D-03 0.638D-03-0.494D-04
 Coeff:     -0.971D-02-0.953D-01 0.605D-01 0.104D+01
 Gap=     0.317 Goal=   None    Shift=    0.000
 RMSDP=4.73D-08 MaxDP=2.03D-06 DE=-1.31D-09 OVMax= 5.60D-06

 Cycle  11  Pass 1  IDiag  1:
 RMSU=  3.12D-08    CP:  9.58D-01  1.04D+00  1.03D+00  8.29D-01  7.24D-01
                    CP:  1.19D+00  9.76D-01  1.19D+00  1.17D+00  1.12D+00
 E= -248.244920470420     Delta-E=       -0.000000000078 Rises=F Damp=F
 DIIS: error= 4.04D-07 at cycle  11 NSaved=  11.
 NSaved=11 IEnMin=11 EnMin= -248.244920470420     IErMin=11 ErrMin= 4.04D-07
 ErrMax= 4.04D-07  0.00D+00 EMaxC= 1.00D-01 BMatC= 1.23D-11 BMatP= 7.02D-11
 IDIUse=1 WtCom= 1.00D+00 WtEn= 0.00D+00
 Coeff-Com: -0.226D-05 0.590D-05 0.499D-04 0.128D-03 0.403D-03 0.967D-03
 Coeff-Com: -0.216D-03-0.844D-01-0.147D-01 0.571D+00 0.527D+00
 Coeff:     -0.226D-05 0.590D-05 0.499D-04 0.128D-03 0.403D-03 0.967D-03
 Coeff:     -0.216D-03-0.844D-01-0.147D-01 0.571D+00 0.527D+00
 Gap=     0.317 Goal=   None    Shift=    0.000
 RMSDP=1.07D-08 MaxDP=5.72D-07 DE=-7.77D-11 OVMax= 1.72D-06

 Cycle  12  Pass 1  IDiag  1:
 RMSU=  9.10D-09    CP:  9.58D-01  1.04D+00  1.03D+00  8.29D-01  7.24D-01
                    CP:  1.19D+00  9.76D-01  1.19D+00  1.18D+00  1.15D+00
                    CP:  1.06D+00
 E= -248.244920470426     Delta-E=       -0.000000000006 Rises=F Damp=F
 DIIS: error= 7.36D-08 at cycle  12 NSaved=  12.
 NSaved=12 IEnMin=12 EnMin= -248.244920470426     IErMin=12 ErrMin= 7.36D-08
 ErrMax= 7.36D-08  0.00D+00 EMaxC= 1.00D-01 BMatC= 4.25D-13 BMatP= 1.23D-11
 IDIUse=1 WtCom= 1.00D+00 WtEn= 0.00D+00
 Coeff-Com:  0.155D-05-0.332D-05-0.672D-05-0.878D-05 0.242D-04 0.387D-03
 Coeff-Com:  0.117D-02-0.943D-02-0.666D-02-0.356D-02 0.135D+00 0.883D+00
 Coeff:      0.155D-05-0.332D-05-0.672D-05-0.878D-05 0.242D-04 0.387D-03
 Coeff:      0.117D-02-0.943D-02-0.666D-02-0.356D-02 0.135D+00 0.883D+00
 Gap=     0.317 Goal=   None    Shift=    0.000
 RMSDP=4.50D-09 MaxDP=3.39D-07 DE=-5.97D-12 OVMax= 3.97D-07

 SCF Done:  E(RM062X) =  -248.244920470     A.U. after   12 cycles
            NFock= 12  Conv=0.45D-08     -V/T= 2.0048
 KE= 2.470602814056D+02 PE=-9.869267802845D+02 EE= 2.863945673858D+02
 Leave Link  502 at Wed Nov 23 20:04:17 2022, MaxMem=  6710886400 cpu:             667.1 elap:              30.5
 (Enter /data0/home/software/g16/l601.exe)
 Copying SCF densities to generalized density rwf, IOpCl= 0 IROHF=0.

 **********************************************************************

            Population analysis using the SCF density.

 **********************************************************************

 Alpha  occ. eigenvalues --  -14.75047 -10.58411 -10.58329 -10.56650 -10.55701
 Alpha  occ. eigenvalues --  -10.55697  -1.04984  -0.90686  -0.86236  -0.71810
 Alpha  occ. eigenvalues --   -0.71443  -0.60851  -0.55190  -0.54684  -0.50119
 Alpha  occ. eigenvalues --   -0.47395  -0.47250  -0.43070  -0.34789  -0.32531
 Alpha  occ. eigenvalues --   -0.32087
 Alpha virt. eigenvalues --   -0.00345   0.00687   0.00867   0.02183   0.02557
 Alpha virt. eigenvalues --    0.04148   0.04399   0.04691   0.06242   0.07131
 Alpha virt. eigenvalues --    0.07293   0.07609   0.09223   0.09537   0.10683
 Alpha virt. eigenvalues --    0.11179   0.13302   0.13391   0.13508   0.14091
 Alpha virt. eigenvalues --    0.14349   0.14891   0.15761   0.18205   0.18844
 Alpha virt. eigenvalues --    0.19053   0.19453   0.20027   0.20670   0.21140
 Alpha virt. eigenvalues --    0.21674   0.22000   0.22559   0.22749   0.23319
 Alpha virt. eigenvalues --    0.24205   0.24794   0.25480   0.26214   0.26807
 Alpha virt. eigenvalues --    0.27392   0.28670   0.29325   0.30105   0.30403
 Alpha virt. eigenvalues --    0.31512   0.31875   0.32743   0.33470   0.34423
 Alpha virt. eigenvalues --    0.35233   0.35634   0.35991   0.36897   0.38150
 Alpha virt. eigenvalues --    0.38861   0.38886   0.41020   0.42368   0.44491
 Alpha virt. eigenvalues --    0.45498   0.47144   0.49160   0.50002   0.50621
 Alpha virt. eigenvalues --    0.52150   0.53740   0.54840   0.55442   0.55995
 Alpha virt. eigenvalues --    0.56517   0.60440   0.61247   0.64130   0.64984
 Alpha virt. eigenvalues --    0.66781   0.66835   0.67387   0.68250   0.69184
 Alpha virt. eigenvalues --    0.69970   0.72112   0.72787   0.74041   0.74576
 Alpha virt. eigenvalues --    0.74809   0.76521   0.76626   0.78076   0.79607
 Alpha virt. eigenvalues --    0.79850   0.80870   0.81785   0.83083   0.83531
 Alpha virt. eigenvalues --    0.84101   0.84474   0.85666   0.87383   0.87529
 Alpha virt. eigenvalues --    0.88061   0.88912   0.90883   0.91225   0.91702
 Alpha virt. eigenvalues --    0.92849   0.94200   0.95686   0.96838   0.98904
 Alpha virt. eigenvalues --    0.99692   1.03708   1.05161   1.06463   1.08799
 Alpha virt. eigenvalues --    1.11301   1.12669   1.13508   1.16496   1.17099
 Alpha virt. eigenvalues --    1.20144   1.21127   1.21541   1.21722   1.25280
 Alpha virt. eigenvalues --    1.27795   1.28455   1.29734   1.32967   1.33706
 Alpha virt. eigenvalues --    1.35270   1.36132   1.38429   1.39150   1.39679
 Alpha virt. eigenvalues --    1.41204   1.45381   1.46289   1.47841   1.49755
 Alpha virt. eigenvalues --    1.51146   1.53428   1.54376   1.54978   1.58731
 Alpha virt. eigenvalues --    1.62393   1.63332   1.65577   1.68353   1.73787
 Alpha virt. eigenvalues --    1.83920   1.87471   1.89845   1.93029   1.94417
 Alpha virt. eigenvalues --    1.96668   1.98712   2.01893   2.02140   2.05295
 Alpha virt. eigenvalues --    2.12544   2.16073   2.17334   2.17721   2.20582
 Alpha virt. eigenvalues --    2.23591   2.27424   2.29904   2.35100   2.38738
 Alpha virt. eigenvalues --    2.40396   2.42008   2.43256   2.44230   2.46912
 Alpha virt. eigenvalues --    2.49648   2.52908   2.54251   2.56849   2.57649
 Alpha virt. eigenvalues --    2.62570   2.63994   2.65388   2.65870   2.67928
 Alpha virt. eigenvalues --    2.68841   2.71603   2.72165   2.74647   2.75634
 Alpha virt. eigenvalues --    2.76076   2.76602   2.77520   2.78425   2.81987
 Alpha virt. eigenvalues --    2.83045   2.83905   2.86098   2.87391   2.87680
 Alpha virt. eigenvalues --    2.88137   2.89836   2.91056   2.92645   2.95187
 Alpha virt. eigenvalues --    2.97563   3.01353   3.02880   3.03863   3.04567
 Alpha virt. eigenvalues --    3.07713   3.08234   3.08839   3.12247   3.12728
 Alpha virt. eigenvalues --    3.14256   3.14524   3.15736   3.18563   3.22979
 Alpha virt. eigenvalues --    3.23905   3.24423   3.27433   3.28395   3.28790
 Alpha virt. eigenvalues --    3.29289   3.29837   3.32619   3.34180   3.37054
 Alpha virt. eigenvalues --    3.40957   3.42521   3.45923   3.47771   3.49173
 Alpha virt. eigenvalues --    3.55631   3.56682   3.56851   3.57859   3.59392
 Alpha virt. eigenvalues --    3.59478   3.65526   3.68866   3.71285   3.74186
 Alpha virt. eigenvalues --    3.75680   3.76902   3.77800   3.80925   3.86123
 Alpha virt. eigenvalues --    3.86603   3.89871   3.94075   3.96496   3.97274
 Alpha virt. eigenvalues --    4.01352   4.04718   4.43939   4.44555   4.49873
 Alpha virt. eigenvalues --    4.51076   4.52300   4.57169   4.62517   4.67328
 Alpha virt. eigenvalues --    4.82306   4.85099   4.93756   4.94162   4.96879
 Alpha virt. eigenvalues --    5.00891   5.01554   5.05325   5.24783   5.29880
 Alpha virt. eigenvalues --    5.61787   5.72098   9.68584   9.78912   9.80669
 Alpha virt. eigenvalues --    9.90932   9.99186  10.02240  10.09720  10.12767
 Alpha virt. eigenvalues --   10.21622  10.23909  10.25160  10.29787  10.31691
 Alpha virt. eigenvalues --   10.33711  10.34827  10.39840  10.42544  10.47541
 Alpha virt. eigenvalues --   10.57558  10.60235  10.66438  10.76887  10.81532
 Alpha virt. eigenvalues --   12.64986  12.78566  13.15089  13.17178  13.25263
 Alpha virt. eigenvalues --   13.37496  13.41576  13.44072  13.56812  13.62268
 Alpha virt. eigenvalues --   13.87443  13.92451  14.09415  17.45702  18.15203
 Alpha virt. eigenvalues --   18.43078  18.47181  23.84191  24.05592  24.06754
 Alpha virt. eigenvalues --   24.10338  24.14004  35.75597  52.11511  52.15922
 Alpha virt. eigenvalues --   52.29812  69.75254 129.15469 137.26136 139.45707
 Alpha virt. eigenvalues --  139.63575 469.95218
          Condensed to atoms (all electrons):
               1          2          3          4          5          6
     1  C    5.142630   0.350610   0.139263  -0.240565   0.092703   0.213326
     2  C    0.350610   4.863711   0.459401   0.057314  -0.112726   0.094762
     3  C    0.139263   0.459401   4.856982   0.313653   0.213261  -0.126539
     4  C   -0.240565   0.057314   0.313653   5.292959   0.136483   0.121143
     5  C    0.092703  -0.112726   0.213261   0.136483   5.170773   0.254115
     6  N    0.213326   0.094762  -0.126539   0.121143   0.254115   6.823528
     7  H   -0.001996  -0.014641   0.368079  -0.007082  -0.000193   0.000388
     8  H    0.459167  -0.079930   0.022042  -0.010314   0.011944  -0.071447
     9  H   -0.020233   0.369031  -0.017068   0.009494  -0.005282   0.006514
    10  H   -0.000285   0.004621  -0.012392   0.366128  -0.021631   0.005499
    11  H    0.015702  -0.013497   0.024360  -0.073117   0.443082  -0.073552
    12  P    0.000251  -0.000307   0.000285  -0.005581   0.002419  -0.006816
    13  O   -0.000608   0.000479  -0.000253   0.001316  -0.001859   0.004990
    14  O    0.000336  -0.000423   0.000194  -0.000942   0.000717  -0.003074
    15  H    0.000016   0.000004   0.000001  -0.000014  -0.000039   0.000108
    16  O   -0.003557   0.004015  -0.001332   0.004721  -0.003215   0.043206
    17  H    0.011860  -0.008318   0.002034  -0.005916   0.008249  -0.096113
    18  O   -0.000058   0.000083  -0.000030   0.000151  -0.000003   0.000526
    19  H   -0.000009   0.000004  -0.000002   0.000000  -0.000040   0.000082
               7          8          9         10         11         12
     1  C   -0.001996   0.459167  -0.020233  -0.000285   0.015702   0.000251
     2  C   -0.014641  -0.079930   0.369031   0.004621  -0.013497  -0.000307
     3  C    0.368079   0.022042  -0.017068  -0.012392   0.024360   0.000285
     4  C   -0.007082  -0.010314   0.009494   0.366128  -0.073117  -0.005581
     5  C   -0.000193   0.011944  -0.005282  -0.021631   0.443082   0.002419
     6  N    0.000388  -0.071447   0.006514   0.005499  -0.073552  -0.006816
     7  H    0.532474  -0.000292  -0.004724  -0.004816  -0.000284   0.000010
     8  H   -0.000292   0.539238  -0.002054   0.000098  -0.000037  -0.000030
     9  H   -0.004724  -0.002054   0.531991  -0.000202   0.000106   0.000007
    10  H   -0.004816   0.000098  -0.000202   0.531906  -0.001614   0.000048
    11  H   -0.000284  -0.000037   0.000106  -0.001614   0.538038   0.001145
    12  P    0.000010  -0.000030   0.000007   0.000048   0.001145   0.005029
    13  O   -0.000000  -0.000003  -0.000001  -0.000015  -0.001940  -0.002001
    14  O    0.000000   0.000015   0.000000   0.000001   0.000232  -0.000288
    15  H   -0.000000  -0.000001  -0.000000  -0.000000  -0.000001   0.000030
    16  O   -0.000004   0.000392  -0.000003  -0.000008  -0.000260  -0.001956
    17  H    0.000008   0.000834   0.000052   0.000056   0.001674   0.001638
    18  O   -0.000000  -0.000002   0.000000  -0.000000   0.000014  -0.001064
    19  H    0.000000  -0.000001  -0.000000  -0.000000  -0.000005  -0.000025
              13         14         15         16         17         18
     1  C   -0.000608   0.000336   0.000016  -0.003557   0.011860  -0.000058
     2  C    0.000479  -0.000423   0.000004   0.004015  -0.008318   0.000083
     3  C   -0.000253   0.000194   0.000001  -0.001332   0.002034  -0.000030
     4  C    0.001316  -0.000942  -0.000014   0.004721  -0.005916   0.000151
     5  C   -0.001859   0.000717  -0.000039  -0.003215   0.008249  -0.000003
     6  N    0.004990  -0.003074   0.000108   0.043206  -0.096113   0.000526
     7  H   -0.000000   0.000000  -0.000000  -0.000004   0.000008  -0.000000
     8  H   -0.000003   0.000015  -0.000001   0.000392   0.000834  -0.000002
     9  H   -0.000001   0.000000  -0.000000  -0.000003   0.000052   0.000000
    10  H   -0.000015   0.000001  -0.000000  -0.000008   0.000056  -0.000000
    11  H   -0.001940   0.000232  -0.000001  -0.000260   0.001674   0.000014
    12  P   -0.002001  -0.000288   0.000030  -0.001956   0.001638  -0.001064
    13  O    0.002405  -0.000954   0.000005   0.001230  -0.001501   0.000205
    14  O   -0.000954   0.002825  -0.000209  -0.001928   0.001885  -0.000799
    15  H    0.000005  -0.000209   0.000084   0.000125  -0.000088   0.000032
    16  O    0.001230  -0.001928   0.000125   0.010664  -0.012783   0.000899
    17  H   -0.001501   0.001885  -0.000088  -0.012783   0.018895  -0.000723
    18  O    0.000205  -0.000799   0.000032   0.000899  -0.000723   0.001351
    19  H   -0.000013  -0.000010   0.000001   0.000007  -0.000011   0.000001
              19
     1  C   -0.000009
     2  C    0.000004
     3  C   -0.000002
     4  C    0.000000
     5  C   -0.000040
     6  N    0.000082
     7  H    0.000000
     8  H   -0.000001
     9  H   -0.000000
    10  H   -0.000000
    11  H   -0.000005
    12  P   -0.000025
    13  O   -0.000013
    14  O   -0.000010
    15  H    0.000001
    16  O    0.000007
    17  H   -0.000011
    18  O    0.000001
    19  H    0.000043
 Mulliken charges:
               1
     1  C   -0.158554
     2  C    0.025806
     3  C   -0.241939
     4  C    0.040169
     5  C   -0.188759
     6  N   -0.190647
     7  H    0.133074
     8  H    0.130378
     9  H    0.132373
    10  H    0.132606
    11  H    0.139952
    12  P    0.007205
    13  O   -0.001482
    14  O    0.002420
    15  H   -0.000052
    16  O   -0.040213
    17  H    0.078269
    18  O   -0.000583
    19  H   -0.000023
 Sum of Mulliken charges =  -0.00000
 Mulliken charges with hydrogens summed into heavy atoms:
               1
     1  C   -0.028175
     2  C    0.158179
     3  C   -0.108865
     4  C    0.172775
     5  C   -0.048806
     6  N   -0.190647
    12  P    0.007205
    13  O   -0.001482
    14  O    0.002368
    16  O    0.038056
    18  O   -0.000607
         Mulliken charges condensed to fragments:
      1     -0.045540
      2      0.045540
 Electronic spatial extent (au):  <R**2>=          56311.7900
 Charge=             -0.0000 electrons
 Dipole moment (field-independent basis, Debye):
    X=             -0.3416    Y=              2.1505    Z=              0.5500  Tot=              2.2458
 Quadrupole moment (field-independent basis, Debye-Ang):
   XX=            -44.8106   YY=             12.4008   ZZ=            -21.1301
   XY=             23.7737   XZ=             -0.3629   YZ=             25.3192
 Traceless Quadrupole moment (field-independent basis, Debye-Ang):
   XX=            -26.9639   YY=             30.2475   ZZ=             -3.2835
   XY=             23.7737   XZ=             -0.3629   YZ=             25.3192
 Octapole moment (field-independent basis, Debye-Ang**2):
  XXX=          -1505.8586  YYY=           -376.8112  ZZZ=           -774.6412  XYY=            129.9318
  XXY=           -148.2575  XXZ=           -447.4886  XZZ=           -368.2992  YZZ=            -67.4490
  YYZ=            154.6209  XYZ=            242.4145
 Hexadecapole moment (field-independent basis, Debye-Ang**3):
 XXXX=         -36064.3822 YYYY=         -14410.5808 ZZZZ=         -16333.1404 XXXY=         -12342.1022
 XXXZ=         -15344.0893 YYYX=          -4858.6674 YYYZ=          -3416.0887 ZZZX=         -10944.6267
 ZZZY=          -7194.7313 XXYY=          -3312.3391 XXZZ=          -9380.0921 YYZZ=          -2237.1124
 XXYZ=          -1845.9352 YYXZ=           1208.4202 ZZXY=          -1942.0706
 N-N= 2.052270110227D+02 E-N=-9.869267816817D+02  KE= 2.470602814056D+02
 No NMR shielding tensors so no spin-rotation constants.
 Leave Link  601 at Wed Nov 23 20:04:17 2022, MaxMem=  6710886400 cpu:               2.3 elap:               0.1
 (Enter /data0/home/software/g16/l122.exe)
 CPIOFr:  IOpCl= 0 IRwI=-1 IRwCP=  731 ICalc=  1 LCPTot=      192217 Len1MO=      505607 IndFrg=     1203431
 Counterpoise: doing calculation for fragment   2 using the basis set of the full-system, NewBq=T
 Leave Link  122 at Wed Nov 23 20:04:17 2022, MaxMem=  6710886400 cpu:               0.1 elap:               0.0
 (Enter /data0/home/software/g16/l301.exe)
 Basis read from rwf:  (5D, 7F)
 No pseudopotential information found on rwf file.
   353 basis functions,   540 primitive gaussians,   375 cartesian basis functions
    25 alpha electrons       25 beta electrons
       nuclear repulsion energy       280.2954501316 Hartrees.
 IExCor= 4336 DFT=T Ex+Corr=M062X ExCW=0 ScaHFX=  0.540000
 ScaDFX=  1.000000  1.000000  1.000000  1.000000 ScalE2=  1.000000  1.000000
 IRadAn=      5 IRanWt=     -1 IRanGd=            0 ICorTp=0 IEmpDi=131
 NAtoms=   19 NActive=   19 NUniq=   19 SFac= 1.00D+00 NAtFMM=   60 NAOKFM=F Big=F
 Integral buffers will be    131072 words long.
 Raffenetti 2 integral format.
 Two-electron integral symmetry is turned off.
 R6Disp:  Grimme-D3 Dispersion energy=       -0.0000430241 Hartrees.
 Nuclear repulsion after empirical dispersion term =      280.2954071075 Hartrees.
 No density basis found on file   718.
 Leave Link  301 at Wed Nov 23 20:04:17 2022, MaxMem=  6710886400 cpu:               1.2 elap:               0.1
 (Enter /data0/home/software/g16/l302.exe)
 NPDir=0 NMtPBC=     1 NCelOv=     1 NCel=       1 NClECP=     1 NCelD=      1
         NCelK=      1 NCelE2=     1 NClLst=     1 CellRange=     0.0.
 One-electron integrals computed using PRISM.
 NBasis=   353 RedAO= T EigKep=  7.27D-06  NBF=   353
 NBsUse=   353 1.00D-06 EigRej= -1.00D+00 NBFU=   353
 Precomputing XC quadrature grid using
 IXCGrd= 4 IRadAn=           5 IRanWt=          -1 IRanGd=           0 AccXCQ= 0.00D+00.
 Generated NRdTot=       0 NPtTot=           0 NUsed=           0 NTot=          32
 NSgBfM=   375   375   375   375   375 MxSgAt=    19 MxSgA2=    19.
 Leave Link  302 at Wed Nov 23 20:04:18 2022, MaxMem=  6710886400 cpu:               5.2 elap:               0.3
 (Enter /data0/home/software/g16/l303.exe)
 DipDrv:  MaxL=1.
 Leave Link  303 at Wed Nov 23 20:04:18 2022, MaxMem=  6710886400 cpu:               0.7 elap:               0.1
 (Enter /data0/home/software/g16/l401.exe)
 ExpMin= 3.48D-02 ExpMax= 7.75D+04 ExpMxC= 2.65D+03 IAcc=3 IRadAn=         5 AccDes= 0.00D+00
 Harris functional with IExCor= 1009 and IRadAn=       5 diagonalized for initial guess.
 HarFok:  IExCor= 1009 AccDes= 0.00D+00 IRadAn=         5 IDoV= 1 UseB2=F ITyADJ=14
 ICtDFT=  3500011 ScaDFX=  1.000000  1.000000  1.000000  1.000000
 FoFCou: FMM=F IPFlag=           0 FMFlag=      100000 FMFlg1=           0
         NFxFlg=           0 DoJE=T BraDBF=F KetDBF=T FulRan=T
         wScrn=  0.000000 ICntrl=       500 IOpCl=  0 I1Cent=   200000004 NGrid=           0
         NMat0=    1 NMatS0=      1 NMatT0=    0 NMatD0=    1 NMtDS0=    0 NMtDT0=    0
 Symmetry not used in FoFCou.
 Harris En= -643.945340639511    
 JPrj=0 DoOrth=F DoCkMO=F.
 Leave Link  401 at Wed Nov 23 20:04:19 2022, MaxMem=  6710886400 cpu:              17.8 elap:               0.8
 (Enter /data0/home/software/g16/l502.exe)
 Two-electron integral symmetry not used.
 Closed shell SCF:
 Using DIIS extrapolation, IDIIS=  1040.
 NGot=  6710886400 LenX=  6710594264 LenY=  6710453198
 Requested convergence on RMS density matrix=1.00D-08 within 128 cycles.
 Requested convergence on MAX density matrix=1.00D-06.
 Requested convergence on             energy=1.00D-06.
 No special actions if energy rises.
 Fock matrices will be formed incrementally for  20 cycles.

 Cycle   1  Pass 1  IDiag  1:
 FoFJK:  IHMeth= 1 ICntrl=       0 DoSepK=F KAlg= 0 I1Cent=           0 FoldK=F
 IRaf= 850000000 NMat=       1 IRICut=       1 DoRegI=T DoRafI=F ISym2E= 0 IDoP0=0 IntGTp=1.
 FoFCou: FMM=F IPFlag=           0 FMFlag=      100000 FMFlg1=           0
         NFxFlg=           0 DoJE=F BraDBF=F KetDBF=F FulRan=T
         wScrn=  0.000000 ICntrl=         0 IOpCl=  0 I1Cent=           0 NGrid=           0
         NMat0=    1 NMatS0=      1 NMatT0=    0 NMatD0=    1 NMtDS0=    0 NMtDT0=    0
 Symmetry not used in FoFCou.
 E= -643.870316307129    
 DIIS: error= 2.98D-02 at cycle   1 NSaved=   1.
 NSaved= 1 IEnMin= 1 EnMin= -643.870316307129     IErMin= 1 ErrMin= 2.98D-02
 ErrMax= 2.98D-02  0.00D+00 EMaxC= 1.00D-01 BMatC= 5.05D-01 BMatP= 5.05D-01
 IDIUse=3 WtCom= 7.02D-01 WtEn= 2.98D-01
 Coeff-Com:  0.100D+01
 Coeff-En:   0.100D+01
 Coeff:      0.100D+01
 Gap=     0.297 Goal=   None    Shift=    0.000
 GapD=    0.297 DampG=1.000 DampE=0.500 DampFc=0.5000 IDamp=-1.
 Damping current iteration by 5.00D-01
 RMSDP=5.76D-03 MaxDP=4.35D-01              OVMax= 2.45D-01

 Cycle   2  Pass 1  IDiag  1:
 RMSU=  2.83D-03    CP:  1.04D+00
 E= -643.987038128326     Delta-E=       -0.116721821197 Rises=F Damp=T
 DIIS: error= 7.66D-03 at cycle   2 NSaved=   2.
 NSaved= 2 IEnMin= 2 EnMin= -643.987038128326     IErMin= 2 ErrMin= 7.66D-03
 ErrMax= 7.66D-03  0.00D+00 EMaxC= 1.00D-01 BMatC= 2.61D-02 BMatP= 5.05D-01
 IDIUse=3 WtCom= 9.23D-01 WtEn= 7.66D-02
 Coeff-Com:  0.656D-01 0.934D+00
 Coeff-En:   0.193D+00 0.807D+00
 Coeff:      0.753D-01 0.925D+00
 Gap=     0.363 Goal=   None    Shift=    0.000
 RMSDP=1.80D-03 MaxDP=2.17D-01 DE=-1.17D-01 OVMax= 1.51D-01

 Cycle   3  Pass 1  IDiag  1:
 RMSU=  1.26D-03    CP:  9.55D-01  7.74D-01
 E= -644.148137460810     Delta-E=       -0.161099332484 Rises=F Damp=F
 DIIS: error= 4.84D-03 at cycle   3 NSaved=   3.
 NSaved= 3 IEnMin= 3 EnMin= -644.148137460810     IErMin= 3 ErrMin= 4.84D-03
 ErrMax= 4.84D-03  0.00D+00 EMaxC= 1.00D-01 BMatC= 9.60D-03 BMatP= 2.61D-02
 IDIUse=3 WtCom= 9.52D-01 WtEn= 4.84D-02
 Coeff-Com: -0.189D-01 0.335D+00 0.684D+00
 Coeff-En:   0.000D+00 0.000D+00 0.100D+01
 Coeff:     -0.179D-01 0.318D+00 0.700D+00
 Gap=     0.355 Goal=   None    Shift=    0.000
 RMSDP=6.28D-04 MaxDP=7.26D-02 DE=-1.61D-01 OVMax= 3.34D-02

 Cycle   4  Pass 1  IDiag  1:
 RMSU=  5.25D-04    CP:  9.31D-01  7.89D-01  1.09D+00
 E= -644.152471893125     Delta-E=       -0.004334432315 Rises=F Damp=F
 DIIS: error= 2.65D-03 at cycle   4 NSaved=   4.
 NSaved= 4 IEnMin= 4 EnMin= -644.152471893125     IErMin= 4 ErrMin= 2.65D-03
 ErrMax= 2.65D-03  0.00D+00 EMaxC= 1.00D-01 BMatC= 3.62D-03 BMatP= 9.60D-03
 IDIUse=3 WtCom= 9.74D-01 WtEn= 2.65D-02
 Coeff-Com: -0.220D-01 0.503D-01 0.404D+00 0.567D+00
 Coeff-En:   0.000D+00 0.000D+00 0.273D+00 0.727D+00
 Coeff:     -0.214D-01 0.490D-01 0.401D+00 0.572D+00
 Gap=     0.360 Goal=   None    Shift=    0.000
 RMSDP=2.30D-04 MaxDP=2.11D-02 DE=-4.33D-03 OVMax= 1.09D-02

 Cycle   5  Pass 1  IDiag  1:
 RMSU=  7.16D-05    CP:  9.38D-01  7.94D-01  1.08D+00  6.29D-01
 E= -644.154863095798     Delta-E=       -0.002391202673 Rises=F Damp=F
 DIIS: error= 1.70D-04 at cycle   5 NSaved=   5.
 NSaved= 5 IEnMin= 5 EnMin= -644.154863095798     IErMin= 5 ErrMin= 1.70D-04
 ErrMax= 1.70D-04  0.00D+00 EMaxC= 1.00D-01 BMatC= 1.37D-05 BMatP= 3.62D-03
 IDIUse=3 WtCom= 9.98D-01 WtEn= 1.70D-03
 Coeff-Com: -0.279D-02 0.143D-02 0.627D-01 0.120D+00 0.818D+00
 Coeff-En:   0.000D+00 0.000D+00 0.000D+00 0.000D+00 0.100D+01
 Coeff:     -0.279D-02 0.143D-02 0.626D-01 0.120D+00 0.819D+00
 Gap=     0.359 Goal=   None    Shift=    0.000
 RMSDP=3.02D-05 MaxDP=2.65D-03 DE=-2.39D-03 OVMax= 7.05D-04

 Cycle   6  Pass 1  IDiag  1:
 RMSU=  1.67D-05    CP:  9.37D-01  7.89D-01  1.09D+00  6.51D-01  1.10D+00
 E= -644.154872473103     Delta-E=       -0.000009377305 Rises=F Damp=F
 DIIS: error= 4.48D-05 at cycle   6 NSaved=   6.
 NSaved= 6 IEnMin= 6 EnMin= -644.154872473103     IErMin= 6 ErrMin= 4.48D-05
 ErrMax= 4.48D-05  0.00D+00 EMaxC= 1.00D-01 BMatC= 9.82D-07 BMatP= 1.37D-05
 IDIUse=1 WtCom= 1.00D+00 WtEn= 0.00D+00
 Coeff-Com: -0.257D-04-0.126D-02 0.253D-02 0.108D-01 0.211D+00 0.777D+00
 Coeff:     -0.257D-04-0.126D-02 0.253D-02 0.108D-01 0.211D+00 0.777D+00
 Gap=     0.359 Goal=   None    Shift=    0.000
 RMSDP=7.55D-06 MaxDP=4.40D-04 DE=-9.38D-06 OVMax= 2.03D-04

 Cycle   7  Pass 1  IDiag  1:
 RMSU=  4.01D-06    CP:  9.37D-01  7.88D-01  1.09D+00  6.53D-01  1.16D+00
                    CP:  8.82D-01
 E= -644.154873213775     Delta-E=       -0.000000740673 Rises=F Damp=F
 DIIS: error= 1.78D-05 at cycle   7 NSaved=   7.
 NSaved= 7 IEnMin= 7 EnMin= -644.154873213775     IErMin= 7 ErrMin= 1.78D-05
 ErrMax= 1.78D-05  0.00D+00 EMaxC= 1.00D-01 BMatC= 1.40D-07 BMatP= 9.82D-07
 IDIUse=1 WtCom= 1.00D+00 WtEn= 0.00D+00
 Coeff-Com:  0.347D-03-0.596D-03-0.757D-02-0.120D-01-0.216D-01 0.255D+00
 Coeff-Com:  0.786D+00
 Coeff:      0.347D-03-0.596D-03-0.757D-02-0.120D-01-0.216D-01 0.255D+00
 Coeff:      0.786D+00
 Gap=     0.359 Goal=   None    Shift=    0.000
 RMSDP=3.12D-06 MaxDP=2.48D-04 DE=-7.41D-07 OVMax= 8.54D-05

 Cycle   8  Pass 1  IDiag  1:
 RMSU=  1.79D-06    CP:  9.37D-01  7.88D-01  1.09D+00  6.54D-01  1.17D+00
                    CP:  9.48D-01  9.91D-01
 E= -644.154873307157     Delta-E=       -0.000000093381 Rises=F Damp=F
 DIIS: error= 8.78D-06 at cycle   8 NSaved=   8.
 NSaved= 8 IEnMin= 8 EnMin= -644.154873307157     IErMin= 8 ErrMin= 8.78D-06
 ErrMax= 8.78D-06  0.00D+00 EMaxC= 1.00D-01 BMatC= 3.00D-08 BMatP= 1.40D-07
 IDIUse=1 WtCom= 1.00D+00 WtEn= 0.00D+00
 Coeff-Com:  0.159D-03-0.218D-03-0.378D-02-0.608D-02-0.181D-01 0.844D-01
 Coeff-Com:  0.398D+00 0.545D+00
 Coeff:      0.159D-03-0.218D-03-0.378D-02-0.608D-02-0.181D-01 0.844D-01
 Coeff:      0.398D+00 0.545D+00
 Gap=     0.359 Goal=   None    Shift=    0.000
 RMSDP=7.34D-07 MaxDP=3.23D-05 DE=-9.34D-08 OVMax= 2.99D-05

 Cycle   9  Pass 1  IDiag  1:
 RMSU=  3.65D-07    CP:  9.37D-01  7.88D-01  1.09D+00  6.54D-01  1.18D+00
                    CP:  9.47D-01  1.08D+00  7.49D-01
 E= -644.154873327646     Delta-E=       -0.000000020489 Rises=F Damp=F
 DIIS: error= 1.13D-06 at cycle   9 NSaved=   9.
 NSaved= 9 IEnMin= 9 EnMin= -644.154873327646     IErMin= 9 ErrMin= 1.13D-06
 ErrMax= 1.13D-06  0.00D+00 EMaxC= 1.00D-01 BMatC= 6.38D-10 BMatP= 3.00D-08
 IDIUse=1 WtCom= 1.00D+00 WtEn= 0.00D+00
 Coeff-Com: -0.245D-04 0.457D-04 0.267D-03 0.520D-03-0.355D-03-0.184D-01
 Coeff-Com: -0.312D-01 0.761D-01 0.973D+00
 Coeff:     -0.245D-04 0.457D-04 0.267D-03 0.520D-03-0.355D-03-0.184D-01
 Coeff:     -0.312D-01 0.761D-01 0.973D+00
 Gap=     0.359 Goal=   None    Shift=    0.000
 RMSDP=2.62D-07 MaxDP=2.66D-05 DE=-2.05D-08 OVMax= 8.30D-06

 Cycle  10  Pass 1  IDiag  1:
 RMSU=  8.99D-08    CP:  9.37D-01  7.88D-01  1.09D+00  6.54D-01  1.18D+00
                    CP:  9.45D-01  1.11D+00  8.21D-01  1.10D+00
 E= -644.154873328373     Delta-E=       -0.000000000728 Rises=F Damp=F
 DIIS: error= 1.55D-07 at cycle  10 NSaved=  10.
 NSaved=10 IEnMin=10 EnMin= -644.154873328373     IErMin=10 ErrMin= 1.55D-07
 ErrMax= 1.55D-07  0.00D+00 EMaxC= 1.00D-01 BMatC= 1.28D-11 BMatP= 6.38D-10
 IDIUse=1 WtCom= 1.00D+00 WtEn= 0.00D+00
 Coeff-Com: -0.450D-05 0.748D-05 0.111D-03 0.176D-03 0.469D-03-0.391D-02
 Coeff-Com: -0.147D-01-0.118D-01 0.591D-01 0.970D+00
 Coeff:     -0.450D-05 0.748D-05 0.111D-03 0.176D-03 0.469D-03-0.391D-02
 Coeff:     -0.147D-01-0.118D-01 0.591D-01 0.970D+00
 Gap=     0.359 Goal=   None    Shift=    0.000
 RMSDP=3.82D-08 MaxDP=2.45D-06 DE=-7.28D-10 OVMax= 1.87D-06

 Cycle  11  Pass 1  IDiag  1:
 RMSU=  2.41D-08    CP:  9.37D-01  7.88D-01  1.09D+00  6.54D-01  1.18D+00
[...]
 IRadAn=      5 IRanWt=     -1 IRanGd=            0 ICorTp=0 IEmpDi=131
 NAtoms=   19 NActive=    8 NUniq=    8 SFac= 1.00D+00 NAtFMM=   60 NAOKFM=F Big=F
 Integral buffers will be    131072 words long.
 Raffenetti 2 integral format.
 Two-electron integral symmetry is turned off.
 R6Disp:  Grimme-D3 Dispersion energy=       -0.0000430241 Hartrees.
 Nuclear repulsion after empirical dispersion term =      280.2954071075 Hartrees.
 No density basis found on file   718.
 Leave Link  301 at Wed Nov 23 20:05:01 2022, MaxMem=  6710886400 cpu:               1.1 elap:               0.1
 (Enter /data0/home/software/g16/l302.exe)
 NPDir=0 NMtPBC=     1 NCelOv=     1 NCel=       1 NClECP=     1 NCelD=      1
         NCelK=      1 NCelE2=     1 NClLst=     1 CellRange=     0.0.
 One-electron integrals computed using PRISM.
 NBasis=   161 RedAO= T EigKep=  4.79D-04  NBF=   161
 NBsUse=   161 1.00D-06 EigRej= -1.00D+00 NBFU=   161
 Precomputing XC quadrature grid using
 IXCGrd= 4 IRadAn=           5 IRanWt=          -1 IRanGd=           0 AccXCQ= 0.00D+00.
 Generated NRdTot=       0 NPtTot=           0 NUsed=           0 NTot=          32
 NSgBfM=   171   171   171   171   171 MxSgAt=     8 MxSgA2=     8.
 Leave Link  302 at Wed Nov 23 20:05:01 2022, MaxMem=  6710886400 cpu:               2.6 elap:               0.1
 (Enter /data0/home/software/g16/l303.exe)
 DipDrv:  MaxL=1.
 Leave Link  303 at Wed Nov 23 20:05:01 2022, MaxMem=  6710886400 cpu:               0.5 elap:               0.0
 (Enter /data0/home/software/g16/l401.exe)
 ExpMin= 3.48D-02 ExpMax= 7.75D+04 ExpMxC= 2.65D+03 IAcc=3 IRadAn=         5 AccDes= 0.00D+00
 Harris functional with IExCor= 1009 and IRadAn=       5 diagonalized for initial guess.
 HarFok:  IExCor= 1009 AccDes= 0.00D+00 IRadAn=         5 IDoV= 1 UseB2=F ITyADJ=14
 ICtDFT=  3500011 ScaDFX=  1.000000  1.000000  1.000000  1.000000
 FoFCou: FMM=F IPFlag=           0 FMFlag=      100000 FMFlg1=           0
         NFxFlg=           0 DoJE=T BraDBF=F KetDBF=T FulRan=T
         wScrn=  0.000000 ICntrl=       500 IOpCl=  0 I1Cent=   200000004 NGrid=           0
         NMat0=    1 NMatS0=      1 NMatT0=    0 NMatD0=    1 NMtDS0=    0 NMtDT0=    0
 Symmetry not used in FoFCou.
 Harris En= -643.944460772413    
 JPrj=0 DoOrth=F DoCkMO=F.
 Leave Link  401 at Wed Nov 23 20:05:01 2022, MaxMem=  6710886400 cpu:               5.7 elap:               0.3
 (Enter /data0/home/software/g16/l502.exe)
 Keep R1 ints in memory in canonical form, NReq=106968989.
 FoFCou: FMM=F IPFlag=           0 FMFlag=           0 FMFlg1=           0
         NFxFlg=           0 DoJE=F BraDBF=F KetDBF=F FulRan=T
         wScrn=  0.000000 ICntrl=       600 IOpCl=  0 I1Cent=           0 NGrid=           0
         NMat0=    1 NMatS0=  13041 NMatT0=    0 NMatD0=    1 NMtDS0=    0 NMtDT0=    0
 Symmetry not used in FoFCou.
 Two-electron integral symmetry not used.
 Closed shell SCF:
 Using DIIS extrapolation, IDIIS=  1040.
 NGot=  6710886400 LenX=  6625782179 LenY=  6625752497
 Requested convergence on RMS density matrix=1.00D-08 within 128 cycles.
 Requested convergence on MAX density matrix=1.00D-06.
 Requested convergence on             energy=1.00D-06.
 No special actions if energy rises.

 Cycle   1  Pass 1  IDiag  1:
 E= -643.869547901627    
 DIIS: error= 4.23D-02 at cycle   1 NSaved=   1.
 NSaved= 1 IEnMin= 1 EnMin= -643.869547901627     IErMin= 1 ErrMin= 4.23D-02
 ErrMax= 4.23D-02  0.00D+00 EMaxC= 1.00D-01 BMatC= 5.05D-01 BMatP= 5.05D-01
 IDIUse=3 WtCom= 5.77D-01 WtEn= 4.23D-01
 Coeff-Com:  0.100D+01
 Coeff-En:   0.100D+01
 Coeff:      0.100D+01
 Gap=     0.299 Goal=   None    Shift=    0.000
 GapD=    0.299 DampG=1.000 DampE=0.500 DampFc=0.5000 IDamp=-1.
 Damping current iteration by 5.00D-01
 RMSDP=6.66D-03 MaxDP=1.44D-01              OVMax= 2.45D-01

 Cycle   2  Pass 1  IDiag  1:
 E= -643.986316922520     Delta-E=       -0.116769020893 Rises=F Damp=T
 DIIS: error= 1.07D-02 at cycle   2 NSaved=   2.
 NSaved= 2 IEnMin= 2 EnMin= -643.986316922520     IErMin= 2 ErrMin= 1.07D-02
 ErrMax= 1.07D-02  0.00D+00 EMaxC= 1.00D-01 BMatC= 2.60D-02 BMatP= 5.05D-01
 IDIUse=3 WtCom= 8.93D-01 WtEn= 1.07D-01
 Coeff-Com:  0.653D-01 0.935D+00
 Coeff-En:   0.192D+00 0.808D+00
 Coeff:      0.789D-01 0.921D+00
 Gap=     0.367 Goal=   None    Shift=    0.000
 RMSDP=1.49D-03 MaxDP=4.60D-02 DE=-1.17D-01 OVMax= 1.51D-01

 Cycle   3  Pass 1  IDiag  1:
 E= -644.147575154538     Delta-E=       -0.161258232018 Rises=F Damp=F
 DIIS: error= 7.22D-03 at cycle   3 NSaved=   3.
 NSaved= 3 IEnMin= 3 EnMin= -644.147575154538     IErMin= 3 ErrMin= 7.22D-03
 ErrMax= 7.22D-03  0.00D+00 EMaxC= 1.00D-01 BMatC= 9.24D-03 BMatP= 2.60D-02
 IDIUse=3 WtCom= 9.28D-01 WtEn= 7.22D-02
 Coeff-Com: -0.160D-01 0.330D+00 0.686D+00
 Coeff-En:   0.000D+00 0.000D+00 0.100D+01
 Coeff:     -0.149D-01 0.306D+00 0.709D+00
 Gap=     0.357 Goal=   None    Shift=    0.000
 RMSDP=6.26D-04 MaxDP=1.47D-02 DE=-1.61D-01 OVMax= 3.34D-02

 Cycle   4  Pass 1  IDiag  1:
 E= -644.151509267383     Delta-E=       -0.003934112845 Rises=F Damp=F
 DIIS: error= 4.10D-03 at cycle   4 NSaved=   4.
 NSaved= 4 IEnMin= 4 EnMin= -644.151509267383     IErMin= 4 ErrMin= 4.10D-03
 ErrMax= 4.10D-03  0.00D+00 EMaxC= 1.00D-01 BMatC= 3.83D-03 BMatP= 9.24D-03
 IDIUse=3 WtCom= 9.59D-01 WtEn= 4.10D-02
 Coeff-Com: -0.196D-01 0.456D-01 0.412D+00 0.562D+00
 Coeff-En:   0.000D+00 0.000D+00 0.295D+00 0.705D+00
 Coeff:     -0.188D-01 0.437D-01 0.407D+00 0.568D+00
 Gap=     0.364 Goal=   None    Shift=    0.000
 RMSDP=2.51D-04 MaxDP=6.31D-03 DE=-3.93D-03 OVMax= 1.14D-02

 Cycle   5  Pass 1  IDiag  1:
 E= -644.154042976224     Delta-E=       -0.002533708841 Rises=F Damp=F
 DIIS: error= 2.70D-04 at cycle   5 NSaved=   5.
 NSaved= 5 IEnMin= 5 EnMin= -644.154042976224     IErMin= 5 ErrMin= 2.70D-04
 ErrMax= 2.70D-04  0.00D+00 EMaxC= 1.00D-01 BMatC= 1.50D-05 BMatP= 3.83D-03
 IDIUse=3 WtCom= 9.97D-01 WtEn= 2.70D-03
 Coeff-Com: -0.217D-02 0.180D-03 0.643D-01 0.122D+00 0.816D+00
 Coeff-En:   0.000D+00 0.000D+00 0.000D+00 0.000D+00 0.100D+01
 Coeff:     -0.217D-02 0.180D-03 0.641D-01 0.121D+00 0.817D+00
 Gap=     0.362 Goal=   None    Shift=    0.000
 RMSDP=2.34D-05 MaxDP=9.07D-04 DE=-2.53D-03 OVMax= 7.20D-04

 Cycle   6  Pass 1  IDiag  1:
 E= -644.154053212597     Delta-E=       -0.000010236374 Rises=F Damp=F
 DIIS: error= 6.36D-05 at cycle   6 NSaved=   6.
 NSaved= 6 IEnMin= 6 EnMin= -644.154053212597     IErMin= 6 ErrMin= 6.36D-05
 ErrMax= 6.36D-05  0.00D+00 EMaxC= 1.00D-01 BMatC= 9.98D-07 BMatP= 1.50D-05
 IDIUse=1 WtCom= 1.00D+00 WtEn= 0.00D+00
 Coeff-Com:  0.465D-04-0.145D-02 0.306D-02 0.119D-01 0.215D+00 0.772D+00
 Coeff:      0.465D-04-0.145D-02 0.306D-02 0.119D-01 0.215D+00 0.772D+00
 Gap=     0.363 Goal=   None    Shift=    0.000
 RMSDP=8.31D-06 MaxDP=2.24D-04 DE=-1.02D-05 OVMax= 2.03D-04

 Cycle   7  Pass 1  IDiag  1:
 E= -644.154053962062     Delta-E=       -0.000000749465 Rises=F Damp=F
 DIIS: error= 1.96D-05 at cycle   7 NSaved=   7.
 NSaved= 7 IEnMin= 7 EnMin= -644.154053962062     IErMin= 7 ErrMin= 1.96D-05
 ErrMax= 1.96D-05  0.00D+00 EMaxC= 1.00D-01 BMatC= 1.40D-07 BMatP= 9.98D-07
 IDIUse=1 WtCom= 1.00D+00 WtEn= 0.00D+00
 Coeff-Com:  0.296D-03-0.509D-03-0.765D-02-0.118D-01-0.207D-01 0.254D+00
 Coeff-Com:  0.787D+00
 Coeff:      0.296D-03-0.509D-03-0.765D-02-0.118D-01-0.207D-01 0.254D+00
 Coeff:      0.787D+00
 Gap=     0.363 Goal=   None    Shift=    0.000
 RMSDP=2.58D-06 MaxDP=5.65D-05 DE=-7.49D-07 OVMax= 8.57D-05

 Cycle   8  Pass 1  IDiag  1:
 E= -644.154054055123     Delta-E=       -0.000000093061 Rises=F Damp=F
 DIIS: error= 1.20D-05 at cycle   8 NSaved=   8.
 NSaved= 8 IEnMin= 8 EnMin= -644.154054055123     IErMin= 8 ErrMin= 1.20D-05
 ErrMax= 1.20D-05  0.00D+00 EMaxC= 1.00D-01 BMatC= 3.09D-08 BMatP= 1.40D-07
 IDIUse=1 WtCom= 1.00D+00 WtEn= 0.00D+00
 Coeff-Com:  0.131D-03-0.164D-03-0.386D-02-0.608D-02-0.182D-01 0.824D-01
 Coeff-Com:  0.399D+00 0.547D+00
 Coeff:      0.131D-03-0.164D-03-0.386D-02-0.608D-02-0.182D-01 0.824D-01
 Coeff:      0.399D+00 0.547D+00
 Gap=     0.363 Goal=   None    Shift=    0.000
 RMSDP=7.32D-07 MaxDP=2.33D-05 DE=-9.31D-08 OVMax= 3.03D-05

 Cycle   9  Pass 1  IDiag  1:
 E= -644.154054076271     Delta-E=       -0.000000021147 Rises=F Damp=F
 DIIS: error= 1.27D-06 at cycle   9 NSaved=   9.
 NSaved= 9 IEnMin= 9 EnMin= -644.154054076271     IErMin= 9 ErrMin= 1.27D-06
 ErrMax= 1.27D-06  0.00D+00 EMaxC= 1.00D-01 BMatC= 6.32D-10 BMatP= 3.09D-08
 IDIUse=1 WtCom= 1.00D+00 WtEn= 0.00D+00
 Coeff-Com: -0.223D-04 0.436D-04 0.245D-03 0.479D-03-0.513D-03-0.176D-01
 Coeff-Com: -0.293D-01 0.738D-01 0.973D+00
 Coeff:     -0.223D-04 0.436D-04 0.245D-03 0.479D-03-0.513D-03-0.176D-01
 Coeff:     -0.293D-01 0.738D-01 0.973D+00
 Gap=     0.363 Goal=   None    Shift=    0.000
 RMSDP=2.49D-07 MaxDP=6.48D-06 DE=-2.11D-08 OVMax= 8.33D-06

 Cycle  10  Pass 1  IDiag  1:
 E= -644.154054076994     Delta-E=       -0.000000000724 Rises=F Damp=F
 DIIS: error= 1.99D-07 at cycle  10 NSaved=  10.
 NSaved=10 IEnMin=10 EnMin= -644.154054076994     IErMin=10 ErrMin= 1.99D-07
 ErrMax= 1.99D-07  0.00D+00 EMaxC= 1.00D-01 BMatC= 1.32D-11 BMatP= 6.32D-10
 IDIUse=1 WtCom= 1.00D+00 WtEn= 0.00D+00
 Coeff-Com: -0.351D-05 0.577D-05 0.111D-03 0.171D-03 0.464D-03-0.380D-02
 Coeff-Com: -0.144D-01-0.118D-01 0.570D-01 0.972D+00
 Coeff:     -0.351D-05 0.577D-05 0.111D-03 0.171D-03 0.464D-03-0.380D-02
 Coeff:     -0.144D-01-0.118D-01 0.570D-01 0.972D+00
 Gap=     0.363 Goal=   None    Shift=    0.000
 RMSDP=4.75D-08 MaxDP=7.98D-07 DE=-7.24D-10 OVMax= 1.88D-06

 Cycle  11  Pass 1  IDiag  1:
 E= -644.154054077003     Delta-E=       -0.000000000009 Rises=F Damp=F
 DIIS: error= 1.58D-07 at cycle  11 NSaved=  11.
 NSaved=11 IEnMin=11 EnMin= -644.154054077003     IErMin=11 ErrMin= 1.58D-07
 ErrMax= 1.58D-07  0.00D+00 EMaxC= 1.00D-01 BMatC= 5.95D-12 BMatP= 1.32D-11
 IDIUse=1 WtCom= 1.00D+00 WtEn= 0.00D+00
 Coeff-Com:  0.203D-06-0.698D-06 0.328D-04 0.418D-04 0.242D-03-0.553D-03
 Coeff-Com: -0.439D-02-0.104D-01-0.440D-01 0.456D+00 0.603D+00
 Coeff:      0.203D-06-0.698D-06 0.328D-04 0.418D-04 0.242D-03-0.553D-03
 Coeff:     -0.439D-02-0.104D-01-0.440D-01 0.456D+00 0.603D+00
 Gap=     0.363 Goal=   None    Shift=    0.000
 RMSDP=1.37D-08 MaxDP=4.10D-07 DE=-8.98D-12 OVMax= 6.83D-07

 Cycle  12  Pass 1  IDiag  1:
 E= -644.154054077014     Delta-E=       -0.000000000011 Rises=F Damp=F
 DIIS: error= 4.15D-08 at cycle  12 NSaved=  12.
 NSaved=12 IEnMin=12 EnMin= -644.154054077014     IErMin=12 ErrMin= 4.15D-08
 ErrMax= 4.15D-08  0.00D+00 EMaxC= 1.00D-01 BMatC= 4.90D-13 BMatP= 5.95D-12
 IDIUse=1 WtCom= 1.00D+00 WtEn= 0.00D+00
 Coeff-Com:  0.612D-06-0.114D-05-0.407D-05-0.928D-05 0.159D-04 0.349D-03
 Coeff-Com:  0.822D-03-0.152D-02-0.238D-01 0.594D-02 0.226D+00 0.793D+00
 Coeff:      0.612D-06-0.114D-05-0.407D-05-0.928D-05 0.159D-04 0.349D-03
 Coeff:      0.822D-03-0.152D-02-0.238D-01 0.594D-02 0.226D+00 0.793D+00
 Gap=     0.363 Goal=   None    Shift=    0.000
 RMSDP=5.49D-09 MaxDP=7.30D-08 DE=-1.11D-11 OVMax= 1.68D-07

 SCF Done:  E(RM062X) =  -644.154054077     A.U. after   12 cycles
            NFock= 12  Conv=0.55D-08     -V/T= 2.0024
 KE= 6.425801995027D+02 PE=-2.088316740102D+03 EE= 5.212870794149D+02
 Leave Link  502 at Wed Nov 23 20:05:08 2022, MaxMem=  6710886400 cpu:             108.4 elap:               6.2
 (Enter /data0/home/software/g16/l601.exe)
 Copying SCF densities to generalized density rwf, IOpCl= 0 IROHF=0.

 **********************************************************************

            Population analysis using the SCF density.

 **********************************************************************

 Alpha  occ. eigenvalues --  -78.16804 -19.69192 -19.67923 -19.67451 -19.59080
 Alpha  occ. eigenvalues --   -6.97602  -5.09514  -5.09489  -5.09290  -1.24378
 Alpha  occ. eigenvalues --   -1.16983  -1.16277  -1.09800  -0.72800  -0.65919
 Alpha  occ. eigenvalues --   -0.64003  -0.56460  -0.55382  -0.50800  -0.48926
 Alpha  occ. eigenvalues --   -0.47700  -0.45318  -0.43948  -0.38922  -0.38360
 Alpha virt. eigenvalues --   -0.02098   0.01582   0.01959   0.04713   0.09284
 Alpha virt. eigenvalues --    0.10163   0.12312   0.14624   0.15029   0.15978
 Alpha virt. eigenvalues --    0.17602   0.18057   0.18751   0.19939   0.21474
 Alpha virt. eigenvalues --    0.22393   0.24424   0.25348   0.25497   0.28180
 Alpha virt. eigenvalues --    0.28444   0.28973   0.30640   0.31122   0.31873
 Alpha virt. eigenvalues --    0.34266   0.35795   0.36534   0.40524   0.43188
 Alpha virt. eigenvalues --    0.46853   0.48928   0.51671   0.55932   0.56714
 Alpha virt. eigenvalues --    0.74253   0.75976   0.76604   0.86644   0.97068
 Alpha virt. eigenvalues --    0.97841   1.02066   1.05787   1.08472   1.11000
 Alpha virt. eigenvalues --    1.12709   1.15200   1.17149   1.19279   1.20821
 Alpha virt. eigenvalues --    1.22157   1.24681   1.26043   1.28408   1.32907
 Alpha virt. eigenvalues --    1.37120   1.39357   1.44588   1.46820   1.47923
 Alpha virt. eigenvalues --    1.54184   1.55799   1.59536   1.63710   1.65424
 Alpha virt. eigenvalues --    1.68371   1.69069   1.69600   1.74698   1.81246
 Alpha virt. eigenvalues --    1.82413   1.84252   1.86566   1.94425   1.96233
 Alpha virt. eigenvalues --    2.03018   2.03837   2.07701   2.11764   2.16327
 Alpha virt. eigenvalues --    2.21162   2.23812   2.27041   2.34305   2.42949
 Alpha virt. eigenvalues --    2.47851   2.57016   2.62072   2.63409   2.69710
 Alpha virt. eigenvalues --    2.73015   2.83786   2.85532   2.91054   2.94954
 Alpha virt. eigenvalues --    5.01438   5.04711   5.07340   5.08106   5.09570
 Alpha virt. eigenvalues --    5.12413   5.19393   5.21534   5.36275   5.46849
 Alpha virt. eigenvalues --    5.53457   5.53752   6.71351   6.73427   6.73936
 Alpha virt. eigenvalues --    6.76953   6.79361   6.80424   6.84272   6.86122
 Alpha virt. eigenvalues --    6.89247   6.92745   6.95737   6.96623   6.99623
 Alpha virt. eigenvalues --    7.06522   7.08118   7.20740   7.26172   7.27885
 Alpha virt. eigenvalues --    7.31598   7.39538   7.64620  14.20745  14.24614
 Alpha virt. eigenvalues --   14.37193  49.98160  50.00026  50.01426  50.09765
 Alpha virt. eigenvalues --  163.85636
          Condensed to atoms (all electrons):
              12         13         14         15         16         17
    12  P   12.429166   0.574968   0.179766   0.039067   0.268296   0.002575
    13  O    0.574968   8.085965  -0.013606   0.004388  -0.023018  -0.009803
    14  O    0.179766  -0.013606   8.087013   0.236381   0.018462  -0.005526
    15  H    0.039067   0.004388   0.236381   0.442325  -0.015298   0.000986
    16  O    0.268296  -0.023018   0.018462  -0.015298   8.088842   0.266652
    17  H    0.002575  -0.009803  -0.005526   0.000986   0.266652   0.395477
    18  O    0.245168  -0.018227  -0.005813  -0.017751  -0.003987   0.004601
    19  H    0.007654  -0.010132  -0.000687   0.001968  -0.011501   0.001107
              18         19
    12  P    0.245168   0.007654
    13  O   -0.018227  -0.010132
    14  O   -0.005813  -0.000687
    15  H   -0.017751   0.001968
    16  O   -0.003987  -0.011501
    17  H    0.004601   0.001107
    18  O    8.083854   0.263442
    19  H    0.263442   0.427097
 Mulliken charges:
               1
     1  C    0.000000
     2  C    0.000000
     3  C    0.000000
     4  C    0.000000
     5  C    0.000000
     6  N    0.000000
     7  H    0.000000
     8  H    0.000000
     9  H    0.000000
    10  H    0.000000
    11  H    0.000000
    12  P    1.253340
    13  O   -0.590533
    14  O   -0.495989
    15  H    0.307933
    16  O   -0.588449
    17  H    0.343933
    18  O   -0.551286
    19  H    0.321052
 Sum of Mulliken charges =  -0.00000
 Mulliken charges with hydrogens summed into heavy atoms:
               1
     1  C    0.000000
     2  C    0.000000
     3  C    0.000000
     4  C    0.000000
     5  C    0.000000
     6  N    0.000000
    12  P    1.253340
    13  O   -0.590533
    14  O   -0.188056
    16  O   -0.244517
    18  O   -0.230234
         Mulliken charges condensed to fragments:
      1      0.000000
      2     -0.000000
 Electronic spatial extent (au):  <R**2>=          50157.8047
 Charge=             -0.0000 electrons
 Dipole moment (field-independent basis, Debye):
    X=              2.7301    Y=              0.5730    Z=             -3.4375  Tot=              4.4270
 Quadrupole moment (field-independent basis, Debye-Ang):
   XX=             32.4189   YY=            -24.6096   ZZ=           -104.3222
   XY=             24.0832   XZ=            -11.7602   YZ=            -16.2125
 Traceless Quadrupole moment (field-independent basis, Debye-Ang):
   XX=             64.5899   YY=              7.5614   ZZ=            -72.1513
   XY=             24.0832   XZ=            -11.7602   YZ=            -16.2125
 Octapole moment (field-independent basis, Debye-Ang**2):
  XXX=            -15.5898  YYY=           -494.3846  ZZZ=          -2076.7613  XYY=           -190.0550
  XXY=            289.6758  XXZ=           -103.6737  XZZ=           -945.5763  YZZ=           -604.7737
  YYZ=           -382.7583  XYZ=            -10.5644
 Hexadecapole moment (field-independent basis, Debye-Ang**3):
 XXXX=         -10026.2262 YYYY=          -6178.9022 ZZZZ=         -34387.0934 XXXY=            978.3975
 XXXZ=          -4615.4622 YYYX=          -5292.6859 YYYZ=          -5793.5634 ZZZX=         -21828.5147
 ZZZY=         -12565.7019 XXYY=          -2344.0854 XXZZ=         -10750.2528 YYZZ=          -6641.5314
 XXYZ=            111.4561 YYXZ=          -3474.7316 ZZXY=          -5357.7206
 N-N= 2.802954071075D+02 E-N=-2.088316742675D+03  KE= 6.425801995027D+02
 No NMR shielding tensors so no spin-rotation constants.
 Leave Link  601 at Wed Nov 23 20:05:08 2022, MaxMem=  6710886400 cpu:               1.8 elap:               0.1
 (Enter /data0/home/software/g16/l122.exe)
 CPIOFr:  IOpCl= 0 IRwI=-1 IRwCP=  731 ICalc=  4 LCPTot=      192217 Len1MO=      505607 IndFrg=     2720252
 Restoring MOs from calculation   1 to rwf.
 CPIOFr:  IOpCl= 0 IRwI=-2 IRwCP=  731 ICalc=  0 LCPTot=      192217 Len1MO=      505607 IndFrg=      697824
 Counterpoise corrected energy =    -892.426288210094
                   BSSE energy =       0.001019120277
              sum of fragments =    -892.398774678545
           complexation energy =     -17.90 kcal/mole (raw)
           complexation energy =     -17.27 kcal/mole (corrected)
 Leave Link  122 at Wed Nov 23 20:05:08 2022, MaxMem=  6710886400 cpu:               0.2 elap:               0.0
 (Enter /data0/home/software/g16/l9999.exe)
 1\1\GINC-LOCALHOST\SP\RM062X\6-311+G(2d,p)\C5H8N1O4P1\WUHANYU\23-Nov-2
 022\0\\#p M062X/6-311+G(2d,p) nosymm em=GD3 counterpoise=2\\Title Card
  Required\\0,1\C,0,13.034286,10.817029,8.59199\C,0,12.843564,12.168927
 ,8.898038\C,0,12.165064,12.496934,10.071403\C,0,11.700454,11.477486,10
 .898311\C,0,11.931921,10.147298,10.521781\N,0,12.586743,9.82829,9.3898
 68\H,0,12.000705,13.540882,10.337065\H,0,13.559281,10.497514,7.684441\
 H,0,13.21671,12.942865,8.234467\H,0,11.168211,11.701594,11.818301\H,0,
 11.586357,9.302335,11.13849\P,0,12.141298,6.125611,9.789233\O,0,11.722
 618,6.674057,11.069336\O,0,10.895422,5.639675,8.928774\H,0,11.242262,5
 .220915,8.056811\O,0,13.007561,7.043521,8.823861\H,0,12.808703,8.06035
 7,9.01861\O,0,13.033791,4.795409,9.813919\H,0,14.015057,5.069309,9.915
 31\\Version=ES64L-G16RevA.03\HF=-644.1540541\RMSD=5.493e-09\Dipole=0.8
 483593,1.8185303,-0.9653908\Quadrupole=14.5634091,44.027774,-58.591183
 2,51.3498356,-6.936989,23.5757226\PG=C01 [X(C5H8N1O4P1)]\\@


 I WISH TO HAVE NO CONNECTION WITH ANY SHIP THAT DOES NOT SAIL FAST,
 FOR I INTEND TO GO IN HARM'S WAY.
     -- JOHN PAUL JONES, USN 1747-1792
 Job cpu time:       0 days  0 hours 41 minutes 47.4 seconds.
 Elapsed time:       0 days  0 hours  1 minutes 58.9 seconds.
 File lengths (MBytes):  RWF=     98 Int=      0 D2E=      0 Chk=     29 Scr=      1
 Normal termination of Gaussian 16 at Wed Nov 23 20:05:08 2022.
