          11
 G =     -720.751290 Gcorr = 0.040644 a.u. Nimag =   0 Frame:     1 Step:     1 Geom:     1
P           5.43321600      5.28102200      5.28593100
O           4.82149100      6.46854600      5.90744600
O           6.90986200      4.94126800      5.72004400
H           7.26426300      5.65841900      6.30905700
O           4.58314100      3.96170800      5.58428200
H           4.96960900      3.16073600      5.20703000
O           5.57146400      5.33374000      3.68921600
H           4.81209800      5.76715600      3.27863500
O           7.21010000      7.15334400      7.21102000
H           7.25503700      7.16712500      8.17294500
H           6.26971800      7.27693700      6.97439700
          11
 G =     -720.751278 Gcorr = 0.040656 a.u. Nimag =   0 Frame:     2 Step:     2 Geom:     2
P           5.50609000      5.30974200      5.31373000
O           4.99687400      6.61496900      5.76935700
O           6.86663500      4.82538900      5.94558800
H           7.25656600      5.54748400      6.50513300
O           4.45930500      4.13839900      5.60343300
H           4.77302600      3.26555900      5.33333200
O           5.82259800      5.20565900      3.74473900
H           5.18441800      5.70404300      3.21803500
O           7.31433400      7.12034600      7.26912100
H           7.26373800      7.21337500      8.22634700
H           6.42641900      7.33503700      6.92118600
          11
 G =     -720.751344 Gcorr = 0.041132 a.u. Nimag =   0 Frame:     3 Step:     3 Geom:     3
P           5.35280000      5.18282400      5.38675000
O           4.82704300      6.46834100      5.87619700
O           6.65309400      4.68601400      6.14917800
H           7.02426300      5.42250000      6.70170800
O           4.37709500      3.91640700      5.44196700
H           4.11483800      3.68094000      6.34108000
O           5.69003800      5.22065200      3.83306700
H           6.02553800      4.38404300      3.48599500
O           7.00124500      6.95981700      7.54036300
H           6.15594800      7.17676200      7.09783300
H           7.60810300      7.68170400      7.34586400
          11
 G =     -720.751358 Gcorr = 0.041116 a.u. Nimag =   0 Frame:     4 Step:     4 Geom:     4
P           5.49368400      5.19185000      5.26560900
O           5.04335100      6.56366300      5.55450700
O           6.65942200      4.68239300      6.21490100
H           7.04190800      5.44554000      6.72141200
O           4.40387000      4.02353600      5.34846000
H           4.03369300      3.91531800      6.23386200
O           5.98660400      5.02190300      3.76322500
H           6.27890400      4.12704200      3.54705800
O           7.07843400      7.06797000      7.38217100
H           7.76540600      7.71140300      7.17911100
H           6.30472700      7.29938000      6.82968800
          11
 G =     -720.751060 Gcorr = 0.041018 a.u. Nimag =   0 Frame:     5 Step:     5 Geom:     5
P           5.37717800      5.15632700      5.34960300
O           4.84217300      6.48943300      5.67328200
O           6.66078200      4.75333400      6.19295200
H           7.05706200      5.56192100      6.60970900
O           4.39874900      3.90546400      5.54143500
H           4.09116800      3.80293800      6.45089000
O           5.74492100      5.00797700      3.81042200
H           6.14169900      4.15720800      3.58315000
O           7.14428100      7.26306000      7.04798300
H           7.10243100      7.58571100      7.95411800
H           6.25955800      7.40662800      6.65645700
          11
 G =     -720.751051 Gcorr = 0.040810 a.u. Nimag =   0 Frame:     6 Step:     6 Geom:     6
P           5.55114400      5.23266900      5.26456400
O           5.00202900      6.57680200      5.51292600
O           6.82925600      4.82863500      6.09381900
H           7.08046200      5.56706700      6.70961100
O           4.45930200      4.10087400      5.55060200
H           4.80963800      3.20309900      5.48303200
O           6.05922800      4.95386700      3.76943700
H           5.44400000      5.30093600      3.11061300
O           6.90716800      7.10441800      7.50715800
H           6.13411800      7.32444300      6.95082800
H           7.54365700      7.81719100      7.38741200
          11
 G =     -720.751367 Gcorr = 0.041106 a.u. Nimag =   0 Frame:     7 Step:     7 Geom:     7
P           5.42062300      5.25451500      5.38310900
O           5.16977400      6.67925900      5.65806800
O           6.54788900      4.61030100      6.29589100
H           6.76424100      5.22014400      7.04882400
O           4.10926700      4.36887500      5.54068400
H           4.24720000      3.43088900      5.35594800
O           5.86441700      4.85597900      3.89878700
H           6.70586000      5.25145200      3.63758300
O           6.79522300      6.74251600      7.91390900
H           6.40858200      6.86564300      8.78714600
H           6.15692500      7.11043000      7.27004900
          11
 G =     -720.751081 Gcorr = 0.040998 a.u. Nimag =   0 Frame:     8 Step:     8 Geom:     8
P           5.32894800      5.18362600      5.42997000
O           4.91144200      6.56455900      5.72497500
O           6.59510500      4.70050800      6.25730000
H           6.74100900      5.30260000      7.03219300
O           4.16291800      4.13181500      5.67586800
H           4.43009600      3.21318500      5.54308200
O           5.72099100      4.84259200      3.91722200
H           6.45808300      5.37324500      3.58964000
O           6.45130700      6.71026500      8.04816400
H           5.79843300      7.04104300      7.39945500
H           7.09167100      7.41656100      8.18213100
          11
 G =     -720.751354 Gcorr = 0.041121 a.u. Nimag =   0 Frame:     9 Step:     9 Geom:     9
P           5.29165500      5.21824000      5.32691800
O           5.01077400      6.64450700      5.56162000
O           6.44919900      4.63016500      6.23989100
H           6.66114000      5.26729600      6.97094200
O           4.00474100      4.30740100      5.53430300
H           4.16235400      3.36753100      5.37700800
O           5.72122700      4.78313600      3.84860500
H           6.55025800      5.18747500      3.56244500
O           6.66709900      6.81665900      7.78958800
H           6.29073400      6.95888800      8.66443800
H           6.01082200      7.14870200      7.14424300
          11
 G =     -720.751833 Gcorr = 0.041027 a.u. Nimag =   0 Frame:    10 Step:    10 Geom:    10
P           5.43605000      5.15798200      5.35640900
O           5.29323700      6.62296800      5.50834800
O           6.32887000      4.46404000      6.45100700
H           6.48007900      5.08548300      7.20899300
O           4.09870300      4.29638500      5.41315100
H           3.41709900      4.62545100      4.81345400
O           6.03772400      4.70709400      3.94391000
H           6.68320400      5.34345700      3.61084100
O           6.38429000      6.60857300      8.08356400
H           7.15649100      7.14001000      8.30320600
H           5.96425600      7.02855700      7.30711900
          11
 G =     -720.751378 Gcorr = 0.041097 a.u. Nimag =   0 Frame:    11 Step:    11 Geom:    11
P           5.37900600      5.21964900      5.30730000
O           5.14073000      6.66198600      5.48441700
O           6.51276200      4.63278800      6.25037300
H           6.74070800      5.29170500      6.95689600
O           4.06404200      4.35667500      5.54145900
H           4.19383400      3.40697900      5.42241600
O           5.80285000      4.71507200      3.84974100
H           6.64184200      5.08811000      3.55044900
O           6.79112800      6.87115400      7.71417000
H           6.41455200      7.05839000      8.58038700
H           6.14854600      7.19749300      7.05239200
          11
 G =     -720.751043 Gcorr = 0.041037 a.u. Nimag =   0 Frame:    12 Step:    12 Geom:    12
P           5.27553400      5.22299100      5.31722800
O           5.23666400      6.68455000      5.49199900
O           6.19497000      4.47055900      6.37076400
H           6.38241700      5.06748100      7.14087300
O           3.82963400      4.56620700      5.38259200
H           3.83473000      3.60219700      5.32297300
O           5.79057400      4.66462800      3.90950900
H           6.69601700      4.93130200      3.70628300
O           6.35525500      6.57558400      8.04610600
H           7.14354500      7.08099200      8.26985400
H           5.94066100      7.02351300      7.28182200
          11
 G =     -720.751349 Gcorr = 0.041126 a.u. Nimag =   0 Frame:    13 Step:    13 Geom:    13
P           5.38896500      5.22973400      5.37297600
O           5.52205600      6.68873400      5.52111400
O           6.16931000      4.39592100      6.47516300
H           6.45725300      4.99479700      7.21251300
O           3.87088500      4.75644100      5.39587800
H           3.75769800      3.80313200      5.28938000
O           5.87577600      4.57947400      3.99474200
H           6.82064700      4.69859600      3.83447400
O           6.81636300      6.52976000      7.97798100
H           6.38025600      6.84147200      8.77788600
H           6.39079200      6.99193900      7.22789600
          11
 G =     -720.751291 Gcorr = 0.040642 a.u. Nimag =   0 Frame:    14 Step:    14 Geom:    14
P           5.58184300      5.21503500      5.24007000
O           5.57591300      6.68823600      5.25558900
O           6.26877400      4.50076900      6.46567000
H           6.69463400      5.17570900      7.05721000
O           4.09837800      4.62553900      5.17475000
H           4.06655400      3.66011200      5.18791900
O           6.35097700      4.54233500      4.00417100
H           6.21748500      5.03944300      3.18675400
O           7.14915600      6.77948600      7.57795600
H           6.64370200      7.17620600      6.84130500
H           6.80258500      7.16713200      8.38860600
          11
 G =     -720.751325 Gcorr = 0.040608 a.u. Nimag =   0 Frame:    15 Step:    15 Geom:    15
P           5.61914600      5.25166200      5.35525500
O           5.51398000      6.71736800      5.46057000
O           6.40824900      4.51758500      6.50530300
H           6.81212500      5.18481200      7.12017300
O           4.17774900      4.56390100      5.31617400
H           4.21185300      3.59939100      5.27450800
O           6.37451600      4.70760100      4.04962700
H           6.17377000      5.24321800      3.27125400
O           7.17581600      6.78576300      7.72067700
H           6.61306000      7.18794200      7.03000700
H           6.83974100      7.10075900      8.56645400
          11
 G =     -720.752131 Gcorr = 0.041112 a.u. Nimag =   0 Frame:    16 Step:    16 Geom:    16
P           5.61802900      5.19317000      5.26186100
O           5.53891200      6.65657800      5.46631500
O           6.31291700      4.40192700      6.43033900
H           6.68784800      5.03517100      7.09585200
O           4.19464700      4.50280700      5.01601400
H           3.49179400      4.95317600      5.50189500
O           6.43100600      4.67723900      3.99379900
H           6.08866900      5.02772800      3.16175800
O           6.96289600      6.58559600      7.86040700
H           7.83953500      6.97826600      7.92881100
H           6.51375000      7.02834400      7.11295100
          11
 G =     -720.752111 Gcorr = 0.041133 a.u. Nimag =   0 Frame:    17 Step:    17 Geom:    17
P           5.60899400      5.20577000      5.30185300
O           5.56122300      6.68136400      5.40185100
O           6.21403500      4.48012200      6.55949300
H           6.56684300      5.14891800      7.20227700
O           4.18165200      4.53638300      5.02103400
H           3.46642900      5.03827500      5.43277400
O           6.47627500      4.58260500      4.12076000
H           6.19129600      4.88357500      3.24863800
O           6.84112400      6.73890900      7.87593700
H           6.44890600      7.14056000      7.07514400
H           7.72322500      7.11352200      7.97024200
          11
 G =     -720.751278 Gcorr = 0.040658 a.u. Nimag =   0 Frame:    18 Step:    18 Geom:    18
P           5.77282300      5.20243600      5.32928000
O           6.06989800      6.63649500      5.16834600
O           6.07768300      4.57446200      6.74254000
H           6.52889700      5.24410100      7.32131100
O           4.23276600      4.88905100      5.04294500
H           3.99826600      3.96051300      5.16956500
O           6.58499000      4.21808800      4.35845400
H           6.69991400      4.59835700      3.47797900
O           7.21168200      6.79942300      7.72613200
H           6.93174400      7.16206900      6.86258700
H           6.82133700      7.36500700      8.40086100
          11
 G =     -720.751079 Gcorr = 0.040781 a.u. Nimag =   0 Frame:    19 Step:    19 Geom:    19
P           5.57889700      5.21001000      5.32107200
O           5.79940600      6.64864500      5.09358800
O           5.95953100      4.65501500      6.74636200
H           6.29122400      5.39527300      7.32040800
O           4.04816200      4.81542500      5.08479300
H           3.84895600      3.89694500      5.30840600
O           6.41529700      4.22043300      4.37636300
H           6.42224500      4.52137600      3.45849500
O           6.66873200      7.04326100      7.73457800
H           6.44726500      7.33867100      6.82958400
H           7.57028900      7.33494800      7.90635300
          11
 G =     -720.752123 Gcorr = 0.041118 a.u. Nimag =   0 Frame:    20 Step:    20 Geom:    20
P           5.54519000      5.03920500      5.36096200
O           5.69488000      6.48662300      5.09242900
O           5.93676900      4.59638800      6.81874200
H           6.32686200      5.36232300      7.31467700
O           4.06703200      4.48677400      5.08900500
H           3.39667100      5.15499300      5.28153500
O           6.41246000      4.03962800      4.47543300
H           6.24452700      4.13609100      3.52945300
O           6.76554000      7.03001000      7.60725800
H           6.49943100      7.25517900      6.69353300
H           7.68064100      7.31278900      7.70697300
          11
 G =     -720.751263 Gcorr = 0.040673 a.u. Nimag =   0 Frame:    21 Step:    21 Geom:    21
P           5.61269700      5.14584000      5.31544200
O           5.85076100      6.58694300      5.12267800
O           6.02825500      4.54397600      6.71160100
H           6.48836400      5.23586300      7.25620900
O           4.06857600      4.77952500      5.13114800
H           3.87283200      3.84619800      5.28540800
O           6.39359900      4.17721100      4.30384800
H           6.43424400      4.54837200      3.41295200
O           7.13773000      6.81786600      7.60591900
H           6.76815300      7.37707100      8.29748000
H           6.79478900      7.16113500      6.75731500
