 Entering Gaussian System, Link 0=g16
 Initial command:
 /data0/home/software/g16/l1.exe "/data0/home/software/g16/scratch/Gau-368561.inp" -scrdir="/data0/home/software/g16/scratch/"
 Default is to use a total of  22 processors:
                               22 via shared-memory
                                1 via Linda
 Entering Link 1 = /data0/home/software/g16/l1.exe PID=    368562.
  
 Copyright (c) 1988,1990,1992,1993,1995,1998,2003,2009,2016,
            Gaussian, Inc.  All Rights Reserved.
  
 This is part of the Gaussian(R) 16 program.  It is based on
 the Gaussian(R) 09 system (copyright 2009, Gaussian, Inc.),
 the Gaussian(R) 03 system (copyright 2003, Gaussian, Inc.),
 the Gaussian(R) 98 system (copyright 1998, Gaussian, Inc.),
 the Gaussian(R) 94 system (copyright 1995, Gaussian, Inc.),
 the Gaussian 92(TM) system (copyright 1992, Gaussian, Inc.),
 the Gaussian 90(TM) system (copyright 1990, Gaussian, Inc.),
 the Gaussian 88(TM) system (copyright 1988, Gaussian, Inc.),
 the Gaussian 86(TM) system (copyright 1986, Carnegie Mellon
 University), and the Gaussian 82(TM) system (copyright 1983,
 Carnegie Mellon University). Gaussian is a federally registered
 trademark of Gaussian, Inc.
  
 This software contains proprietary and confidential information,
 including trade secrets, belonging to Gaussian, Inc.
  
 This software is provided under written license and may be
 used, copied, transmitted, or stored only in accord with that
 written license.
  
 The following legend is applicable only to US Government
 contracts under FAR:
  
                    RESTRICTED RIGHTS LEGEND
  
 Use, reproduction and disclosure by the US Government is
 subject to restrictions as set forth in subparagraphs (a)
 and (c) of the Commercial Computer Software - Restricted
 Rights clause in FAR 52.227-19.
  
 Gaussian, Inc.
 340 Quinnipiac St., Bldg. 40, Wallingford CT 06492
  
  
 ---------------------------------------------------------------
 Warning -- This program may not be used in any manner that
 competes with the business of Gaussian, Inc. or will provide
 assistance to any competitor of Gaussian, Inc.  The licensee
 of this program is prohibited from giving any competitor of
 Gaussian, Inc. access to this program.  By using this program,
 the user acknowledges that Gaussian, Inc. is engaged in the
 business of creating and licensing software in the field of
 computational chemistry and represents and warrants to the
 licensee that it is not a competitor of Gaussian, Inc. and that
 it will not use this program in any manner prohibited above.
 ---------------------------------------------------------------
  

 Cite this work as:
 Gaussian 16, Revision A.03,
 M. J. Frisch, G. W. Trucks, H. B. Schlegel, G. E. Scuseria, 
 M. A. Robb, J. R. Cheeseman, G. Scalmani, V. Barone, 
 G. A. Petersson, H. Nakatsuji, X. Li, M. Caricato, A. V. Marenich, 
 J. Bloino, B. G. Janesko, R. Gomperts, B. Mennucci, H. P. Hratchian, 
 J. V. Ortiz, A. F. Izmaylov, J. L. Sonnenberg, D. Williams-Young, 
 F. Ding, F. Lipparini, F. Egidi, J. Goings, B. Peng, A. Petrone, 
 T. Henderson, D. Ranasinghe, V. G. Zakrzewski, J. Gao, N. Rega, 
 G. Zheng, W. Liang, M. Hada, M. Ehara, K. Toyota, R. Fukuda, 
 J. Hasegawa, M. Ishida, T. Nakajima, Y. Honda, O. Kitao, H. Nakai, 
 T. Vreven, K. Throssell, J. A. Montgomery, Jr., J. E. Peralta, 
 F. Ogliaro, M. J. Bearpark, J. J. Heyd, E. N. Brothers, K. N. Kudin, 
 V. N. Staroverov, T. A. Keith, R. Kobayashi, J. Normand, 
 K. Raghavachari, A. P. Rendell, J. C. Burant, S. S. Iyengar, 
 J. Tomasi, M. Cossi, J. M. Millam, M. Klene, C. Adamo, R. Cammi, 
 J. W. Ochterski, R. L. Martin, K. Morokuma, O. Farkas, 
 J. B. Foresman, and D. J. Fox, Gaussian, Inc., Wallingford CT, 2016.
 
 ******************************************
 Gaussian 16:  ES64L-G16RevA.03 25-Dec-2016
                20-Feb-2023 
 ******************************************
 %nproc=24
 Will use up to   24 processors via shared memory.
 %mem=50GB
 ---------------------------------------------------
 #p M062X/6-311+G(2d,p) nosymm em=GD3 counterpoise=3
 ---------------------------------------------------
 1/38=1,62=3,172=1/1;
 2/12=2,15=1,17=6,18=5,40=1/2;
 1/38=1,53=2,62=3,63=1/22;
 3/5=4,6=6,7=112,11=2,25=1,30=1,74=-55,124=31/1,2,3;
 4//1;
 5/5=2,38=5/2;
 6/7=2,8=2,9=2,10=2,28=1/1;
 1/53=2,62=3,63=1/22;
 3/5=7,6=11,7=112,11=2,25=1,30=1,74=-55,82=7,124=31/1,2,3;
 4//1;
 5/5=2,38=5/2;
 6/7=2,8=2,9=2,10=2,28=1/1;
 1/53=2,62=3,63=1/22(-4);
 99/5=1,9=1/99;
 Leave Link    1 at Mon Feb 20 01:47:09 2023, MaxMem=  6710886400 cpu:               0.7 elap:               0.0
 (Enter /data0/home/software/g16/l101.exe)
 -------------------
 Title Card Required
 -------------------
 Symbolic Z-matrix:
 Charge =  0 Multiplicity = 1 in supermolecule
 Charge =  0 Multiplicity = 1 in fragment      1.
 Charge =  0 Multiplicity = 1 in fragment      2.
 Charge =  0 Multiplicity = 1 in fragment      3.
 C                     9.14548   1.3795    16.78606    
 C                     9.37377   0.9332    18.08457    
 C                     9.93245   3.11143   17.98872    
 N                     9.47998   2.73096   16.75541    
 H                     8.82104   0.83391   15.91337    
 H                     9.25379  -0.05287   18.50803    
 H                     10.30897   4.10044   18.26056    
 C                     9.37809   3.60502   15.60154    
 H                     10.23429   4.3146    15.55758    
 H                     9.41892   3.01663   14.65712    
 H                     8.43526   4.17796   15.62511    
 N                     9.85488   2.01952   18.81363    
 C                     10.24129   1.99191   20.22468    
 H                     9.36814   1.63269   20.81895    
 H                     10.46049   3.03609   20.56934    
 C                     11.46173   1.08904   20.47335    
 H                     11.44392   0.7499    21.52895    
 H                     11.39343   0.15681   19.86584    
 C                     12.78494   1.7941    20.18589    
 H                     13.63107   1.21744   20.61055    
 H                     12.82553   2.79534   20.65315    
 C                     12.97784   1.89943   18.67414    
 O                     12.63867   2.98126   18.12882    
 O                     13.41952   0.90682   18.07661    
 O                     11.29774  -0.97046   17.6473    
 H                     12.10655  -0.47934   17.86651    
 H                     11.16106  -0.74962   16.72148    
 O                     11.66087   4.91775   19.63979    
 H                     12.23624   5.6706    19.60911    
 H                     12.12288   4.2137    19.10651    
 
 ITRead=  0  0  0  0  0  0  0  0  0  0  0  0  0  0  0  0  0  0  0  0
 ITRead=  0  0  0  0  0  0  0  0  0  0
 MicOpt= -1 -1 -1 -1 -1 -1 -1 -1 -1 -1 -1 -1 -1 -1 -1 -1 -1 -1 -1 -1
 MicOpt= -1 -1 -1 -1 -1 -1 -1 -1 -1 -1
 NAtoms=     30 NQM=       30 NQMF=       0 NMMI=      0 NMMIF=      0
                NMic=       0 NMicF=      0.
                    Isotopes and Nuclear Properties:
 (Nuclear quadrupole moments (NQMom) in fm**2, nuclear magnetic moments (NMagM)
  in nuclear magnetons)

  Atom         1           2           3           4           5           6           7           8           9          10
 IAtWgt=          12          12          12          14           1           1           1          12           1           1
 AtmWgt=  12.0000000  12.0000000  12.0000000  14.0030740   1.0078250   1.0078250   1.0078250  12.0000000   1.0078250   1.0078250
 NucSpn=           0           0           0           2           1           1           1           0           1           1
 AtZEff=  -0.0000000  -0.0000000  -0.0000000  -0.0000000  -0.0000000  -0.0000000  -0.0000000  -0.0000000  -0.0000000  -0.0000000
 NQMom=    0.0000000   0.0000000   0.0000000   2.0440000   0.0000000   0.0000000   0.0000000   0.0000000   0.0000000   0.0000000
 NMagM=    0.0000000   0.0000000   0.0000000   0.4037610   2.7928460   2.7928460   2.7928460   0.0000000   2.7928460   2.7928460
 AtZNuc=   6.0000000   6.0000000   6.0000000   7.0000000   1.0000000   1.0000000   1.0000000   6.0000000   1.0000000   1.0000000

  Atom        11          12          13          14          15          16          17          18          19          20
 IAtWgt=           1          14          12           1           1          12           1           1          12           1
 AtmWgt=   1.0078250  14.0030740  12.0000000   1.0078250   1.0078250  12.0000000   1.0078250   1.0078250  12.0000000   1.0078250
 NucSpn=           1           2           0           1           1           0           1           1           0           1
 AtZEff=  -0.0000000  -0.0000000  -0.0000000  -0.0000000  -0.0000000  -0.0000000  -0.0000000  -0.0000000  -0.0000000  -0.0000000
 NQMom=    0.0000000   2.0440000   0.0000000   0.0000000   0.0000000   0.0000000   0.0000000   0.0000000   0.0000000   0.0000000
 NMagM=    2.7928460   0.4037610   0.0000000   2.7928460   2.7928460   0.0000000   2.7928460   2.7928460   0.0000000   2.7928460
 AtZNuc=   1.0000000   7.0000000   6.0000000   1.0000000   1.0000000   6.0000000   1.0000000   1.0000000   6.0000000   1.0000000

  Atom        21          22          23          24          25          26          27          28          29          30
 IAtWgt=           1          12          16          16          16           1           1          16           1           1
 AtmWgt=   1.0078250  12.0000000  15.9949146  15.9949146  15.9949146   1.0078250   1.0078250  15.9949146   1.0078250   1.0078250
 NucSpn=           1           0           0           0           0           1           1           0           1           1
 AtZEff=  -0.0000000  -0.0000000  -0.0000000  -0.0000000  -0.0000000  -0.0000000  -0.0000000  -0.0000000  -0.0000000  -0.0000000
 NQMom=    0.0000000   0.0000000   0.0000000   0.0000000   0.0000000   0.0000000   0.0000000   0.0000000   0.0000000   0.0000000
 NMagM=    2.7928460   0.0000000   0.0000000   0.0000000   0.0000000   2.7928460   2.7928460   0.0000000   2.7928460   2.7928460
 AtZNuc=   1.0000000   6.0000000   8.0000000   8.0000000   8.0000000   1.0000000   1.0000000   8.0000000   1.0000000   1.0000000
 Leave Link  101 at Mon Feb 20 01:47:09 2023, MaxMem=  6710886400 cpu:               2.2 elap:               0.1
 (Enter /data0/home/software/g16/l202.exe)
                          Input orientation:                          
 ---------------------------------------------------------------------
 Center     Atomic      Atomic             Coordinates (Angstroms)
 Number     Number       Type             X           Y           Z
 ---------------------------------------------------------------------
      1          6           0        9.145479    1.379504   16.786063
      2          6           0        9.373766    0.933200   18.084569
      3          6           0        9.932450    3.111434   17.988718
      4          7           0        9.479984    2.730955   16.755414
      5          1           0        8.821035    0.833913   15.913372
      6          1           0        9.253789   -0.052866   18.508030
      7          1           0       10.308973    4.100437   18.260564
      8          6           0        9.378094    3.605017   15.601536
      9          1           0       10.234288    4.314602   15.557581
     10          1           0        9.418919    3.016635   14.657118
     11          1           0        8.435262    4.177961   15.625109
     12          7           0        9.854883    2.019522   18.813634
     13          6           0       10.241290    1.991912   20.224676
     14          1           0        9.368137    1.632690   20.818952
     15          1           0       10.460495    3.036086   20.569340
     16          6           0       11.461732    1.089042   20.473347
     17          1           0       11.443924    0.749895   21.528946
     18          1           0       11.393427    0.156810   19.865839
     19          6           0       12.784938    1.794095   20.185887
     20          1           0       13.631070    1.217437   20.610551
     21          1           0       12.825532    2.795341   20.653148
     22          6           0       12.977844    1.899428   18.674138
     23          8           0       12.638672    2.981263   18.128825
     24          8           0       13.419520    0.906822   18.076614
     25          8           0       11.297737   -0.970458   17.647298
     26          1           0       12.106548   -0.479341   17.866512
     27          1           0       11.161057   -0.749618   16.721483
     28          8           0       11.660870    4.917753   19.639794
     29          1           0       12.236236    5.670599   19.609106
     30          1           0       12.122884    4.213697   19.106511
 ---------------------------------------------------------------------
                    Distance matrix (angstroms):
                    1          2          3          4          5
     1  C    0.000000
     2  C    1.391912   0.000000
     3  C    2.250619   2.250782   0.000000
     4  N    1.392571   2.238271   1.367673   0.000000
     5  H    1.079131   2.242647   3.275577   2.177617   0.000000
     6  H    2.242451   1.079833   3.277661   3.297345   2.775951
     7  H    3.306259   3.307110   1.092610   2.197312   4.288758
     8  C    2.531822   3.647476   2.499915   1.451138   2.843690
     9  H    3.362956   4.308137   2.729312   2.124080   3.773469
    10  H    2.699514   4.011254   3.372278   2.118534   2.588419
    11  H    3.111846   4.178302   2.994278   2.112548   3.378546
    12  N    2.241411   1.393953   1.370684   2.209741   3.299398
    13  C    3.660588   2.540379   2.519567   3.627885   4.684595
    14  H    4.046959   2.822440   3.242739   4.210824   5.000208
    15  H    4.334365   3.431792   2.635170   3.949752   5.405130
    16  C    4.364110   3.176500   3.549951   4.521751   5.275580
    17  H    5.307937   4.022796   4.516042   5.528858   6.198490
    18  H    4.004157   2.802630   3.793131   4.467911   4.764207
    19  C    4.997635   4.097898   3.834009   4.854747   5.906679
    20  H    5.896906   4.958428   4.913351   5.863816   6.734019
    21  H    5.522837   4.688268   3.945760   5.137039   6.507586
    22  C    4.303739   3.777640   3.348609   4.075287   5.102569
    23  O    4.070754   3.854365   2.712971   3.453436   4.908533
    24  O    4.489585   4.045848   4.126463   4.537948   5.082420
    25  O    3.300949   2.741675   4.317687   4.219021   3.520839
    26  H    3.659317   3.083978   4.199441   4.294110   4.041533
    27  H    2.932556   2.807898   4.245360   3.865430   2.938761
    28  O    5.195207   4.850385   2.996043   4.225872   6.215194
    29  H    5.994652   5.741158   3.805577   4.937812   6.979655
    30  H    4.720389   4.400418   2.694893   3.835505   5.702743
                    6          7          8          9         10
     6  H    0.000000
     7  H    4.292386   0.000000
     8  C    4.673678   2.860491   0.000000
     9  H    5.361092   2.712483   1.112884   0.000000
    10  H    4.927335   3.866736   1.113457   1.777745   0.000000
    11  H    5.184700   3.234567   1.103518   1.805471   1.803681
    12  N    2.179335   2.200521   3.613682   4.001652   4.296618
    13  C    2.846603   2.882394   4.971985   5.213129   5.720494
    14  H    2.862610   3.676996   5.577778   5.968659   6.315543
    15  H    3.904710   2.546811   5.116087   5.177210   6.003301
    16  C    3.168823   3.910724   5.865682   6.006298   6.458887
    17  H    3.816680   4.816281   6.895909   7.058864   7.514039
    18  H    2.542766   4.393762   5.842600   6.098518   6.261634
    19  C    4.323827   3.893133   5.991853   5.854911   6.587259
    20  H    5.019448   4.987029   6.991321   6.831037   7.511504
    21  H    5.046896   3.709556   6.169213   5.915023   6.899736
    22  C    4.208043   3.484014   5.030717   4.803446   5.481838
    23  O    4.561487   2.587934   4.172245   3.764326   4.735062
    24  O    4.296561   4.461896   5.453383   5.301339   5.670015
    25  O    2.400116   5.202665   5.367042   5.781842   5.326166
    26  H    2.954938   4.935678   5.408933   5.640781   5.453935
    27  H    2.704604   5.159249   4.836950   5.278247   4.634793
    28  O    5.637551   2.097119   4.820982   4.366164   5.785124
    29  H    6.547168   2.828130   5.338185   4.718197   6.285140
    30  H    5.176239   2.004676   4.493241   4.021428   5.342423
                   11         12         13         14         15
    11  H    0.000000
    12  N    4.103763   0.000000
    13  C    5.403384   1.463254   0.000000
    14  H    5.858726   2.099491   1.115617   0.000000
    15  H    5.463595   2.117232   1.121224   1.795849   0.000000
    16  C    6.496642   2.490463   1.538340   2.190465   2.191500
    17  H    7.460494   3.392628   2.165653   2.364807   2.667329
    18  H    6.550129   2.635137   2.196311   2.681128   3.107331
    19  C    6.738189   3.243319   2.551623   3.478700   2.663196
    20  H    7.785612   4.258150   3.498474   4.288177   3.655370
    21  H    6.816692   3.579171   2.739962   3.651415   2.378735
    22  C    5.926495   3.128381   3.146657   4.207299   3.349750
    23  O    5.036798   3.023804   3.334494   4.444303   3.271632
    24  O    6.446166   3.806302   3.986570   4.945807   4.416251
    25  O    6.228100   3.518828   4.066275   4.534217   5.029085
    26  H    6.339771   3.494474   3.891942   4.547139   4.730010
    27  H    5.736988   3.708278   4.542501   5.067465   5.443193
    28  O    5.202839   3.513385   3.304215   4.175964   2.417773
    29  H    5.705051   4.431025   4.229831   5.098473   3.319031
    30  H    5.071488   3.169229   3.118817   4.145200   2.508022
                   16         17         18         19         20
    16  C    0.000000
    17  H    1.108886   0.000000
    18  H    1.114804   1.766416   0.000000
    19  C    1.526633   2.166213   2.172426   0.000000
    20  H    2.177461   2.417778   2.585841   1.108519   0.000000
    21  H    2.191742   2.619105   3.103647   1.105656   1.772142
    22  C    2.488468   3.438643   2.639554   1.527643   2.154417
    23  O    3.234574   4.238779   3.541947   2.379552   3.202327
    24  O    3.100075   3.980729   2.805155   2.374654   2.561654
    25  O    3.500712   4.248315   2.490344   4.037196   4.360298
    26  H    3.109856   3.919632   2.215973   3.317864   3.568329
    27  H    4.188981   5.043833   3.280637   4.594514   5.009503
    28  O    3.923454   4.581157   4.773804   3.364370   4.303068
    29  H    4.726249   5.341055   5.583736   3.957402   4.772746
    30  H    3.474022   4.281017   4.191303   2.730905   3.676185
                   21         22         23         24         25
    21  H    0.000000
    22  C    2.177691   0.000000
    23  O    2.538049   1.258082   0.000000
    24  O    3.249285   1.239911   2.217150   0.000000
    25  O    5.054754   3.480432   4.200723   2.865389   0.000000
    26  H    4.359567   2.658939   3.511089   1.920804   0.971301
    27  H    5.549342   3.759125   4.252462   3.111403   0.961554
    28  O    2.624492   3.431792   2.643694   4.650156   6.226792
    29  H    3.115189   3.955487   3.096081   5.142204   6.988069
    30  H    2.213037   2.504744   1.655536   3.698294   5.448452
                   26         27         28         29         30
    26  H    0.000000
    27  H    1.509336   0.000000
    28  O    5.698402   6.394173   0.000000
    29  H    6.393373   7.121346   0.948032   0.000000
    30  H    4.854119   5.589988   0.996766   1.545320   0.000000
 Symmetry turned off by external request.
 Stoichiometry    C8H16N2O4
 Framework group  C1[X(C8H16N2O4)]
 Deg. of freedom    84
 Full point group                 C1      NOp   1
 Rotational constants (GHZ):           0.7362715           0.5905521           0.4701578
 Leave Link  202 at Mon Feb 20 01:47:09 2023, MaxMem=  6710886400 cpu:               0.1 elap:               0.0
 (Enter /data0/home/software/g16/l122.exe)
 Counterpoise: doing full-system calculation.
 Leave Link  122 at Mon Feb 20 01:47:09 2023, MaxMem=  6710886400 cpu:               0.0 elap:               0.0
 (Enter /data0/home/software/g16/l301.exe)
 Standard basis: 6-311+G(2d,p) (5D, 7F)
 Ernie: Thresh=  0.10000D-02 Tol=  0.10000D-05 Strict=F.
   474 basis functions,   716 primitive gaussians,   502 cartesian basis functions
    55 alpha electrons       55 beta electrons
       nuclear repulsion energy      1013.0529035992 Hartrees.
 IExCor= 4336 DFT=T Ex+Corr=M062X ExCW=0 ScaHFX=  0.540000
 ScaDFX=  1.000000  1.000000  1.000000  1.000000 ScalE2=  1.000000  1.000000
 IRadAn=      5 IRanWt=     -1 IRanGd=            0 ICorTp=0 IEmpDi=131
 NAtoms=   30 NActive=   30 NUniq=   30 SFac= 1.00D+00 NAtFMM=   60 NAOKFM=F Big=F
 Integral buffers will be    131072 words long.
 Raffenetti 2 integral format.
 Two-electron integral symmetry is turned off.
 R6Disp:  Grimme-D3 Dispersion energy=       -0.0017792152 Hartrees.
 Nuclear repulsion after empirical dispersion term =     1013.0511243840 Hartrees.
 Leave Link  301 at Mon Feb 20 01:47:09 2023, MaxMem=  6710886400 cpu:               1.1 elap:               0.1
 (Enter /data0/home/software/g16/l302.exe)
 NPDir=0 NMtPBC=     1 NCelOv=     1 NCel=       1 NClECP=     1 NCelD=      1
         NCelK=      1 NCelE2=     1 NClLst=     1 CellRange=     0.0.
 One-electron integrals computed using PRISM.
 NBasis=   474 RedAO= T EigKep=  8.98D-06  NBF=   474
 NBsUse=   474 1.00D-06 EigRej= -1.00D+00 NBFU=   474
 Precomputing XC quadrature grid using
 IXCGrd= 4 IRadAn=           5 IRanWt=          -1 IRanGd=           0 AccXCQ= 0.00D+00.
 Generated NRdTot=       0 NPtTot=           0 NUsed=           0 NTot=          32
 NSgBfM=   502   501   502   502   502 MxSgAt=    30 MxSgA2=    30.
 Leave Link  302 at Mon Feb 20 01:47:09 2023, MaxMem=  6710886400 cpu:              10.5 elap:               0.5
 (Enter /data0/home/software/g16/l303.exe)
 DipDrv:  MaxL=1.
 Leave Link  303 at Mon Feb 20 01:47:09 2023, MaxMem=  6710886400 cpu:               1.1 elap:               0.1
 (Enter /data0/home/software/g16/l401.exe)
 ExpMin= 4.38D-02 ExpMax= 8.59D+03 ExpMxC= 1.30D+03 IAcc=3 IRadAn=         5 AccDes= 0.00D+00
 Harris functional with IExCor= 1009 and IRadAn=       5 diagonalized for initial guess.
 HarFok:  IExCor= 1009 AccDes= 0.00D+00 IRadAn=         5 IDoV= 1 UseB2=F ITyADJ=14
 ICtDFT=  3500011 ScaDFX=  1.000000  1.000000  1.000000  1.000000
 FoFCou: FMM=F IPFlag=           0 FMFlag=      100000 FMFlg1=           0
         NFxFlg=           0 DoJE=T BraDBF=F KetDBF=T FulRan=T
         wScrn=  0.000000 ICntrl=       500 IOpCl=  0 I1Cent=   200000004 NGrid=           0
         NMat0=    1 NMatS0=      1 NMatT0=    0 NMatD0=    1 NMtDS0=    0 NMtDT0=    0
 Symmetry not used in FoFCou.
 Harris En= -724.519671731165    
 JPrj=0 DoOrth=F DoCkMO=F.
 Leave Link  401 at Mon Feb 20 01:47:11 2023, MaxMem=  6710886400 cpu:              46.4 elap:               2.0
 (Enter /data0/home/software/g16/l502.exe)
 Two-electron integral symmetry not used.
 Closed shell SCF:
 Using DIIS extrapolation, IDIIS=  1040.
 NGot=  6710886400 LenX=  6710366732 LenY=  6710114226
 Requested convergence on RMS density matrix=1.00D-08 within 128 cycles.
 Requested convergence on MAX density matrix=1.00D-06.
 Requested convergence on             energy=1.00D-06.
 No special actions if energy rises.
 Fock matrices will be formed incrementally for  20 cycles.

 Cycle   1  Pass 1  IDiag  1:
 FoFJK:  IHMeth= 1 ICntrl=       0 DoSepK=F KAlg= 0 I1Cent=           0 FoldK=F
 IRaf= 900000000 NMat=       1 IRICut=       1 DoRegI=T DoRafI=F ISym2E= 0 IDoP0=0 IntGTp=1.
 FoFCou: FMM=F IPFlag=           0 FMFlag=      100000 FMFlg1=           0
         NFxFlg=           0 DoJE=F BraDBF=F KetDBF=F FulRan=T
         wScrn=  0.000000 ICntrl=         0 IOpCl=  0 I1Cent=           0 NGrid=           0
         NMat0=    1 NMatS0=      1 NMatT0=    0 NMatD0=    1 NMtDS0=    0 NMtDT0=    0
 Symmetry not used in FoFCou.
 E= -724.375687750123    
 DIIS: error= 2.33D-02 at cycle   1 NSaved=   1.
 NSaved= 1 IEnMin= 1 EnMin= -724.375687750123     IErMin= 1 ErrMin= 2.33D-02
 ErrMax= 2.33D-02  0.00D+00 EMaxC= 1.00D-01 BMatC= 6.64D-01 BMatP= 6.64D-01
 IDIUse=3 WtCom= 7.67D-01 WtEn= 2.33D-01
 Coeff-Com:  0.100D+01
 Coeff-En:   0.100D+01
 Coeff:      0.100D+01
 Gap=     0.354 Goal=   None    Shift=    0.000
 GapD=    0.354 DampG=1.000 DampE=0.500 DampFc=0.5000 IDamp=-1.
 Damping current iteration by 5.00D-01
 RMSDP=5.33D-03 MaxDP=5.43D-01              OVMax= 1.81D-01

 Cycle   2  Pass 1  IDiag  1:
 RMSU=  2.66D-03    CP:  9.94D-01
 E= -724.581949619044     Delta-E=       -0.206261868920 Rises=F Damp=T
 DIIS: error= 5.24D-03 at cycle   2 NSaved=   2.
 NSaved= 2 IEnMin= 2 EnMin= -724.581949619044     IErMin= 2 ErrMin= 5.24D-03
 ErrMax= 5.24D-03  0.00D+00 EMaxC= 1.00D-01 BMatC= 4.46D-02 BMatP= 6.64D-01
 IDIUse=3 WtCom= 9.48D-01 WtEn= 5.24D-02
 Coeff-Com: -0.595D-02 0.101D+01
 Coeff-En:   0.278D-01 0.972D+00
 Coeff:     -0.418D-02 0.100D+01
 Gap=     0.269 Goal=   None    Shift=    0.000
 RMSDP=2.40D-03 MaxDP=2.62D-01 DE=-2.06D-01 OVMax= 1.07D-01

 Cycle   3  Pass 1  IDiag  1:
 RMSU=  2.04D-03    CP:  8.80D-01  9.05D-01
 E= -724.810789022633     Delta-E=       -0.228839403590 Rises=F Damp=F
 DIIS: error= 3.19D-03 at cycle   3 NSaved=   3.
 NSaved= 3 IEnMin= 3 EnMin= -724.810789022633     IErMin= 3 ErrMin= 3.19D-03
 ErrMax= 3.19D-03  0.00D+00 EMaxC= 1.00D-01 BMatC= 1.14D-02 BMatP= 4.46D-02
 IDIUse=3 WtCom= 9.68D-01 WtEn= 3.19D-02
 Coeff-Com: -0.684D-01 0.302D+00 0.767D+00
 Coeff-En:   0.000D+00 0.000D+00 0.100D+01
 Coeff:     -0.662D-01 0.292D+00 0.774D+00
 Gap=     0.264 Goal=   None    Shift=    0.000
 RMSDP=3.99D-04 MaxDP=4.38D-02 DE=-2.29D-01 OVMax= 1.98D-02

 Cycle   4  Pass 1  IDiag  1:
 RMSU=  3.56D-04    CP:  8.80D-01  9.73D-01  9.95D-01
 E= -724.817274351406     Delta-E=       -0.006485328773 Rises=F Damp=F
 DIIS: error= 1.51D-03 at cycle   4 NSaved=   4.
 NSaved= 4 IEnMin= 4 EnMin= -724.817274351406     IErMin= 4 ErrMin= 1.51D-03
 ErrMax= 1.51D-03  0.00D+00 EMaxC= 1.00D-01 BMatC= 2.20D-03 BMatP= 1.14D-02
 IDIUse=3 WtCom= 9.85D-01 WtEn= 1.51D-02
 Coeff-Com: -0.306D-01 0.785D-01 0.375D+00 0.577D+00
 Coeff-En:   0.000D+00 0.000D+00 0.117D+00 0.883D+00
 Coeff:     -0.302D-01 0.773D-01 0.371D+00 0.581D+00
 Gap=     0.260 Goal=   None    Shift=    0.000
 RMSDP=1.36D-04 MaxDP=6.98D-03 DE=-6.49D-03 OVMax= 1.01D-02

 Cycle   5  Pass 1  IDiag  1:
 RMSU=  1.16D-04    CP:  8.78D-01  9.69D-01  1.00D+00  8.19D-01
 E= -724.819067127690     Delta-E=       -0.001792776284 Rises=F Damp=F
 DIIS: error= 5.57D-04 at cycle   5 NSaved=   5.
 NSaved= 5 IEnMin= 5 EnMin= -724.819067127690     IErMin= 5 ErrMin= 5.57D-04
 ErrMax= 5.57D-04  0.00D+00 EMaxC= 1.00D-01 BMatC= 1.70D-04 BMatP= 2.20D-03
 IDIUse=3 WtCom= 9.94D-01 WtEn= 5.57D-03
 Coeff-Com: -0.114D-01 0.225D-01 0.142D+00 0.295D+00 0.552D+00
 Coeff-En:   0.000D+00 0.000D+00 0.000D+00 0.000D+00 0.100D+01
 Coeff:     -0.113D-01 0.223D-01 0.141D+00 0.293D+00 0.554D+00
 Gap=     0.257 Goal=   None    Shift=    0.000
 RMSDP=4.88D-05 MaxDP=6.84D-03 DE=-1.79D-03 OVMax= 4.35D-03

 Cycle   6  Pass 1  IDiag  1:
 RMSU=  4.31D-05    CP:  8.79D-01  9.72D-01  1.00D+00  8.56D-01  8.93D-01
 E= -724.819185986123     Delta-E=       -0.000118858433 Rises=F Damp=F
 DIIS: error= 1.58D-04 at cycle   6 NSaved=   6.
 NSaved= 6 IEnMin= 6 EnMin= -724.819185986123     IErMin= 6 ErrMin= 1.58D-04
 ErrMax= 1.58D-04  0.00D+00 EMaxC= 1.00D-01 BMatC= 1.57D-05 BMatP= 1.70D-04
 IDIUse=3 WtCom= 9.98D-01 WtEn= 1.58D-03
 Coeff-Com: -0.211D-02 0.241D-02 0.269D-01 0.777D-01 0.272D+00 0.623D+00
 Coeff-En:   0.000D+00 0.000D+00 0.000D+00 0.000D+00 0.000D+00 0.100D+01
 Coeff:     -0.211D-02 0.241D-02 0.268D-01 0.776D-01 0.271D+00 0.624D+00
 Gap=     0.258 Goal=   None    Shift=    0.000
 RMSDP=1.93D-05 MaxDP=2.75D-03 DE=-1.19D-04 OVMax= 1.05D-03

 Cycle   7  Pass 1  IDiag  1:
 RMSU=  1.54D-05    CP:  8.79D-01  9.74D-01  1.00D+00  8.76D-01  9.40D-01
                    CP:  1.11D+00
 E= -724.819197758761     Delta-E=       -0.000011772637 Rises=F Damp=F
 DIIS: error= 3.74D-05 at cycle   7 NSaved=   7.
 NSaved= 7 IEnMin= 7 EnMin= -724.819197758761     IErMin= 7 ErrMin= 3.74D-05
 ErrMax= 3.74D-05  0.00D+00 EMaxC= 1.00D-01 BMatC= 1.25D-06 BMatP= 1.57D-05
 IDIUse=1 WtCom= 1.00D+00 WtEn= 0.00D+00
 Coeff-Com:  0.857D-03-0.236D-02-0.943D-02-0.109D-01 0.334D-01 0.237D+00
 Coeff-Com:  0.751D+00
 Coeff:      0.857D-03-0.236D-02-0.943D-02-0.109D-01 0.334D-01 0.237D+00
 Coeff:      0.751D+00
 Gap=     0.258 Goal=   None    Shift=    0.000
 RMSDP=6.23D-06 MaxDP=3.00D-04 DE=-1.18D-05 OVMax= 3.32D-04

 Cycle   8  Pass 1  IDiag  1:
 RMSU=  4.83D-06    CP:  8.79D-01  9.73D-01  1.00D+00  8.79D-01  9.66D-01
                    CP:  1.13D+00  9.48D-01
 E= -724.819198924929     Delta-E=       -0.000001166168 Rises=F Damp=F
 DIIS: error= 1.48D-05 at cycle   8 NSaved=   8.
 NSaved= 8 IEnMin= 8 EnMin= -724.819198924929     IErMin= 8 ErrMin= 1.48D-05
 ErrMax= 1.48D-05  0.00D+00 EMaxC= 1.00D-01 BMatC= 1.89D-07 BMatP= 1.25D-06
 IDIUse=1 WtCom= 1.00D+00 WtEn= 0.00D+00
 Coeff-Com:  0.595D-03-0.123D-02-0.682D-02-0.136D-01-0.159D-01 0.269D-01
 Coeff-Com:  0.325D+00 0.685D+00
 Coeff:      0.595D-03-0.123D-02-0.682D-02-0.136D-01-0.159D-01 0.269D-01
 Coeff:      0.325D+00 0.685D+00
 Gap=     0.258 Goal=   None    Shift=    0.000
 RMSDP=2.07D-06 MaxDP=1.17D-04 DE=-1.17D-06 OVMax= 1.38D-04

 Cycle   9  Pass 1  IDiag  1:
 RMSU=  1.59D-06    CP:  8.79D-01  9.73D-01  1.00D+00  8.79D-01  9.72D-01
                    CP:  1.14D+00  9.76D-01  1.04D+00
 E= -724.819199092112     Delta-E=       -0.000000167183 Rises=F Damp=F
 DIIS: error= 3.62D-06 at cycle   9 NSaved=   9.
 NSaved= 9 IEnMin= 9 EnMin= -724.819199092112     IErMin= 9 ErrMin= 3.62D-06
 ErrMax= 3.62D-06  0.00D+00 EMaxC= 1.00D-01 BMatC= 2.05D-08 BMatP= 1.89D-07
 IDIUse=1 WtCom= 1.00D+00 WtEn= 0.00D+00
 Coeff-Com:  0.151D-03-0.272D-03-0.179D-02-0.447D-02-0.897D-02-0.121D-01
 Coeff-Com:  0.601D-01 0.291D+00 0.677D+00
 Coeff:      0.151D-03-0.272D-03-0.179D-02-0.447D-02-0.897D-02-0.121D-01
 Coeff:      0.601D-01 0.291D+00 0.677D+00
 Gap=     0.258 Goal=   None    Shift=    0.000
 RMSDP=7.94D-07 MaxDP=1.09D-04 DE=-1.67D-07 OVMax= 3.50D-05

 Cycle  10  Pass 1  IDiag  1:
 RMSU=  6.13D-07    CP:  8.79D-01  9.73D-01  1.00D+00  8.79D-01  9.71D-01
                    CP:  1.13D+00  9.83D-01  1.11D+00  1.04D+00
 E= -724.819199110416     Delta-E=       -0.000000018304 Rises=F Damp=F
 DIIS: error= 9.81D-07 at cycle  10 NSaved=  10.
 NSaved=10 IEnMin=10 EnMin= -724.819199110416     IErMin=10 ErrMin= 9.81D-07
 ErrMax= 9.81D-07  0.00D+00 EMaxC= 1.00D-01 BMatC= 1.43D-09 BMatP= 2.05D-08
 IDIUse=1 WtCom= 1.00D+00 WtEn= 0.00D+00
 Coeff-Com: -0.302D-04 0.689D-04 0.289D-03 0.263D-03-0.481D-03-0.728D-02
 Coeff-Com: -0.244D-01 0.608D-03 0.187D+00 0.844D+00
 Coeff:     -0.302D-04 0.689D-04 0.289D-03 0.263D-03-0.481D-03-0.728D-02
 Coeff:     -0.244D-01 0.608D-03 0.187D+00 0.844D+00
 Gap=     0.258 Goal=   None    Shift=    0.000
 RMSDP=4.60D-07 MaxDP=9.57D-05 DE=-1.83D-08 OVMax= 2.59D-05

 Cycle  11  Pass 1  IDiag  1:
 RMSU=  1.51D-07    CP:  8.79D-01  9.73D-01  1.00D+00  8.78D-01  9.70D-01
                    CP:  1.13D+00  9.79D-01  1.15D+00  1.15D+00  1.15D+00
 E= -724.819199112483     Delta-E=       -0.000000002067 Rises=F Damp=F
 DIIS: error= 6.28D-07 at cycle  11 NSaved=  11.
 NSaved=11 IEnMin=11 EnMin= -724.819199112483     IErMin=11 ErrMin= 6.28D-07
 ErrMax= 6.28D-07  0.00D+00 EMaxC= 1.00D-01 BMatC= 3.63D-10 BMatP= 1.43D-09
 IDIUse=1 WtCom= 1.00D+00 WtEn= 0.00D+00
 Coeff-Com: -0.285D-04 0.588D-04 0.302D-03 0.530D-03 0.659D-03-0.243D-02
 Coeff-Com: -0.175D-01-0.276D-01 0.180D-01 0.395D+00 0.633D+00
 Coeff:     -0.285D-04 0.588D-04 0.302D-03 0.530D-03 0.659D-03-0.243D-02
 Coeff:     -0.175D-01-0.276D-01 0.180D-01 0.395D+00 0.633D+00
 Gap=     0.258 Goal=   None    Shift=    0.000
 RMSDP=9.89D-08 MaxDP=1.71D-05 DE=-2.07D-09 OVMax= 6.93D-06

 Cycle  12  Pass 1  IDiag  1:
 RMSU=  5.18D-08    CP:  8.79D-01  9.73D-01  1.00D+00  8.78D-01  9.70D-01
                    CP:  1.13D+00  9.78D-01  1.15D+00  1.17D+00  1.21D+00
                    CP:  1.02D+00
 E= -724.819199112790     Delta-E=       -0.000000000307 Rises=F Damp=F
 DIIS: error= 3.31D-07 at cycle  12 NSaved=  12.
 NSaved=12 IEnMin=12 EnMin= -724.819199112790     IErMin=12 ErrMin= 3.31D-07
 ErrMax= 3.31D-07  0.00D+00 EMaxC= 1.00D-01 BMatC= 6.58D-11 BMatP= 3.63D-10
 IDIUse=1 WtCom= 1.00D+00 WtEn= 0.00D+00
 Coeff-Com: -0.937D-05 0.187D-04 0.110D-03 0.228D-03 0.457D-03-0.378D-04
 Coeff-Com: -0.474D-02-0.133D-01-0.209D-01 0.649D-01 0.325D+00 0.648D+00
 Coeff:     -0.937D-05 0.187D-04 0.110D-03 0.228D-03 0.457D-03-0.378D-04
 Coeff:     -0.474D-02-0.133D-01-0.209D-01 0.649D-01 0.325D+00 0.648D+00
 Gap=     0.258 Goal=   None    Shift=    0.000
 RMSDP=4.31D-08 MaxDP=7.74D-06 DE=-3.07D-10 OVMax= 3.45D-06

 Cycle  13  Pass 1  IDiag  1:
 RMSU=  2.36D-08    CP:  8.79D-01  9.73D-01  1.00D+00  8.78D-01  9.70D-01
                    CP:  1.13D+00  9.78D-01  1.16D+00  1.17D+00  1.22D+00
                    CP:  1.08D+00  9.32D-01
 E= -724.819199112865     Delta-E=       -0.000000000075 Rises=F Damp=F
 DIIS: error= 8.63D-08 at cycle  13 NSaved=  13.
 NSaved=13 IEnMin=13 EnMin= -724.819199112865     IErMin=13 ErrMin= 8.63D-08
 ErrMax= 8.63D-08  0.00D+00 EMaxC= 1.00D-01 BMatC= 5.37D-12 BMatP= 6.58D-11
 IDIUse=1 WtCom= 1.00D+00 WtEn= 0.00D+00
 Coeff-Com:  0.141D-05-0.289D-05-0.698D-05-0.356D-05 0.510D-04 0.285D-03
 Coeff-Com:  0.885D-03-0.440D-03-0.101D-01-0.403D-01 0.144D-01 0.227D+00
 Coeff-Com:  0.809D+00
 Coeff:      0.141D-05-0.289D-05-0.698D-05-0.356D-05 0.510D-04 0.285D-03
 Coeff:      0.885D-03-0.440D-03-0.101D-01-0.403D-01 0.144D-01 0.227D+00
 Coeff:      0.809D+00
 Gap=     0.258 Goal=   None    Shift=    0.000
 RMSDP=1.41D-08 MaxDP=1.51D-06 DE=-7.53D-11 OVMax= 1.46D-06

 Cycle  14  Pass 1  IDiag  1:
 RMSU=  9.93D-09    CP:  8.79D-01  9.73D-01  1.00D+00  8.78D-01  9.70D-01
                    CP:  1.13D+00  9.78D-01  1.16D+00  1.17D+00  1.23D+00
                    CP:  1.10D+00  1.03D+00  1.13D+00
 E= -724.819199112865     Delta-E=        0.000000000000 Rises=F Damp=F
 DIIS: error= 2.11D-08 at cycle  14 NSaved=  14.
 NSaved=14 IEnMin=13 EnMin= -724.819199112865     IErMin=14 ErrMin= 2.11D-08
 ErrMax= 2.11D-08  0.00D+00 EMaxC= 1.00D-01 BMatC= 6.61D-13 BMatP= 5.37D-12
 IDIUse=1 WtCom= 1.00D+00 WtEn= 0.00D+00
 Coeff-Com:  0.158D-05-0.315D-05-0.135D-04-0.234D-04-0.214D-04 0.125D-03
 Coeff-Com:  0.870D-03 0.111D-02-0.198D-02-0.228D-01-0.281D-01 0.149D-01
 Coeff-Com:  0.308D+00 0.728D+00
 Coeff:      0.158D-05-0.315D-05-0.135D-04-0.234D-04-0.214D-04 0.125D-03
 Coeff:      0.870D-03 0.111D-02-0.198D-02-0.228D-01-0.281D-01 0.149D-01
 Coeff:      0.308D+00 0.728D+00
 Gap=     0.258 Goal=   None    Shift=    0.000
 RMSDP=4.79D-09 MaxDP=4.70D-07 DE= 4.55D-13 OVMax= 3.50D-07

 SCF Done:  E(RM062X) =  -724.819199113     A.U. after   14 cycles
            NFock= 14  Conv=0.48D-08     -V/T= 2.0043
 KE= 7.216853068960D+02 PE=-3.722146593877D+03 EE= 1.262590963485D+03
 Leave Link  502 at Mon Feb 20 01:48:38 2023, MaxMem=  6710886400 cpu:            2084.5 elap:              87.1
 (Enter /data0/home/software/g16/l601.exe)
 Copying SCF densities to generalized density rwf, IOpCl= 0 IROHF=0.

 **********************************************************************

            Population analysis using the SCF density.

 **********************************************************************

 Alpha  occ. eigenvalues --  -19.59171 -19.59139 -19.54012 -19.53022 -14.87257
 Alpha  occ. eigenvalues --  -14.86376 -10.67005 -10.62892 -10.62411 -10.62321
 Alpha  occ. eigenvalues --  -10.60790 -10.59632 -10.54762 -10.51376  -1.19656
 Alpha  occ. eigenvalues --   -1.13092  -1.10457  -1.10253  -1.08517  -1.03066
 Alpha  occ. eigenvalues --   -0.92563  -0.89409  -0.86012  -0.80301  -0.74627
 Alpha  occ. eigenvalues --   -0.72098  -0.69533  -0.65269  -0.60316  -0.60164
 Alpha  occ. eigenvalues --   -0.58284  -0.57563  -0.57056  -0.56549  -0.55566
 Alpha  occ. eigenvalues --   -0.54399  -0.53518  -0.51156  -0.50340  -0.49598
 Alpha  occ. eigenvalues --   -0.48551  -0.47138  -0.45394  -0.44768  -0.44489
 Alpha  occ. eigenvalues --   -0.42733  -0.41222  -0.40339  -0.38138  -0.37357
 Alpha  occ. eigenvalues --   -0.36771  -0.32953  -0.29184  -0.29033  -0.27899
 Alpha virt. eigenvalues --   -0.02068  -0.00838   0.00054   0.01263   0.02121
 Alpha virt. eigenvalues --    0.02663   0.03248   0.03335   0.04245   0.05082
 Alpha virt. eigenvalues --    0.05100   0.05919   0.06738   0.06994   0.07540
 Alpha virt. eigenvalues --    0.08472   0.09242   0.09883   0.10470   0.10784
 Alpha virt. eigenvalues --    0.10907   0.11687   0.12392   0.12431   0.12818
 Alpha virt. eigenvalues --    0.13337   0.13786   0.14225   0.15385   0.15869
 Alpha virt. eigenvalues --    0.16214   0.16542   0.17111   0.17407   0.18016
 Alpha virt. eigenvalues --    0.18107   0.18228   0.18893   0.19304   0.19781
 Alpha virt. eigenvalues --    0.20508   0.20607   0.21062   0.21462   0.21949
 Alpha virt. eigenvalues --    0.22727   0.23274   0.23714   0.24631   0.25049
 Alpha virt. eigenvalues --    0.25842   0.26347   0.26660   0.27003   0.27257
 Alpha virt. eigenvalues --    0.27893   0.27949   0.28684   0.29517   0.29940
 Alpha virt. eigenvalues --    0.30312   0.31220   0.31944   0.32303   0.32528
 Alpha virt. eigenvalues --    0.33104   0.34208   0.35044   0.35871   0.36328
 Alpha virt. eigenvalues --    0.36846   0.37232   0.37730   0.39361   0.40139
 Alpha virt. eigenvalues --    0.40761   0.41242   0.41745   0.42203   0.43145
 Alpha virt. eigenvalues --    0.43507   0.44837   0.45136   0.45557   0.46861
 Alpha virt. eigenvalues --    0.47607   0.48541   0.50175   0.51767   0.52155
 Alpha virt. eigenvalues --    0.52632   0.53254   0.55444   0.55782   0.56744
 Alpha virt. eigenvalues --    0.57428   0.57877   0.58885   0.59193   0.59711
 Alpha virt. eigenvalues --    0.60566   0.61623   0.62287   0.63546   0.63706
 Alpha virt. eigenvalues --    0.64004   0.64824   0.65022   0.65901   0.67086
 Alpha virt. eigenvalues --    0.67459   0.67772   0.68207   0.69035   0.70525
 Alpha virt. eigenvalues --    0.70999   0.71635   0.72849   0.73304   0.73933
 Alpha virt. eigenvalues --    0.74951   0.75796   0.76720   0.78081   0.79262
 Alpha virt. eigenvalues --    0.79705   0.80645   0.80664   0.81742   0.82641
 Alpha virt. eigenvalues --    0.83640   0.85443   0.86730   0.88291   0.89407
 Alpha virt. eigenvalues --    0.89785   0.90996   0.91553   0.92088   0.94203
 Alpha virt. eigenvalues --    0.95306   0.96830   0.99299   0.99704   1.01399
 Alpha virt. eigenvalues --    1.03760   1.04920   1.05784   1.06635   1.08594
 Alpha virt. eigenvalues --    1.09030   1.09734   1.11142   1.13158   1.14215
 Alpha virt. eigenvalues --    1.15104   1.16272   1.18161   1.18648   1.19229
 Alpha virt. eigenvalues --    1.19899   1.21315   1.22317   1.22874   1.23185
 Alpha virt. eigenvalues --    1.23874   1.24649   1.25291   1.26441   1.26650
 Alpha virt. eigenvalues --    1.27125   1.28286   1.28937   1.30214   1.30764
 Alpha virt. eigenvalues --    1.31406   1.32657   1.34163   1.36259   1.36873
 Alpha virt. eigenvalues --    1.37077   1.38337   1.39193   1.39320   1.40524
 Alpha virt. eigenvalues --    1.41644   1.41952   1.43062   1.44175   1.44262
 Alpha virt. eigenvalues --    1.45247   1.46393   1.46638   1.47031   1.47390
 Alpha virt. eigenvalues --    1.50305   1.50647   1.51563   1.52274   1.53644
 Alpha virt. eigenvalues --    1.55213   1.57444   1.59316   1.61290   1.62989
 Alpha virt. eigenvalues --    1.65485   1.66160   1.68533   1.70044   1.72232
 Alpha virt. eigenvalues --    1.72690   1.76072   1.77111   1.78571   1.79460
 Alpha virt. eigenvalues --    1.79723   1.81379   1.82093   1.82725   1.83369
 Alpha virt. eigenvalues --    1.85084   1.85893   1.86750   1.88619   1.89190
 Alpha virt. eigenvalues --    1.90391   1.90988   1.92515   1.95978   1.99379
 Alpha virt. eigenvalues --    2.02322   2.03065   2.03970   2.05557   2.06907
 Alpha virt. eigenvalues --    2.07714   2.10812   2.11536   2.13335   2.16591
 Alpha virt. eigenvalues --    2.18159   2.18808   2.20209   2.20567   2.21084
 Alpha virt. eigenvalues --    2.23366   2.24490   2.26000   2.26990   2.29286
 Alpha virt. eigenvalues --    2.30849   2.31811   2.32204   2.33655   2.35443
 Alpha virt. eigenvalues --    2.36294   2.37732   2.39018   2.39488   2.42370
 Alpha virt. eigenvalues --    2.42997   2.48500   2.48952   2.49798   2.53811
 Alpha virt. eigenvalues --    2.55483   2.56194   2.60127   2.61514   2.63981
 Alpha virt. eigenvalues --    2.65684   2.67120   2.68306   2.70248   2.71482
 Alpha virt. eigenvalues --    2.72816   2.73940   2.79175   2.80973   2.82655
 Alpha virt. eigenvalues --    2.84542   2.85094   2.88112   2.90277   2.91885
 Alpha virt. eigenvalues --    2.92405   2.95166   2.96533   2.97829   2.99735
 Alpha virt. eigenvalues --    3.01161   3.03363   3.05208   3.06684   3.10508
 Alpha virt. eigenvalues --    3.12766   3.15478   3.16271   3.18505   3.18963
 Alpha virt. eigenvalues --    3.22083   3.24041   3.25986   3.27269   3.29653
 Alpha virt. eigenvalues --    3.30991   3.33040   3.33905   3.37041   3.38189
 Alpha virt. eigenvalues --    3.39545   3.41854   3.43836   3.44692   3.46068
 Alpha virt. eigenvalues --    3.46642   3.49754   3.51166   3.52902   3.53131
 Alpha virt. eigenvalues --    3.55173   3.55554   3.57305   3.58259   3.58652
 Alpha virt. eigenvalues --    3.60960   3.62976   3.63838   3.65283   3.66007
 Alpha virt. eigenvalues --    3.67400   3.68850   3.70251   3.71610   3.74403
 Alpha virt. eigenvalues --    3.75170   3.76211   3.76602   3.80582   3.85158
 Alpha virt. eigenvalues --    3.88357   3.90803   3.93168   3.95838   3.98559
 Alpha virt. eigenvalues --    3.99507   4.02890   4.05193   4.06581   4.14105
 Alpha virt. eigenvalues --    4.16515   4.18457   4.19977   4.24587   4.28545
 Alpha virt. eigenvalues --    4.42414   4.43714   4.52377   4.53484   4.95972
 Alpha virt. eigenvalues --    4.99408   5.03969   5.05745   5.07738   5.10859
 Alpha virt. eigenvalues --    5.14906   5.18895   5.21050   5.24241   5.31852
 Alpha virt. eigenvalues --    5.38109   5.39936   5.43747   5.43910   5.47156
 Alpha virt. eigenvalues --    5.51572   5.57444   5.61769   5.62273   5.63376
 Alpha virt. eigenvalues --    5.84187   5.96474   6.00426   6.03153   6.28044
 Alpha virt. eigenvalues --    6.82296   6.85366   6.86376   6.88033   6.90131
 Alpha virt. eigenvalues --    6.91075   6.94618   6.94917   6.96655   7.00032
 Alpha virt. eigenvalues --    7.01402   7.09662   7.11743   7.17896   7.18658
 Alpha virt. eigenvalues --    7.21270   7.24931   7.34454   7.36848   7.46110
 Alpha virt. eigenvalues --   23.91190  23.98652  24.02298  24.04029  24.07516
 Alpha virt. eigenvalues --   24.10691  24.16495  24.26908  35.58870  35.67948
 Alpha virt. eigenvalues --   50.08186  50.08442  50.21992  50.24480
          Condensed to atoms (all electrons):
               1          2          3          4          5          6
     1  C    5.988276  -0.320610  -0.332555   0.433965   0.388236  -0.045902
     2  C   -0.320610   6.605142  -0.067117  -0.167648   0.000237   0.439663
     3  C   -0.332555  -0.067117   6.108996   0.215072   0.008134  -0.006294
     4  N    0.433965  -0.167648   0.215072   6.203562  -0.042278   0.014975
     5  H    0.388236   0.000237   0.008134  -0.042278   0.477709  -0.000805
     6  H   -0.045902   0.439663  -0.006294   0.014975  -0.000805   0.441628
     7  H    0.002801   0.013961   0.405543  -0.027025  -0.000018   0.000021
     8  C   -0.050383  -0.020642  -0.102208   0.152064  -0.000783   0.001187
     9  H   -0.021235   0.004571   0.036645  -0.052762  -0.000043   0.000006
    10  H    0.007257   0.027559  -0.012232  -0.056267   0.002180  -0.000037
    11  H    0.002635  -0.012726  -0.013730  -0.039756   0.000199   0.000006
    12  N    0.036675   0.086298   0.244444  -0.007714   0.007260  -0.043389
    13  C    0.010137  -0.256376  -0.139106  -0.013747   0.000947   0.011502
    14  H    0.007495  -0.024795   0.002846  -0.001605  -0.000012   0.000653
    15  H   -0.006423   0.002857   0.018366   0.004195   0.000010   0.000128
    16  C    0.061661  -0.048724  -0.031616  -0.018867  -0.000471  -0.006824
    17  H    0.000833   0.001453  -0.000316  -0.000256  -0.000000  -0.000046
    18  H   -0.009661  -0.003207   0.000571   0.002390   0.000041   0.001958
    19  C   -0.085077   0.116588   0.009725   0.018244   0.000210  -0.002888
    20  H    0.000344   0.002256  -0.000849  -0.000147  -0.000000  -0.000011
    21  H   -0.000063  -0.004565  -0.001097   0.000170   0.000000   0.000024
    22  C    0.057867  -0.059192  -0.056695   0.024048   0.000139   0.005404
    23  O    0.015539  -0.015607  -0.033036  -0.009064   0.000076  -0.000039
    24  O   -0.003077  -0.000165   0.012045  -0.010357  -0.000056  -0.000280
    25  O   -0.021300   0.001992   0.051297  -0.017004  -0.001029  -0.026365
    26  H   -0.012178   0.014973  -0.012868   0.002306   0.000073   0.001855
    27  H   -0.003992   0.017536  -0.002618   0.000279  -0.000218   0.000192
    28  O    0.001749  -0.007579  -0.035834   0.004239   0.000009   0.000025
    29  H    0.000689  -0.000503   0.006076  -0.000621  -0.000000  -0.000001
    30  H    0.000323  -0.002326   0.036753  -0.001194   0.000000  -0.000016
               7          8          9         10         11         12
     1  C    0.002801  -0.050383  -0.021235   0.007257   0.002635   0.036675
     2  C    0.013961  -0.020642   0.004571   0.027559  -0.012726   0.086298
     3  C    0.405543  -0.102208   0.036645  -0.012232  -0.013730   0.244444
     4  N   -0.027025   0.152064  -0.052762  -0.056267  -0.039756  -0.007714
     5  H   -0.000018  -0.000783  -0.000043   0.002180   0.000199   0.007260
     6  H    0.000021   0.001187   0.000006  -0.000037   0.000006  -0.043389
     7  H    0.396316   0.005553   0.001389  -0.000031  -0.000128  -0.039363
     8  C    0.005553   5.255162   0.409368   0.402574   0.436914  -0.026662
     9  H    0.001389   0.409368   0.459534  -0.016396  -0.028471   0.000946
    10  H   -0.000031   0.402574  -0.016396   0.500150  -0.024952  -0.003049
    11  H   -0.000128   0.436914  -0.028471  -0.024952   0.493306  -0.000863
    12  N   -0.039363  -0.026662   0.000946  -0.003049  -0.000863   6.355701
    13  C   -0.016248  -0.017258  -0.000663   0.001032  -0.001023   0.157957
    14  H    0.000411  -0.000140   0.000004  -0.000002  -0.000007  -0.041959
    15  H    0.002292   0.001018   0.000006   0.000001  -0.000003  -0.059753
    16  C    0.002362  -0.005975   0.000133  -0.000148   0.000188   0.007700
    17  H   -0.000062   0.000089  -0.000000   0.000000  -0.000000  -0.004218
    18  H    0.000109   0.000032  -0.000001  -0.000000  -0.000000   0.004726
    19  C   -0.002959  -0.009055  -0.000102  -0.000163   0.000202   0.059978
    20  H   -0.000004  -0.000067   0.000000   0.000000   0.000000   0.001572
    21  H    0.000112   0.000002  -0.000000  -0.000000  -0.000000   0.006653
    22  C    0.010378   0.025222  -0.000868   0.000386  -0.000455  -0.078928
    23  O   -0.014832  -0.012699  -0.000211   0.000159   0.000049   0.077175
    24  O   -0.000706  -0.002426  -0.000037   0.000006   0.000003   0.010947
    25  O   -0.000309  -0.005926   0.000020   0.000053   0.000020   0.029772
    26  H    0.000056   0.000986  -0.000006  -0.000012  -0.000001  -0.004246
    27  H    0.000017   0.001126   0.000001  -0.000042  -0.000005  -0.003785
    28  O    0.000197  -0.003363  -0.000593  -0.000007   0.000027   0.021691
    29  H   -0.001597  -0.000714   0.000001   0.000001   0.000001  -0.000790
    30  H   -0.001842  -0.001100   0.000260   0.000016   0.000000  -0.009330
              13         14         15         16         17         18
     1  C    0.010137   0.007495  -0.006423   0.061661   0.000833  -0.009661
     2  C   -0.256376  -0.024795   0.002857  -0.048724   0.001453  -0.003207
     3  C   -0.139106   0.002846   0.018366  -0.031616  -0.000316   0.000571
     4  N   -0.013747  -0.001605   0.004195  -0.018867  -0.000256   0.002390
     5  H    0.000947  -0.000012   0.000010  -0.000471  -0.000000   0.000041
     6  H    0.011502   0.000653   0.000128  -0.006824  -0.000046   0.001958
     7  H   -0.016248   0.000411   0.002292   0.002362  -0.000062   0.000109
     8  C   -0.017258  -0.000140   0.001018  -0.005975   0.000089   0.000032
     9  H   -0.000663   0.000004   0.000006   0.000133  -0.000000  -0.000001
    10  H    0.001032  -0.000002   0.000001  -0.000148   0.000000  -0.000000
    11  H   -0.001023  -0.000007  -0.000003   0.000188  -0.000000  -0.000000
    12  N    0.157957  -0.041959  -0.059753   0.007700  -0.004218   0.004726
    13  C    6.185121   0.442620   0.445316  -0.040194  -0.021200  -0.040768
    14  H    0.442620   0.509141  -0.022162  -0.058237  -0.006536  -0.002339
    15  H    0.445316  -0.022162   0.411481  -0.042551  -0.000503   0.003251
    16  C   -0.040194  -0.058237  -0.042551   5.848265   0.441088   0.402867
    17  H   -0.021200  -0.006536  -0.000503   0.441088   0.527221  -0.030314
    18  H   -0.040768  -0.002339   0.003251   0.402867  -0.030314   0.502557
    19  C   -0.129995   0.001723  -0.030400  -0.464020  -0.078997   0.024641
    20  H    0.016674  -0.000128   0.000064  -0.008551  -0.007171  -0.004476
    21  H   -0.024382  -0.000118   0.000027  -0.014905  -0.003217   0.004597
    22  C   -0.047635   0.010439   0.025169   0.204972   0.025636  -0.032445
    23  O   -0.008622   0.000040  -0.007931   0.002140  -0.002894  -0.000095
    24  O    0.013626  -0.000241  -0.000705  -0.035997  -0.001248   0.003531
    25  O    0.019215  -0.000277  -0.000474  -0.033607   0.000142  -0.004575
    26  H    0.001774  -0.000056   0.000054  -0.002776   0.000392   0.002383
    27  H   -0.000290   0.000004   0.000010   0.000898  -0.000023   0.000248
    28  O   -0.018041   0.000451   0.004747   0.030150   0.000135  -0.000218
    29  H    0.008750  -0.000039  -0.000114  -0.008353   0.000001   0.000020
    30  H   -0.008710  -0.000001  -0.001365  -0.015461  -0.000127   0.000120
              19         20         21         22         23         24
     1  C   -0.085077   0.000344  -0.000063   0.057867   0.015539  -0.003077
     2  C    0.116588   0.002256  -0.004565  -0.059192  -0.015607  -0.000165
     3  C    0.009725  -0.000849  -0.001097  -0.056695  -0.033036   0.012045
     4  N    0.018244  -0.000147   0.000170   0.024048  -0.009064  -0.010357
     5  H    0.000210  -0.000000   0.000000   0.000139   0.000076  -0.000056
     6  H   -0.002888  -0.000011   0.000024   0.005404  -0.000039  -0.000280
     7  H   -0.002959  -0.000004   0.000112   0.010378  -0.014832  -0.000706
     8  C   -0.009055  -0.000067   0.000002   0.025222  -0.012699  -0.002426
     9  H   -0.000102   0.000000  -0.000000  -0.000868  -0.000211  -0.000037
    10  H   -0.000163   0.000000  -0.000000   0.000386   0.000159   0.000006
    11  H    0.000202   0.000000  -0.000000  -0.000455   0.000049   0.000003
    12  N    0.059978   0.001572   0.006653  -0.078928   0.077175   0.010947
    13  C   -0.129995   0.016674  -0.024382  -0.047635  -0.008622   0.013626
    14  H    0.001723  -0.000128  -0.000118   0.010439   0.000040  -0.000241
    15  H   -0.030400   0.000064   0.000027   0.025169  -0.007931  -0.000705
    16  C   -0.464020  -0.008551  -0.014905   0.204972   0.002140  -0.035997
    17  H   -0.078997  -0.007171  -0.003217   0.025636  -0.002894  -0.001248
    18  H    0.024641  -0.004476   0.004597  -0.032445  -0.000095   0.003531
    19  C    7.080093   0.415088   0.473745  -1.100804   0.092520  -0.044738
    20  H    0.415088   0.511998  -0.032729  -0.067656   0.011354  -0.013867
    21  H    0.473745  -0.032729   0.506251  -0.075334  -0.016519   0.007215
    22  C   -1.100804  -0.067656  -0.075334   6.179861   0.065521   0.479071
    23  O    0.092520   0.011354  -0.016519   0.065521   8.531732  -0.093781
    24  O   -0.044738  -0.013867   0.007215   0.479071  -0.093781   8.207398
    25  O    0.038346   0.000525  -0.000316  -0.068415   0.001184  -0.032186
    26  H   -0.016244  -0.000223  -0.000009   0.042295  -0.003968   0.060595
    27  H    0.003398  -0.000037   0.000018  -0.004259  -0.000333  -0.000217
    28  O   -0.042343   0.000745   0.000866   0.033610  -0.092125   0.002322
    29  H    0.014499  -0.000062   0.000103  -0.010594   0.003550   0.000073
    30  H    0.015648  -0.000407  -0.005858   0.001134   0.094071  -0.003011
              25         26         27         28         29         30
     1  C   -0.021300  -0.012178  -0.003992   0.001749   0.000689   0.000323
     2  C    0.001992   0.014973   0.017536  -0.007579  -0.000503  -0.002326
     3  C    0.051297  -0.012868  -0.002618  -0.035834   0.006076   0.036753
     4  N   -0.017004   0.002306   0.000279   0.004239  -0.000621  -0.001194
     5  H   -0.001029   0.000073  -0.000218   0.000009  -0.000000   0.000000
     6  H   -0.026365   0.001855   0.000192   0.000025  -0.000001  -0.000016
     7  H   -0.000309   0.000056   0.000017   0.000197  -0.001597  -0.001842
     8  C   -0.005926   0.000986   0.001126  -0.003363  -0.000714  -0.001100
     9  H    0.000020  -0.000006   0.000001  -0.000593   0.000001   0.000260
    10  H    0.000053  -0.000012  -0.000042  -0.000007   0.000001   0.000016
    11  H    0.000020  -0.000001  -0.000005   0.000027   0.000001   0.000000
    12  N    0.029772  -0.004246  -0.003785   0.021691  -0.000790  -0.009330
    13  C    0.019215   0.001774  -0.000290  -0.018041   0.008750  -0.008710
    14  H   -0.000277  -0.000056   0.000004   0.000451  -0.000039  -0.000001
    15  H   -0.000474   0.000054   0.000010   0.004747  -0.000114  -0.001365
    16  C   -0.033607  -0.002776   0.000898   0.030150  -0.008353  -0.015461
    17  H    0.000142   0.000392  -0.000023   0.000135   0.000001  -0.000127
    18  H   -0.004575   0.002383   0.000248  -0.000218   0.000020   0.000120
    19  C    0.038346  -0.016244   0.003398  -0.042343   0.014499   0.015648
    20  H    0.000525  -0.000223  -0.000037   0.000745  -0.000062  -0.000407
    21  H   -0.000316  -0.000009   0.000018   0.000866   0.000103  -0.005858
    22  C   -0.068415   0.042295  -0.004259   0.033610  -0.010594   0.001134
    23  O    0.001184  -0.003968  -0.000333  -0.092125   0.003550   0.094071
    24  O   -0.032186   0.060595  -0.000217   0.002322   0.000073  -0.003011
    25  O    7.989991   0.308691   0.305317  -0.000323   0.000003   0.000433
    26  H    0.308691   0.314757  -0.021778   0.000107  -0.000002  -0.000201
    27  H    0.305317  -0.021778   0.453277   0.000014  -0.000000  -0.000018
    28  O   -0.000323   0.000107   0.000014   8.325611   0.246457   0.212314
    29  H    0.000003  -0.000002  -0.000000   0.246457   0.445849  -0.003427
    30  H    0.000433  -0.000201  -0.000018   0.212314  -0.003427   0.345148
 Mulliken charges:
               1
     1  C   -0.104026
     2  C   -0.323303
     3  C   -0.308342
     4  N    0.390803
     5  H    0.160253
     6  H    0.213668
     7  H    0.263607
     8  C   -0.431898
     9  H    0.208507
    10  H    0.171967
    11  H    0.188569
    12  N    0.214554
    13  C   -0.530411
    14  H    0.182825
    15  H    0.253389
    16  C   -0.165148
    17  H    0.160139
    18  H    0.174056
    19  C   -0.356865
    20  H    0.175765
    21  H    0.179329
    22  C    0.412128
    23  O   -0.583355
    24  O   -0.553738
    25  O   -0.534894
    26  H    0.323269
    27  H    0.255280
    28  O   -0.685038
    29  H    0.300739
    30  H    0.348173
 Sum of Mulliken charges =  -0.00000
 Mulliken charges with hydrogens summed into heavy atoms:
               1
     1  C    0.056227
     2  C   -0.109635
     3  C   -0.044735
     4  N    0.390803
     8  C    0.137144
    12  N    0.214554
    13  C   -0.094197
    16  C    0.169047
    19  C   -0.001770
    22  C    0.412128
    23  O   -0.583355
    24  O   -0.553738
    25  O    0.043655
    28  O   -0.036126
         Mulliken charges condensed to fragments:
      1     -0.007528
      2      0.043655
      3     -0.036126
 Electronic spatial extent (au):  <R**2>=         184965.8731
 Charge=             -0.0000 electrons
 Dipole moment (field-independent basis, Debye):
    X=             -8.4666    Y=              2.8672    Z=             -1.9045  Tot=              9.1395
 Quadrupole moment (field-independent basis, Debye-Ang):
   XX=           -278.1799   YY=            -77.8690   ZZ=           -138.1985
   XY=             19.8213   XZ=           -164.2000   YZ=             42.7489
 Traceless Quadrupole moment (field-independent basis, Debye-Ang):
   XX=           -113.4307   YY=             86.8801   ZZ=             26.5506
   XY=             19.8213   XZ=           -164.2000   YZ=             42.7489
 Octapole moment (field-independent basis, Debye-Ang**2):
  XXX=          -6134.9339  YYY=           -451.7605  ZZZ=          -5732.0484  XYY=           -875.0211
  XXY=            -82.4135  XXZ=          -5068.0131  XZZ=          -3950.6141  YZZ=            458.8053
  YYZ=          -1478.7665  XYZ=            287.6028
 Hexadecapole moment (field-independent basis, Debye-Ang**3):
 XXXX=        -114354.3011 YYYY=          -2890.7024 ZZZZ=        -189676.0924 XXXY=          -6065.3348
 XXXZ=        -110906.9181 YYYX=          -4872.3914 YYYZ=          -8477.3724 ZZZX=        -104655.8238
 ZZZY=           -315.9110 XXYY=         -10517.4461 XXZZ=        -101482.5891 YYZZ=         -28717.5540
 XXYZ=          -1988.9506 YYXZ=         -16567.4509 ZZXY=           2247.9275
 N-N= 1.013051124384D+03 E-N=-3.722146598549D+03  KE= 7.216853068960D+02
 No NMR shielding tensors so no spin-rotation constants.
 Leave Link  601 at Mon Feb 20 01:48:39 2023, MaxMem=  6710886400 cpu:               3.4 elap:               0.2
 (Enter /data0/home/software/g16/l122.exe)
 CPIOFr:  IOpCl= 0 IRwI=-1 IRwCP=  731 ICalc= -1 LCPTot=      346782 Len1MO=      908636 IndFrg=      346782
 CPIOFr:  IOpCl= 0 IRwI=-1 IRwCP=  731 ICalc=  0 LCPTot=      346782 Len1MO=      908636 IndFrg=     1255418
 Counterpoise: doing calculation for fragment   1 using the basis set of the full-system, NewBq=T
 Leave Link  122 at Mon Feb 20 01:48:39 2023, MaxMem=  6710886400 cpu:               0.4 elap:               0.0
 (Enter /data0/home/software/g16/l301.exe)
 Basis read from rwf:  (5D, 7F)
 No pseudopotential information found on rwf file.
   474 basis functions,   716 primitive gaussians,   502 cartesian basis functions
    45 alpha electrons       45 beta electrons
       nuclear repulsion energy       729.9414989084 Hartrees.
 IExCor= 4336 DFT=T Ex+Corr=M062X ExCW=0 ScaHFX=  0.540000
 ScaDFX=  1.000000  1.000000  1.000000  1.000000 ScalE2=  1.000000  1.000000
 IRadAn=      5 IRanWt=     -1 IRanGd=            0 ICorTp=0 IEmpDi=131
 NAtoms=   30 NActive=   30 NUniq=   30 SFac= 1.00D+00 NAtFMM=   60 NAOKFM=F Big=F
 Integral buffers will be    131072 words long.
 Raffenetti 2 integral format.
 Two-electron integral symmetry is turned off.
 R6Disp:  Grimme-D3 Dispersion energy=       -0.0009940478 Hartrees.
 Nuclear repulsion after empirical dispersion term =      729.9405048605 Hartrees.
 No density basis found on file   718.
 Leave Link  301 at Mon Feb 20 01:48:39 2023, MaxMem=  6710886400 cpu:               1.3 elap:               0.1
 (Enter /data0/home/software/g16/l302.exe)
 NPDir=0 NMtPBC=     1 NCelOv=     1 NCel=       1 NClECP=     1 NCelD=      1
         NCelK=      1 NCelE2=     1 NClLst=     1 CellRange=     0.0.
 One-electron integrals computed using PRISM.
 NBasis=   474 RedAO= T EigKep=  8.98D-06  NBF=   474
 NBsUse=   474 1.00D-06 EigRej= -1.00D+00 NBFU=   474
 Precomputing XC quadrature grid using
 IXCGrd= 4 IRadAn=           5 IRanWt=          -1 IRanGd=           0 AccXCQ= 0.00D+00.
 Generated NRdTot=       0 NPtTot=           0 NUsed=           0 NTot=          32
 NSgBfM=   502   501   502   502   502 MxSgAt=    30 MxSgA2=    30.
 Leave Link  302 at Mon Feb 20 01:48:39 2023, MaxMem=  6710886400 cpu:              10.6 elap:               0.5
 (Enter /data0/home/software/g16/l303.exe)
 DipDrv:  MaxL=1.
 Leave Link  303 at Mon Feb 20 01:48:39 2023, MaxMem=  6710886400 cpu:               1.1 elap:               0.1
 (Enter /data0/home/software/g16/l401.exe)
 ExpMin= 4.38D-02 ExpMax= 8.59D+03 ExpMxC= 1.30D+03 IAcc=3 IRadAn=         5 AccDes= 0.00D+00
 Harris functional with IExCor= 1009 and IRadAn=       5 diagonalized for initial guess.
 HarFok:  IExCor= 1009 AccDes= 0.00D+00 IRadAn=         5 IDoV= 1 UseB2=F ITyADJ=14
 ICtDFT=  3500011 ScaDFX=  1.000000  1.000000  1.000000  1.000000
 FoFCou: FMM=F IPFlag=           0 FMFlag=      100000 FMFlg1=           0
         NFxFlg=           0 DoJE=T BraDBF=F KetDBF=T FulRan=T
         wScrn=  0.000000 ICntrl=       500 IOpCl=  0 I1Cent=   200000004 NGrid=           0
         NMat0=    1 NMatS0=      1 NMatT0=    0 NMatD0=    1 NMtDS0=    0 NMtDT0=    0
 Symmetry not used in FoFCou.
 Harris En= -571.692245709414    
 JPrj=0 DoOrth=F DoCkMO=F.
 Leave Link  401 at Mon Feb 20 01:48:41 2023, MaxMem=  6710886400 cpu:              42.1 elap:               1.8
 (Enter /data0/home/software/g16/l502.exe)
 Two-electron integral symmetry not used.
 Closed shell SCF:
 Using DIIS extrapolation, IDIIS=  1040.
 NGot=  6710886400 LenX=  6710366732 LenY=  6710114226
 Requested convergence on RMS density matrix=1.00D-08 within 128 cycles.
 Requested convergence on MAX density matrix=1.00D-06.
 Requested convergence on             energy=1.00D-06.
 No special actions if energy rises.
 Fock matrices will be formed incrementally for  20 cycles.

 Cycle   1  Pass 1  IDiag  1:
 FoFJK:  IHMeth= 1 ICntrl=       0 DoSepK=F KAlg= 0 I1Cent=           0 FoldK=F
 IRaf= 900000000 NMat=       1 IRICut=       1 DoRegI=T DoRafI=F ISym2E= 0 IDoP0=0 IntGTp=1.
 FoFCou: FMM=F IPFlag=           0 FMFlag=      100000 FMFlg1=           0
         NFxFlg=           0 DoJE=F BraDBF=F KetDBF=F FulRan=T
         wScrn=  0.000000 ICntrl=         0 IOpCl=  0 I1Cent=           0 NGrid=           0
         NMat0=    1 NMatS0=      1 NMatT0=    0 NMatD0=    1 NMtDS0=    0 NMtDT0=    0
 Symmetry not used in FoFCou.
 E= -571.580866215070    
 DIIS: error= 1.45D-02 at cycle   1 NSaved=   1.
 NSaved= 1 IEnMin= 1 EnMin= -571.580866215070     IErMin= 1 ErrMin= 1.45D-02
 ErrMax= 1.45D-02  0.00D+00 EMaxC= 1.00D-01 BMatC= 4.65D-01 BMatP= 4.65D-01
 IDIUse=3 WtCom= 8.55D-01 WtEn= 1.45D-01
 Coeff-Com:  0.100D+01
 Coeff-En:   0.100D+01
 Coeff:      0.100D+01
 Gap=     0.366 Goal=   None    Shift=    0.000
 GapD=    0.366 DampG=1.000 DampE=0.500 DampFc=0.5000 IDamp=-1.
 Damping current iteration by 5.00D-01
 RMSDP=1.67D-02 MaxDP=2.40D+00              OVMax= 3.89D-01

 Cycle   2  Pass 1  IDiag  1:
 RMSU=  8.29D-03    CP:  1.10D+00
 E= -571.694814190547     Delta-E=       -0.113947975477 Rises=F Damp=T
 DIIS: error= 5.50D-03 at cycle   2 NSaved=   2.
 NSaved= 2 IEnMin= 2 EnMin= -571.694814190547     IErMin= 2 ErrMin= 5.50D-03
 ErrMax= 5.50D-03  0.00D+00 EMaxC= 1.00D-01 BMatC= 4.91D-02 BMatP= 4.65D-01
 IDIUse=3 WtCom= 9.45D-01 WtEn= 5.50D-02
 Coeff-Com:  0.539D-01 0.946D+00
 Coeff-En:   0.223D+00 0.777D+00
 Coeff:      0.632D-01 0.937D+00
 Gap=     0.218 Goal=   None    Shift=    0.000
 RMSDP=8.58D-03 MaxDP=1.23D+00 DE=-1.14D-01 OVMax= 3.62D-01

 Cycle   3  Pass 1  IDiag  1:
 RMSU=  2.67D-03    CP:  8.56D-01  5.75D-02
 E= -571.893915622650     Delta-E=       -0.199101432104 Rises=F Damp=F
 DIIS: error= 4.90D-03 at cycle   3 NSaved=   3.
 NSaved= 3 IEnMin= 3 EnMin= -571.893915622650     IErMin= 3 ErrMin= 4.90D-03
 ErrMax= 4.90D-03  0.00D+00 EMaxC= 1.00D-01 BMatC= 3.13D-02 BMatP= 4.91D-02
 IDIUse=3 WtCom= 9.51D-01 WtEn= 4.90D-02
 Coeff-Com: -0.825D-01 0.446D+00 0.637D+00
 Coeff-En:   0.000D+00 0.000D+00 0.100D+01
 Coeff:     -0.784D-01 0.424D+00 0.655D+00
 Gap=     0.233 Goal=   None    Shift=    0.000
 RMSDP=5.88D-04 MaxDP=5.14D-02 DE=-1.99D-01 OVMax= 3.99D-02

 Cycle   4  Pass 1  IDiag  1:
 RMSU=  5.74D-04    CP:  8.53D-01  5.90D-02  1.05D+00
 E= -571.916964181258     Delta-E=       -0.023048558608 Rises=F Damp=F
 DIIS: error= 1.42D-03 at cycle   4 NSaved=   4.
 NSaved= 4 IEnMin= 4 EnMin= -571.916964181258     IErMin= 4 ErrMin= 1.42D-03
 ErrMax= 1.42D-03  0.00D+00 EMaxC= 1.00D-01 BMatC= 2.71D-03 BMatP= 3.13D-02
 IDIUse=3 WtCom= 9.86D-01 WtEn= 1.42D-02
 Coeff-Com: -0.519D-01 0.129D+00 0.269D+00 0.654D+00
 Coeff-En:   0.000D+00 0.000D+00 0.000D+00 0.100D+01
 Coeff:     -0.511D-01 0.127D+00 0.266D+00 0.659D+00
 Gap=     0.211 Goal=   None    Shift=    0.000
 RMSDP=2.41D-04 MaxDP=1.13D-02 DE=-2.30D-02 OVMax= 1.35D-02

 Cycle   5  Pass 1  IDiag  1:
 RMSU=  2.32D-04    CP:  8.52D-01  5.40D-02  1.06D+00  1.07D+00
 E= -571.919315711455     Delta-E=       -0.002351530197 Rises=F Damp=F
 DIIS: error= 8.79D-04 at cycle   5 NSaved=   5.
 NSaved= 5 IEnMin= 5 EnMin= -571.919315711455     IErMin= 5 ErrMin= 8.79D-04
 ErrMax= 8.79D-04  0.00D+00 EMaxC= 1.00D-01 BMatC= 4.33D-04 BMatP= 2.71D-03
 IDIUse=3 WtCom= 9.91D-01 WtEn= 8.79D-03
 Coeff-Com: -0.211D-01 0.360D-01 0.678D-01 0.316D+00 0.601D+00
 Coeff-En:   0.000D+00 0.000D+00 0.000D+00 0.000D+00 0.100D+01
 Coeff:     -0.209D-01 0.357D-01 0.672D-01 0.313D+00 0.605D+00
 Gap=     0.210 Goal=   None    Shift=    0.000
 RMSDP=1.07D-04 MaxDP=1.03D-02 DE=-2.35D-03 OVMax= 7.93D-03

 Cycle   6  Pass 1  IDiag  1:
 RMSU=  7.71D-05    CP:  8.54D-01  5.15D-02  1.05D+00  1.17D+00  1.13D+00
 E= -571.919659750832     Delta-E=       -0.000344039377 Rises=F Damp=F
 DIIS: error= 3.28D-04 at cycle   6 NSaved=   6.
 NSaved= 6 IEnMin= 6 EnMin= -571.919659750832     IErMin= 6 ErrMin= 3.28D-04
 ErrMax= 3.28D-04  0.00D+00 EMaxC= 1.00D-01 BMatC= 6.37D-05 BMatP= 4.33D-04
 IDIUse=3 WtCom= 9.97D-01 WtEn= 3.28D-03
 Coeff-Com: -0.217D-02-0.325D-03-0.122D-01 0.429D-01 0.304D+00 0.668D+00
 Coeff-En:   0.000D+00 0.000D+00 0.000D+00 0.000D+00 0.000D+00 0.100D+01
 Coeff:     -0.216D-02-0.324D-03-0.122D-01 0.427D-01 0.303D+00 0.669D+00
 Gap=     0.210 Goal=   None    Shift=    0.000
 RMSDP=5.53D-05 MaxDP=5.39D-03 DE=-3.44D-04 OVMax= 4.30D-03

 Cycle   7  Pass 1  IDiag  1:
 RMSU=  3.13D-05    CP:  8.55D-01  5.02D-02  1.05D+00  1.22D+00  1.26D+00
                    CP:  1.19D+00
 E= -571.919718998705     Delta-E=       -0.000059247873 Rises=F Damp=F
 DIIS: error= 8.63D-05 at cycle   7 NSaved=   7.
 NSaved= 7 IEnMin= 7 EnMin= -571.919718998705     IErMin= 7 ErrMin= 8.63D-05
 ErrMax= 8.63D-05  0.00D+00 EMaxC= 1.00D-01 BMatC= 8.44D-06 BMatP= 6.37D-05
 IDIUse=1 WtCom= 1.00D+00 WtEn= 0.00D+00
 Coeff-Com:  0.323D-02-0.750D-02-0.182D-01-0.379D-01 0.438D-01 0.316D+00
 Coeff-Com:  0.700D+00
 Coeff:      0.323D-02-0.750D-02-0.182D-01-0.379D-01 0.438D-01 0.316D+00
 Coeff:      0.700D+00
 Gap=     0.210 Goal=   None    Shift=    0.000
 RMSDP=2.16D-05 MaxDP=1.01D-03 DE=-5.92D-05 OVMax= 2.27D-03

 Cycle   8  Pass 1  IDiag  1:
 RMSU=  1.11D-05    CP:  8.55D-01  4.95D-02  1.05D+00  1.23D+00  1.32D+00
                    CP:  1.29D+00  9.97D-01
 E= -571.919729513566     Delta-E=       -0.000010514861 Rises=F Damp=F
 DIIS: error= 1.61D-05 at cycle   8 NSaved=   8.
 NSaved= 8 IEnMin= 8 EnMin= -571.919729513566     IErMin= 8 ErrMin= 1.61D-05
 ErrMax= 1.61D-05  0.00D+00 EMaxC= 1.00D-01 BMatC= 5.14D-07 BMatP= 8.44D-06
 IDIUse=1 WtCom= 1.00D+00 WtEn= 0.00D+00
 Coeff-Com:  0.866D-03-0.153D-02-0.169D-02-0.108D-01-0.902D-02 0.216D-01
 Coeff-Com:  0.196D+00 0.804D+00
 Coeff:      0.866D-03-0.153D-02-0.169D-02-0.108D-01-0.902D-02 0.216D-01
 Coeff:      0.196D+00 0.804D+00
 Gap=     0.210 Goal=   None    Shift=    0.000
 RMSDP=5.90D-06 MaxDP=5.63D-04 DE=-1.05D-05 OVMax= 7.37D-04

 Cycle   9  Pass 1  IDiag  1:
 RMSU=  3.68D-06    CP:  8.55D-01  4.94D-02  1.05D+00  1.23D+00  1.32D+00
                    CP:  1.29D+00  1.06D+00  1.24D+00
 E= -571.919730491356     Delta-E=       -0.000000977790 Rises=F Damp=F
 DIIS: error= 5.28D-06 at cycle   9 NSaved=   9.
 NSaved= 9 IEnMin= 9 EnMin= -571.919730491356     IErMin= 9 ErrMin= 5.28D-06
 ErrMax= 5.28D-06  0.00D+00 EMaxC= 1.00D-01 BMatC= 4.77D-08 BMatP= 5.14D-07
 IDIUse=1 WtCom= 1.00D+00 WtEn= 0.00D+00
 Coeff-Com: -0.490D-04 0.160D-03 0.101D-02 0.452D-03-0.540D-02-0.254D-01
 Coeff-Com: -0.197D-01 0.191D+00 0.858D+00
 Coeff:     -0.490D-04 0.160D-03 0.101D-02 0.452D-03-0.540D-02-0.254D-01
 Coeff:     -0.197D-01 0.191D+00 0.858D+00
 Gap=     0.210 Goal=   None    Shift=    0.000
 RMSDP=2.40D-06 MaxDP=1.78D-04 DE=-9.78D-07 OVMax= 3.28D-04

 Cycle  10  Pass 1  IDiag  1:
 RMSU=  1.49D-06    CP:  8.55D-01  4.94D-02  1.05D+00  1.23D+00  1.32D+00
                    CP:  1.29D+00  1.08D+00  1.35D+00  1.25D+00
 E= -571.919730612213     Delta-E=       -0.000000120857 Rises=F Damp=F
 DIIS: error= 4.77D-06 at cycle  10 NSaved=  10.
 NSaved=10 IEnMin=10 EnMin= -571.919730612213     IErMin=10 ErrMin= 4.77D-06
 ErrMax= 4.77D-06  0.00D+00 EMaxC= 1.00D-01 BMatC= 1.63D-08 BMatP= 4.77D-08
 IDIUse=1 WtCom= 1.00D+00 WtEn= 0.00D+00
 Coeff-Com: -0.148D-03 0.272D-03 0.552D-03 0.160D-02-0.702D-03-0.145D-01
 Coeff-Com: -0.351D-01-0.227D-01 0.395D+00 0.675D+00
 Coeff:     -0.148D-03 0.272D-03 0.552D-03 0.160D-02-0.702D-03-0.145D-01
 Coeff:     -0.351D-01-0.227D-01 0.395D+00 0.675D+00
 Gap=     0.210 Goal=   None    Shift=    0.000
 RMSDP=8.56D-07 MaxDP=8.31D-05 DE=-1.21D-07 OVMax= 1.09D-04

 Cycle  11  Pass 1  IDiag  1:
 RMSU=  4.62D-07    CP:  8.55D-01  4.94D-02  1.05D+00  1.22D+00  1.31D+00
                    CP:  1.29D+00  1.09D+00  1.39D+00  1.36D+00  1.15D+00
 E= -571.919730637374     Delta-E=       -0.000000025160 Rises=F Damp=F
 DIIS: error= 1.43D-06 at cycle  11 NSaved=  11.
 NSaved=11 IEnMin=11 EnMin= -571.919730637374     IErMin=11 ErrMin= 1.43D-06
 ErrMax= 1.43D-06  0.00D+00 EMaxC= 1.00D-01 BMatC= 1.58D-09 BMatP= 1.63D-08
 IDIUse=1 WtCom= 1.00D+00 WtEn= 0.00D+00
 Coeff-Com: -0.428D-04 0.882D-04 0.224D-04 0.313D-03 0.164D-03-0.208D-02
 Coeff-Com: -0.811D-02-0.263D-01 0.102D-01 0.204D+00 0.822D+00
 Coeff:     -0.428D-04 0.882D-04 0.224D-04 0.313D-03 0.164D-03-0.208D-02
 Coeff:     -0.811D-02-0.263D-01 0.102D-01 0.204D+00 0.822D+00
 Gap=     0.210 Goal=   None    Shift=    0.000
 RMSDP=3.20D-07 MaxDP=1.86D-05 DE=-2.52D-08 OVMax= 4.67D-05

 Cycle  12  Pass 1  IDiag  1:
 RMSU=  1.55D-07    CP:  8.55D-01  4.94D-02  1.05D+00  1.22D+00  1.31D+00
                    CP:  1.29D+00  1.09D+00  1.39D+00  1.39D+00  1.28D+00
                    CP:  1.17D+00
 E= -571.919730640835     Delta-E=       -0.000000003461 Rises=F Damp=F
 DIIS: error= 4.60D-07 at cycle  12 NSaved=  12.
 NSaved=12 IEnMin=12 EnMin= -571.919730640835     IErMin=12 ErrMin= 4.60D-07
 ErrMax= 4.60D-07  0.00D+00 EMaxC= 1.00D-01 BMatC= 2.05D-10 BMatP= 1.58D-09
 IDIUse=1 WtCom= 1.00D+00 WtEn= 0.00D+00
 Coeff-Com:  0.128D-04-0.189D-04-0.797D-04-0.179D-03 0.120D-03 0.165D-02
 Coeff-Com:  0.334D-02-0.310D-02-0.565D-01-0.564D-01 0.222D+00 0.889D+00
 Coeff:      0.128D-04-0.189D-04-0.797D-04-0.179D-03 0.120D-03 0.165D-02
 Coeff:      0.334D-02-0.310D-02-0.565D-01-0.564D-01 0.222D+00 0.889D+00
 Gap=     0.210 Goal=   None    Shift=    0.000
 RMSDP=1.25D-07 MaxDP=8.01D-06 DE=-3.46D-09 OVMax= 2.01D-05

 Cycle  13  Pass 1  IDiag  1:
 RMSU=  6.82D-08    CP:  8.55D-01  4.94D-02  1.05D+00  1.22D+00  1.31D+00
                    CP:  1.29D+00  1.09D+00  1.39D+00  1.40D+00  1.33D+00
                    CP:  1.27D+00  1.18D+00
 E= -571.919730641330     Delta-E=       -0.000000000495 Rises=F Damp=F
 DIIS: error= 2.11D-07 at cycle  13 NSaved=  13.
 NSaved=13 IEnMin=13 EnMin= -571.919730641330     IErMin=13 ErrMin= 2.11D-07
 ErrMax= 2.11D-07  0.00D+00 EMaxC= 1.00D-01 BMatC= 5.17D-11 BMatP= 2.05D-10
 IDIUse=1 WtCom= 1.00D+00 WtEn= 0.00D+00
 Coeff-Com:  0.762D-05-0.130D-04-0.183D-04-0.718D-04 0.312D-04 0.804D-03
 Coeff-Com:  0.183D-02 0.608D-03-0.220D-01-0.429D-01-0.145D-02 0.381D+00
 Coeff-Com:  0.682D+00
 Coeff:      0.762D-05-0.130D-04-0.183D-04-0.718D-04 0.312D-04 0.804D-03
 Coeff:      0.183D-02 0.608D-03-0.220D-01-0.429D-01-0.145D-02 0.381D+00
 Coeff:      0.682D+00
 Gap=     0.210 Goal=   None    Shift=    0.000
 RMSDP=3.45D-08 MaxDP=2.40D-06 DE=-4.95D-10 OVMax= 5.31D-06

 Cycle  14  Pass 1  IDiag  1:
 RMSU=  2.28D-08    CP:  8.55D-01  4.94D-02  1.05D+00  1.23D+00  1.31D+00
                    CP:  1.29D+00  1.09D+00  1.39D+00  1.40D+00  1.34D+00
                    CP:  1.28D+00  1.26D+00  1.15D+00
 E= -571.919730641405     Delta-E=       -0.000000000075 Rises=F Damp=F
 DIIS: error= 9.37D-08 at cycle  14 NSaved=  14.
 NSaved=14 IEnMin=14 EnMin= -571.919730641405     IErMin=14 ErrMin= 9.37D-08
 ErrMax= 9.37D-08  0.00D+00 EMaxC= 1.00D-01 BMatC= 1.20D-11 BMatP= 5.17D-11
 IDIUse=1 WtCom= 1.00D+00 WtEn= 0.00D+00
 Coeff-Com:  0.664D-06-0.145D-05 0.107D-04 0.119D-04 0.748D-05 0.101D-03
 Coeff-Com:  0.188D-03 0.457D-03 0.837D-03-0.913D-02-0.440D-01 0.196D-01
 Coeff-Com:  0.350D+00 0.682D+00
 Coeff:      0.664D-06-0.145D-05 0.107D-04 0.119D-04 0.748D-05 0.101D-03
 Coeff:      0.188D-03 0.457D-03 0.837D-03-0.913D-02-0.440D-01 0.196D-01
 Coeff:      0.350D+00 0.682D+00
 Gap=     0.210 Goal=   None    Shift=    0.000
 RMSDP=1.50D-08 MaxDP=7.31D-07 DE=-7.50D-11 OVMax= 2.29D-06

 Cycle  15  Pass 1  IDiag  1:
 RMSU=  1.00D-08    CP:  8.55D-01  4.94D-02  1.05D+00  1.23D+00  1.31D+00
                    CP:  1.29D+00  1.09D+00  1.39D+00  1.40D+00  1.33D+00
                    CP:  1.27D+00  1.29D+00  1.24D+00  1.08D+00
 E= -571.919730641402     Delta-E=        0.000000000003 Rises=F Damp=F
 DIIS: error= 2.98D-08 at cycle  15 NSaved=  15.
 NSaved=15 IEnMin=14 EnMin= -571.919730641405     IErMin=15 ErrMin= 2.98D-08
 ErrMax= 2.98D-08  0.00D+00 EMaxC= 1.00D-01 BMatC= 1.26D-12 BMatP= 1.20D-11
 IDIUse=1 WtCom= 1.00D+00 WtEn= 0.00D+00
 Coeff-Com: -0.757D-06 0.106D-05 0.575D-05 0.146D-04-0.675D-07-0.623D-04
 Coeff-Com: -0.184D-03 0.189D-04 0.327D-02 0.227D-02-0.171D-01-0.523D-01
 Coeff-Com:  0.371D-01 0.285D+00 0.742D+00
 Coeff:     -0.757D-06 0.106D-05 0.575D-05 0.146D-04-0.675D-07-0.623D-04
 Coeff:     -0.184D-03 0.189D-04 0.327D-02 0.227D-02-0.171D-01-0.523D-01
 Coeff:      0.371D-01 0.285D+00 0.742D+00
 Gap=     0.210 Goal=   None    Shift=    0.000
 RMSDP=6.45D-09 MaxDP=5.45D-07 DE= 2.96D-12 OVMax= 1.03D-06

 SCF Done:  E(RM062X) =  -571.919730641     A.U. after   15 cycles
            NFock= 15  Conv=0.65D-08     -V/T= 2.0049
 KE= 5.691206172753D+02 PE=-2.794147611504D+03 EE= 9.231667587268D+02
 Leave Link  502 at Mon Feb 20 01:50:14 2023, MaxMem=  6710886400 cpu:            2220.4 elap:              92.8
 (Enter /data0/home/software/g16/l601.exe)
 Copying SCF densities to generalized density rwf, IOpCl= 0 IROHF=0.

 **********************************************************************

            Population analysis using the SCF density.

 **********************************************************************

 Alpha  occ. eigenvalues --  -19.49589 -19.49082 -14.87972 -14.87219 -10.68443
 Alpha  occ. eigenvalues --  -10.63470 -10.63340 -10.63192 -10.61747 -10.55779
 Alpha  occ. eigenvalues --  -10.54630 -10.49920  -1.20427  -1.09332  -1.08533
 Alpha  occ. eigenvalues --   -0.98584  -0.93143  -0.89986  -0.86103  -0.80160
 Alpha  occ. eigenvalues --   -0.75163  -0.72679  -0.69336  -0.65729  -0.60647
 Alpha  occ. eigenvalues --   -0.58903  -0.57587  -0.57328  -0.55692  -0.54070
 Alpha  occ. eigenvalues --   -0.53741  -0.50822  -0.50345  -0.47708  -0.47003
 Alpha  occ. eigenvalues --   -0.43956  -0.42959  -0.41891  -0.40118  -0.38427
 Alpha  occ. eigenvalues --   -0.36488  -0.34328  -0.24858  -0.24789  -0.23921
 Alpha virt. eigenvalues --   -0.02892  -0.00940  -0.00469   0.00591   0.01186
 Alpha virt. eigenvalues --    0.02110   0.02245   0.02389   0.03865   0.04761
 Alpha virt. eigenvalues --    0.05157   0.05559   0.05883   0.06734   0.07685
 Alpha virt. eigenvalues --    0.08149   0.09224   0.09442   0.09814   0.10865
 Alpha virt. eigenvalues --    0.11120   0.11683   0.12266   0.12739   0.13464
 Alpha virt. eigenvalues --    0.13728   0.14258   0.14695   0.15039   0.15490
 Alpha virt. eigenvalues --    0.15972   0.16278   0.17157   0.17360   0.17708
 Alpha virt. eigenvalues --    0.17877   0.18264   0.18928   0.19374   0.19512
 Alpha virt. eigenvalues --    0.20012   0.20257   0.20858   0.20982   0.21885
 Alpha virt. eigenvalues --    0.22354   0.23206   0.23592   0.24348   0.25148
 Alpha virt. eigenvalues --    0.25677   0.25806   0.26662   0.27091   0.27240
 Alpha virt. eigenvalues --    0.27600   0.28583   0.29140   0.29889   0.30818
 Alpha virt. eigenvalues --    0.31396   0.31689   0.32718   0.33182   0.33384
 Alpha virt. eigenvalues --    0.34909   0.34958   0.35412   0.36928   0.37212
 Alpha virt. eigenvalues --    0.37512   0.38926   0.39674   0.40351   0.41016
 Alpha virt. eigenvalues --    0.41170   0.41921   0.42521   0.43173   0.43837
 Alpha virt. eigenvalues --    0.44346   0.44898   0.45449   0.46161   0.47161
 Alpha virt. eigenvalues --    0.48626   0.48739   0.50431   0.50905   0.52593
 Alpha virt. eigenvalues --    0.53130   0.53526   0.55524   0.57387   0.58325
 Alpha virt. eigenvalues --    0.58602   0.59178   0.59367   0.60586   0.61610
 Alpha virt. eigenvalues --    0.62294   0.62480   0.63785   0.64231   0.64334
 Alpha virt. eigenvalues --    0.65194   0.65477   0.67288   0.67637   0.67851
 Alpha virt. eigenvalues --    0.68643   0.69155   0.70754   0.71416   0.72150
 Alpha virt. eigenvalues --    0.72826   0.73647   0.74111   0.74698   0.75333
 Alpha virt. eigenvalues --    0.76022   0.76769   0.77401   0.78494   0.79142
 Alpha virt. eigenvalues --    0.79314   0.81941   0.82139   0.83386   0.83978
 Alpha virt. eigenvalues --    0.84267   0.85957   0.86700   0.87760   0.88174
 Alpha virt. eigenvalues --    0.89362   0.89466   0.90606   0.91262   0.92793
 Alpha virt. eigenvalues --    0.94412   0.95742   0.96491   0.97432   0.98854
 Alpha virt. eigenvalues --    0.99805   1.00176   1.01283   1.02747   1.03865
 Alpha virt. eigenvalues --    1.04338   1.05950   1.06249   1.08196   1.10132
 Alpha virt. eigenvalues --    1.10786   1.12473   1.13755   1.15503   1.16789
 Alpha virt. eigenvalues --    1.18320   1.18839   1.19646   1.21294   1.22989
 Alpha virt. eigenvalues --    1.23570   1.23742   1.24976   1.25804   1.26536
 Alpha virt. eigenvalues --    1.27702   1.29289   1.30210   1.30735   1.32802
 Alpha virt. eigenvalues --    1.33411   1.34275   1.35417   1.37066   1.38513
 Alpha virt. eigenvalues --    1.39314   1.40670   1.41787   1.42107   1.42695
 Alpha virt. eigenvalues --    1.43779   1.44448   1.46019   1.46739   1.47843
 Alpha virt. eigenvalues --    1.48135   1.49458   1.50711   1.51493   1.51956
 Alpha virt. eigenvalues --    1.54049   1.55834   1.59062   1.60224   1.63840
 Alpha virt. eigenvalues --    1.65627   1.70598   1.71757   1.72259   1.74644
 Alpha virt. eigenvalues --    1.76248   1.77786   1.79307   1.82542   1.82691
 Alpha virt. eigenvalues --    1.84221   1.85197   1.85592   1.86529   1.87469
 Alpha virt. eigenvalues --    1.89178   1.90143   1.90612   1.91260   1.92140
 Alpha virt. eigenvalues --    1.95222   1.95814   1.95921   1.97602   1.98295
 Alpha virt. eigenvalues --    2.01220   2.03475   2.03707   2.05314   2.06502
 Alpha virt. eigenvalues --    2.08314   2.10012   2.17228   2.18151   2.19028
 Alpha virt. eigenvalues --    2.19401   2.19725   2.22231   2.22811   2.23831
 Alpha virt. eigenvalues --    2.25640   2.27704   2.27923   2.29591   2.31100
 Alpha virt. eigenvalues --    2.31854   2.32140   2.33315   2.34052   2.35680
 Alpha virt. eigenvalues --    2.37890   2.39246   2.40380   2.40723   2.41371
 Alpha virt. eigenvalues --    2.46935   2.49286   2.50340   2.51787   2.52357
 Alpha virt. eigenvalues --    2.53800   2.56067   2.57077   2.59377   2.62216
 Alpha virt. eigenvalues --    2.64289   2.64777   2.67061   2.67693   2.70023
 Alpha virt. eigenvalues --    2.70538   2.72361   2.72918   2.74455   2.75880
[...]
     7  H    0.000000
     8  C    0.000000
     9  H    0.000000
    10  H    0.000000
    11  H    0.000000
    12  N    0.000000
    13  C    0.000000
    14  H    0.000000
    15  H    0.000000
    16  C    0.000000
    17  H    0.000000
    18  H    0.000000
    19  C    0.000000
    20  H    0.000000
    21  H    0.000000
    22  C    0.000000
    23  O    0.000000
    24  O    0.000000
    25  O   -0.551534
    26  H    0.276483
    27  H    0.275051
    28  O    0.000000
    29  H    0.000000
    30  H    0.000000
 Sum of Mulliken charges =  -0.00000
 Mulliken charges with hydrogens summed into heavy atoms:
               1
     1  C    0.000000
     2  C    0.000000
     3  C    0.000000
     4  N    0.000000
     8  C    0.000000
    12  N    0.000000
    13  C    0.000000
    16  C    0.000000
    19  C    0.000000
    22  C    0.000000
    23  O    0.000000
    24  O    0.000000
    25  O   -0.000000
    28  O    0.000000
         Mulliken charges condensed to fragments:
      1      0.000000
      2     -0.000000
      3      0.000000
 Electronic spatial extent (au):  <R**2>=          15708.1030
 Charge=              0.0000 electrons
 Dipole moment (field-independent basis, Debye):
    X=              1.1871    Y=              1.2604    Z=             -1.2565  Tot=              2.1393
 Quadrupole moment (field-independent basis, Debye-Ang):
   XX=             20.9669   YY=             -9.4087   ZZ=            -49.5274
   XY=             14.0839   XZ=              7.6854   YZ=             23.2397
 Traceless Quadrupole moment (field-independent basis, Debye-Ang):
   XX=             33.6233   YY=              3.2477   ZZ=            -36.8710
   XY=             14.0839   XZ=              7.6854   YZ=             23.2397
 Octapole moment (field-independent basis, Debye-Ang**2):
  XXX=            256.2422  YYY=             23.1538  ZZZ=          -1448.7918  XYY=           -107.0308
  XXY=            163.3890  XXZ=            231.2472  XZZ=           -157.4139  YZZ=            432.8620
  YYZ=           -166.4677  XYZ=            259.1437
 Hexadecapole moment (field-independent basis, Debye-Ang**3):
 XXXX=           2363.3587 YYYY=            -48.7409 ZZZZ=         -37353.1528 XXXY=           1962.6011
 XXXZ=           3086.2497 YYYX=            263.0926 YYYZ=            408.3135 ZZZX=          -8997.2584
 ZZZY=           8131.3228 XXYY=          -1225.8678 XXZZ=            958.2619 YYZZ=          -2952.8461
 XXYZ=           2995.2766 YYXZ=          -1893.1350 ZZXY=           4818.7514
 N-N= 9.111789915484D+00 E-N=-1.990738459211D+02  KE= 7.620009473563D+01
 No NMR shielding tensors so no spin-rotation constants.
 Leave Link  601 at Mon Feb 20 01:52:57 2023, MaxMem=  6710886400 cpu:               1.8 elap:               0.1
 (Enter /data0/home/software/g16/l122.exe)
 CPIOFr:  IOpCl= 0 IRwI=-1 IRwCP=  731 ICalc=  5 LCPTot=      346782 Len1MO=      908636 IndFrg=     5798598
 Counterpoise: doing calculation for fragment   3 using the basis set of the fragment.
 Leave Link  122 at Mon Feb 20 01:52:57 2023, MaxMem=  6710886400 cpu:               0.2 elap:               0.0
 (Enter /data0/home/software/g16/l301.exe)
 Basis read from rwf:  (5D, 7F)
 No pseudopotential information found on rwf file.
    39 basis functions,    58 primitive gaussians,    41 cartesian basis functions
     5 alpha electrons        5 beta electrons
       nuclear repulsion energy         9.0550706014 Hartrees.
 IExCor= 4336 DFT=T Ex+Corr=M062X ExCW=0 ScaHFX=  0.540000
 ScaDFX=  1.000000  1.000000  1.000000  1.000000 ScalE2=  1.000000  1.000000
 IRadAn=      5 IRanWt=     -1 IRanGd=            0 ICorTp=0 IEmpDi=131
 NAtoms=   30 NActive=    3 NUniq=    3 SFac= 1.00D+00 NAtFMM=   60 NAOKFM=F Big=F
 Integral buffers will be    131072 words long.
 Raffenetti 2 integral format.
 Two-electron integral symmetry is turned off.
 R6Disp:  Grimme-D3 Dispersion energy=       -0.0000000085 Hartrees.
 Nuclear repulsion after empirical dispersion term =        9.0550705929 Hartrees.
 No density basis found on file   718.
 Leave Link  301 at Mon Feb 20 01:52:57 2023, MaxMem=  6710886400 cpu:               1.3 elap:               0.1
 (Enter /data0/home/software/g16/l302.exe)
 NPDir=0 NMtPBC=     1 NCelOv=     1 NCel=       1 NClECP=     1 NCelD=      1
         NCelK=      1 NCelE2=     1 NClLst=     1 CellRange=     0.0.
 One-electron integrals computed using PRISM.
 NBasis=    39 RedAO= T EigKep=  3.15D-03  NBF=    39
 NBsUse=    39 1.00D-06 EigRej= -1.00D+00 NBFU=    39
 Precomputing XC quadrature grid using
 IXCGrd= 4 IRadAn=           5 IRanWt=          -1 IRanGd=           0 AccXCQ= 0.00D+00.
 Generated NRdTot=       0 NPtTot=           0 NUsed=           0 NTot=          32
 NSgBfM=    41    41    41    41    41 MxSgAt=     3 MxSgA2=     3.
 Leave Link  302 at Mon Feb 20 01:52:57 2023, MaxMem=  6710886400 cpu:               2.2 elap:               0.1
 (Enter /data0/home/software/g16/l303.exe)
 DipDrv:  MaxL=1.
 Leave Link  303 at Mon Feb 20 01:52:57 2023, MaxMem=  6710886400 cpu:               0.4 elap:               0.0
 (Enter /data0/home/software/g16/l401.exe)
 ExpMin= 8.45D-02 ExpMax= 8.59D+03 ExpMxC= 1.30D+03 IAcc=3 IRadAn=         5 AccDes= 0.00D+00
 Harris functional with IExCor= 1009 and IRadAn=       5 diagonalized for initial guess.
 HarFok:  IExCor= 1009 AccDes= 0.00D+00 IRadAn=         5 IDoV= 1 UseB2=F ITyADJ=14
 ICtDFT=  3500011 ScaDFX=  1.000000  1.000000  1.000000  1.000000
 FoFCou: FMM=F IPFlag=           0 FMFlag=      100000 FMFlg1=           0
         NFxFlg=           0 DoJE=T BraDBF=F KetDBF=T FulRan=T
         wScrn=  0.000000 ICntrl=       500 IOpCl=  0 I1Cent=   200000004 NGrid=           0
         NMat0=    1 NMatS0=      1 NMatT0=    0 NMatD0=    1 NMtDS0=    0 NMtDT0=    0
 Symmetry not used in FoFCou.
 Harris En= -76.4154351327556    
 JPrj=0 DoOrth=F DoCkMO=F.
 Leave Link  401 at Mon Feb 20 01:52:57 2023, MaxMem=  6710886400 cpu:               2.9 elap:               0.1
 (Enter /data0/home/software/g16/l502.exe)
 Keep R1 ints in memory in canonical form, NReq=21041979.
 FoFCou: FMM=F IPFlag=           0 FMFlag=           0 FMFlg1=           0
         NFxFlg=           0 DoJE=F BraDBF=F KetDBF=F FulRan=T
         wScrn=  0.000000 ICntrl=       600 IOpCl=  0 I1Cent=           0 NGrid=           0
         NMat0=    1 NMatS0=    780 NMatT0=    0 NMatD0=    1 NMtDS0=    0 NMtDT0=    0
 Symmetry not used in FoFCou.
 Two-electron integral symmetry not used.
 Closed shell SCF:
 Using DIIS extrapolation, IDIIS=  1040.
 NGot=  6710886400 LenX=  6710576157 LenY=  6710574035
 Requested convergence on RMS density matrix=1.00D-08 within 128 cycles.
 Requested convergence on MAX density matrix=1.00D-06.
 Requested convergence on             energy=1.00D-06.
 No special actions if energy rises.
 Integral accuracy reduced to 1.0D-05 until final iterations.

 Cycle   1  Pass 0  IDiag  1:
 E= -76.3452568745893    
 DIIS: error= 6.99D-02 at cycle   1 NSaved=   1.
 NSaved= 1 IEnMin= 1 EnMin= -76.3452568745893     IErMin= 1 ErrMin= 6.99D-02
 ErrMax= 6.99D-02  0.00D+00 EMaxC= 1.00D-01 BMatC= 1.20D-01 BMatP= 1.20D-01
 IDIUse=3 WtCom= 3.01D-01 WtEn= 6.99D-01
 Coeff-Com:  0.100D+01
 Coeff-En:   0.100D+01
 Coeff:      0.100D+01
 Gap=     0.323 Goal=   None    Shift=    0.000
 GapD=    0.323 DampG=1.000 DampE=0.500 DampFc=0.5000 IDamp=-1.
 Damping current iteration by 5.00D-01
 RMSDP=7.88D-03 MaxDP=1.01D-01              OVMax= 1.68D-01

 Cycle   2  Pass 0  IDiag  1:
 E= -76.3764975905931     Delta-E=       -0.031240716004 Rises=F Damp=T
 DIIS: error= 1.09D-02 at cycle   2 NSaved=   2.
 NSaved= 2 IEnMin= 2 EnMin= -76.3764975905931     IErMin= 2 ErrMin= 1.09D-02
 ErrMax= 1.09D-02  0.00D+00 EMaxC= 1.00D-01 BMatC= 4.92D-03 BMatP= 1.20D-01
 IDIUse=3 WtCom= 8.91D-01 WtEn= 1.09D-01
 Coeff-Com:  0.847D-01 0.915D+00
 Coeff-En:   0.191D+00 0.809D+00
 Coeff:      0.964D-01 0.904D+00
 Gap=     0.455 Goal=   None    Shift=    0.000
 RMSDP=9.52D-04 MaxDP=1.42D-02 DE=-3.12D-02 OVMax= 1.01D-01

 Cycle   3  Pass 0  IDiag  1:
 E= -76.4205744440140     Delta-E=       -0.044076853421 Rises=F Damp=F
 DIIS: error= 2.24D-03 at cycle   3 NSaved=   3.
 NSaved= 3 IEnMin= 3 EnMin= -76.4205744440140     IErMin= 3 ErrMin= 2.24D-03
 ErrMax= 2.24D-03  0.00D+00 EMaxC= 1.00D-01 BMatC= 9.68D-05 BMatP= 4.92D-03
 IDIUse=3 WtCom= 9.78D-01 WtEn= 2.24D-02
 Coeff-Com: -0.203D-01 0.419D-01 0.978D+00
 Coeff-En:   0.000D+00 0.000D+00 0.100D+01
 Coeff:     -0.198D-01 0.410D-01 0.979D+00
 Gap=     0.460 Goal=   None    Shift=    0.000
 RMSDP=1.18D-04 MaxDP=1.03D-03 DE=-4.41D-02 OVMax= 3.40D-03

 Cycle   4  Pass 0  IDiag  1:
 E= -76.4206566603270     Delta-E=       -0.000082216313 Rises=F Damp=F
 DIIS: error= 4.25D-04 at cycle   4 NSaved=   4.
 NSaved= 4 IEnMin= 4 EnMin= -76.4206566603270     IErMin= 4 ErrMin= 4.25D-04
 ErrMax= 4.25D-04  0.00D+00 EMaxC= 1.00D-01 BMatC= 3.52D-06 BMatP= 9.68D-05
 IDIUse=3 WtCom= 9.96D-01 WtEn= 4.25D-03
 Coeff-Com: -0.211D-02-0.201D-02 0.167D+00 0.837D+00
 Coeff-En:   0.000D+00 0.000D+00 0.000D+00 0.100D+01
 Coeff:     -0.210D-02-0.200D-02 0.167D+00 0.837D+00
 Gap=     0.460 Goal=   None    Shift=    0.000
 RMSDP=2.26D-05 MaxDP=3.57D-04 DE=-8.22D-05 OVMax= 5.47D-04

 Cycle   5  Pass 0  IDiag  1:
 E= -76.4206588304860     Delta-E=       -0.000002170159 Rises=F Damp=F
 DIIS: error= 9.32D-05 at cycle   5 NSaved=   5.
 NSaved= 5 IEnMin= 5 EnMin= -76.4206588304860     IErMin= 5 ErrMin= 9.32D-05
 ErrMax= 9.32D-05  0.00D+00 EMaxC= 1.00D-01 BMatC= 8.98D-08 BMatP= 3.52D-06
 IDIUse=1 WtCom= 1.00D+00 WtEn= 0.00D+00
 Coeff-Com:  0.121D-02-0.186D-02-0.372D-01-0.736D-01 0.111D+01
 Coeff:      0.121D-02-0.186D-02-0.372D-01-0.736D-01 0.111D+01
 Gap=     0.460 Goal=   None    Shift=    0.000
 RMSDP=9.32D-06 MaxDP=1.06D-04 DE=-2.17D-06 OVMax= 2.12D-04

 Initial convergence to 1.0D-05 achieved.  Increase integral accuracy.
 Cycle   6  Pass 1  IDiag  1:
 E= -76.4206661668608     Delta-E=       -0.000007336375 Rises=F Damp=F
 DIIS: error= 2.43D-05 at cycle   1 NSaved=   1.
 NSaved= 1 IEnMin= 1 EnMin= -76.4206661668608     IErMin= 1 ErrMin= 2.43D-05
 ErrMax= 2.43D-05  0.00D+00 EMaxC= 1.00D-01 BMatC= 1.76D-08 BMatP= 1.76D-08
 IDIUse=1 WtCom= 1.00D+00 WtEn= 0.00D+00
 Coeff-Com:  0.100D+01
 Coeff:      0.100D+01
 Gap=     0.460 Goal=   None    Shift=    0.000
 RMSDP=9.32D-06 MaxDP=1.06D-04 DE=-7.34D-06 OVMax= 4.82D-05

 Cycle   7  Pass 1  IDiag  1:
 E= -76.4206661804173     Delta-E=       -0.000000013557 Rises=F Damp=F
 DIIS: error= 9.86D-06 at cycle   2 NSaved=   2.
 NSaved= 2 IEnMin= 2 EnMin= -76.4206661804173     IErMin= 2 ErrMin= 9.86D-06
 ErrMax= 9.86D-06  0.00D+00 EMaxC= 1.00D-01 BMatC= 1.32D-09 BMatP= 1.76D-08
 IDIUse=1 WtCom= 1.00D+00 WtEn= 0.00D+00
 Coeff-Com:  0.526D-01 0.947D+00
 Coeff:      0.526D-01 0.947D+00
 Gap=     0.460 Goal=   None    Shift=    0.000
 RMSDP=7.62D-07 MaxDP=1.32D-05 DE=-1.36D-08 OVMax= 2.05D-05

 Cycle   8  Pass 1  IDiag  1:
 E= -76.4206661806577     Delta-E=       -0.000000000240 Rises=F Damp=F
 DIIS: error= 7.02D-06 at cycle   3 NSaved=   3.
 NSaved= 3 IEnMin= 3 EnMin= -76.4206661806577     IErMin= 3 ErrMin= 7.02D-06
 ErrMax= 7.02D-06  0.00D+00 EMaxC= 1.00D-01 BMatC= 1.23D-09 BMatP= 1.32D-09
 IDIUse=1 WtCom= 1.00D+00 WtEn= 0.00D+00
 Coeff-Com: -0.488D-01 0.505D+00 0.544D+00
 Coeff:     -0.488D-01 0.505D+00 0.544D+00
 Gap=     0.460 Goal=   None    Shift=    0.000
 RMSDP=3.96D-07 MaxDP=5.31D-06 DE=-2.40D-10 OVMax= 9.64D-06

 Cycle   9  Pass 1  IDiag  1:
 E= -76.4206661814699     Delta-E=       -0.000000000812 Rises=F Damp=F
 DIIS: error= 6.85D-07 at cycle   4 NSaved=   4.
 NSaved= 4 IEnMin= 4 EnMin= -76.4206661814699     IErMin= 4 ErrMin= 6.85D-07
 ErrMax= 6.85D-07  0.00D+00 EMaxC= 1.00D-01 BMatC= 5.88D-12 BMatP= 1.23D-09
 IDIUse=1 WtCom= 1.00D+00 WtEn= 0.00D+00
 Coeff-Com: -0.152D-02-0.241D-01 0.248D-01 0.100D+01
 Coeff:     -0.152D-02-0.241D-01 0.248D-01 0.100D+01
 Gap=     0.460 Goal=   None    Shift=    0.000
 RMSDP=7.04D-08 MaxDP=5.59D-07 DE=-8.12D-10 OVMax= 1.62D-06

 Cycle  10  Pass 1  IDiag  1:
 E= -76.4206661814795     Delta-E=       -0.000000000010 Rises=F Damp=F
 DIIS: error= 9.06D-08 at cycle   5 NSaved=   5.
 NSaved= 5 IEnMin= 5 EnMin= -76.4206661814795     IErMin= 5 ErrMin= 9.06D-08
 ErrMax= 9.06D-08  0.00D+00 EMaxC= 1.00D-01 BMatC= 3.56D-13 BMatP= 5.88D-12
 IDIUse=1 WtCom= 1.00D+00 WtEn= 0.00D+00
 Coeff-Com:  0.368D-02-0.454D-01-0.432D-01 0.825D-01 0.100D+01
 Coeff:      0.368D-02-0.454D-01-0.432D-01 0.825D-01 0.100D+01
 Gap=     0.460 Goal=   None    Shift=    0.000
 RMSDP=2.61D-08 MaxDP=2.16D-07 DE=-9.54D-12 OVMax= 5.66D-07

 Cycle  11  Pass 1  IDiag  1:
 E= -76.4206661814803     Delta-E=       -0.000000000001 Rises=F Damp=F
 DIIS: error= 9.22D-09 at cycle   6 NSaved=   6.
 NSaved= 6 IEnMin= 6 EnMin= -76.4206661814803     IErMin= 6 ErrMin= 9.22D-09
 ErrMax= 9.22D-09  0.00D+00 EMaxC= 1.00D-01 BMatC= 3.45D-15 BMatP= 3.56D-13
 IDIUse=1 WtCom= 1.00D+00 WtEn= 0.00D+00
 Coeff-Com: -0.768D-04 0.211D-02 0.348D-03-0.212D-01-0.357D-01 0.105D+01
 Coeff:     -0.768D-04 0.211D-02 0.348D-03-0.212D-01-0.357D-01 0.105D+01
 Gap=     0.460 Goal=   None    Shift=    0.000
 RMSDP=3.28D-09 MaxDP=3.14D-08 DE=-8.53D-13 OVMax= 5.72D-08

 SCF Done:  E(RM062X) =  -76.4206661815     A.U. after   11 cycles
            NFock= 11  Conv=0.33D-08     -V/T= 2.0032
 KE= 7.617771158902D+01 PE=-1.989554150718D+02 EE= 3.730196670833D+01
 Leave Link  502 at Mon Feb 20 01:52:58 2023, MaxMem=  6710886400 cpu:               8.8 elap:               0.4
 (Enter /data0/home/software/g16/l601.exe)
 Copying SCF densities to generalized density rwf, IOpCl= 0 IROHF=0.

 **********************************************************************

            Population analysis using the SCF density.

 **********************************************************************

 Alpha  occ. eigenvalues --  -19.62634  -1.13078  -0.60701  -0.47246  -0.39917
 Alpha virt. eigenvalues --    0.06132   0.13233   0.17401   0.17959   0.18968
 Alpha virt. eigenvalues --    0.23238   0.49907   0.53919   0.97765   1.00516
 Alpha virt. eigenvalues --    1.06027   1.19226   1.19572   1.32675   1.34118
 Alpha virt. eigenvalues --    1.68548   1.73454   1.75912   2.05923   2.10127
 Alpha virt. eigenvalues --    2.34277   2.42870   2.53900   2.87208   3.01053
 Alpha virt. eigenvalues --    5.05677   5.45904   5.91615   6.78150   6.80427
 Alpha virt. eigenvalues --    6.86875   6.91391   7.10061  49.95544
          Condensed to atoms (all electrons):
              28         29         30
    28  O    7.920778   0.324436   0.316189
    29  H    0.324436   0.422858  -0.024283
    30  H    0.316189  -0.024283   0.423680
 Mulliken charges:
               1
     1  C    0.000000
     2  C    0.000000
     3  C    0.000000
     4  N    0.000000
     5  H    0.000000
     6  H    0.000000
     7  H    0.000000
     8  C    0.000000
     9  H    0.000000
    10  H    0.000000
    11  H    0.000000
    12  N    0.000000
    13  C    0.000000
    14  H    0.000000
    15  H    0.000000
    16  C    0.000000
    17  H    0.000000
    18  H    0.000000
    19  C    0.000000
    20  H    0.000000
    21  H    0.000000
    22  C    0.000000
    23  O    0.000000
    24  O    0.000000
    25  O    0.000000
    26  H    0.000000
    27  H    0.000000
    28  O   -0.561403
    29  H    0.276989
    30  H    0.284414
 Sum of Mulliken charges =  -0.00000
 Mulliken charges with hydrogens summed into heavy atoms:
               1
     1  C    0.000000
     2  C    0.000000
     3  C    0.000000
     4  N    0.000000
     8  C    0.000000
    12  N    0.000000
    13  C    0.000000
    16  C    0.000000
    19  C    0.000000
    22  C    0.000000
    23  O    0.000000
    24  O    0.000000
    25  O    0.000000
    28  O   -0.000000
         Mulliken charges condensed to fragments:
      1      0.000000
      2      0.000000
      3     -0.000000
 Electronic spatial extent (au):  <R**2>=          19519.0726
 Charge=             -0.0000 electrons
 Dipole moment (field-independent basis, Debye):
    X=              1.8516    Y=              0.1140    Z=             -0.9961  Tot=              2.1057
 Quadrupole moment (field-independent basis, Debye-Ang):
   XX=             36.8773   YY=             -3.5749   ZZ=            -46.1124
   XY=             10.7771   XZ=             24.0683   YZ=             -1.6620
 Traceless Quadrupole moment (field-independent basis, Debye-Ang):
   XX=             41.1473   YY=              0.6951   ZZ=            -41.8424
   XY=             10.7771   XZ=             24.0683   YZ=             -1.6620
 Octapole moment (field-independent basis, Debye-Ang**2):
  XXX=            533.9448  YYY=            -60.8421  ZZZ=          -1563.7496  XYY=              7.1389
  XXY=            205.0346  XXZ=            572.9297  XZZ=            149.5428  YZZ=           -144.0242
  YYZ=            -84.8216  XYZ=            163.1411
 Hexadecapole moment (field-independent basis, Debye-Ang**3):
 XXXX=           6554.6916 YYYY=           -630.4483 ZZZZ=         -46319.9777 XXXY=           2953.5093
 XXXZ=           8629.5644 YYYX=           -454.1083 YYYZ=          -1245.5890 ZZZX=          -5007.4499
 ZZZY=          -5696.2886 XXYY=            500.2119 XXZZ=           7323.4924 YYZZ=          -2127.9903
 XXYZ=           3426.0070 YYXZ=            -43.6572 ZZXY=           1844.7553
 N-N= 9.055070592926D+00 E-N=-1.989554148993D+02  KE= 7.617771158902D+01
 No NMR shielding tensors so no spin-rotation constants.
 Leave Link  601 at Mon Feb 20 01:52:58 2023, MaxMem=  6710886400 cpu:               1.6 elap:               0.1
 (Enter /data0/home/software/g16/l122.exe)
 CPIOFr:  IOpCl= 0 IRwI=-1 IRwCP=  731 ICalc=  6 LCPTot=      346782 Len1MO=      908636 IndFrg=     6707234
 Restoring MOs from calculation   1 to rwf.
 CPIOFr:  IOpCl= 0 IRwI=-2 IRwCP=  731 ICalc=  0 LCPTot=      346782 Len1MO=      908636 IndFrg=     1255418
 Counterpoise corrected energy =    -724.816255213464
                   BSSE energy =       0.002943899401
              sum of fragments =    -724.761565059661
           complexation energy =     -36.17 kcal/mole (raw)
           complexation energy =     -34.32 kcal/mole (corrected)
 Leave Link  122 at Mon Feb 20 01:52:58 2023, MaxMem=  6710886400 cpu:               0.4 elap:               0.0
 (Enter /data0/home/software/g16/l9999.exe)
 1\1\GINC-LOCALHOST\SP\RM062X\6-311+G(2d,p)\C8H16N2O4\WUHANYU\20-Feb-20
 23\0\\#p M062X/6-311+G(2d,p) nosymm em=GD3 counterpoise=3\\Title Card 
 Required\\0,1\C,0,9.145479,1.379504,16.786063\C,0,9.373766,0.9332,18.0
 84569\C,0,9.93245,3.111434,17.988718\N,0,9.479984,2.730955,16.755414\H
 ,0,8.821035,0.833913,15.913372\H,0,9.253789,-0.052866,18.50803\H,0,10.
 308973,4.100437,18.260564\C,0,9.378094,3.605017,15.601536\H,0,10.23428
 8,4.314602,15.557581\H,0,9.418919,3.016635,14.657118\H,0,8.435262,4.17
 7961,15.625109\N,0,9.854883,2.019522,18.813634\C,0,10.24129,1.991912,2
 0.224676\H,0,9.368137,1.63269,20.818952\H,0,10.460495,3.036086,20.5693
 4\C,0,11.461732,1.089042,20.473347\H,0,11.443924,0.749895,21.528946\H,
 0,11.393427,0.15681,19.865839\C,0,12.784938,1.794095,20.185887\H,0,13.
 63107,1.217437,20.610551\H,0,12.825532,2.795341,20.653148\C,0,12.97784
 4,1.899428,18.674138\O,0,12.638672,2.981263,18.128825\O,0,13.41952,0.9
 06822,18.076614\O,0,11.297737,-0.970458,17.647298\H,0,12.106548,-0.479
 341,17.866512\H,0,11.161057,-0.749618,16.721483\O,0,11.66087,4.917753,
 19.639794\H,0,12.236236,5.670599,19.609106\H,0,12.122884,4.213697,19.1
 06511\\Version=ES64L-G16RevA.03\HF=-76.4206662\RMSD=3.277e-09\Dipole=-
 3.2768696,1.1586054,-0.7864638\Quadrupole=-81.9053845,64.679741,17.225
 6435,15.6379363,-120.9345652,32.6914518\PG=C01 [X(C8H16N2O4)]\\@


 SUCCESS IS NEVER CERTAIN,
 FAILURE IS NEVER FINAL.
 Job cpu time:       0 days  2 hours 18 minutes 44.0 seconds.
 Elapsed time:       0 days  0 hours  5 minutes 49.1 seconds.
 File lengths (MBytes):  RWF=    189 Int=      0 D2E=      0 Chk=     64 Scr=      1
 Normal termination of Gaussian 16 at Mon Feb 20 01:52:58 2023.
