 Entering Gaussian System, Link 0=g16
 Initial command:
 /data0/home/software/g16/l1.exe "/data0/home/software/g16/scratch/Gau-312157.inp" -scrdir="/data0/home/software/g16/scratch/"
 Default is to use a total of  22 processors:
                               22 via shared-memory
                                1 via Linda
 Entering Link 1 = /data0/home/software/g16/l1.exe PID=    312158.
  
 Copyright (c) 1988,1990,1992,1993,1995,1998,2003,2009,2016,
            Gaussian, Inc.  All Rights Reserved.
  
 This is part of the Gaussian(R) 16 program.  It is based on
 the Gaussian(R) 09 system (copyright 2009, Gaussian, Inc.),
 the Gaussian(R) 03 system (copyright 2003, Gaussian, Inc.),
 the Gaussian(R) 98 system (copyright 1998, Gaussian, Inc.),
 the Gaussian(R) 94 system (copyright 1995, Gaussian, Inc.),
 the Gaussian 92(TM) system (copyright 1992, Gaussian, Inc.),
 the Gaussian 90(TM) system (copyright 1990, Gaussian, Inc.),
 the Gaussian 88(TM) system (copyright 1988, Gaussian, Inc.),
 the Gaussian 86(TM) system (copyright 1986, Carnegie Mellon
 University), and the Gaussian 82(TM) system (copyright 1983,
 Carnegie Mellon University). Gaussian is a federally registered
 trademark of Gaussian, Inc.
  
 This software contains proprietary and confidential information,
 including trade secrets, belonging to Gaussian, Inc.
  
 This software is provided under written license and may be
 used, copied, transmitted, or stored only in accord with that
 written license.
  
 The following legend is applicable only to US Government
 contracts under FAR:
  
                    RESTRICTED RIGHTS LEGEND
  
 Use, reproduction and disclosure by the US Government is
 subject to restrictions as set forth in subparagraphs (a)
 and (c) of the Commercial Computer Software - Restricted
 Rights clause in FAR 52.227-19.
  
 Gaussian, Inc.
 340 Quinnipiac St., Bldg. 40, Wallingford CT 06492
  
  
 ---------------------------------------------------------------
 Warning -- This program may not be used in any manner that
 competes with the business of Gaussian, Inc. or will provide
 assistance to any competitor of Gaussian, Inc.  The licensee
 of this program is prohibited from giving any competitor of
 Gaussian, Inc. access to this program.  By using this program,
 the user acknowledges that Gaussian, Inc. is engaged in the
 business of creating and licensing software in the field of
 computational chemistry and represents and warrants to the
 licensee that it is not a competitor of Gaussian, Inc. and that
 it will not use this program in any manner prohibited above.
 ---------------------------------------------------------------
  

 Cite this work as:
 Gaussian 16, Revision A.03,
 M. J. Frisch, G. W. Trucks, H. B. Schlegel, G. E. Scuseria, 
 M. A. Robb, J. R. Cheeseman, G. Scalmani, V. Barone, 
 G. A. Petersson, H. Nakatsuji, X. Li, M. Caricato, A. V. Marenich, 
 J. Bloino, B. G. Janesko, R. Gomperts, B. Mennucci, H. P. Hratchian, 
 J. V. Ortiz, A. F. Izmaylov, J. L. Sonnenberg, D. Williams-Young, 
 F. Ding, F. Lipparini, F. Egidi, J. Goings, B. Peng, A. Petrone, 
 T. Henderson, D. Ranasinghe, V. G. Zakrzewski, J. Gao, N. Rega, 
 G. Zheng, W. Liang, M. Hada, M. Ehara, K. Toyota, R. Fukuda, 
 J. Hasegawa, M. Ishida, T. Nakajima, Y. Honda, O. Kitao, H. Nakai, 
 T. Vreven, K. Throssell, J. A. Montgomery, Jr., J. E. Peralta, 
 F. Ogliaro, M. J. Bearpark, J. J. Heyd, E. N. Brothers, K. N. Kudin, 
 V. N. Staroverov, T. A. Keith, R. Kobayashi, J. Normand, 
 K. Raghavachari, A. P. Rendell, J. C. Burant, S. S. Iyengar, 
 J. Tomasi, M. Cossi, J. M. Millam, M. Klene, C. Adamo, R. Cammi, 
 J. W. Ochterski, R. L. Martin, K. Morokuma, O. Farkas, 
 J. B. Foresman, and D. J. Fox, Gaussian, Inc., Wallingford CT, 2016.
 
 ******************************************
 Gaussian 16:  ES64L-G16RevA.03 25-Dec-2016
                19-Feb-2023 
 ******************************************
 %nproc=24
 Will use up to   24 processors via shared memory.
 %mem=50GB
 ---------------------------------------------------
 #p M062X/6-311+G(2d,p) nosymm em=GD3 counterpoise=2
 ---------------------------------------------------
 1/38=1,62=2,172=1/1;
 2/12=2,15=1,17=6,18=5,40=1/2;
 1/38=1,53=2,62=2,63=1/22;
 3/5=4,6=6,7=112,11=2,25=1,30=1,74=-55,124=31/1,2,3;
 4//1;
 5/5=2,38=5/2;
 6/7=2,8=2,9=2,10=2,28=1/1;
 1/53=2,62=2,63=1/22;
 3/5=7,6=11,7=112,11=2,25=1,30=1,74=-55,82=7,124=31/1,2,3;
 4//1;
 5/5=2,38=5/2;
 6/7=2,8=2,9=2,10=2,28=1/1;
 1/53=2,62=2,63=1/22(-4);
 99/5=1,9=1/99;
 Leave Link    1 at Sun Feb 19 15:26:49 2023, MaxMem=  6710886400 cpu:               0.7 elap:               0.0
 (Enter /data0/home/software/g16/l101.exe)
 -------------------
 Title Card Required
 -------------------
 Symbolic Z-matrix:
 Charge =  0 Multiplicity = 1 in supermolecule
 Charge =  0 Multiplicity = 1 in fragment      1.
 Charge =  0 Multiplicity = 1 in fragment      2.
 C                     11.50458   8.18576   11.44782    
 C                     12.0279   9.4006    11.87496    
 C                     9.78093   9.54845   11.93785    
 N                     10.11574   8.2967    11.50073    
 H                     12.01167   7.30504   11.08105    
 H                     13.05851   9.72076   11.94033    
 H                     8.76743   9.93908   12.04764    
 C                     9.15743   7.28496   11.09516    
 H                     8.54633   6.94773   11.94915    
 H                     8.46706   7.68839   10.31336    
 H                     9.66773   6.40756   10.64532    
 N                     10.9473   10.2332   12.17325    
 C                     11.02957   11.64111   12.56878    
 H                     11.56053   11.69475   13.54836    
 H                     9.99357   12.03231   12.73208    
 C                     11.7632   12.5118   11.52583    
 H                     12.32424   13.304    12.06556    
 H                     12.55397   11.91527   11.01017    
 C                     10.84327   13.16694   10.5002    
 H                     11.42856   13.83908   9.84225    
 H                     10.09554   13.81555   10.99113    
 S                     9.98918   11.95529   9.48273    
 O                     9.332     12.62594   8.35923    
 O                     11.04644   10.99284   9.05832    
 O                     9.02736   11.32921   10.44675    
 P                     11.17419   7.66026   7.66062    
 O                     12.30288   7.44603   8.56389    
 O                     9.81939   7.18637   8.33058    
 H                     8.98478   7.69405   7.95478    
 O                     10.90406   9.12192   7.10425    
 H                     11.04902   9.83492   7.8761     
 O                     11.33447   6.81427   6.32327    
 H                     10.6251   7.13031   5.64819    
 
 ITRead=  0  0  0  0  0  0  0  0  0  0  0  0  0  0  0  0  0  0  0  0
 ITRead=  0  0  0  0  0  0  0  0  0  0  0  0  0
 MicOpt= -1 -1 -1 -1 -1 -1 -1 -1 -1 -1 -1 -1 -1 -1 -1 -1 -1 -1 -1 -1
 MicOpt= -1 -1 -1 -1 -1 -1 -1 -1 -1 -1 -1 -1 -1
 NAtoms=     33 NQM=       33 NQMF=       0 NMMI=      0 NMMIF=      0
                NMic=       0 NMicF=      0.
                    Isotopes and Nuclear Properties:
 (Nuclear quadrupole moments (NQMom) in fm**2, nuclear magnetic moments (NMagM)
  in nuclear magnetons)

  Atom         1           2           3           4           5           6           7           8           9          10
 IAtWgt=          12          12          12          14           1           1           1          12           1           1
 AtmWgt=  12.0000000  12.0000000  12.0000000  14.0030740   1.0078250   1.0078250   1.0078250  12.0000000   1.0078250   1.0078250
 NucSpn=           0           0           0           2           1           1           1           0           1           1
 AtZEff=  -0.0000000  -0.0000000  -0.0000000  -0.0000000  -0.0000000  -0.0000000  -0.0000000  -0.0000000  -0.0000000  -0.0000000
 NQMom=    0.0000000   0.0000000   0.0000000   2.0440000   0.0000000   0.0000000   0.0000000   0.0000000   0.0000000   0.0000000
 NMagM=    0.0000000   0.0000000   0.0000000   0.4037610   2.7928460   2.7928460   2.7928460   0.0000000   2.7928460   2.7928460
 AtZNuc=   6.0000000   6.0000000   6.0000000   7.0000000   1.0000000   1.0000000   1.0000000   6.0000000   1.0000000   1.0000000

  Atom        11          12          13          14          15          16          17          18          19          20
 IAtWgt=           1          14          12           1           1          12           1           1          12           1
 AtmWgt=   1.0078250  14.0030740  12.0000000   1.0078250   1.0078250  12.0000000   1.0078250   1.0078250  12.0000000   1.0078250
 NucSpn=           1           2           0           1           1           0           1           1           0           1
 AtZEff=  -0.0000000  -0.0000000  -0.0000000  -0.0000000  -0.0000000  -0.0000000  -0.0000000  -0.0000000  -0.0000000  -0.0000000
 NQMom=    0.0000000   2.0440000   0.0000000   0.0000000   0.0000000   0.0000000   0.0000000   0.0000000   0.0000000   0.0000000
 NMagM=    2.7928460   0.4037610   0.0000000   2.7928460   2.7928460   0.0000000   2.7928460   2.7928460   0.0000000   2.7928460
 AtZNuc=   1.0000000   7.0000000   6.0000000   1.0000000   1.0000000   6.0000000   1.0000000   1.0000000   6.0000000   1.0000000

  Atom        21          22          23          24          25          26          27          28          29          30
 IAtWgt=           1          32          16          16          16          31          16          16           1          16
 AtmWgt=   1.0078250  31.9720718  15.9949146  15.9949146  15.9949146  30.9737634  15.9949146  15.9949146   1.0078250  15.9949146
 NucSpn=           1           0           0           0           0           1           0           0           1           0
 AtZEff=  -0.0000000  -0.0000000  -0.0000000  -0.0000000  -0.0000000  -0.0000000  -0.0000000  -0.0000000  -0.0000000  -0.0000000
 NQMom=    0.0000000   0.0000000   0.0000000   0.0000000   0.0000000   0.0000000   0.0000000   0.0000000   0.0000000   0.0000000
 NMagM=    2.7928460   0.0000000   0.0000000   0.0000000   0.0000000   1.1316000   0.0000000   0.0000000   2.7928460   0.0000000
 AtZNuc=   1.0000000  16.0000000   8.0000000   8.0000000   8.0000000  15.0000000   8.0000000   8.0000000   1.0000000   8.0000000

  Atom        31          32          33
 IAtWgt=           1          16           1
 AtmWgt=   1.0078250  15.9949146   1.0078250
 NucSpn=           1           0           1
 AtZEff=  -0.0000000  -0.0000000  -0.0000000
 NQMom=    0.0000000   0.0000000   0.0000000
 NMagM=    2.7928460   0.0000000   2.7928460
 AtZNuc=   1.0000000   8.0000000   1.0000000
 Leave Link  101 at Sun Feb 19 15:26:50 2023, MaxMem=  6710886400 cpu:               2.3 elap:               0.1
 (Enter /data0/home/software/g16/l202.exe)
                          Input orientation:                          
 ---------------------------------------------------------------------
 Center     Atomic      Atomic             Coordinates (Angstroms)
 Number     Number       Type             X           Y           Z
 ---------------------------------------------------------------------
      1          6           0       11.504582    8.185756   11.447825
      2          6           0       12.027899    9.400597   11.874956
      3          6           0        9.780929    9.548446   11.937849
      4          7           0       10.115739    8.296700   11.500731
      5          1           0       12.011673    7.305043   11.081049
      6          1           0       13.058507    9.720755   11.940328
      7          1           0        8.767425    9.939079   12.047636
      8          6           0        9.157428    7.284959   11.095159
      9          1           0        8.546333    6.947727   11.949153
     10          1           0        8.467065    7.688388   10.313363
     11          1           0        9.667732    6.407565   10.645318
     12          7           0       10.947301   10.233203   12.173248
     13          6           0       11.029566   11.641112   12.568779
     14          1           0       11.560530   11.694754   13.548361
     15          1           0        9.993573   12.032309   12.732083
     16          6           0       11.763203   12.511803   11.525831
     17          1           0       12.324244   13.303999   12.065561
     18          1           0       12.553972   11.915270   11.010169
     19          6           0       10.843272   13.166937   10.500202
     20          1           0       11.428560   13.839080    9.842245
     21          1           0       10.095537   13.815550   10.991128
     22         16           0        9.989182   11.955293    9.482733
     23          8           0        9.331997   12.625944    8.359235
     24          8           0       11.046444   10.992837    9.058324
     25          8           0        9.027365   11.329214   10.446755
     26         15           0       11.174194    7.660262    7.660620
     27          8           0       12.302876    7.446034    8.563892
     28          8           0        9.819388    7.186369    8.330582
     29          1           0        8.984782    7.694048    7.954780
     30          8           0       10.904060    9.121916    7.104246
     31          1           0       11.049016    9.834924    7.876095
     32          8           0       11.334468    6.814265    6.323275
     33          1           0       10.625100    7.130313    5.648192
 ---------------------------------------------------------------------
                    Distance matrix (angstroms):
                    1          2          3          4          5
     1  C    0.000000
     2  C    1.390014   0.000000
     3  C    2.251228   2.252707   0.000000
     4  N    1.394271   2.239417   1.367493   0.000000
     5  H    1.080426   2.240959   3.277679   2.180386   0.000000
     6  H    2.239077   1.081170   3.282105   3.298645   2.769456
     7  H    3.305441   3.309150   1.091713   2.194189   4.289240
     8  C    2.538689   3.650152   2.494444   1.451368   2.854351
     9  H    3.245810   4.259504   2.878905   2.117509   3.590245
    10  H    3.280379   4.248502   2.797322   2.120852   3.646991
    11  H    2.679552   4.005077   3.398321   2.121620   2.547428
    12  N    2.242507   1.396389   1.372854   2.212198   3.301501
    13  C    3.663559   2.549111   2.517224   3.627795   4.688216
    14  H    4.090043   2.877825   3.219840   4.222201   5.055761
    15  H    4.327636   3.434976   2.616410   3.935216   5.398674
    16  C    4.334473   3.141903   3.588963   4.525689   5.231627
    17  H    5.220139   3.919273   4.537504   5.501779   6.087236
    18  H    3.898979   2.710754   3.761943   4.390863   4.642554
    19  C    5.113461   4.180742   4.035948   5.024895   6.005360
    20  H    5.877392   4.918460   5.051315   5.932289   6.675949
    21  H    5.821388   4.899692   4.382172   5.542365   6.787221
    22  S    4.513029   4.050379   3.444398   4.180148   5.316945
    23  O    5.828789   5.480059   4.741204   5.406071   6.549880
    24  O    3.714742   3.381109   3.461135   3.755092   4.315427
    25  O    4.125539   3.842203   2.441793   3.389921   5.049988
    26  P    3.837737   4.638772   4.878639   4.033836   3.539334
    27  O    3.082455   3.854747   4.707859   3.759285   2.537865
    28  O    3.681828   4.726829   4.311990   3.372018   3.519271
    29  H    4.335035   5.247919   4.465141   3.770414   4.368862
    30  O    4.483715   4.909211   4.980670   4.542192   4.510299
    31  H    3.960373   4.139775   4.264734   4.046619   4.195085
    32  O    5.307630   6.163694   6.435268   5.521681   4.830723
    33  H    5.960134   6.774557   6.791154   5.989334   5.609728
                    6          7          8          9         10
     6  H    0.000000
     7  H    4.297972   0.000000
     8  C    4.676091   2.846694   0.000000
     9  H    5.296176   3.001128   1.102936   0.000000
    10  H    5.278150   2.857189   1.118285   1.797407   0.000000
    11  H    4.914431   3.904951   1.110219   1.802580   1.786702
    12  N    2.184959   2.203213   3.613594   4.075441   4.010839
    13  C    2.863446   2.878505   4.965131   5.345862   5.222771
    14  H    2.954044   3.624363   5.589221   5.846120   6.007138
    15  H    3.919691   2.520619   5.090775   5.344198   5.200969
    16  C    3.104766   3.983199   5.856231   6.440993   5.966568
    17  H    3.659845   4.896322   6.870171   7.395158   7.034424
    18  H    2.436318   4.395407   5.743128   6.451306   5.920716
    19  C    4.342511   4.137966   6.147659   6.786307   5.974594
    20  H    4.900947   5.211084   7.048712   7.761252   6.842764
    21  H    5.142715   4.231680   6.598446   7.105268   6.376002
    22  S    4.522576   3.483753   5.010364   5.765480   4.605786
    23  O    5.928847   4.598074   6.003489   6.763647   5.380166
    24  O    3.737986   3.903885   4.633081   5.565102   4.375809
    25  O    4.589990   2.136086   4.097968   4.656825   3.686101
    26  P    5.110007   5.498314   4.000532   5.079850   3.790301
    27  O    4.140731   5.554382   4.040681   5.081330   4.222894
    28  O    5.472227   4.743472   2.844433   3.843394   2.451983
    29  H    6.048749   4.673209   3.171615   4.087083   2.414742
    30  O    5.328033   5.447024   4.727845   5.810258   4.276959
    31  H    4.535315   4.755866   4.521371   5.584723   4.149020
    32  O    6.555248   7.008743   5.266112   6.280288   4.990681
    33  H    7.226537   7.231390   5.643352   6.637524   5.170337
                   11         12         13         14         15
    11  H    0.000000
    12  N    4.313626   0.000000
    13  C    5.739713   1.464725   0.000000
    14  H    6.321765   2.098361   1.115518   0.000000
    15  H    6.008203   2.111558   1.119368   1.798779   0.000000
    16  C    6.513680   2.505367   1.544042   2.190724   2.194664
    17  H    7.525619   3.367099   2.166705   2.317677   2.737421
    18  H    6.228829   2.600672   2.197326   2.734588   3.087771
    19  C    6.862366   3.378861   2.577180   3.460210   2.643986
    20  H    7.679379   4.320594   3.524805   4.283789   3.697942
    21  H    7.428381   3.867314   2.844218   3.630898   2.494247
    22  S    5.677343   3.335035   3.271817   4.366503   3.250266
    23  O    6.633787   4.783420   4.644555   5.723679   4.462274
    24  O    5.044216   3.207744   3.569851   4.573555   3.960498
    25  O    4.967104   2.805026   2.934123   4.021257   2.578880
    26  P    3.570308   5.199550   6.321243   7.147858   6.799147
    27  O    3.514930   4.757452   5.937939   6.591482   6.613669
    28  O    2.446945   5.032044   6.266704   7.112125   6.548793
    29  H    3.059486   5.300402   6.406984   7.343587   6.531523
    30  O    4.629838   5.189567   6.018573   6.969725   6.400931
    31  H    4.617719   4.316769   5.028317   5.991262   5.433515
    32  O    4.650104   6.786842   7.899224   8.721935   8.372503
    33  H    5.139084   7.232434   8.270757   9.171795   8.637702
                   16         17         18         19         20
    16  C    0.000000
    17  H    1.110698   0.000000
    18  H    1.116725   1.759317   0.000000
    19  C    1.525578   2.159262   2.180191   0.000000
    20  H    2.169818   2.455951   2.516276   1.107811   0.000000
    21  H    2.183294   2.526505   3.107303   1.104905   1.759953
    22  S    2.762445   3.733969   2.985433   1.797997   2.397856
    23  O    3.993885   4.811461   4.232450   2.675886   2.840175
    24  O    2.984894   4.002214   2.633101   2.616678   2.976851
    25  O    3.169816   4.170098   3.619096   2.584105   3.525705
    26  P    6.230910   7.251061   5.588234   6.204531   6.557590
    27  O    5.892906   6.824800   5.101117   6.213572   6.577967
    28  O    6.507556   7.592744   6.084459   6.443817   7.009502
    29  H    6.609296   7.715055   6.316109   6.315510   6.877208
    30  O    5.637364   6.642393   5.077526   5.281894   5.479359
    31  H    4.582174   5.586798   4.051562   4.246243   4.476948
    32  O    7.727376   8.721820   7.033805   7.618690   7.857482
    33  H    8.049991   9.065545   7.440911   7.747931   7.952558
                   21         22         23         24         25
    21  H    0.000000
    22  S    2.397316   0.000000
    23  O    2.987477   1.464211   0.000000
    24  O    3.550727   1.491391   2.468824   0.000000
    25  O    2.760290   1.498801   2.476297   2.473372   0.000000
    26  P    7.081197   4.813693   5.342261   3.616069   5.082581
    27  O    7.164814   5.150812   5.974904   3.795115   5.417862
    28  O    7.148483   4.909065   5.461442   4.065031   4.718967
    29  H    6.922859   4.636989   4.960619   4.043547   4.407515
    30  O    6.147500   3.810804   4.040370   2.709066   4.423405
    31  H    5.143728   2.863651   3.312306   1.654822   3.595590
    32  O    8.505398   6.182406   6.475387   5.002391   6.535333
    33  H    8.574369   6.195848   6.262893   5.169683   6.573411
                   26         27         28         29         30
    26  P    0.000000
    27  O    1.461409   0.000000
    28  O    1.583958   2.507902   0.000000
    29  H    2.209343   3.382643   1.046677   0.000000
    30  O    1.587122   2.625992   2.535105   2.538867   0.000000
    31  H    2.188893   2.784246   2.955230   2.974996   1.060728
    32  O    1.590563   2.521371   2.542284   2.992800   2.473948
    33  H    2.152258   3.378745   2.801344   2.885964   2.482820
                   31         32         33
    31  H    0.000000
    32  O    3.408389   0.000000
    33  H    3.529614   1.028993   0.000000
 Symmetry turned off by external request.
 Stoichiometry    C7H15N2O7PS
 Framework group  C1[X(C7H15N2O7PS)]
 Deg. of freedom    93
 Full point group                 C1      NOp   1
 Rotational constants (GHZ):           0.5002176           0.2636921           0.2112213
 Leave Link  202 at Sun Feb 19 15:26:50 2023, MaxMem=  6710886400 cpu:               0.1 elap:               0.0
 (Enter /data0/home/software/g16/l122.exe)
 Counterpoise: doing full-system calculation.
 Leave Link  122 at Sun Feb 19 15:26:50 2023, MaxMem=  6710886400 cpu:               0.0 elap:               0.0
 (Enter /data0/home/software/g16/l301.exe)
 Standard basis: 6-311+G(2d,p) (5D, 7F)
 Ernie: Thresh=  0.10000D-02 Tol=  0.10000D-05 Strict=F.
   592 basis functions,   904 primitive gaussians,   628 cartesian basis functions
    79 alpha electrons       79 beta electrons
       nuclear repulsion energy      1894.8840930234 Hartrees.
 IExCor= 4336 DFT=T Ex+Corr=M062X ExCW=0 ScaHFX=  0.540000
 ScaDFX=  1.000000  1.000000  1.000000  1.000000 ScalE2=  1.000000  1.000000
 IRadAn=      5 IRanWt=     -1 IRanGd=            0 ICorTp=0 IEmpDi=131
 NAtoms=   33 NActive=   33 NUniq=   33 SFac= 1.00D+00 NAtFMM=   60 NAOKFM=F Big=F
 Integral buffers will be    131072 words long.
 Raffenetti 2 integral format.
 Two-electron integral symmetry is turned off.
 R6Disp:  Grimme-D3 Dispersion energy=       -0.0024432349 Hartrees.
 Nuclear repulsion after empirical dispersion term =     1894.8816497885 Hartrees.
 Leave Link  301 at Sun Feb 19 15:26:50 2023, MaxMem=  6710886400 cpu:               1.2 elap:               0.1
 (Enter /data0/home/software/g16/l302.exe)
 NPDir=0 NMtPBC=     1 NCelOv=     1 NCel=       1 NClECP=     1 NCelD=      1
         NCelK=      1 NCelE2=     1 NClLst=     1 CellRange=     0.0.
 One-electron integrals computed using PRISM.
 NBasis=   592 RedAO= T EigKep=  7.01D-06  NBF=   592
 NBsUse=   592 1.00D-06 EigRej= -1.00D+00 NBFU=   592
 Precomputing XC quadrature grid using
 IXCGrd= 4 IRadAn=           5 IRanWt=          -1 IRanGd=           0 AccXCQ= 0.00D+00.
 Generated NRdTot=       0 NPtTot=           0 NUsed=           0 NTot=          32
 NSgBfM=   627   627   627   627   627 MxSgAt=    33 MxSgA2=    33.
 Leave Link  302 at Sun Feb 19 15:26:50 2023, MaxMem=  6710886400 cpu:              15.7 elap:               0.7
 (Enter /data0/home/software/g16/l303.exe)
 DipDrv:  MaxL=1.
 Leave Link  303 at Sun Feb 19 15:26:50 2023, MaxMem=  6710886400 cpu:               1.5 elap:               0.1
 (Enter /data0/home/software/g16/l401.exe)
 ExpMin= 3.48D-02 ExpMax= 9.34D+04 ExpMxC= 3.17D+03 IAcc=3 IRadAn=         5 AccDes= 0.00D+00
 Harris functional with IExCor= 1009 and IRadAn=       5 diagonalized for initial guess.
 HarFok:  IExCor= 1009 AccDes= 0.00D+00 IRadAn=         5 IDoV= 1 UseB2=F ITyADJ=14
 ICtDFT=  3500011 ScaDFX=  1.000000  1.000000  1.000000  1.000000
 FoFCou: FMM=F IPFlag=           0 FMFlag=      100000 FMFlg1=           0
         NFxFlg=           0 DoJE=T BraDBF=F KetDBF=T FulRan=T
         wScrn=  0.000000 ICntrl=       500 IOpCl=  0 I1Cent=   200000004 NGrid=           0
         NMat0=    1 NMatS0=      1 NMatT0=    0 NMatD0=    1 NMtDS0=    0 NMtDT0=    0
 Symmetry not used in FoFCou.
 Harris En= -1650.75728545690    
 JPrj=0 DoOrth=F DoCkMO=F.
 Leave Link  401 at Sun Feb 19 15:26:53 2023, MaxMem=  6710886400 cpu:              56.7 elap:               2.4
 (Enter /data0/home/software/g16/l502.exe)
 Two-electron integral symmetry not used.
 Closed shell SCF:
 Using DIIS extrapolation, IDIIS=  1040.
 NGot=  6710886400 LenX=  6710078225 LenY=  6709683213
 Requested convergence on RMS density matrix=1.00D-08 within 128 cycles.
 Requested convergence on MAX density matrix=1.00D-06.
 Requested convergence on             energy=1.00D-06.
 No special actions if energy rises.
 Fock matrices will be formed incrementally for  20 cycles.

 Cycle   1  Pass 1  IDiag  1:
 FoFJK:  IHMeth= 1 ICntrl=       0 DoSepK=F KAlg= 0 I1Cent=           0 FoldK=F
 IRaf= 830000000 NMat=       1 IRICut=       1 DoRegI=T DoRafI=F ISym2E= 0 IDoP0=0 IntGTp=1.
 FoFCou: FMM=F IPFlag=           0 FMFlag=      100000 FMFlg1=           0
         NFxFlg=           0 DoJE=F BraDBF=F KetDBF=F FulRan=T
         wScrn=  0.000000 ICntrl=         0 IOpCl=  0 I1Cent=           0 NGrid=           0
         NMat0=    1 NMatS0=      1 NMatT0=    0 NMatD0=    1 NMtDS0=    0 NMtDT0=    0
 Symmetry not used in FoFCou.
 E= -1650.69365141078    
 DIIS: error= 2.06D-02 at cycle   1 NSaved=   1.
 NSaved= 1 IEnMin= 1 EnMin= -1650.69365141078     IErMin= 1 ErrMin= 2.06D-02
 ErrMax= 2.06D-02  0.00D+00 EMaxC= 1.00D-01 BMatC= 1.21D+00 BMatP= 1.21D+00
 IDIUse=3 WtCom= 7.94D-01 WtEn= 2.06D-01
 Coeff-Com:  0.100D+01
 Coeff-En:   0.100D+01
 Coeff:      0.100D+01
 Gap=     0.269 Goal=   None    Shift=    0.000
 GapD=    0.269 DampG=1.000 DampE=0.500 DampFc=0.5000 IDamp=-1.
 Damping current iteration by 5.00D-01
 RMSDP=4.71D-03 MaxDP=2.36D-01              OVMax= 2.43D-01

 Cycle   2  Pass 1  IDiag  1:
 RMSU=  2.36D-03    CP:  9.95D-01
 E= -1650.99788904440     Delta-E=       -0.304237633619 Rises=F Damp=T
 DIIS: error= 5.66D-03 at cycle   2 NSaved=   2.
 NSaved= 2 IEnMin= 2 EnMin= -1650.99788904440     IErMin= 2 ErrMin= 5.66D-03
 ErrMax= 5.66D-03  0.00D+00 EMaxC= 1.00D-01 BMatC= 7.48D-02 BMatP= 1.21D+00
 IDIUse=3 WtCom= 9.43D-01 WtEn= 5.66D-02
 Coeff-Com:  0.420D-01 0.958D+00
 Coeff-En:   0.144D+00 0.856D+00
 Coeff:      0.477D-01 0.952D+00
 Gap=     0.282 Goal=   None    Shift=    0.000
 RMSDP=2.34D-03 MaxDP=4.96D-01 DE=-3.04D-01 OVMax= 1.27D-01

 Cycle   3  Pass 1  IDiag  1:
 RMSU=  1.77D-03    CP:  8.79D-01  7.63D-01
 E= -1651.38246037013     Delta-E=       -0.384571325728 Rises=F Damp=F
 DIIS: error= 4.95D-03 at cycle   3 NSaved=   3.
 NSaved= 3 IEnMin= 3 EnMin= -1651.38246037013     IErMin= 3 ErrMin= 4.95D-03
 ErrMax= 4.95D-03  0.00D+00 EMaxC= 1.00D-01 BMatC= 2.89D-02 BMatP= 7.48D-02
 IDIUse=3 WtCom= 9.51D-01 WtEn= 4.95D-02
 Coeff-Com: -0.468D-01 0.348D+00 0.699D+00
 Coeff-En:   0.000D+00 0.000D+00 0.100D+01
 Coeff:     -0.445D-01 0.331D+00 0.714D+00
 Gap=     0.280 Goal=   None    Shift=    0.000
 RMSDP=5.11D-04 MaxDP=2.31D-02 DE=-3.85D-01 OVMax= 4.06D-02

 Cycle   4  Pass 1  IDiag  1:
 RMSU=  4.61D-04    CP:  8.73D-01  8.52D-01  9.85D-01
 E= -1651.39868159505     Delta-E=       -0.016221224920 Rises=F Damp=F
 DIIS: error= 1.95D-03 at cycle   4 NSaved=   4.
 NSaved= 4 IEnMin= 4 EnMin= -1651.39868159505     IErMin= 4 ErrMin= 1.95D-03
 ErrMax= 1.95D-03  0.00D+00 EMaxC= 1.00D-01 BMatC= 7.11D-03 BMatP= 2.89D-02
 IDIUse=3 WtCom= 9.81D-01 WtEn= 1.95D-02
 Coeff-Com: -0.276D-01 0.786D-01 0.377D+00 0.572D+00
 Coeff-En:   0.000D+00 0.000D+00 0.175D+00 0.825D+00
 Coeff:     -0.271D-01 0.771D-01 0.373D+00 0.577D+00
 Gap=     0.279 Goal=   None    Shift=    0.000
 RMSDP=1.92D-04 MaxDP=2.19D-02 DE=-1.62D-02 OVMax= 1.42D-02

 Cycle   5  Pass 1  IDiag  1:
 RMSU=  1.14D-04    CP:  8.69D-01  8.34D-01  1.02D+00  7.31D-01
 E= -1651.40382403955     Delta-E=       -0.005142444502 Rises=F Damp=F
 DIIS: error= 2.99D-04 at cycle   5 NSaved=   5.
 NSaved= 5 IEnMin= 5 EnMin= -1651.40382403955     IErMin= 5 ErrMin= 2.99D-04
 ErrMax= 2.99D-04  0.00D+00 EMaxC= 1.00D-01 BMatC= 1.96D-04 BMatP= 7.11D-03
 IDIUse=3 WtCom= 9.97D-01 WtEn= 2.99D-03
 Coeff-Com: -0.800D-02 0.152D-01 0.113D+00 0.233D+00 0.647D+00
 Coeff-En:   0.000D+00 0.000D+00 0.000D+00 0.000D+00 0.100D+01
 Coeff:     -0.797D-02 0.151D-01 0.113D+00 0.232D+00 0.648D+00
 Gap=     0.278 Goal=   None    Shift=    0.000
 RMSDP=3.69D-05 MaxDP=1.80D-03 DE=-5.14D-03 OVMax= 2.05D-03

 Cycle   6  Pass 1  IDiag  1:
 RMSU=  2.98D-05    CP:  8.68D-01  8.35D-01  1.02D+00  7.44D-01  8.23D-01
 E= -1651.40395651393     Delta-E=       -0.000132474386 Rises=F Damp=F
 DIIS: error= 1.04D-04 at cycle   6 NSaved=   6.
 NSaved= 6 IEnMin= 6 EnMin= -1651.40395651393     IErMin= 6 ErrMin= 1.04D-04
 ErrMax= 1.04D-04  0.00D+00 EMaxC= 1.00D-01 BMatC= 2.48D-05 BMatP= 1.96D-04
 IDIUse=3 WtCom= 9.99D-01 WtEn= 1.04D-03
 Coeff-Com: -0.161D-02 0.120D-02 0.234D-01 0.649D-01 0.315D+00 0.597D+00
 Coeff-En:   0.000D+00 0.000D+00 0.000D+00 0.000D+00 0.000D+00 0.100D+01
 Coeff:     -0.161D-02 0.119D-02 0.233D-01 0.648D-01 0.315D+00 0.597D+00
 Gap=     0.278 Goal=   None    Shift=    0.000
 RMSDP=1.35D-05 MaxDP=7.15D-04 DE=-1.32D-04 OVMax= 9.01D-04

 Cycle   7  Pass 1  IDiag  1:
 RMSU=  1.16D-05    CP:  8.68D-01  8.34D-01  1.02D+00  7.52D-01  8.39D-01
                    CP:  8.68D-01
 E= -1651.40397530399     Delta-E=       -0.000018790053 Rises=F Damp=F
 DIIS: error= 2.92D-05 at cycle   7 NSaved=   7.
 NSaved= 7 IEnMin= 7 EnMin= -1651.40397530399     IErMin= 7 ErrMin= 2.92D-05
 ErrMax= 2.92D-05  0.00D+00 EMaxC= 1.00D-01 BMatC= 2.18D-06 BMatP= 2.48D-05
 IDIUse=1 WtCom= 1.00D+00 WtEn= 0.00D+00
 Coeff-Com:  0.219D-03-0.122D-02-0.357D-02 0.106D-02 0.689D-01 0.255D+00
 Coeff-Com:  0.679D+00
 Coeff:      0.219D-03-0.122D-02-0.357D-02 0.106D-02 0.689D-01 0.255D+00
 Coeff:      0.679D+00
 Gap=     0.278 Goal=   None    Shift=    0.000
 RMSDP=4.77D-06 MaxDP=3.63D-04 DE=-1.88D-05 OVMax= 2.97D-04

 Cycle   8  Pass 1  IDiag  1:
 RMSU=  3.78D-06    CP:  8.68D-01  8.33D-01  1.02D+00  7.56D-01  8.46D-01
                    CP:  9.07D-01  9.26D-01
 E= -1651.40397698571     Delta-E=       -0.000001681727 Rises=F Damp=F
 DIIS: error= 1.31D-05 at cycle   8 NSaved=   8.
 NSaved= 8 IEnMin= 8 EnMin= -1651.40397698571     IErMin= 8 ErrMin= 1.31D-05
 ErrMax= 1.31D-05  0.00D+00 EMaxC= 1.00D-01 BMatC= 3.13D-07 BMatP= 2.18D-06
 IDIUse=1 WtCom= 1.00D+00 WtEn= 0.00D+00
 Coeff-Com:  0.309D-03-0.664D-03-0.508D-02-0.894D-02-0.140D-01 0.201D-01
 Coeff-Com:  0.297D+00 0.711D+00
 Coeff:      0.309D-03-0.664D-03-0.508D-02-0.894D-02-0.140D-01 0.201D-01
 Coeff:      0.297D+00 0.711D+00
 Gap=     0.278 Goal=   None    Shift=    0.000
 RMSDP=3.14D-06 MaxDP=7.36D-04 DE=-1.68D-06 OVMax= 1.58D-04

 Cycle   9  Pass 1  IDiag  1:
 RMSU=  1.87D-06    CP:  8.68D-01  8.33D-01  1.02D+00  7.56D-01  8.60D-01
                    CP:  9.25D-01  9.42D-01  8.12D-01
 E= -1651.40397725902     Delta-E=       -0.000000273304 Rises=F Damp=F
 DIIS: error= 4.73D-06 at cycle   9 NSaved=   9.
 NSaved= 9 IEnMin= 9 EnMin= -1651.40397725902     IErMin= 9 ErrMin= 4.73D-06
 ErrMax= 4.73D-06  0.00D+00 EMaxC= 1.00D-01 BMatC= 4.41D-08 BMatP= 3.13D-07
 IDIUse=1 WtCom= 1.00D+00 WtEn= 0.00D+00
 Coeff-Com:  0.119D-03-0.192D-03-0.218D-02-0.439D-02-0.125D-01-0.118D-01
 Coeff-Com:  0.850D-01 0.347D+00 0.599D+00
 Coeff:      0.119D-03-0.192D-03-0.218D-02-0.439D-02-0.125D-01-0.118D-01
 Coeff:      0.850D-01 0.347D+00 0.599D+00
 Gap=     0.278 Goal=   None    Shift=    0.000
 RMSDP=6.92D-07 MaxDP=3.85D-05 DE=-2.73D-07 OVMax= 5.01D-05

 Cycle  10  Pass 1  IDiag  1:
 RMSU=  4.80D-07    CP:  8.68D-01  8.33D-01  1.02D+00  7.56D-01  8.59D-01
                    CP:  9.30D-01  9.66D-01  8.83D-01  8.96D-01
 E= -1651.40397729805     Delta-E=       -0.000000039027 Rises=F Damp=F
 DIIS: error= 1.54D-06 at cycle  10 NSaved=  10.
 NSaved=10 IEnMin=10 EnMin= -1651.40397729805     IErMin=10 ErrMin= 1.54D-06
 ErrMax= 1.54D-06  0.00D+00 EMaxC= 1.00D-01 BMatC= 3.82D-09 BMatP= 4.41D-08
 IDIUse=1 WtCom= 1.00D+00 WtEn= 0.00D+00
 Coeff-Com:  0.408D-05 0.932D-05-0.196D-03-0.504D-03-0.300D-02-0.715D-02
 Coeff-Com: -0.731D-02 0.369D-01 0.232D+00 0.749D+00
 Coeff:      0.408D-05 0.932D-05-0.196D-03-0.504D-03-0.300D-02-0.715D-02
 Coeff:     -0.731D-02 0.369D-01 0.232D+00 0.749D+00
 Gap=     0.278 Goal=   None    Shift=    0.000
 RMSDP=2.71D-07 MaxDP=2.23D-05 DE=-3.90D-08 OVMax= 2.01D-05

 Cycle  11  Pass 1  IDiag  1:
 RMSU=  2.15D-07    CP:  8.68D-01  8.33D-01  1.02D+00  7.56D-01  8.59D-01
                    CP:  9.30D-01  9.64D-01  9.06D-01  9.48D-01  9.52D-01
 E= -1651.40397730236     Delta-E=       -0.000000004318 Rises=F Damp=F
 DIIS: error= 4.94D-07 at cycle  11 NSaved=  11.
 NSaved=11 IEnMin=11 EnMin= -1651.40397730236     IErMin=11 ErrMin= 4.94D-07
 ErrMax= 4.94D-07  0.00D+00 EMaxC= 1.00D-01 BMatC= 5.08D-10 BMatP= 3.82D-09
 IDIUse=1 WtCom= 1.00D+00 WtEn= 0.00D+00
 Coeff-Com: -0.153D-04 0.318D-04 0.241D-03 0.435D-03 0.551D-03-0.118D-02
 Coeff-Com: -0.154D-01-0.379D-01-0.421D-02 0.283D+00 0.774D+00
 Coeff:     -0.153D-04 0.318D-04 0.241D-03 0.435D-03 0.551D-03-0.118D-02
 Coeff:     -0.154D-01-0.379D-01-0.421D-02 0.283D+00 0.774D+00
 Gap=     0.278 Goal=   None    Shift=    0.000
 RMSDP=1.36D-07 MaxDP=2.54D-05 DE=-4.32D-09 OVMax= 1.06D-05

 Cycle  12  Pass 1  IDiag  1:
 RMSU=  5.54D-08    CP:  8.68D-01  8.33D-01  1.02D+00  7.56D-01  8.60D-01
                    CP:  9.31D-01  9.63D-01  9.08D-01  9.91D-01  1.06D+00
                    CP:  1.01D+00
 E= -1651.40397730302     Delta-E=       -0.000000000661 Rises=F Damp=F
 DIIS: error= 1.49D-07 at cycle  12 NSaved=  12.
 NSaved=12 IEnMin=12 EnMin= -1651.40397730302     IErMin=12 ErrMin= 1.49D-07
 ErrMax= 1.49D-07  0.00D+00 EMaxC= 1.00D-01 BMatC= 5.10D-11 BMatP= 5.08D-10
 IDIUse=1 WtCom= 1.00D+00 WtEn= 0.00D+00
 Coeff-Com: -0.479D-05 0.882D-05 0.980D-04 0.189D-03 0.482D-03 0.339D-03
 Coeff-Com: -0.436D-02-0.162D-01-0.255D-01 0.260D-01 0.272D+00 0.747D+00
 Coeff:     -0.479D-05 0.882D-05 0.980D-04 0.189D-03 0.482D-03 0.339D-03
 Coeff:     -0.436D-02-0.162D-01-0.255D-01 0.260D-01 0.272D+00 0.747D+00
 Gap=     0.278 Goal=   None    Shift=    0.000
 RMSDP=2.74D-08 MaxDP=2.37D-06 DE=-6.61D-10 OVMax= 3.34D-06

 Cycle  13  Pass 1  IDiag  1:
 RMSU=  1.93D-08    CP:  8.68D-01  8.33D-01  1.02D+00  7.56D-01  8.60D-01
                    CP:  9.31D-01  9.62D-01  9.09D-01  9.95D-01  1.08D+00
                    CP:  1.07D+00  1.06D+00
 E= -1651.40397730308     Delta-E=       -0.000000000052 Rises=F Damp=F
 DIIS: error= 6.54D-08 at cycle  13 NSaved=  13.
 NSaved=13 IEnMin=13 EnMin= -1651.40397730308     IErMin=13 ErrMin= 6.54D-08
 ErrMax= 6.54D-08  0.00D+00 EMaxC= 1.00D-01 BMatC= 8.64D-12 BMatP= 5.10D-11
 IDIUse=1 WtCom= 1.00D+00 WtEn= 0.00D+00
 Coeff-Com:  0.121D-06-0.652D-06 0.104D-04 0.207D-04 0.121D-03 0.252D-03
 Coeff-Com:  0.126D-03-0.151D-02-0.980D-02-0.255D-01 0.129D-01 0.317D+00
 Coeff-Com:  0.706D+00
 Coeff:      0.121D-06-0.652D-06 0.104D-04 0.207D-04 0.121D-03 0.252D-03
 Coeff:      0.126D-03-0.151D-02-0.980D-02-0.255D-01 0.129D-01 0.317D+00
 Coeff:      0.706D+00
 Gap=     0.278 Goal=   None    Shift=    0.000
 RMSDP=1.21D-08 MaxDP=8.28D-07 DE=-5.23D-11 OVMax= 1.45D-06

 Cycle  14  Pass 1  IDiag  1:
 RMSU=  7.71D-09    CP:  8.68D-01  8.33D-01  1.02D+00  7.56D-01  8.60D-01
                    CP:  9.31D-01  9.62D-01  9.10D-01  9.94D-01  1.08D+00
                    CP:  1.10D+00  1.16D+00  9.80D-01
 E= -1651.40397730310     Delta-E=       -0.000000000026 Rises=F Damp=F
 DIIS: error= 2.92D-08 at cycle  14 NSaved=  14.
 NSaved=14 IEnMin=14 EnMin= -1651.40397730310     IErMin=14 ErrMin= 2.92D-08
 ErrMax= 2.92D-08  0.00D+00 EMaxC= 1.00D-01 BMatC= 1.63D-12 BMatP= 8.64D-12
 IDIUse=1 WtCom= 1.00D+00 WtEn= 0.00D+00
 Coeff-Com:  0.657D-06-0.141D-05-0.637D-05-0.124D-04 0.273D-05 0.827D-04
 Coeff-Com:  0.584D-03 0.125D-02-0.184D-02-0.168D-01-0.293D-01 0.632D-01
 Coeff-Com:  0.362D+00 0.621D+00
 Coeff:      0.657D-06-0.141D-05-0.637D-05-0.124D-04 0.273D-05 0.827D-04
 Coeff:      0.584D-03 0.125D-02-0.184D-02-0.168D-01-0.293D-01 0.632D-01
 Coeff:      0.362D+00 0.621D+00
 Gap=     0.278 Goal=   None    Shift=    0.000
 RMSDP=4.17D-09 MaxDP=3.48D-07 DE=-2.64D-11 OVMax= 4.38D-07

 SCF Done:  E(RM062X) =  -1651.40397730     A.U. after   14 cycles
            NFock= 14  Conv=0.42D-08     -V/T= 2.0031
 KE= 1.646319386859D+03 PE=-7.687353401180D+03 EE= 2.494748387229D+03
 Leave Link  502 at Sun Feb 19 15:29:08 2023, MaxMem=  6710886400 cpu:            3225.4 elap:             134.8
 (Enter /data0/home/software/g16/l601.exe)
 Copying SCF densities to generalized density rwf, IOpCl= 0 IROHF=0.

 **********************************************************************

            Population analysis using the SCF density.

 **********************************************************************

 Alpha  occ. eigenvalues --  -90.06861 -78.14572 -19.67092 -19.65731 -19.63256
 Alpha  occ. eigenvalues --  -19.58525 -19.57122 -19.57013 -19.56687 -14.86885
 Alpha  occ. eigenvalues --  -14.86451 -10.67440 -10.62451 -10.62015 -10.61857
 Alpha  occ. eigenvalues --  -10.61762 -10.57420 -10.56477  -8.40306  -6.95336
 Alpha  occ. eigenvalues --   -6.32590  -6.32554  -6.32523  -5.07249  -5.07219
 Alpha  occ. eigenvalues --   -5.07050  -1.21962  -1.21099  -1.19358  -1.15198
 Alpha  occ. eigenvalues --   -1.12617  -1.08422  -1.07630  -1.07342  -1.06627
 Alpha  occ. eigenvalues --   -0.93243  -0.90119  -0.86617  -0.81920  -0.75634
 Alpha  occ. eigenvalues --   -0.72777  -0.70843  -0.70270  -0.66245  -0.64898
 Alpha  occ. eigenvalues --   -0.63398  -0.61717  -0.60278  -0.58186  -0.57430
 Alpha  occ. eigenvalues --   -0.56870  -0.55817  -0.54621  -0.54299  -0.53776
 Alpha  occ. eigenvalues --   -0.53341  -0.52023  -0.51508  -0.50360  -0.49418
 Alpha  occ. eigenvalues --   -0.48901  -0.48390  -0.46732  -0.45980  -0.45120
 Alpha  occ. eigenvalues --   -0.44885  -0.43373  -0.43313  -0.40663  -0.39686
 Alpha  occ. eigenvalues --   -0.39135  -0.38439  -0.36989  -0.36525  -0.35509
 Alpha  occ. eigenvalues --   -0.34494  -0.33827  -0.33152  -0.30145
 Alpha virt. eigenvalues --   -0.02327  -0.01305  -0.00110   0.00734   0.01276
 Alpha virt. eigenvalues --    0.01805   0.01988   0.02659   0.03494   0.03602
 Alpha virt. eigenvalues --    0.03987   0.04845   0.05308   0.05877   0.06092
 Alpha virt. eigenvalues --    0.06553   0.07116   0.07817   0.08655   0.08874
 Alpha virt. eigenvalues --    0.09589   0.09704   0.09970   0.10466   0.10611
 Alpha virt. eigenvalues --    0.11980   0.12338   0.12664   0.12969   0.13658
 Alpha virt. eigenvalues --    0.13995   0.14269   0.14440   0.14945   0.15281
 Alpha virt. eigenvalues --    0.15732   0.16066   0.16657   0.16930   0.17412
 Alpha virt. eigenvalues --    0.17577   0.17819   0.18142   0.18356   0.18627
 Alpha virt. eigenvalues --    0.19237   0.19496   0.19976   0.20285   0.20803
 Alpha virt. eigenvalues --    0.21332   0.21491   0.21510   0.21962   0.22425
 Alpha virt. eigenvalues --    0.23100   0.23563   0.23794   0.24219   0.24542
 Alpha virt. eigenvalues --    0.25110   0.25505   0.25993   0.26254   0.26608
 Alpha virt. eigenvalues --    0.27223   0.27786   0.28008   0.28455   0.28729
 Alpha virt. eigenvalues --    0.29080   0.29516   0.29908   0.30002   0.30506
 Alpha virt. eigenvalues --    0.31086   0.31444   0.31941   0.32144   0.32536
 Alpha virt. eigenvalues --    0.32996   0.33460   0.33716   0.33838   0.34308
 Alpha virt. eigenvalues --    0.35271   0.35988   0.36279   0.36652   0.37073
 Alpha virt. eigenvalues --    0.37410   0.38493   0.38889   0.38935   0.39634
 Alpha virt. eigenvalues --    0.40239   0.41107   0.41657   0.41740   0.42590
 Alpha virt. eigenvalues --    0.42807   0.43815   0.44235   0.45013   0.45410
 Alpha virt. eigenvalues --    0.45756   0.46515   0.46828   0.47433   0.48108
 Alpha virt. eigenvalues --    0.48607   0.49281   0.49719   0.50044   0.52187
 Alpha virt. eigenvalues --    0.52498   0.53136   0.54352   0.54820   0.55755
 Alpha virt. eigenvalues --    0.56491   0.57195   0.58132   0.59049   0.60304
 Alpha virt. eigenvalues --    0.60353   0.61034   0.61517   0.62335   0.63196
 Alpha virt. eigenvalues --    0.64482   0.64753   0.65373   0.65912   0.66401
 Alpha virt. eigenvalues --    0.67179   0.67472   0.68728   0.69047   0.69475
 Alpha virt. eigenvalues --    0.70275   0.70442   0.72248   0.72848   0.73666
 Alpha virt. eigenvalues --    0.74632   0.75384   0.76347   0.77099   0.77250
 Alpha virt. eigenvalues --    0.77834   0.78524   0.79508   0.80427   0.80768
 Alpha virt. eigenvalues --    0.81582   0.82199   0.83322   0.84236   0.84969
 Alpha virt. eigenvalues --    0.86394   0.87134   0.87756   0.89386   0.89901
 Alpha virt. eigenvalues --    0.91049   0.92137   0.92707   0.93177   0.94535
 Alpha virt. eigenvalues --    0.95733   0.96145   0.97963   0.98918   1.00652
 Alpha virt. eigenvalues --    1.01086   1.02974   1.05428   1.06129   1.07161
 Alpha virt. eigenvalues --    1.07829   1.10108   1.10802   1.11996   1.12192
 Alpha virt. eigenvalues --    1.13023   1.13192   1.14305   1.14534   1.15361
 Alpha virt. eigenvalues --    1.16914   1.18344   1.19014   1.19539   1.19752
 Alpha virt. eigenvalues --    1.20508   1.21495   1.22291   1.22999   1.23644
 Alpha virt. eigenvalues --    1.24265   1.24868   1.25292   1.26151   1.26444
 Alpha virt. eigenvalues --    1.27261   1.28230   1.29073   1.29474   1.30148
 Alpha virt. eigenvalues --    1.30917   1.31237   1.32852   1.34037   1.34194
 Alpha virt. eigenvalues --    1.34795   1.34983   1.35814   1.37289   1.38368
 Alpha virt. eigenvalues --    1.38518   1.39518   1.40341   1.41525   1.42333
 Alpha virt. eigenvalues --    1.42522   1.42867   1.43964   1.44329   1.45041
 Alpha virt. eigenvalues --    1.45261   1.47506   1.47868   1.48511   1.49109
 Alpha virt. eigenvalues --    1.50352   1.51538   1.51966   1.52767   1.53375
 Alpha virt. eigenvalues --    1.54919   1.56388   1.58020   1.58648   1.59783
 Alpha virt. eigenvalues --    1.59951   1.61513   1.63296   1.63821   1.64111
 Alpha virt. eigenvalues --    1.65875   1.66608   1.67260   1.68034   1.69515
 Alpha virt. eigenvalues --    1.69712   1.70887   1.72228   1.74096   1.74780
 Alpha virt. eigenvalues --    1.76305   1.77281   1.77687   1.79272   1.79688
 Alpha virt. eigenvalues --    1.80041   1.82451   1.83536   1.84108   1.85800
 Alpha virt. eigenvalues --    1.86694   1.87439   1.88375   1.89047   1.89348
 Alpha virt. eigenvalues --    1.89949   1.90915   1.91880   1.94092   1.95145
 Alpha virt. eigenvalues --    1.96066   1.97482   1.98323   1.99805   2.00408
 Alpha virt. eigenvalues --    2.01687   2.02340   2.02946   2.04926   2.05867
 Alpha virt. eigenvalues --    2.07351   2.08852   2.09109   2.10547   2.12059
 Alpha virt. eigenvalues --    2.13248   2.14137   2.15777   2.17650   2.18625
 Alpha virt. eigenvalues --    2.19064   2.20808   2.21817   2.22080   2.23838
 Alpha virt. eigenvalues --    2.24661   2.25608   2.27442   2.27608   2.29089
 Alpha virt. eigenvalues --    2.30425   2.31507   2.33140   2.33734   2.34695
 Alpha virt. eigenvalues --    2.35724   2.36579   2.37769   2.39412   2.41468
 Alpha virt. eigenvalues --    2.42453   2.43305   2.44589   2.46065   2.46578
 Alpha virt. eigenvalues --    2.50250   2.51458   2.52579   2.53838   2.55469
 Alpha virt. eigenvalues --    2.61331   2.64582   2.66875   2.70042   2.72315
 Alpha virt. eigenvalues --    2.73169   2.74481   2.75165   2.77702   2.79021
 Alpha virt. eigenvalues --    2.79841   2.80560   2.82691   2.83574   2.84960
 Alpha virt. eigenvalues --    2.87029   2.87376   2.88436   2.90535   2.91626
 Alpha virt. eigenvalues --    2.93321   2.94278   2.95675   2.96456   2.98557
 Alpha virt. eigenvalues --    2.99035   2.99406   3.01665   3.04926   3.05517
 Alpha virt. eigenvalues --    3.08298   3.10366   3.15312   3.15829   3.18672
 Alpha virt. eigenvalues --    3.21898   3.24166   3.25917   3.29955   3.31133
 Alpha virt. eigenvalues --    3.32374   3.33963   3.35225   3.37777   3.38790
 Alpha virt. eigenvalues --    3.40817   3.44568   3.46109   3.46787   3.48621
 Alpha virt. eigenvalues --    3.49753   3.50428   3.50568   3.52582   3.55354
 Alpha virt. eigenvalues --    3.55751   3.58043   3.58932   3.62071   3.62567
 Alpha virt. eigenvalues --    3.63387   3.64341   3.64832   3.67824   3.68696
 Alpha virt. eigenvalues --    3.70431   3.71302   3.73161   3.81283   3.84140
 Alpha virt. eigenvalues --    3.86790   3.89548   3.90221   3.92947   3.96898
 Alpha virt. eigenvalues --    4.03034   4.04483   4.06159   4.14753   4.15227
 Alpha virt. eigenvalues --    4.16000   4.18499   4.19888   4.24533   4.38066
 Alpha virt. eigenvalues --    4.49432   4.53553   4.95845   5.00876   5.03339
 Alpha virt. eigenvalues --    5.05802   5.06903   5.09668   5.11217   5.11733
 Alpha virt. eigenvalues --    5.13007   5.15260   5.17275   5.18592   5.19794
 Alpha virt. eigenvalues --    5.20707   5.23702   5.25181   5.27249   5.28620
 Alpha virt. eigenvalues --    5.29901   5.31452   5.32507   5.34656   5.38649
 Alpha virt. eigenvalues --    5.39666   5.43524   5.45564   5.46255   5.52386
 Alpha virt. eigenvalues --    5.54177   5.55186   5.56877   5.57861   5.63851
 Alpha virt. eigenvalues --    5.66109   5.84927   6.76049   6.77223   6.78664
 Alpha virt. eigenvalues --    6.79497   6.80808   6.82241   6.82677   6.83035
 Alpha virt. eigenvalues --    6.84654   6.85969   6.88233   6.89800   6.90328
 Alpha virt. eigenvalues --    6.93254   6.94640   6.96044   6.97110   6.98514
 Alpha virt. eigenvalues --    6.99438   7.01130   7.02711   7.04181   7.08001
 Alpha virt. eigenvalues --    7.10870   7.15760   7.19353   7.25598   7.27288
 Alpha virt. eigenvalues --    7.30222   7.32473   7.34774   7.38579   7.42408
 Alpha virt. eigenvalues --    7.44377   7.44805   7.70149   8.61188  14.27377
 Alpha virt. eigenvalues --   14.31375  14.39926  17.77118  17.78836  17.86465
 Alpha virt. eigenvalues --   23.91126  23.94928  24.00351  24.02498  24.03807
 Alpha virt. eigenvalues --   24.10067  24.16790  35.59092  35.68878  50.03906
 Alpha virt. eigenvalues --   50.05144  50.08023  50.09900  50.12065  50.13388
 Alpha virt. eigenvalues --   50.19157 163.95433 189.92058
          Condensed to atoms (all electrons):
               1          2          3          4          5          6
     1  C    8.734172  -1.975830  -0.730955  -0.099905   0.400295  -0.024474
     2  C   -1.975830   7.358620  -0.000465   0.218730  -0.004434   0.390083
     3  C   -0.730955  -0.000465   7.024371   0.170736   0.000747   0.012126
     4  N   -0.099905   0.218730   0.170736   6.310217  -0.043427   0.011462
     5  H    0.400295  -0.004434   0.000747  -0.043427   0.433706  -0.001149
     6  H   -0.024474   0.390083   0.012126   0.011462  -0.001149   0.475514
     7  H    0.024336  -0.003267   0.400514  -0.035996  -0.000006  -0.000064
     8  C   -0.092080  -0.005540  -0.260616   0.189564  -0.003047  -0.000733
     9  H   -0.003819   0.005199  -0.006261  -0.055438   0.000220   0.000007
    10  H   -0.037280   0.006569   0.016690  -0.030525   0.000126   0.000013
    11  H    0.015675   0.010938  -0.002676  -0.051599   0.001542  -0.000016
    12  N    0.215493   0.158309  -0.022338  -0.022992   0.007897  -0.039206
    13  C   -0.221257   0.132312  -0.234291   0.018610   0.002127   0.002532
    14  H    0.005621  -0.009365  -0.000894  -0.003799  -0.000021  -0.000072
    15  H   -0.001495  -0.006519  -0.001966   0.006029   0.000008  -0.000065
    16  C    0.106809  -0.277849   0.224376  -0.017404  -0.000649   0.007563
    17  H    0.002185   0.005068  -0.005020  -0.000267  -0.000001  -0.000357
    18  H   -0.012312   0.008415  -0.001805   0.001210   0.000050   0.000622
    19  C   -0.061419   0.171285  -0.073140   0.008417   0.000103  -0.002710
    20  H   -0.000839   0.003513  -0.001352  -0.000042   0.000000  -0.000019
    21  H    0.000741  -0.004035   0.004175  -0.000053  -0.000000   0.000014
    22  S    0.070268  -0.059094  -0.111821   0.003284   0.000231   0.000933
    23  O   -0.006293   0.009570  -0.003739  -0.000165   0.000001  -0.000012
    24  O    0.044071  -0.017504  -0.018634  -0.010027   0.000029  -0.000809
    25  O   -0.001288  -0.003104  -0.106306   0.035426   0.000067  -0.000149
    26  P   -0.040772   0.053910  -0.027418   0.010618   0.004431  -0.000205
    27  O    0.129003  -0.081064  -0.015210   0.002352  -0.010623  -0.000156
    28  O   -0.064253   0.015553   0.009130   0.009375   0.000709  -0.000040
    29  H    0.001523   0.002639  -0.004694   0.005735   0.000043  -0.000002
    30  O   -0.002461  -0.009766   0.015189  -0.005156   0.000220   0.000160
    31  H    0.007809   0.001977  -0.008526   0.000350  -0.000111  -0.000168
    32  O    0.000730   0.002026  -0.001974  -0.000310   0.000125  -0.000003
    33  H   -0.001606   0.001012   0.000142  -0.000194   0.000011   0.000000
               7          8          9         10         11         12
     1  C    0.024336  -0.092080  -0.003819  -0.037280   0.015675   0.215493
     2  C   -0.003267  -0.005540   0.005199   0.006569   0.010938   0.158309
     3  C    0.400514  -0.260616  -0.006261   0.016690  -0.002676  -0.022338
     4  N   -0.035996   0.189564  -0.055438  -0.030525  -0.051599  -0.022992
     5  H   -0.000006  -0.003047   0.000220   0.000126   0.001542   0.007897
     6  H   -0.000064  -0.000733   0.000007   0.000013  -0.000016  -0.039206
     7  H    0.428423   0.005703   0.000338   0.000517  -0.000024  -0.026135
     8  C    0.005703   5.388845   0.430355   0.412498   0.409096  -0.000292
     9  H    0.000338   0.430355   0.496648  -0.032680  -0.016329  -0.007748
    10  H    0.000517   0.412498  -0.032680   0.493491  -0.021066   0.006604
    11  H   -0.000024   0.409096  -0.016329  -0.021066   0.453340  -0.001310
    12  N   -0.026135  -0.000292  -0.007748   0.006604  -0.001310   6.381873
    13  C   -0.004179  -0.003541  -0.000781   0.000452   0.000523   0.084206
    14  H    0.000311  -0.000373  -0.000013   0.000007  -0.000002  -0.048683
    15  H    0.003322   0.001158  -0.000004   0.000010   0.000001  -0.049010
    16  C   -0.000323  -0.006305   0.000148  -0.000092   0.000115  -0.030644
    17  H   -0.000029   0.000030  -0.000000   0.000000  -0.000000  -0.001874
    18  H    0.000122   0.000008  -0.000000   0.000001   0.000001  -0.002390
    19  C    0.000047   0.002013  -0.000108   0.000028  -0.000058   0.053397
    20  H   -0.000002  -0.000025   0.000000  -0.000000  -0.000000   0.000478
    21  H    0.000065  -0.000102   0.000000  -0.000000   0.000000  -0.000723
    22  S    0.005064  -0.006311   0.000030   0.000368  -0.000194  -0.027354
    23  O   -0.000268   0.000204  -0.000001   0.000033  -0.000001  -0.008763
    24  O    0.000970  -0.000229  -0.000042   0.000078  -0.000002   0.042168
    25  O   -0.025675   0.014249  -0.000175   0.000100  -0.000012   0.046373
    26  P    0.000357   0.000894   0.000610  -0.001906  -0.000136   0.000304
    27  O   -0.000003  -0.003244  -0.000062   0.000018  -0.001818   0.001778
    28  O   -0.000007   0.011496   0.003002  -0.001226  -0.009692  -0.012838
    29  H   -0.000012  -0.004608  -0.000190   0.001430  -0.000104   0.001433
    30  O   -0.000105   0.004640  -0.000011   0.000085   0.000025  -0.002174
    31  H    0.000021  -0.002561   0.000008  -0.000036  -0.000050   0.001465
    32  O    0.000002   0.001010   0.000014  -0.000125   0.000155  -0.000018
    33  H    0.000000  -0.000120   0.000001   0.000021   0.000041  -0.000018
              13         14         15         16         17         18
     1  C   -0.221257   0.005621  -0.001495   0.106809   0.002185  -0.012312
     2  C    0.132312  -0.009365  -0.006519  -0.277849   0.005068   0.008415
     3  C   -0.234291  -0.000894  -0.001966   0.224376  -0.005020  -0.001805
     4  N    0.018610  -0.003799   0.006029  -0.017404  -0.000267   0.001210
     5  H    0.002127  -0.000021   0.000008  -0.000649  -0.000001   0.000050
     6  H    0.002532  -0.000072  -0.000065   0.007563  -0.000357   0.000622
     7  H   -0.004179   0.000311   0.003322  -0.000323  -0.000029   0.000122
     8  C   -0.003541  -0.000373   0.001158  -0.006305   0.000030   0.000008
     9  H   -0.000781  -0.000013  -0.000004   0.000148  -0.000000  -0.000000
    10  H    0.000452   0.000007   0.000010  -0.000092   0.000000   0.000001
    11  H    0.000523  -0.000002   0.000001   0.000115  -0.000000   0.000001
    12  N    0.084206  -0.048683  -0.049010  -0.030644  -0.001874  -0.002390
    13  C    6.232517   0.436686   0.449230  -0.402178  -0.005687  -0.055309
    14  H    0.436686   0.516085  -0.023657  -0.062938  -0.007967  -0.000346
    15  H    0.449230  -0.023657   0.453114  -0.027922   0.000642   0.003256
    16  C   -0.402178  -0.062938  -0.027922   6.381619   0.401302   0.475034
    17  H   -0.005687  -0.007967   0.000642   0.401302   0.526460  -0.031198
    18  H   -0.055309  -0.000346   0.003256   0.475034  -0.031198   0.473156
    19  C   -0.006305   0.014068  -0.013290  -0.563369  -0.045920  -0.037224
    20  H    0.025523  -0.000093  -0.000120  -0.098313  -0.003459  -0.005155
    21  H   -0.020949  -0.000140   0.001858  -0.018329  -0.004940   0.004445
    22  S   -0.027028   0.001132   0.003895   0.108224   0.002547   0.006467
    23  O   -0.000953  -0.000012  -0.000295   0.003467  -0.000512   0.000807
    24  O    0.021099   0.000206  -0.000197  -0.018587   0.002039  -0.014518
    25  O   -0.007405   0.002259  -0.001088  -0.032694  -0.000968   0.001176
    26  P   -0.000144   0.000000   0.000015  -0.004600  -0.000037   0.000170
    27  O   -0.001255   0.000001   0.000002   0.001893  -0.000004  -0.000035
    28  O   -0.000731  -0.000002  -0.000003  -0.000372  -0.000001   0.000001
    29  H    0.000503   0.000000   0.000001  -0.000238   0.000000   0.000001
    30  O   -0.004352   0.000002   0.000003   0.005541  -0.000016   0.000065
    31  H    0.004224  -0.000001  -0.000008  -0.005606   0.000048  -0.000295
    32  O    0.000212  -0.000000  -0.000000  -0.000335   0.000000   0.000001
    33  H   -0.000008  -0.000000   0.000000   0.000010  -0.000000   0.000000
              19         20         21         22         23         24
     1  C   -0.061419  -0.000839   0.000741   0.070268  -0.006293   0.044071
     2  C    0.171285   0.003513  -0.004035  -0.059094   0.009570  -0.017504
     3  C   -0.073140  -0.001352   0.004175  -0.111821  -0.003739  -0.018634
     4  N    0.008417  -0.000042  -0.000053   0.003284  -0.000165  -0.010027
     5  H    0.000103   0.000000  -0.000000   0.000231   0.000001   0.000029
     6  H   -0.002710  -0.000019   0.000014   0.000933  -0.000012  -0.000809
     7  H    0.000047  -0.000002   0.000065   0.005064  -0.000268   0.000970
     8  C    0.002013  -0.000025  -0.000102  -0.006311   0.000204  -0.000229
     9  H   -0.000108   0.000000   0.000000   0.000030  -0.000001  -0.000042
    10  H    0.000028  -0.000000  -0.000000   0.000368   0.000033   0.000078
    11  H   -0.000058  -0.000000   0.000000  -0.000194  -0.000001  -0.000002
    12  N    0.053397   0.000478  -0.000723  -0.027354  -0.008763   0.042168
    13  C   -0.006305   0.025523  -0.020949  -0.027028  -0.000953   0.021099
    14  H    0.014068  -0.000093  -0.000140   0.001132  -0.000012   0.000206
    15  H   -0.013290  -0.000120   0.001858   0.003895  -0.000295  -0.000197
    16  C   -0.563369  -0.098313  -0.018329   0.108224   0.003467  -0.018587
    17  H   -0.045920  -0.003459  -0.004940   0.002547  -0.000512   0.002039
    18  H   -0.037224  -0.005155   0.004445   0.006467   0.000807  -0.014518
    19  C    6.498843   0.473343   0.437575  -0.123456  -0.094546  -0.090284
    20  H    0.473343   0.466517  -0.028781  -0.056526   0.007143   0.008244
    21  H    0.437575  -0.028781   0.465396  -0.050236   0.003718  -0.005452
    22  S   -0.123456  -0.056526  -0.050236  14.072719   0.540670   0.254516
    23  O   -0.094546   0.007143   0.003718   0.540670   8.174689  -0.104210
    24  O   -0.090284   0.008244  -0.005452   0.254516  -0.104210   8.597855
    25  O   -0.051441  -0.002440   0.010840   0.305775  -0.059427  -0.048741
    26  P    0.005813  -0.000006   0.000023  -0.021297  -0.001775   0.029758
    27  O    0.000386  -0.000010   0.000001  -0.004263   0.000041  -0.007906
    28  O   -0.001512  -0.000001   0.000002   0.006963  -0.000718  -0.006349
    29  H   -0.000008  -0.000000   0.000000   0.001373   0.000350   0.000525
    30  O    0.001800   0.000044  -0.000024  -0.016988  -0.001901   0.047470
    31  H   -0.000440  -0.000154   0.000081   0.031935   0.008431   0.024113
    32  O    0.000226   0.000001  -0.000000  -0.001599   0.000146   0.002836
    33  H   -0.000036   0.000000   0.000000  -0.000060   0.000005   0.000208
              25         26         27         28         29         30
     1  C   -0.001288  -0.040772   0.129003  -0.064253   0.001523  -0.002461
     2  C   -0.003104   0.053910  -0.081064   0.015553   0.002639  -0.009766
     3  C   -0.106306  -0.027418  -0.015210   0.009130  -0.004694   0.015189
     4  N    0.035426   0.010618   0.002352   0.009375   0.005735  -0.005156
     5  H    0.000067   0.004431  -0.010623   0.000709   0.000043   0.000220
     6  H   -0.000149  -0.000205  -0.000156  -0.000040  -0.000002   0.000160
     7  H   -0.025675   0.000357  -0.000003  -0.000007  -0.000012  -0.000105
     8  C    0.014249   0.000894  -0.003244   0.011496  -0.004608   0.004640
     9  H   -0.000175   0.000610  -0.000062   0.003002  -0.000190  -0.000011
    10  H    0.000100  -0.001906   0.000018  -0.001226   0.001430   0.000085
    11  H   -0.000012  -0.000136  -0.001818  -0.009692  -0.000104   0.000025
    12  N    0.046373   0.000304   0.001778  -0.012838   0.001433  -0.002174
    13  C   -0.007405  -0.000144  -0.001255  -0.000731   0.000503  -0.004352
    14  H    0.002259   0.000000   0.000001  -0.000002   0.000000   0.000002
    15  H   -0.001088   0.000015   0.000002  -0.000003   0.000001   0.000003
    16  C   -0.032694  -0.004600   0.001893  -0.000372  -0.000238   0.005541
    17  H   -0.000968  -0.000037  -0.000004  -0.000001   0.000000  -0.000016
    18  H    0.001176   0.000170  -0.000035   0.000001   0.000001   0.000065
    19  C   -0.051441   0.005813   0.000386  -0.001512  -0.000008   0.001800
    20  H   -0.002440  -0.000006  -0.000010  -0.000001  -0.000000   0.000044
    21  H    0.010840   0.000023   0.000001   0.000002   0.000000  -0.000024
    22  S    0.305775  -0.021297  -0.004263   0.006963   0.001373  -0.016988
    23  O   -0.059427  -0.001775   0.000041  -0.000718   0.000350  -0.001901
    24  O   -0.048741   0.029758  -0.007906  -0.006349   0.000525   0.047470
    25  O    8.608019   0.002089   0.000795  -0.000105   0.000042  -0.006484
    26  P    0.002089  12.609314   0.530256   0.157212   0.025424   0.280011
    27  O    0.000795   0.530256   8.227455  -0.041316   0.010583  -0.064914
    28  O   -0.000105   0.157212  -0.041316   8.212153   0.224104   0.009818
    29  H    0.000042   0.025424   0.010583   0.224104   0.453687  -0.014304
    30  O   -0.006484   0.280011  -0.064914   0.009818  -0.014304   8.240971
    31  H    0.005190   0.020054   0.013096  -0.001333  -0.003288   0.168136
    32  O   -0.000088   0.155414  -0.048089   0.030748  -0.008013   0.012508
    33  H   -0.000006   0.027495   0.000021  -0.004448  -0.003835  -0.010845
              31         32         33
     1  C    0.007809   0.000730  -0.001606
     2  C    0.001977   0.002026   0.001012
     3  C   -0.008526  -0.001974   0.000142
     4  N    0.000350  -0.000310  -0.000194
     5  H   -0.000111   0.000125   0.000011
     6  H   -0.000168  -0.000003   0.000000
     7  H    0.000021   0.000002   0.000000
     8  C   -0.002561   0.001010  -0.000120
     9  H    0.000008   0.000014   0.000001
    10  H   -0.000036  -0.000125   0.000021
    11  H   -0.000050   0.000155   0.000041
    12  N    0.001465  -0.000018  -0.000018
    13  C    0.004224   0.000212  -0.000008
    14  H   -0.000001  -0.000000  -0.000000
    15  H   -0.000008  -0.000000   0.000000
    16  C   -0.005606  -0.000335   0.000010
    17  H    0.000048   0.000000  -0.000000
    18  H   -0.000295   0.000001   0.000000
    19  C   -0.000440   0.000226  -0.000036
    20  H   -0.000154   0.000001   0.000000
    21  H    0.000081  -0.000000   0.000000
    22  S    0.031935  -0.001599  -0.000060
    23  O    0.008431   0.000146   0.000005
    24  O    0.024113   0.002836   0.000208
    25  O    0.005190  -0.000088  -0.000006
    26  P    0.020054   0.155414   0.027495
    27  O    0.013096  -0.048089   0.000021
    28  O   -0.001333   0.030748  -0.004448
    29  H   -0.003288  -0.008013  -0.003835
    30  O    0.168136   0.012508  -0.010845
    31  H    0.230925  -0.001805  -0.000897
    32  O   -0.001805   8.070202   0.232005
    33  H   -0.000897   0.232005   0.457275
 Mulliken charges:
               1
     1  C   -0.380391
     2  C   -0.097893
     3  C   -0.238093
     4  N    0.375184
     5  H    0.210782
     6  H    0.169381
     7  H    0.225981
     8  C   -0.482035
     9  H    0.187084
    10  H    0.185797
    11  H    0.213638
    12  N    0.302732
    13  C   -0.414402
    14  H    0.181998
    15  H    0.203095
    16  C   -0.147354
    17  H    0.167934
    18  H    0.185582
    19  C   -0.502079
    20  H    0.212531
    21  H    0.204828
    22  S    1.089833
    23  O   -0.465684
    24  O   -0.732693
    25  O   -0.684803
    26  P    1.184124
    27  O   -0.637710
    28  O   -0.545319
    29  H    0.309900
    30  O   -0.647185
    31  H    0.507417
    32  O   -0.446004
    33  H    0.303826
 Sum of Mulliken charges =  -0.00000
 Mulliken charges with hydrogens summed into heavy atoms:
               1
     1  C   -0.169609
     2  C    0.071487
     3  C   -0.012112
     4  N    0.375184
     8  C    0.104484
    12  N    0.302732
    13  C   -0.029309
    16  C    0.206161
    19  C   -0.084721
    22  S    1.089833
    23  O   -0.465684
    24  O   -0.732693
    25  O   -0.684803
    26  P    1.184124
    27  O   -0.637710
    28  O   -0.235418
    30  O   -0.139768
    32  O   -0.142178
         Mulliken charges condensed to fragments:
      1     -0.029049
      2      0.029049
 Electronic spatial extent (au):  <R**2>=         176552.3658
 Charge=             -0.0000 electrons
 Dipole moment (field-independent basis, Debye):
    X=             -1.3342    Y=             -2.2968    Z=              8.2416  Tot=              8.6590
 Quadrupole moment (field-independent basis, Debye-Ang):
   XX=           -149.5054   YY=           -166.4569   ZZ=             55.9250
   XY=            -12.0650   XZ=             82.4767   YZ=             69.3326
 Traceless Quadrupole moment (field-independent basis, Debye-Ang):
   XX=            -62.8263   YY=            -79.7778   ZZ=            142.6041
   XY=            -12.0650   XZ=             82.4767   YZ=             69.3326
 Octapole moment (field-independent basis, Debye-Ang**2):
  XXX=          -4325.9413  YYY=          -4196.2897  ZZZ=           -759.6178  XYY=          -1405.6292
  XXY=          -1194.5371  XXZ=           -347.5907  XZZ=            596.3384  YZZ=            531.9684
  YYZ=           -569.6013  XYZ=            910.1088
 Hexadecapole moment (field-independent basis, Debye-Ang**3):
 XXXX=         -89803.4856 YYYY=         -80590.0561 ZZZZ=         -33361.5192 XXXY=         -36681.8367
 XXXZ=         -29187.8931 YYYX=         -38468.3752 YYYZ=         -29093.2942 ZZZX=          -7706.4513
 ZZZY=          -7084.1766 XXYY=         -23651.0953 XXZZ=          -5483.6473 YYZZ=          -6543.2013
 XXYZ=           -221.5506 YYXZ=          -2193.3730 ZZXY=           7748.1655
 N-N= 1.894881649788D+03 E-N=-7.687353410371D+03  KE= 1.646319386859D+03
 No NMR shielding tensors so no spin-rotation constants.
 Leave Link  601 at Sun Feb 19 15:29:08 2023, MaxMem=  6710886400 cpu:               3.6 elap:               0.2
 (Enter /data0/home/software/g16/l122.exe)
 CPIOFr:  IOpCl= 0 IRwI=-1 IRwCP=  731 ICalc= -1 LCPTot=      536908 Len1MO=     1413956 IndFrg=      536908
 CPIOFr:  IOpCl= 0 IRwI=-1 IRwCP=  731 ICalc=  0 LCPTot=      536908 Len1MO=     1413956 IndFrg=     1950864
 Counterpoise: doing calculation for fragment   1 using the basis set of the full-system, NewBq=T
 Leave Link  122 at Sun Feb 19 15:29:08 2023, MaxMem=  6710886400 cpu:               0.6 elap:               0.0
 (Enter /data0/home/software/g16/l301.exe)
 Basis read from rwf:  (5D, 7F)
 No pseudopotential information found on rwf file.
   592 basis functions,   904 primitive gaussians,   628 cartesian basis functions
    54 alpha electrons       54 beta electrons
       nuclear repulsion energy      1025.4536013726 Hartrees.
 IExCor= 4336 DFT=T Ex+Corr=M062X ExCW=0 ScaHFX=  0.540000
 ScaDFX=  1.000000  1.000000  1.000000  1.000000 ScalE2=  1.000000  1.000000
 IRadAn=      5 IRanWt=     -1 IRanGd=            0 ICorTp=0 IEmpDi=131
 NAtoms=   33 NActive=   33 NUniq=   33 SFac= 1.00D+00 NAtFMM=   60 NAOKFM=F Big=F
 Integral buffers will be    131072 words long.
 Raffenetti 2 integral format.
 Two-electron integral symmetry is turned off.
 R6Disp:  Grimme-D3 Dispersion energy=       -0.0012054933 Hartrees.
 Nuclear repulsion after empirical dispersion term =     1025.4523958794 Hartrees.
 No density basis found on file   718.
 Leave Link  301 at Sun Feb 19 15:29:08 2023, MaxMem=  6710886400 cpu:               1.3 elap:               0.1
 (Enter /data0/home/software/g16/l302.exe)
 NPDir=0 NMtPBC=     1 NCelOv=     1 NCel=       1 NClECP=     1 NCelD=      1
         NCelK=      1 NCelE2=     1 NClLst=     1 CellRange=     0.0.
 One-electron integrals computed using PRISM.
 NBasis=   592 RedAO= T EigKep=  7.01D-06  NBF=   592
 NBsUse=   592 1.00D-06 EigRej= -1.00D+00 NBFU=   592
 Precomputing XC quadrature grid using
 IXCGrd= 4 IRadAn=           5 IRanWt=          -1 IRanGd=           0 AccXCQ= 0.00D+00.
 Generated NRdTot=       0 NPtTot=           0 NUsed=           0 NTot=          32
 NSgBfM=   627   627   627   627   627 MxSgAt=    33 MxSgA2=    33.
 Leave Link  302 at Sun Feb 19 15:29:09 2023, MaxMem=  6710886400 cpu:              15.7 elap:               0.7
 (Enter /data0/home/software/g16/l303.exe)
 DipDrv:  MaxL=1.
 Leave Link  303 at Sun Feb 19 15:29:09 2023, MaxMem=  6710886400 cpu:               1.5 elap:               0.1
 (Enter /data0/home/software/g16/l401.exe)
 ExpMin= 3.48D-02 ExpMax= 9.34D+04 ExpMxC= 3.17D+03 IAcc=3 IRadAn=         5 AccDes= 0.00D+00
 Harris functional with IExCor= 1009 and IRadAn=       5 diagonalized for initial guess.
 HarFok:  IExCor= 1009 AccDes= 0.00D+00 IRadAn=         5 IDoV= 1 UseB2=F ITyADJ=14
 ICtDFT=  3500011 ScaDFX=  1.000000  1.000000  1.000000  1.000000
 FoFCou: FMM=F IPFlag=           0 FMFlag=      100000 FMFlg1=           0
         NFxFlg=           0 DoJE=T BraDBF=F KetDBF=T FulRan=T
         wScrn=  0.000000 ICntrl=       500 IOpCl=  0 I1Cent=   200000004 NGrid=           0
         NMat0=    1 NMatS0=      1 NMatT0=    0 NMatD0=    1 NMtDS0=    0 NMtDT0=    0
 Symmetry not used in FoFCou.
 Harris En= -1006.80949712824    
 JPrj=0 DoOrth=F DoCkMO=F.
 Leave Link  401 at Sun Feb 19 15:29:11 2023, MaxMem=  6710886400 cpu:              58.7 elap:               2.5
 (Enter /data0/home/software/g16/l502.exe)
 Two-electron integral symmetry not used.
 Closed shell SCF:
 Using DIIS extrapolation, IDIIS=  1040.
 NGot=  6710886400 LenX=  6710078225 LenY=  6709683213
 Requested convergence on RMS density matrix=1.00D-08 within 128 cycles.
 Requested convergence on MAX density matrix=1.00D-06.
 Requested convergence on             energy=1.00D-06.
 No special actions if energy rises.
 Fock matrices will be formed incrementally for  20 cycles.

 Cycle   1  Pass 1  IDiag  1:
 FoFJK:  IHMeth= 1 ICntrl=       0 DoSepK=F KAlg= 0 I1Cent=           0 FoldK=F
 IRaf= 830000000 NMat=       1 IRICut=       1 DoRegI=T DoRafI=F ISym2E= 0 IDoP0=0 IntGTp=1.
 FoFCou: FMM=F IPFlag=           0 FMFlag=      100000 FMFlg1=           0
         NFxFlg=           0 DoJE=F BraDBF=F KetDBF=F FulRan=T
         wScrn=  0.000000 ICntrl=         0 IOpCl=  0 I1Cent=           0 NGrid=           0
         NMat0=    1 NMatS0=      1 NMatT0=    0 NMatD0=    1 NMtDS0=    0 NMtDT0=    0
 Symmetry not used in FoFCou.
 E= -1006.77217819062    
 DIIS: error= 1.47D-02 at cycle   1 NSaved=   1.
 NSaved= 1 IEnMin= 1 EnMin= -1006.77217819062     IErMin= 1 ErrMin= 1.47D-02
 ErrMax= 1.47D-02  0.00D+00 EMaxC= 1.00D-01 BMatC= 7.14D-01 BMatP= 7.14D-01
 IDIUse=3 WtCom= 8.53D-01 WtEn= 1.47D-01
 Coeff-Com:  0.100D+01
 Coeff-En:   0.100D+01
 Coeff:      0.100D+01
 Gap=     0.281 Goal=   None    Shift=    0.000
 GapD=    0.281 DampG=1.000 DampE=0.500 DampFc=0.5000 IDamp=-1.
 Damping current iteration by 5.00D-01
 RMSDP=4.84D-03 MaxDP=5.19D-01              OVMax= 1.88D-01

 Cycle   2  Pass 1  IDiag  1:
 RMSU=  2.42D-03    CP:  1.01D+00
 E= -1006.96440653504     Delta-E=       -0.192228344421 Rises=F Damp=T
 DIIS: error= 5.08D-03 at cycle   2 NSaved=   2.
 NSaved= 2 IEnMin= 2 EnMin= -1006.96440653504     IErMin= 2 ErrMin= 5.08D-03
 ErrMax= 5.08D-03  0.00D+00 EMaxC= 1.00D-01 BMatC= 5.04D-02 BMatP= 7.14D-01
 IDIUse=3 WtCom= 9.49D-01 WtEn= 5.08D-02
 Coeff-Com:  0.335D-01 0.967D+00
 Coeff-En:   0.115D+00 0.885D+00
 Coeff:      0.376D-01 0.962D+00
 Gap=     0.254 Goal=   None    Shift=    0.000
 RMSDP=2.28D-03 MaxDP=4.34D-01 DE=-1.92D-01 OVMax= 1.21D-01

 Cycle   3  Pass 1  IDiag  1:
 RMSU=  1.67D-03    CP:  8.72D-01  6.86D-01
 E= -1007.19816066905     Delta-E=       -0.233754134004 Rises=F Damp=F
 DIIS: error= 3.08D-03 at cycle   3 NSaved=   3.
 NSaved= 3 IEnMin= 3 EnMin= -1007.19816066905     IErMin= 3 ErrMin= 3.08D-03
 ErrMax= 3.08D-03  0.00D+00 EMaxC= 1.00D-01 BMatC= 1.92D-02 BMatP= 5.04D-02
 IDIUse=3 WtCom= 9.69D-01 WtEn= 3.08D-02
 Coeff-Com: -0.623D-01 0.352D+00 0.710D+00
 Coeff-En:   0.000D+00 0.000D+00 0.100D+01
 Coeff:     -0.603D-01 0.341D+00 0.719D+00
 Gap=     0.250 Goal=   None    Shift=    0.000
 RMSDP=4.71D-04 MaxDP=3.26D-02 DE=-2.34D-01 OVMax= 3.30D-02

 Cycle   4  Pass 1  IDiag  1:
 RMSU=  4.37D-04    CP:  8.68D-01  7.56D-01  1.00D+00
 E= -1007.21009828271     Delta-E=       -0.011937613663 Rises=F Damp=F
 DIIS: error= 1.67D-03 at cycle   4 NSaved=   4.
 NSaved= 4 IEnMin= 4 EnMin= -1007.21009828271     IErMin= 4 ErrMin= 1.67D-03
 ErrMax= 1.67D-03  0.00D+00 EMaxC= 1.00D-01 BMatC= 2.85D-03 BMatP= 1.92D-02
 IDIUse=3 WtCom= 9.83D-01 WtEn= 1.67D-02
 Coeff-Com: -0.290D-01 0.813D-01 0.339D+00 0.608D+00
 Coeff-En:   0.000D+00 0.000D+00 0.928D-01 0.907D+00
 Coeff:     -0.286D-01 0.800D-01 0.335D+00 0.613D+00
 Gap=     0.250 Goal=   None    Shift=    0.000
 RMSDP=1.84D-04 MaxDP=3.26D-02 DE=-1.19D-02 OVMax= 1.16D-02

 Cycle   5  Pass 1  IDiag  1:
 RMSU=  1.08D-04    CP:  8.62D-01  7.37D-01  1.04D+00  7.45D-01
 E= -1007.21262870700     Delta-E=       -0.002530424291 Rises=F Damp=F
 DIIS: error= 2.32D-04 at cycle   5 NSaved=   5.
 NSaved= 5 IEnMin= 5 EnMin= -1007.21262870700     IErMin= 5 ErrMin= 2.32D-04
 ErrMax= 2.32D-04  0.00D+00 EMaxC= 1.00D-01 BMatC= 1.12D-04 BMatP= 2.85D-03
 IDIUse=3 WtCom= 9.98D-01 WtEn= 2.32D-03
 Coeff-Com: -0.822D-02 0.161D-01 0.986D-01 0.249D+00 0.645D+00
 Coeff-En:   0.000D+00 0.000D+00 0.000D+00 0.000D+00 0.100D+01
 Coeff:     -0.820D-02 0.161D-01 0.984D-01 0.248D+00 0.646D+00
 Gap=     0.250 Goal=   None    Shift=    0.000
 RMSDP=4.38D-05 MaxDP=4.97D-03 DE=-2.53D-03 OVMax= 2.08D-03

 Cycle   6  Pass 1  IDiag  1:
 RMSU=  2.75D-05    CP:  8.62D-01  7.43D-01  1.04D+00  7.87D-01  7.85D-01
 E= -1007.21271104192     Delta-E=       -0.000082334915 Rises=F Damp=F
 DIIS: error= 9.74D-05 at cycle   6 NSaved=   6.
 NSaved= 6 IEnMin= 6 EnMin= -1007.21271104192     IErMin= 6 ErrMin= 9.74D-05
 ErrMax= 9.74D-05  0.00D+00 EMaxC= 1.00D-01 BMatC= 1.99D-05 BMatP= 1.12D-04
 IDIUse=1 WtCom= 1.00D+00 WtEn= 0.00D+00
 Coeff-Com: -0.156D-02 0.106D-02 0.197D-01 0.746D-01 0.343D+00 0.563D+00
 Coeff:     -0.156D-02 0.106D-02 0.197D-01 0.746D-01 0.343D+00 0.563D+00
 Gap=     0.250 Goal=   None    Shift=    0.000
 RMSDP=1.44D-05 MaxDP=1.44D-03 DE=-8.23D-05 OVMax= 9.12D-04

 Cycle   7  Pass 1  IDiag  1:
 RMSU=  1.04D-05    CP:  8.62D-01  7.40D-01  1.04D+00  7.95D-01  8.07D-01
                    CP:  9.16D-01
 E= -1007.21272630637     Delta-E=       -0.000015264453 Rises=F Damp=F
 DIIS: error= 2.76D-05 at cycle   7 NSaved=   7.
 NSaved= 7 IEnMin= 7 EnMin= -1007.21272630637     IErMin= 7 ErrMin= 2.76D-05
 ErrMax= 2.76D-05  0.00D+00 EMaxC= 1.00D-01 BMatC= 1.49D-06 BMatP= 1.99D-05
 IDIUse=1 WtCom= 1.00D+00 WtEn= 0.00D+00
 Coeff-Com:  0.520D-03-0.186D-02-0.628D-02-0.340D-02 0.570D-01 0.236D+00
 Coeff-Com:  0.718D+00
 Coeff:      0.520D-03-0.186D-02-0.628D-02-0.340D-02 0.570D-01 0.236D+00
 Coeff:      0.718D+00
 Gap=     0.250 Goal=   None    Shift=    0.000
 RMSDP=5.73D-06 MaxDP=9.55D-04 DE=-1.53D-05 OVMax= 3.32D-04

 Cycle   8  Pass 1  IDiag  1:
 RMSU=  3.30D-06    CP:  8.62D-01  7.39D-01  1.04D+00  7.98D-01  8.27D-01
                    CP:  9.44D-01  9.16D-01
 E= -1007.21272767308     Delta-E=       -0.000001366706 Rises=F Damp=F
 DIIS: error= 1.03D-05 at cycle   8 NSaved=   8.
 NSaved= 8 IEnMin= 8 EnMin= -1007.21272767308     IErMin= 8 ErrMin= 1.03D-05
 ErrMax= 1.03D-05  0.00D+00 EMaxC= 1.00D-01 BMatC= 1.34D-07 BMatP= 1.49D-06
 IDIUse=1 WtCom= 1.00D+00 WtEn= 0.00D+00
 Coeff-Com:  0.353D-03-0.736D-03-0.486D-02-0.104D-01-0.215D-01 0.141D-01
 Coeff-Com:  0.254D+00 0.769D+00
 Coeff:      0.353D-03-0.736D-03-0.486D-02-0.104D-01-0.215D-01 0.141D-01
 Coeff:      0.254D+00 0.769D+00
 Gap=     0.250 Goal=   None    Shift=    0.000
 RMSDP=2.03D-06 MaxDP=3.78D-04 DE=-1.37D-06 OVMax= 1.97D-04

 Cycle   9  Pass 1  IDiag  1:
 RMSU=  1.28D-06    CP:  8.62D-01  7.39D-01  1.04D+00  7.99D-01  8.36D-01
                    CP:  9.58D-01  9.50D-01  9.91D-01
 E= -1007.21272783223     Delta-E=       -0.000000159152 Rises=F Damp=F
 DIIS: error= 4.51D-06 at cycle   9 NSaved=   9.
 NSaved= 9 IEnMin= 9 EnMin= -1007.21272783223     IErMin= 9 ErrMin= 4.51D-06
 ErrMax= 4.51D-06  0.00D+00 EMaxC= 1.00D-01 BMatC= 1.76D-08 BMatP= 1.34D-07
 IDIUse=1 WtCom= 1.00D+00 WtEn= 0.00D+00
 Coeff-Com:  0.109D-03-0.176D-03-0.171D-02-0.432D-02-0.134D-01-0.101D-01
 Coeff-Com:  0.541D-01 0.326D+00 0.649D+00
 Coeff:      0.109D-03-0.176D-03-0.171D-02-0.432D-02-0.134D-01-0.101D-01
 Coeff:      0.541D-01 0.326D+00 0.649D+00
 Gap=     0.250 Goal=   None    Shift=    0.000
 RMSDP=5.33D-07 MaxDP=6.70D-05 DE=-1.59D-07 OVMax= 5.05D-05

 Cycle  10  Pass 1  IDiag  1:
 RMSU=  3.72D-07    CP:  8.62D-01  7.39D-01  1.04D+00  8.00D-01  8.35D-01
                    CP:  9.61D-01  9.64D-01  1.05D+00  9.33D-01
 E= -1007.21272785073     Delta-E=       -0.000000018497 Rises=F Damp=F
 DIIS: error= 1.01D-06 at cycle  10 NSaved=  10.
 NSaved=10 IEnMin=10 EnMin= -1007.21272785073     IErMin=10 ErrMin= 1.01D-06
 ErrMax= 1.01D-06  0.00D+00 EMaxC= 1.00D-01 BMatC= 1.80D-09 BMatP= 1.76D-08
 IDIUse=1 WtCom= 1.00D+00 WtEn= 0.00D+00
 Coeff-Com: -0.123D-04 0.409D-04 0.465D-04-0.174D-03-0.214D-02-0.598D-02
 Coeff-Com: -0.168D-01 0.138D-01 0.240D+00 0.772D+00
 Coeff:     -0.123D-04 0.409D-04 0.465D-04-0.174D-03-0.214D-02-0.598D-02
 Coeff:     -0.168D-01 0.138D-01 0.240D+00 0.772D+00
 Gap=     0.250 Goal=   None    Shift=    0.000
 RMSDP=2.34D-07 MaxDP=2.91D-05 DE=-1.85D-08 OVMax= 2.66D-05

 Cycle  11  Pass 1  IDiag  1:
 RMSU=  1.30D-07    CP:  8.62D-01  7.39D-01  1.04D+00  8.00D-01  8.35D-01
                    CP:  9.60D-01  9.63D-01  1.07D+00  1.02D+00  1.11D+00
 E= -1007.21272785317     Delta-E=       -0.000000002447 Rises=F Damp=F
 DIIS: error= 4.04D-07 at cycle  11 NSaved=  11.
 NSaved=11 IEnMin=11 EnMin= -1007.21272785317     IErMin=11 ErrMin= 4.04D-07
 ErrMax= 4.04D-07  0.00D+00 EMaxC= 1.00D-01 BMatC= 2.73D-10 BMatP= 1.80D-09
 IDIUse=1 WtCom= 1.00D+00 WtEn= 0.00D+00
 Coeff-Com: -0.169D-04 0.358D-04 0.220D-03 0.443D-03 0.811D-03-0.873D-03
 Coeff-Com: -0.129D-01-0.353D-01 0.122D-02 0.307D+00 0.740D+00
 Coeff:     -0.169D-04 0.358D-04 0.220D-03 0.443D-03 0.811D-03-0.873D-03
 Coeff:     -0.129D-01-0.353D-01 0.122D-02 0.307D+00 0.740D+00
 Gap=     0.250 Goal=   None    Shift=    0.000
 RMSDP=7.48D-08 MaxDP=5.75D-06 DE=-2.45D-09 OVMax= 6.38D-06

 Cycle  12  Pass 1  IDiag  1:
 RMSU=  4.38D-08    CP:  8.62D-01  7.39D-01  1.04D+00  8.00D-01  8.35D-01
                    CP:  9.60D-01  9.63D-01  1.08D+00  1.04D+00  1.20D+00
                    CP:  9.50D-01
 E= -1007.21272785346     Delta-E=       -0.000000000291 Rises=F Damp=F
 DIIS: error= 1.63D-07 at cycle  12 NSaved=  12.
 NSaved=12 IEnMin=12 EnMin= -1007.21272785346     IErMin=12 ErrMin= 1.63D-07
 ErrMax= 1.63D-07  0.00D+00 EMaxC= 1.00D-01 BMatC= 4.54D-11 BMatP= 2.73D-10
 IDIUse=1 WtCom= 1.00D+00 WtEn= 0.00D+00
 Coeff-Com: -0.653D-05 0.131D-04 0.101D-03 0.223D-03 0.575D-03 0.155D-03
 Coeff-Com: -0.466D-02-0.176D-01-0.227D-01 0.796D-01 0.364D+00 0.600D+00
 Coeff:     -0.653D-05 0.131D-04 0.101D-03 0.223D-03 0.575D-03 0.155D-03
 Coeff:     -0.466D-02-0.176D-01-0.227D-01 0.796D-01 0.364D+00 0.600D+00
 Gap=     0.250 Goal=   None    Shift=    0.000
 RMSDP=2.17D-08 MaxDP=2.01D-06 DE=-2.91D-10 OVMax= 2.13D-06

 Cycle  13  Pass 1  IDiag  1:
 RMSU=  1.70D-08    CP:  8.62D-01  7.39D-01  1.04D+00  8.00D-01  8.35D-01
                    CP:  9.60D-01  9.63D-01  1.08D+00  1.05D+00  1.21D+00
                    CP:  9.99D-01  9.36D-01
 E= -1007.21272785347     Delta-E=       -0.000000000003 Rises=F Damp=F
 DIIS: error= 5.23D-08 at cycle  13 NSaved=  13.
 NSaved=13 IEnMin=13 EnMin= -1007.21272785347     IErMin=13 ErrMin= 5.23D-08
 ErrMax= 5.23D-08  0.00D+00 EMaxC= 1.00D-01 BMatC= 5.90D-12 BMatP= 4.54D-11
 IDIUse=1 WtCom= 1.00D+00 WtEn= 0.00D+00
 Coeff-Com:  0.408D-06-0.108D-05 0.499D-05 0.153D-04 0.101D-03 0.212D-03
 Coeff-Com:  0.174D-03-0.102D-02-0.111D-01-0.198D-01 0.303D-01 0.281D+00
 Coeff-Com:  0.721D+00
 Coeff:      0.408D-06-0.108D-05 0.499D-05 0.153D-04 0.101D-03 0.212D-03
 Coeff:      0.174D-03-0.102D-02-0.111D-01-0.198D-01 0.303D-01 0.281D+00
 Coeff:      0.721D+00
 Gap=     0.250 Goal=   None    Shift=    0.000
 RMSDP=1.25D-08 MaxDP=1.45D-06 DE=-3.41D-12 OVMax= 1.32D-06

 Cycle  14  Pass 1  IDiag  1:
 RMSU=  7.54D-09    CP:  8.62D-01  7.39D-01  1.04D+00  8.00D-01  8.35D-01
                    CP:  9.60D-01  9.63D-01  1.08D+00  1.04D+00  1.22D+00
                    CP:  1.03D+00  1.04D+00  8.75D-01
 E= -1007.21272785352     Delta-E=       -0.000000000058 Rises=F Damp=F
 DIIS: error= 1.48D-08 at cycle  14 NSaved=  14.
 NSaved=14 IEnMin=14 EnMin= -1007.21272785352     IErMin=14 ErrMin= 1.48D-08
 ErrMax= 1.48D-08  0.00D+00 EMaxC= 1.00D-01 BMatC= 3.76D-13 BMatP= 5.90D-12
 IDIUse=1 WtCom= 1.00D+00 WtEn= 0.00D+00
 Coeff-Com:  0.701D-06-0.153D-05-0.615D-05-0.120D-04-0.798D-05 0.655D-04
 Coeff-Com:  0.436D-03 0.115D-02-0.243D-02-0.145D-01-0.232D-01 0.381D-01
 Coeff-Com:  0.250D+00 0.751D+00
 Coeff:      0.701D-06-0.153D-05-0.615D-05-0.120D-04-0.798D-05 0.655D-04
 Coeff:      0.436D-03 0.115D-02-0.243D-02-0.145D-01-0.232D-01 0.381D-01
 Coeff:      0.250D+00 0.751D+00
 Gap=     0.250 Goal=   None    Shift=    0.000
 RMSDP=3.14D-09 MaxDP=3.77D-07 DE=-5.78D-11 OVMax= 2.62D-07

 SCF Done:  E(RM062X) =  -1007.21272785     A.U. after   14 cycles
            NFock= 14  Conv=0.31D-08     -V/T= 2.0035
[...]
 NBsUse=   161 1.00D-06 EigRej= -1.00D+00 NBFU=   161
 Precomputing XC quadrature grid using
 IXCGrd= 4 IRadAn=           5 IRanWt=          -1 IRanGd=           0 AccXCQ= 0.00D+00.
 Generated NRdTot=       0 NPtTot=           0 NUsed=           0 NTot=          32
 NSgBfM=   171   171   171   171   171 MxSgAt=     8 MxSgA2=     8.
 Leave Link  302 at Sun Feb 19 15:34:10 2023, MaxMem=  6710886400 cpu:               2.9 elap:               0.1
 (Enter /data0/home/software/g16/l303.exe)
 DipDrv:  MaxL=1.
 Leave Link  303 at Sun Feb 19 15:34:10 2023, MaxMem=  6710886400 cpu:               0.5 elap:               0.0
 (Enter /data0/home/software/g16/l401.exe)
 ExpMin= 3.48D-02 ExpMax= 7.75D+04 ExpMxC= 2.65D+03 IAcc=3 IRadAn=         5 AccDes= 0.00D+00
 Harris functional with IExCor= 1009 and IRadAn=       5 diagonalized for initial guess.
 HarFok:  IExCor= 1009 AccDes= 0.00D+00 IRadAn=         5 IDoV= 1 UseB2=F ITyADJ=14
 ICtDFT=  3500011 ScaDFX=  1.000000  1.000000  1.000000  1.000000
 FoFCou: FMM=F IPFlag=           0 FMFlag=      100000 FMFlg1=           0
         NFxFlg=           0 DoJE=T BraDBF=F KetDBF=T FulRan=T
         wScrn=  0.000000 ICntrl=       500 IOpCl=  0 I1Cent=   200000004 NGrid=           0
         NMat0=    1 NMatS0=      1 NMatT0=    0 NMatD0=    1 NMtDS0=    0 NMtDT0=    0
 Symmetry not used in FoFCou.
 Harris En= -643.942934909578    
 JPrj=0 DoOrth=F DoCkMO=F.
 Leave Link  401 at Sun Feb 19 15:34:10 2023, MaxMem=  6710886400 cpu:               6.2 elap:               0.3
 (Enter /data0/home/software/g16/l502.exe)
 Keep R1 ints in memory in canonical form, NReq=108966253.
 FoFCou: FMM=F IPFlag=           0 FMFlag=           0 FMFlg1=           0
         NFxFlg=           0 DoJE=F BraDBF=F KetDBF=F FulRan=T
         wScrn=  0.000000 ICntrl=       600 IOpCl=  0 I1Cent=           0 NGrid=           0
         NMat0=    1 NMatS0=  13041 NMatT0=    0 NMatD0=    1 NMtDS0=    0 NMtDT0=    0
 Symmetry not used in FoFCou.
 Two-electron integral symmetry not used.
 Closed shell SCF:
 Using DIIS extrapolation, IDIIS=  1040.
 NGot=  6710886400 LenX=  6625781403 LenY=  6625751721
 Requested convergence on RMS density matrix=1.00D-08 within 128 cycles.
 Requested convergence on MAX density matrix=1.00D-06.
 Requested convergence on             energy=1.00D-06.
 No special actions if energy rises.

 Cycle   1  Pass 1  IDiag  1:
 E= -643.850421944824    
 DIIS: error= 3.68D-02 at cycle   1 NSaved=   1.
 NSaved= 1 IEnMin= 1 EnMin= -643.850421944824     IErMin= 1 ErrMin= 3.68D-02
 ErrMax= 3.68D-02  0.00D+00 EMaxC= 1.00D-01 BMatC= 5.13D-01 BMatP= 5.13D-01
 IDIUse=3 WtCom= 6.32D-01 WtEn= 3.68D-01
 Coeff-Com:  0.100D+01
 Coeff-En:   0.100D+01
 Coeff:      0.100D+01
 Gap=     0.285 Goal=   None    Shift=    0.000
 GapD=    0.285 DampG=1.000 DampE=0.500 DampFc=0.5000 IDamp=-1.
 Damping current iteration by 5.00D-01
 RMSDP=8.36D-03 MaxDP=1.89D-01              OVMax= 2.62D-01

 Cycle   2  Pass 1  IDiag  1:
 E= -643.966895265939     Delta-E=       -0.116473321114 Rises=F Damp=T
 DIIS: error= 1.06D-02 at cycle   2 NSaved=   2.
 NSaved= 2 IEnMin= 2 EnMin= -643.966895265939     IErMin= 2 ErrMin= 1.06D-02
 ErrMax= 1.06D-02  0.00D+00 EMaxC= 1.00D-01 BMatC= 2.81D-02 BMatP= 5.13D-01
 IDIUse=3 WtCom= 8.94D-01 WtEn= 1.06D-01
 Coeff-Com:  0.759D-01 0.924D+00
 Coeff-En:   0.212D+00 0.788D+00
 Coeff:      0.903D-01 0.910D+00
 Gap=     0.350 Goal=   None    Shift=    0.000
 RMSDP=1.92D-03 MaxDP=5.73D-02 DE=-1.16D-01 OVMax= 1.68D-01

 Cycle   3  Pass 1  IDiag  1:
 E= -644.136710258959     Delta-E=       -0.169814993021 Rises=F Damp=F
 DIIS: error= 7.29D-03 at cycle   3 NSaved=   3.
 NSaved= 3 IEnMin= 3 EnMin= -644.136710258959     IErMin= 3 ErrMin= 7.29D-03
 ErrMax= 7.29D-03  0.00D+00 EMaxC= 1.00D-01 BMatC= 1.12D-02 BMatP= 2.81D-02
 IDIUse=3 WtCom= 9.27D-01 WtEn= 7.29D-02
 Coeff-Com: -0.123D-01 0.350D+00 0.662D+00
 Coeff-En:   0.000D+00 0.000D+00 0.100D+01
 Coeff:     -0.114D-01 0.325D+00 0.687D+00
 Gap=     0.340 Goal=   None    Shift=    0.000
 RMSDP=6.78D-04 MaxDP=1.58D-02 DE=-1.70D-01 OVMax= 3.65D-02

 Cycle   4  Pass 1  IDiag  1:
 E= -644.142053612827     Delta-E=       -0.005343353868 Rises=F Damp=F
 DIIS: error= 4.15D-03 at cycle   4 NSaved=   4.
 NSaved= 4 IEnMin= 4 EnMin= -644.142053612827     IErMin= 4 ErrMin= 4.15D-03
 ErrMax= 4.15D-03  0.00D+00 EMaxC= 1.00D-01 BMatC= 3.82D-03 BMatP= 1.12D-02
 IDIUse=3 WtCom= 9.58D-01 WtEn= 4.15D-02
 Coeff-Com: -0.207D-01 0.463D-01 0.389D+00 0.585D+00
 Coeff-En:   0.000D+00 0.000D+00 0.251D+00 0.749D+00
 Coeff:     -0.199D-01 0.444D-01 0.383D+00 0.592D+00
 Gap=     0.346 Goal=   None    Shift=    0.000
 RMSDP=2.55D-04 MaxDP=6.27D-03 DE=-5.34D-03 OVMax= 1.12D-02

 Cycle   5  Pass 1  IDiag  1:
 E= -644.144563436486     Delta-E=       -0.002509823659 Rises=F Damp=F
 DIIS: error= 2.06D-04 at cycle   5 NSaved=   5.
 NSaved= 5 IEnMin= 5 EnMin= -644.144563436486     IErMin= 5 ErrMin= 2.06D-04
 ErrMax= 2.06D-04  0.00D+00 EMaxC= 1.00D-01 BMatC= 1.53D-05 BMatP= 3.82D-03
 IDIUse=3 WtCom= 9.98D-01 WtEn= 2.06D-03
 Coeff-Com: -0.226D-02-0.373D-03 0.530D-01 0.117D+00 0.832D+00
 Coeff-En:   0.000D+00 0.000D+00 0.000D+00 0.000D+00 0.100D+01
 Coeff:     -0.226D-02-0.372D-03 0.529D-01 0.117D+00 0.833D+00
 Gap=     0.345 Goal=   None    Shift=    0.000
 RMSDP=2.47D-05 MaxDP=6.99D-04 DE=-2.51D-03 OVMax= 6.73D-04

 Cycle   6  Pass 1  IDiag  1:
 E= -644.144573499923     Delta-E=       -0.000010063437 Rises=F Damp=F
 DIIS: error= 5.30D-05 at cycle   6 NSaved=   6.
 NSaved= 6 IEnMin= 6 EnMin= -644.144573499923     IErMin= 6 ErrMin= 5.30D-05
 ErrMax= 5.30D-05  0.00D+00 EMaxC= 1.00D-01 BMatC= 9.43D-07 BMatP= 1.53D-05
 IDIUse=1 WtCom= 1.00D+00 WtEn= 0.00D+00
 Coeff-Com:  0.145D-03-0.147D-02-0.137D-02 0.443D-02 0.179D+00 0.819D+00
 Coeff:      0.145D-03-0.147D-02-0.137D-02 0.443D-02 0.179D+00 0.819D+00
 Gap=     0.345 Goal=   None    Shift=    0.000
 RMSDP=1.07D-05 MaxDP=2.69D-04 DE=-1.01D-05 OVMax= 2.24D-04

 Cycle   7  Pass 1  IDiag  1:
 E= -644.144574169609     Delta-E=       -0.000000669686 Rises=F Damp=F
 DIIS: error= 2.81D-05 at cycle   7 NSaved=   7.
 NSaved= 7 IEnMin= 7 EnMin= -644.144574169609     IErMin= 7 ErrMin= 2.81D-05
 ErrMax= 2.81D-05  0.00D+00 EMaxC= 1.00D-01 BMatC= 2.59D-07 BMatP= 9.43D-07
 IDIUse=1 WtCom= 1.00D+00 WtEn= 0.00D+00
 Coeff-Com:  0.341D-03-0.560D-03-0.769D-02-0.132D-01-0.219D-01 0.351D+00
 Coeff-Com:  0.692D+00
 Coeff:      0.341D-03-0.560D-03-0.769D-02-0.132D-01-0.219D-01 0.351D+00
 Coeff:      0.692D+00
 Gap=     0.345 Goal=   None    Shift=    0.000
 RMSDP=3.23D-06 MaxDP=7.64D-05 DE=-6.70D-07 OVMax= 1.03D-04

 Cycle   8  Pass 1  IDiag  1:
 E= -644.144574342942     Delta-E=       -0.000000173333 Rises=F Damp=F
 DIIS: error= 9.78D-06 at cycle   8 NSaved=   8.
 NSaved= 8 IEnMin= 8 EnMin= -644.144574342942     IErMin= 8 ErrMin= 9.78D-06
 ErrMax= 9.78D-06  0.00D+00 EMaxC= 1.00D-01 BMatC= 2.82D-08 BMatP= 2.59D-07
 IDIUse=1 WtCom= 1.00D+00 WtEn= 0.00D+00
 Coeff-Com:  0.130D-03-0.164D-03-0.337D-02-0.579D-02-0.159D-01 0.111D+00
 Coeff-Com:  0.322D+00 0.592D+00
 Coeff:      0.130D-03-0.164D-03-0.337D-02-0.579D-02-0.159D-01 0.111D+00
 Coeff:      0.322D+00 0.592D+00
 Gap=     0.345 Goal=   None    Shift=    0.000
 RMSDP=8.47D-07 MaxDP=2.18D-05 DE=-1.73D-07 OVMax= 3.20D-05

 Cycle   9  Pass 1  IDiag  1:
 E= -644.144574363265     Delta-E=       -0.000000020323 Rises=F Damp=F
 DIIS: error= 1.78D-06 at cycle   9 NSaved=   9.
 NSaved= 9 IEnMin= 9 EnMin= -644.144574363265     IErMin= 9 ErrMin= 1.78D-06
 ErrMax= 1.78D-06  0.00D+00 EMaxC= 1.00D-01 BMatC= 9.33D-10 BMatP= 2.82D-08
 IDIUse=1 WtCom= 1.00D+00 WtEn= 0.00D+00
 Coeff-Com: -0.263D-04 0.499D-04 0.254D-03 0.563D-03-0.910D-03-0.234D-01
 Coeff-Com: -0.254D-01 0.102D+00 0.947D+00
 Coeff:     -0.263D-04 0.499D-04 0.254D-03 0.563D-03-0.910D-03-0.234D-01
 Coeff:     -0.254D-01 0.102D+00 0.947D+00
 Gap=     0.345 Goal=   None    Shift=    0.000
 RMSDP=3.41D-07 MaxDP=8.65D-06 DE=-2.03D-08 OVMax= 1.08D-05

 Cycle  10  Pass 1  IDiag  1:
 E= -644.144574364332     Delta-E=       -0.000000001066 Rises=F Damp=F
 DIIS: error= 2.83D-07 at cycle  10 NSaved=  10.
 NSaved=10 IEnMin=10 EnMin= -644.144574364332     IErMin=10 ErrMin= 2.83D-07
 ErrMax= 2.83D-07  0.00D+00 EMaxC= 1.00D-01 BMatC= 1.77D-11 BMatP= 9.33D-10
 IDIUse=1 WtCom= 1.00D+00 WtEn= 0.00D+00
 Coeff-Com: -0.261D-05 0.381D-05 0.108D-03 0.177D-03 0.615D-03-0.441D-02
 Coeff-Com: -0.124D-01-0.176D-01 0.499D-02 0.103D+01
 Coeff:     -0.261D-05 0.381D-05 0.108D-03 0.177D-03 0.615D-03-0.441D-02
 Coeff:     -0.124D-01-0.176D-01 0.499D-02 0.103D+01
 Gap=     0.345 Goal=   None    Shift=    0.000
 RMSDP=7.60D-08 MaxDP=1.37D-06 DE=-1.07D-09 OVMax= 2.01D-06

 Cycle  11  Pass 1  IDiag  1:
 E= -644.144574364374     Delta-E=       -0.000000000043 Rises=F Damp=F
 DIIS: error= 1.52D-07 at cycle  11 NSaved=  11.
 NSaved=11 IEnMin=11 EnMin= -644.144574364374     IErMin=11 ErrMin= 1.52D-07
 ErrMax= 1.52D-07  0.00D+00 EMaxC= 1.00D-01 BMatC= 5.56D-12 BMatP= 1.77D-11
 IDIUse=1 WtCom= 1.00D+00 WtEn= 0.00D+00
 Coeff-Com:  0.566D-06-0.140D-05 0.309D-04 0.407D-04 0.283D-03-0.695D-03
 Coeff-Com: -0.354D-02-0.119D-01-0.502D-01 0.418D+00 0.648D+00
 Coeff:      0.566D-06-0.140D-05 0.309D-04 0.407D-04 0.283D-03-0.695D-03
 Coeff:     -0.354D-02-0.119D-01-0.502D-01 0.418D+00 0.648D+00
 Gap=     0.345 Goal=   None    Shift=    0.000
 RMSDP=1.78D-08 MaxDP=3.60D-07 DE=-4.25D-11 OVMax= 6.04D-07

 Cycle  12  Pass 1  IDiag  1:
 E= -644.144574364363     Delta-E=        0.000000000012 Rises=F Damp=F
 DIIS: error= 6.42D-08 at cycle  12 NSaved=  12.
 NSaved=12 IEnMin=11 EnMin= -644.144574364374     IErMin=12 ErrMin= 6.42D-08
 ErrMax= 6.42D-08  0.00D+00 EMaxC= 1.00D-01 BMatC= 9.40D-13 BMatP= 5.56D-12
 IDIUse=1 WtCom= 1.00D+00 WtEn= 0.00D+00
 Coeff-Com:  0.713D-06-0.138D-05-0.273D-05-0.931D-05 0.264D-04 0.381D-03
 Coeff-Com:  0.506D-03-0.239D-02-0.245D-01 0.198D-01 0.302D+00 0.704D+00
 Coeff:      0.713D-06-0.138D-05-0.273D-05-0.931D-05 0.264D-04 0.381D-03
 Coeff:      0.506D-03-0.239D-02-0.245D-01 0.198D-01 0.302D+00 0.704D+00
 Gap=     0.345 Goal=   None    Shift=    0.000
 RMSDP=6.66D-09 MaxDP=1.29D-07 DE= 1.16D-11 OVMax= 2.16D-07

 SCF Done:  E(RM062X) =  -644.144574364     A.U. after   12 cycles
            NFock= 12  Conv=0.67D-08     -V/T= 2.0025
 KE= 6.425501534772D+02 PE=-2.088192126475D+03 EE= 5.212511924116D+02
 Leave Link  502 at Sun Feb 19 15:34:16 2023, MaxMem=  6710886400 cpu:              99.3 elap:               5.4
 (Enter /data0/home/software/g16/l601.exe)
 Copying SCF densities to generalized density rwf, IOpCl= 0 IROHF=0.

 **********************************************************************

            Population analysis using the SCF density.

 **********************************************************************

 Alpha  occ. eigenvalues --  -78.16710 -19.69647 -19.68203 -19.67864 -19.58202
 Alpha  occ. eigenvalues --   -6.97509  -5.09435  -5.09383  -5.09194  -1.24547
 Alpha  occ. eigenvalues --   -1.17174  -1.16658  -1.08767  -0.72730  -0.66534
 Alpha  occ. eigenvalues --   -0.64386  -0.57055  -0.55176  -0.51856  -0.48301
 Alpha  occ. eigenvalues --   -0.46767  -0.45988  -0.43428  -0.38148  -0.37720
 Alpha virt. eigenvalues --   -0.03206   0.00982   0.02767   0.04895   0.07599
 Alpha virt. eigenvalues --    0.10218   0.11314   0.14715   0.14932   0.15865
 Alpha virt. eigenvalues --    0.17307   0.18070   0.19628   0.20448   0.21946
 Alpha virt. eigenvalues --    0.22968   0.23469   0.25268   0.25626   0.26840
 Alpha virt. eigenvalues --    0.27465   0.29940   0.30685   0.31956   0.33397
 Alpha virt. eigenvalues --    0.35521   0.35927   0.37178   0.40191   0.42693
 Alpha virt. eigenvalues --    0.45132   0.49020   0.51144   0.55244   0.58580
 Alpha virt. eigenvalues --    0.73516   0.76486   0.76692   0.86598   0.97257
 Alpha virt. eigenvalues --    1.01002   1.02825   1.04853   1.06721   1.10761
 Alpha virt. eigenvalues --    1.11421   1.14461   1.17376   1.18421   1.21732
 Alpha virt. eigenvalues --    1.22926   1.24010   1.26604   1.28090   1.32579
 Alpha virt. eigenvalues --    1.35754   1.42141   1.44204   1.45952   1.50026
 Alpha virt. eigenvalues --    1.53014   1.57290   1.58826   1.62943   1.63352
 Alpha virt. eigenvalues --    1.65084   1.66653   1.74354   1.75172   1.78954
 Alpha virt. eigenvalues --    1.82461   1.84676   1.89222   1.90761   1.96876
 Alpha virt. eigenvalues --    1.99285   2.01313   2.06069   2.12843   2.16337
 Alpha virt. eigenvalues --    2.18359   2.23412   2.28253   2.37328   2.46085
 Alpha virt. eigenvalues --    2.50016   2.56088   2.58360   2.63233   2.69842
 Alpha virt. eigenvalues --    2.74514   2.79227   2.85258   2.90684   2.93399
 Alpha virt. eigenvalues --    5.01651   5.02101   5.06406   5.08368   5.10534
 Alpha virt. eigenvalues --    5.14268   5.19240   5.22947   5.34065   5.44810
 Alpha virt. eigenvalues --    5.48867   5.53706   6.72326   6.73387   6.75657
 Alpha virt. eigenvalues --    6.75807   6.78304   6.78891   6.83792   6.86876
 Alpha virt. eigenvalues --    6.90537   6.92665   6.96242   6.97630   6.99877
 Alpha virt. eigenvalues --    7.04099   7.09058   7.22726   7.28383   7.28987
 Alpha virt. eigenvalues --    7.32586   7.39924   7.63490  14.22028  14.24976
 Alpha virt. eigenvalues --   14.35948  49.97352  50.00453  50.01105  50.09299
 Alpha virt. eigenvalues --  163.85348
          Condensed to atoms (all electrons):
              26         27         28         29         30         31
    26  P   12.509852   0.540163   0.222587   0.039068   0.218485  -0.002615
    27  O    0.540163   8.239986  -0.039057   0.009234  -0.068639  -0.006359
    28  O    0.222587  -0.039057   8.052830   0.231914   0.036129  -0.009573
    29  H    0.039068   0.009234   0.231914   0.444506  -0.022116   0.000984
    30  O    0.218485  -0.068639   0.036129  -0.022116   8.158680   0.260237
    31  H   -0.002615  -0.006359  -0.009573   0.000984   0.260237   0.401896
    32  O    0.182561  -0.059901   0.020371  -0.011997   0.026397   0.005427
    33  H    0.050297   0.005211  -0.010457  -0.001240  -0.014533   0.000437
              32         33
    26  P    0.182561   0.050297
    27  O   -0.059901   0.005211
    28  O    0.020371  -0.010457
    29  H   -0.011997  -0.001240
    30  O    0.026397  -0.014533
    31  H    0.005427   0.000437
    32  O    8.095298   0.218089
    33  H    0.218089   0.454745
 Mulliken charges:
               1
     1  C    0.000000
     2  C    0.000000
     3  C    0.000000
     4  N    0.000000
     5  H    0.000000
     6  H    0.000000
     7  H    0.000000
     8  C    0.000000
     9  H    0.000000
    10  H    0.000000
    11  H    0.000000
    12  N    0.000000
    13  C    0.000000
    14  H    0.000000
    15  H    0.000000
    16  C    0.000000
    17  H    0.000000
    18  H    0.000000
    19  C    0.000000
    20  H    0.000000
    21  H    0.000000
    22  S    0.000000
    23  O    0.000000
    24  O    0.000000
    25  O    0.000000
    26  P    1.239602
    27  O   -0.620637
    28  O   -0.504745
    29  H    0.309648
    30  O   -0.594641
    31  H    0.349567
    32  O   -0.476244
    33  H    0.297450
 Sum of Mulliken charges =  -0.00000
 Mulliken charges with hydrogens summed into heavy atoms:
               1
     1  C    0.000000
     2  C    0.000000
     3  C    0.000000
     4  N    0.000000
     8  C    0.000000
    12  N    0.000000
    13  C    0.000000
    16  C    0.000000
    19  C    0.000000
    22  S    0.000000
    23  O    0.000000
    24  O    0.000000
    25  O    0.000000
    26  P    1.239602
    27  O   -0.620637
    28  O   -0.195097
    30  O   -0.245074
    32  O   -0.178794
         Mulliken charges condensed to fragments:
      1      0.000000
      2     -0.000000
 Electronic spatial extent (au):  <R**2>=          43115.1224
 Charge=             -0.0000 electrons
 Dipole moment (field-independent basis, Debye):
    X=             -4.5959    Y=              3.1583    Z=             -2.2600  Tot=              6.0170
 Quadrupole moment (field-independent basis, Debye-Ang):
   XX=           -136.4877   YY=             15.6448   ZZ=            -70.2573
   XY=              0.1147   XZ=            -59.8445   YZ=             10.5587
 Traceless Quadrupole moment (field-independent basis, Debye-Ang):
   XX=            -72.7876   YY=             79.3448   ZZ=             -6.5572
   XY=              0.1147   XZ=            -59.8445   YZ=             10.5587
 Octapole moment (field-independent basis, Debye-Ang**2):
  XXX=          -2863.4864  YYY=           -182.4244  ZZZ=          -1222.8139  XYY=            -90.0745
  XXY=           -648.3115  XXZ=          -1316.3289  XZZ=          -1048.7668  YZZ=           -297.4605
  YYZ=             53.2484  XYZ=           -149.6550
 Hexadecapole moment (field-independent basis, Debye-Ang**3):
 XXXX=         -51509.2540 YYYY=          -5537.7938 ZZZZ=         -16935.2176 XXXY=         -17444.2727
 XXXZ=         -24943.0653 YYYX=          -3997.4072 YYYZ=          -1532.4255 ZZZX=         -15691.9477
 ZZZY=          -7314.7493 XXYY=          -5970.0257 XXZZ=         -16739.3608 YYZZ=          -2263.3936
 XXYZ=          -6642.5732 YYXZ=          -1443.2768 ZZXY=          -5382.5805
 N-N= 2.802462062215D+02 E-N=-2.088192130761D+03  KE= 6.425501534772D+02
 No NMR shielding tensors so no spin-rotation constants.
 Leave Link  601 at Sun Feb 19 15:34:16 2023, MaxMem=  6710886400 cpu:               2.0 elap:               0.1
 (Enter /data0/home/software/g16/l122.exe)
 CPIOFr:  IOpCl= 0 IRwI=-1 IRwCP=  731 ICalc=  4 LCPTot=      536908 Len1MO=     1413956 IndFrg=     7606688
 Restoring MOs from calculation   1 to rwf.
 CPIOFr:  IOpCl= 0 IRwI=-2 IRwCP=  731 ICalc=  0 LCPTot=      536908 Len1MO=     1413956 IndFrg=     1950864
 Counterpoise corrected energy =   -1651.401530237988
                   BSSE energy =       0.002447065114
              sum of fragments =   -1651.356576657352
           complexation energy =     -29.74 kcal/mole (raw)
           complexation energy =     -28.21 kcal/mole (corrected)
 Leave Link  122 at Sun Feb 19 15:34:16 2023, MaxMem=  6710886400 cpu:               0.5 elap:               0.0
 (Enter /data0/home/software/g16/l9999.exe)
 1\1\GINC-LOCALHOST\SP\RM062X\6-311+G(2d,p)\C7H15N2O7P1S1\WUHANYU\19-Fe
 b-2023\0\\#p M062X/6-311+G(2d,p) nosymm em=GD3 counterpoise=2\\Title C
 ard Required\\0,1\C,0,11.504582,8.185756,11.447825\C,0,12.027899,9.400
 597,11.874956\C,0,9.780929,9.548446,11.937849\N,0,10.115739,8.2967,11.
 500731\H,0,12.011673,7.305043,11.081049\H,0,13.058507,9.720755,11.9403
 28\H,0,8.767425,9.939079,12.047636\C,0,9.157428,7.284959,11.095159\H,0
 ,8.546333,6.947727,11.949153\H,0,8.467065,7.688388,10.313363\H,0,9.667
 732,6.407565,10.645318\N,0,10.947301,10.233203,12.173248\C,0,11.029566
 ,11.641112,12.568779\H,0,11.56053,11.694754,13.548361\H,0,9.993573,12.
 032309,12.732083\C,0,11.763203,12.511803,11.525831\H,0,12.324244,13.30
 3999,12.065561\H,0,12.553972,11.91527,11.010169\C,0,10.843272,13.16693
 7,10.500202\H,0,11.42856,13.83908,9.842245\H,0,10.095537,13.81555,10.9
 91128\S,0,9.989182,11.955293,9.482733\O,0,9.331997,12.625944,8.359235\
 O,0,11.046444,10.992837,9.058324\O,0,9.027365,11.329214,10.446755\P,0,
 11.174194,7.660262,7.66062\O,0,12.302876,7.446034,8.563892\O,0,9.81938
 8,7.186369,8.330582\H,0,8.984782,7.694048,7.95478\O,0,10.90406,9.12191
 6,7.104246\H,0,11.049016,9.834924,7.876095\O,0,11.334468,6.814265,6.32
 3275\H,0,10.6251,7.130313,5.648192\\Version=ES64L-G16RevA.03\HF=-644.1
 445744\RMSD=6.664e-09\Dipole=-0.5320733,-0.8905674,3.2551294\Quadrupol
 e=-47.1772563,-59.0660569,106.2433132,-8.7803497,61.5127766,52.0098235
 \PG=C01 [X(C7H15N2O7P1S1)]\\@


 NEVER LOSE YOUR IGNORANCE, IT CAN'T BE REPLACED.
   -- ANDY CAPP
 Job cpu time:       0 days  2 hours 57 minutes  9.7 seconds.
 Elapsed time:       0 days  0 hours  7 minutes 26.4 seconds.
 File lengths (MBytes):  RWF=    264 Int=      0 D2E=      0 Chk=     79 Scr=      1
 Normal termination of Gaussian 16 at Sun Feb 19 15:34:16 2023.
