          42
 G =       -0.685197 Gcorr = 0.233060 a.u. Nimag =   0 Frame:     1 Step:     1 Geom:     1
C           5.29322900      6.07963300     17.72645100
C           4.30408700      5.78443000     16.79672100
C           4.79153400      7.97707900     16.61917200
N           5.58191800      7.43726700     17.59793200
H           5.81802200      5.42783100     18.41117600
H           3.88194800      4.83364700     16.52260300
H           4.83260700      9.00064800     16.26567000
C           6.65329700      8.14175000     18.27678400
H           6.26151700      8.92747300     18.94185700
H           7.27289700      7.43690000     18.87605700
H           7.34736700      8.60507000     17.53361100
N           3.98309500      6.97704500     16.14043300
C           3.01966500      7.07633300     15.04285000
H           2.07016300      7.49922400     15.44762100
H           2.79532000      6.03752800     14.68558000
C           3.50719800      7.92639900     13.85202300
H           2.61437100      8.24753400     13.27279600
H           3.97188800      8.87185700     14.20659900
C           4.46172300      7.18564300     12.92400600
H           4.70506900      7.80967900     12.04365400
H           4.00024500      6.26875600     12.51834500
S           6.00672200      6.74040700     13.75806600
O           7.03547700      6.57426700     12.73039400
O           6.26174100      7.89205500     14.68283700
O           5.63611100      5.51580300     14.52462400
P           8.46825400      4.75129600     16.62827600
O           9.43075500      4.66193800     15.52006300
O           8.89708400      3.96950100     17.95624300
H           9.75942500      3.43623200     17.69720700
O           8.20318900      6.20295200     17.21951300
H           8.57197700      6.94492200     16.55713200
O           7.02432900      4.15420800     16.42340100
H           6.54266900      4.68625400     15.62154100
O           8.79317400      8.30101800     15.60419600
H           9.30802700      7.94809900     14.84616100
H           7.87326000      8.31081400     15.24829900
O           9.76988100      6.87750900     13.43042300
H           9.82892000      6.07583400     13.96028100
H           8.89204600      6.79641800     13.00538500
O          11.28740600      2.61860700     16.86446900
H          10.83952800      2.12534000     16.16959100
H          11.58287500      3.42481000     16.41999100
          42
 G =       -0.682101 Gcorr = 0.220269 a.u. Nimag =   0 Frame:     2 Step:     2 Geom:     2
C           5.03600400      6.02760000     17.85648400
C           4.11698900      5.74972400     16.85071900
C           4.73336600      7.92185300     16.65648000
N           5.39701100      7.37804500     17.73365000
H           5.49175900      5.35184500     18.57507300
H           3.65451000      4.80885800     16.59614300
H           4.87896800      8.92207300     16.25369100
C           6.37567800      8.07582500     18.56581700
H           6.13618800      7.98613200     19.63643500
H           7.40928800      7.61347200     18.40348300
H           6.47817000      9.13706900     18.29345500
N           3.92428400      6.93332100     16.11411500
C           3.08010700      7.05944400     14.90303800
H           2.14730500      7.60582800     15.18414000
H           2.77226800      6.03217000     14.58593600
C           3.76997400      7.78290500     13.73145000
H           2.97325300      8.12464600     13.03320400
H           4.26544300      8.71684400     14.08510400
C           4.77047500      6.93491200     12.96006800
H           5.04071800      7.44213900     12.00897500
H           4.31709700      5.97944500     12.62706600
S           6.23063400      6.62201700     13.92135500
O           7.39271900      6.54770900     13.00894700
O           6.37495200      7.78846700     14.86147500
O           5.95009500      5.36585200     14.66256900
P           8.66834800      5.32351400     17.01183800
O           9.35905000      4.95091600     15.65939600
O           9.34909900      4.38173700     18.15040900
H           9.82563100      3.52271700     17.76576700
O           8.64451500      6.78703700     17.37610500
H           9.01932700      8.10446900     16.37246800
O           7.13748900      4.73034900     16.96537400
H           6.67076800      4.74090200     16.02730600
O           8.85791700      8.56261000     15.48285900
H           9.42921200      7.65211200     14.55750100
H           7.86394000      8.44616800     15.33985000
O           9.80477100      6.76971600     13.97828100
H           9.69181500      5.91159300     14.75554500
H           9.01891600      6.57180800     13.34338300
O          10.32834300      2.73167600     16.35816800
H          10.53769600      3.52266400     15.79114300
H           9.53591600      2.36182300     15.95576900
          42
 G =       -0.685153 Gcorr = 0.233104 a.u. Nimag =   0 Frame:     3 Step:     3 Geom:     3
C           5.26701500      6.23588000     17.74582400
C           4.28137500      5.93020600     16.81575800
C           4.78583500      8.11553900     16.59977700
N           5.56634500      7.58872500     17.59344000
H           5.78292000      5.59343200     18.44596700
H           3.85398700      4.97744300     16.55710800
H           4.83651000      9.13188900     16.22721400
C           6.63857700      8.29830100     18.26560300
H           6.24839000      9.09929700     18.91317400
H           7.24930400      7.60054000     18.88201700
H           7.34056200      8.74254400     17.51823900
N           3.97302800      7.11243900     16.13508000
C           3.01686700      7.19780100     15.02998300
H           2.06806100      7.63498400     15.42096000
H           2.78717900      6.15402800     14.69102100
C           3.51753000      8.02171300     13.82630000
H           2.63048400      8.33816800     13.23573400
H           3.98691900      8.97039500     14.16575900
C           4.47216200      7.25678000     12.91820600
H           4.72514600      7.86230000     12.02768700
H           4.00654100      6.33563400     12.52722800
S           6.00902500      6.81663200     13.76982300
O           7.04249300      6.62359300     12.75162600
O           6.26686500      7.98384100     14.67401800
O           5.62514700      5.60952600     14.55737100
P           8.43871500      4.86468400     16.69216000
O           9.40696800      4.74779700     15.59155700
O           8.85394500      4.10457400     18.03694800
H           9.71520300      3.56222800     17.79362900
O           8.18113300      6.32904200     17.25478300
H           8.55864800      7.05578800     16.58071000
O           6.99158700      4.27452200     16.48996200
H           6.51880300      4.79463300     15.67499300
O           8.79532400      8.39238900     15.60357500
H           9.31229100      8.02168300     14.85556500
H           7.87769900      8.40186400     15.24187000
O           9.77480300      6.92103200     13.46284400
H           9.82481000      6.12921500     14.00818900
H           8.89908600      6.83809100     13.03385600
O          11.24471700      2.72180600     16.98663900
H          10.79825000      2.22068500     16.29643600
H          11.54976200      3.51834200     16.53140100
          42
 G =       -0.688991 Gcorr = 0.236759 a.u. Nimag =   0 Frame:     4 Step:     4 Geom:     4
C           6.00075700      5.81067500     17.66003200
C           4.89095600      5.56001100     16.86250900
C           5.20910600      7.78908600     16.93092700
N           6.18411300      7.19250400     17.68218500
H           6.66077700      5.12650500     18.17344600
H           4.48950000      4.62094100     16.51855600
H           5.13486000      8.84749800     16.71667000
C           7.30345400      7.87239300     18.30529100
H           7.38720500      7.60112000     19.37654700
H           8.26174100      7.56611600     17.81279300
H           7.22745700      8.96755400     18.20577500
N           4.38999600      6.79825600     16.44939200
C           3.24426800      6.96680100     15.55209000
H           2.34413800      7.17972200     16.17501200
H           3.06651700      5.98659100     15.03233200
C           3.42780900      8.07630000     14.49568900
H           2.41945800      8.42726800     14.18683100
H           3.91679100      8.96813200     14.94135800
C           4.19629400      7.62461000     13.25883000
H           4.31756200      8.46416600     12.55002700
H           3.64328800      6.84539000     12.70523000
S           5.83010200      6.97978400     13.69185100
O           6.67465800      7.02153800     12.49840200
O           6.29703100      7.88930400     14.78712200
O           5.50166900      5.62382300     14.22512500
P           8.50437000      4.12735700     15.44577600
O           9.23171100      4.34707000     14.20359000
O           9.13449300      2.93421700     16.29836700
H           8.44772900      2.64806200     17.00641900
O           8.55403200      5.32581100     16.50637600
H           8.77914300      6.24654100     16.05454900
O           6.97544600      3.74477100     15.43528000
H           6.42341200      4.48312600     14.87827100
O           8.91437100      7.82459000     15.51428300
H           9.30512400      7.71629800     14.61994800
H           7.96225300      7.98170200     15.30484900
O           9.49175000      7.15081200     12.88045800
H           9.60750200      6.21950500     13.09018800
H           8.56157300      7.19315300     12.57797500
O           8.86943900      5.62047000     19.34736700
H           9.70007300      5.22761700     19.60444800
H           8.82809600      5.49282600     18.38786100
          42
 G =       -0.689054 Gcorr = 0.236699 a.u. Nimag =   0 Frame:     5 Step:     5 Geom:     5
C           5.99950900      5.90048200     17.65057600
C           4.86876500      5.67518300     16.87516400
C           5.31105300      7.88362900     16.83459300
N           6.25969200      7.26936500     17.60522700
H           6.62565600      5.20569500     18.19141700
H           4.41209200      4.74507400     16.57918200
H           5.29344600      8.93332600     16.57084600
C           7.42245600      7.91363600     18.18528200
H           8.35574700      7.53925900     17.69177100
H           7.40088300      9.00666900     18.04482200
H           7.50954200      7.67929200     19.26502700
N           4.43289800      6.91873000     16.40775900
C           3.28643500      7.10888400     15.51568200
H           2.40753200      7.39924700     16.13762900
H           3.04871200      6.11715300     15.04395700
C           3.51581100      8.15708600     14.40693700
H           2.52406300      8.54919900     14.09389200
H           4.05949500      9.03967900     14.80514200
C           4.24072200      7.60735200     13.18347700
H           4.39873200      8.40575900     12.43547900
H           3.63770100      6.83608200     12.67268000
S           5.84187200      6.89243200     13.62813100
O           6.67185500      6.83133200     12.42536300
O           6.37256700      7.82427100     14.67443800
O           5.44564500      5.58281000     14.22730100
P           8.37781900      3.98480200     15.48604800
O           9.11725900      4.10737600     14.23769600
O           8.95037700      2.80940900     16.40212200
H           8.23923400      2.57654900     17.10571200
O           8.48134500      5.23230300     16.48429700
H           8.76229400      6.11488000     15.98942100
O           6.83329000      3.67198400     15.48796700
H           6.31313400      4.42000500     14.91315000
O           8.99037800      7.65482600     15.37632400
H           9.36394200      7.48138000     14.48508100
H           8.04581300      7.85439600     15.16817200
O           9.49737500      6.82365400     12.77140500
H           9.56710600      5.89866200     13.02467600
H           8.56690400      6.90124200     12.47733900
O           8.88641200      5.62682900     19.29870100
H           9.70101700      5.20008300     19.55317800
H           8.81342900      5.46000500     18.34697500
          42
 G =       -0.685698 Gcorr = 0.232844 a.u. Nimag =   0 Frame:     6 Step:     6 Geom:     6
C           5.20135200      6.01072100     17.72442900
C           4.22580000      5.82186000     16.75339300
C           4.80444700      7.99904000     16.74045500
N           5.54657200      7.36075100     17.69811900
H           5.68207200      5.29182300     18.37343300
H           3.77429100      4.91014100     16.40306500
H           4.89818800      9.04129000     16.45912300
C           6.62758900      7.97151200     18.44876700
H           7.13729100      7.22148300     19.09091200
H           7.40827400      8.36754500     17.75266100
H           6.26365700      8.79653100     19.08160400
N           3.96948900      7.06916600     16.17512200
C           3.03425500      7.28185500     15.06883200
H           2.08203200      7.68304700     15.48866100
H           2.80404900      6.28135100     14.61627900
C           3.56181000      8.22437300     13.96813600
H           2.68677900      8.62894400     13.41474100
H           4.05406300      9.11557400     14.41358200
C           4.50179800      7.54218600     12.98186300
H           4.79486400      8.24430800     12.17911400
H           4.00751300      6.69778800     12.47109100
S           6.00206300      6.93492700     13.79425500
O           7.03944800      6.79574500     12.77147900
O           6.30482200      7.98483700     14.81974200
O           5.54301900      5.67307400     14.44462800
P           8.26582700      4.56062300     16.52901400
O           9.24318700      4.50182800     15.43164800
O           8.61532200      3.64148600     17.79063600
H           9.46806300      3.10244300     17.51179100
O           8.08622700      5.97184200     17.23851100
H           8.51074700      6.74036500     16.64544400
O           6.78991200      4.08205500     16.25444600
H           6.36528700      4.70502200     15.48524400
O           8.83868300      8.15811300     15.80991700
H           9.34589400      7.83516200     15.03392700
H           7.92870100      8.25541800     15.44267700
O           9.77163300      6.85558900     13.54186000
H           9.76488800      6.01076700     14.00352900
H           8.90099400      6.86967400     13.09529100
O          10.99475300      2.30773000     16.65479400
H          10.54946300      1.92387600     15.89183100
H          11.35489000      3.13814000     16.31598500
          42
 G =       -0.686349 Gcorr = 0.231666 a.u. Nimag =   0 Frame:     7 Step:     7 Geom:     7
C           5.30027700      6.22791300     17.84688200
C           4.33044900      5.81963900     16.94040200
C           4.78371900      7.98876200     16.53754400
N           5.56625800      7.57035600     17.58147100
H           5.82791500      5.66098400     18.60092200
H           3.92613600      4.83887500     16.76468100
H           4.82930800      8.96632000     16.06795500
C           6.61544800      8.36241900     18.19585300
H           7.17565100      7.76465400     18.94553500
H           7.36543500      8.67996100     17.42662100
H           6.20792600      9.26130800     18.68511800
N           4.00015700      6.93058700     16.15630100
C           3.04811300      6.88406400     15.04373400
H           2.05032200      7.20132100     15.42811200
H           2.95678900      5.81319800     14.71753100
C           3.44198100      7.74847400     13.82911100
H           2.51530200      7.98782700     13.26363100
H           3.83748100      8.73390600     14.15527100
C           4.43308500      7.06839900     12.89123000
H           4.65273000      7.71804300     12.02393300
H           4.01412200      6.13901600     12.46794000
S           5.98601000      6.67794300     13.73488700
O           7.02633000      6.49942300     12.72227300
O           6.21154800      7.86572600     14.62361400
O           5.62961200      5.47332700     14.53781700
P           8.37886900      4.77063500     16.73949300
O           9.36073500      4.66503900     15.64935800
O           8.78434900      4.00978300     18.08651700
H           9.70189100      3.55057000     17.87751000
O           8.11503600      6.23593700     17.30009600
H           8.47262600      6.96129000     16.62012800
O           6.93558600      4.17820100     16.52531500
H           6.48351700      4.68417200     15.68702100
O           8.69233100      8.31499100     15.63177800
H           9.24161100      7.95045600     14.90476700
H           7.78774000      8.30163600     15.23635600
O           9.74195300      6.83896300     13.52586400
H           9.78507200      6.04867600     14.07407800
H           8.88355500      6.74340000     13.06679300
O          11.32968600      2.85850000     17.12687300
H          11.63235500      3.68910000     16.73779200
H          10.94099300      2.38621300     16.38193200
          42
 G =       -0.689015 Gcorr = 0.236738 a.u. Nimag =   0 Frame:     8 Step:     8 Geom:     8
C           5.89177100      5.82118600     17.56153600
C           4.76853400      5.65801000     16.76012700
C           5.28639400      7.85010600     16.79368400
N           6.19912700      7.18100800     17.56196700
H           6.48429200      5.08951100     18.09160400
H           4.28572600      4.75336800     16.42878800
H           5.30938100      8.90703700     16.56134900
C           7.37189600      7.76754500     18.18182600
H           7.38992600      8.86430800     18.07400600
H           7.43025500      7.49898300     19.25563800
H           8.30098200      7.37577400     17.69413800
N           4.38386500      6.92914600     16.32285600
C           3.26210500      7.18497600     15.41592800
H           2.38178700      7.48760000     16.02995200
H           2.99955000      6.21624700     14.91066900
C           3.54889100      8.25631400     14.34325400
H           2.57757600      8.69220700     14.02416500
H           4.11531600      9.10711400     14.77725400
C           4.27743500      7.71702400     13.11732700
H           4.47762500      8.53077800     12.39645700
H           3.65766100      6.98292200     12.57290600
S           5.84382500      6.93294000     13.56914200
O           6.69362200      6.87804700     12.38011300
O           6.38674300      7.81403800     14.65264400
O           5.39069300      5.62124500     14.12165000
P           8.24252400      3.88602000     15.38504700
O           9.00515300      4.01897000     14.15171200
O           8.75684700      2.66234800     16.27192900
H           8.02825500      2.43701100     16.95999800
O           8.37659300      5.09791300     16.42268200
H           8.69362000      5.98507500     15.95807800
O           6.68767000      3.63113600     15.35514200
H           6.20471600      4.41144200     14.79085400
O           8.98282200      7.53271100     15.39469700
H           9.36679800      7.37307400     14.50538400
H           8.04924700      7.77060100     15.17596200
O           9.51091600      6.76151400     12.77497700
H           9.54143700      5.82807700     13.00416300
H           8.59057000      6.88110100     12.46391200
O           8.73626200      5.40338200     19.25517600
H           8.67705400      5.26339700     18.29812400
H           9.53454600      4.94879800     19.51321400
          42
 G =       -0.678494 Gcorr = 0.232525 a.u. Nimag =   0 Frame:     9 Step:     9 Geom:     9
C           4.67114100      5.51079000     17.69305200
C           3.77188500      5.66959600     16.64420800
C           4.97129500      7.56554100     16.81260800
N           5.39297600      6.69904400     17.78958500
H           4.86459100      4.65185600     18.31739800
H           3.07894300      4.96566400     16.22203200
H           5.41946800      8.53485800     16.59628300
C           6.49719300      6.95256000     18.69754300
H           6.14781900      7.45735100     19.61375000
H           7.00260100      6.00081500     18.97944100
H           7.27765300      7.57561600     18.20667800
N           3.96078000      6.95426900     16.12343000
C           3.20268800      7.47341900     14.98037400
H           2.20938600      7.81386000     15.35708300
H           3.01595900      6.61337200     14.27740800
C           3.89561600      8.61637900     14.21453400
H           3.10661100      9.27724300     13.79295800
H           4.46964500      9.27058600     14.90285700
C           4.79172200      8.13422600     13.08000200
H           5.27038800      8.99262900     12.57372700
H           4.20665200      7.61829900     12.29854200
S           6.08756200      7.00949900     13.66221100
O           7.11753700      6.96077600     12.62954400
O           6.53948700      7.62050800     14.96348300
O           5.34283800      5.75128000     13.95148900
P           7.74380200      4.43527100     16.10949100
O           8.41223500      3.93848500     14.91182600
O           8.17478200      3.74951100     17.48611900
H           9.11212100      4.19128600     17.70177800
O           8.04342500      5.95858000     16.50389400
H           7.54263300      6.63717100     15.88411700
O           6.16400200      4.29133600     16.15031000
H           5.80357300      4.68859900     15.21842700
O          11.58323200      6.02827500     15.20574300
H          10.89029100      6.12190200     14.51820400
H          12.14541600      5.33982900     14.85911700
O           9.77536400      5.84709900     13.02155600
H           9.38243500      5.08673800     13.46373000
H           8.98716900      6.37156000     12.78272200
O          10.58052900      5.44620800     17.83599800
H          10.99017500      5.53476900     16.94980900
H          10.01639300      6.22335400     17.86696300
          42
 G =       -0.675979 Gcorr = 0.234899 a.u. Nimag =   0 Frame:    10 Step:    10 Geom:    10
C           4.74766900      5.62538800     17.76483600
C           3.84775400      5.74901400     16.71106500
C           4.96145000      7.69496900     16.89483400
N           5.42400100      6.83953300     17.86305300
H           4.96432800      4.77651600     18.39706300
H           3.19687100      5.01289900     16.27432900
H           5.33802000      8.69601200     16.71102800
C           6.53826900      7.12397800     18.74913500
H           7.03333500      6.18082700     19.07445500
H           7.32358300      7.70806300     18.21844900
H           6.20527700      7.68048700     19.64082200
N           3.98106800      7.04276300     16.19884900
C           3.20895800      7.54315700     15.05787000
H           2.25162800      7.96204800     15.44761100
H           2.94857700      6.66066900     14.40949100
C           3.94157000      8.59852700     14.20736700
H           3.17835600      9.26839200     13.75445900
H           4.56138100      9.26555000     14.84211200
C           4.79225400      7.99541000     13.09707500
H           5.28930300      8.79283800     12.51405700
H           4.17234700      7.44101000     12.37101000
S           6.06369500      6.87452000     13.73922900
O           7.07421100      6.73650900     12.69494000
O           6.55309200      7.55058900     14.99211900
O           5.29260200      5.65561400     14.11854600
P           7.80018900      4.44301800     16.26509300
O           8.46852400      3.91733000     15.07969500
O           8.26001900      3.81488900     17.65982600
H           9.18698800      4.28788100     17.85144700
O           8.06069900      5.98530000     16.60455000
H           7.55265300      6.63022200     15.95025000
O           6.22514500      4.25636900     16.32457500
H           5.83948700      4.62498300     15.39333800
O          11.59421500      6.08497300     15.25075400
H          10.89261200      6.12969600     14.56695900
H          12.17242700      5.39828400     14.92758200
O           9.77244500      5.75335400     13.09559200
H           9.40822600      5.00500600     13.58093700
H           8.96327300      6.23801800     12.84220100
O          10.63127800      5.58858200     17.91537500
H          11.03139400      5.65011600     17.02274200
H          10.04084000      6.34670500     17.91530700
          42
 G =       -0.677946 Gcorr = 0.237736 a.u. Nimag =   0 Frame:    11 Step:    11 Geom:    11
C           4.82169600      6.15206400     17.82474500
C           3.91066600      6.01790800     16.78205400
C           4.95422900      7.99529300     16.53322500
N           5.45444700      7.38156600     17.65402000
H           5.07483900      5.46379700     18.61820700
H           3.28326800      5.18426300     16.52229800
H           5.29154000      8.94755900     16.13677300
C           6.56471100      7.88368200     18.44396800
H           7.32244500      8.37698700     17.79417800
H           6.21745500      8.59492800     19.21111000
H           7.10566700      7.04620000     18.94238200
N           3.99461400      7.17619900     16.00399500
C           3.19716000      7.39457500     14.79369400
H           2.22801000      7.85483000     15.09880800
H           2.96338900      6.38551600     14.35329400
C           3.88380100      8.26739500     13.72554500
H           3.09319300      8.80432200     13.15713500
H           4.48981900      9.07121200     14.19357600
C           4.73928200      7.46944600     12.74925300
H           5.19790200      8.14125800     11.99954600
H           4.12793500      6.75516700     12.17021400
S           6.05709700      6.55336600     13.58705600
O           7.08267000      6.25797500     12.59312500
O           6.51179600      7.48486300     14.68231100
O           5.34174500      5.40076000     14.20705900
P           7.85417200      4.76332900     16.56773300
O           8.60341100      4.06295100     15.52880600
O           8.28516300      4.46613600     18.07540100
H           9.29333200      4.78216300     18.11924600
O           8.04256600      6.35546000     16.56674300
H           7.47609900      6.82402200     15.81190900
O           6.29081800      4.51460000     16.63524300
H           5.91001300      4.68643800     15.64182200
O          10.74240200      7.16328000     15.63387800
H          10.62519300      6.74102600     14.75898800
H           9.83647700      7.18857000     15.96200000
O           9.88697600      5.73969900     13.28533500
H           9.62772800      5.00813200     13.85480500
H           9.03139200      6.01662600     12.90669600
O          11.08785800      5.40049500     17.89319900
H          11.04457400      6.05875200     17.16893500
H          11.56245500      4.66719700     17.50172200
          42
 G =       -0.680408 Gcorr = 0.235385 a.u. Nimag =   0 Frame:    12 Step:    12 Geom:    12
C           4.78693400      6.05499100     17.82711900
C           3.88055300      5.95508400     16.77712800
C           5.01213600      7.88333900     16.52691900
N           5.46685700      7.26011900     17.66171700
H           5.01258600      5.35554300     18.61763300
H           3.21211800      5.15376500     16.52229400
H           5.42282600      8.80034700     16.10607800
C           6.56566300      7.73611500     18.48343200
H           7.31901000      8.27607000     17.86741900
H           6.20152300      8.40029100     19.28453600
H           7.11606800      6.88196000     18.94192400
N           4.02376200      7.10388700     15.99181000
C           3.24442600      7.34014000     14.77204700
H           2.24060400      7.71922600     15.07765600
H           3.08565200      6.34344500     14.27200000
C           3.89235800      8.31537400     13.77084700
H           3.07827400      8.84965200     13.23343100
H           4.45274000      9.11631000     14.29634400
C           4.79148400      7.63174700     12.74689900
H           5.23335500      8.37883900     12.06153300
H           4.21461900      6.94477600     12.10286600
S           6.12991400      6.69909100     13.53086600
O           7.17175000      6.48883200     12.53270600
O           6.55004500      7.57567600     14.68544700
O           5.43823500      5.49389500     14.07088700
P           7.84380700      4.75653200     16.47287100
O           8.59456000      4.07676700     15.42147600
O           8.24411700      4.40007100     17.97611900
H           9.26011300      4.68610600     18.04498300
O           8.07245200      6.34365600     16.52775200
H           7.51663000      6.85061700     15.79373400
O           6.27379400      4.54898000     16.50838400
H           5.92160100      4.74488200     15.50674000
O          10.80589500      7.12423300     15.68307100
H           9.89497700      7.15839700     15.99667900
H          10.69367000      6.74384600     14.78877800
O           9.94498400      5.83069300     13.26101400
H           9.65126500      5.08533600     13.79445000
H           9.10831400      6.15433600     12.87808900
O          11.06765200      5.26254000     17.87174500
H          11.05443900      5.95152700     17.17544500
H          11.52824800      4.53297800     17.45717000
          42
 G =       -0.677967 Gcorr = 0.237715 a.u. Nimag =   0 Frame:    13 Step:    13 Geom:    13
C           4.77033600      6.01823000     17.77352900
C           3.87141000      5.96684800     16.71312200
C           4.95023800      7.93799700     16.60509500
N           5.42506400      7.24523800     17.69038800
H           5.00159100      5.27611700     18.52398900
H           3.23376900      5.16260700     16.39278800
H           5.30788600      8.90813200     16.27550200
C           6.53323900      7.67630600     18.52406300
H           7.30755200      8.19676200     17.91628700
H           6.18799100      8.34336200     19.33079900
H           7.05348500      6.79939400     18.97424100
N           3.98470900      7.17107100     16.01234100
C           3.20785200      7.47990600     14.80836700
H           2.24161700      7.93510600     15.12994300
H           2.96491800      6.50524400     14.30057600
C           3.92271000      8.40864700     13.80806900