 Entering Gaussian System, Link 0=g16
 Initial command:
 /data0/home/wuhanyu/software/g16/l1.exe "/data0/home/wuhanyu/software/g16/scratch/Gau-2473779.inp" -scrdir="/data0/home/wuhanyu/software/g16/scratch/"
 Default is to use a total of  22 processors:
                               22 via shared-memory
                                1 via Linda
 Entering Link 1 = /data0/home/wuhanyu/software/g16/l1.exe PID=   2473780.
  
 Copyright (c) 1988,1990,1992,1993,1995,1998,2003,2009,2016,
            Gaussian, Inc.  All Rights Reserved.
  
 This is part of the Gaussian(R) 16 program.  It is based on
 the Gaussian(R) 09 system (copyright 2009, Gaussian, Inc.),
 the Gaussian(R) 03 system (copyright 2003, Gaussian, Inc.),
 the Gaussian(R) 98 system (copyright 1998, Gaussian, Inc.),
 the Gaussian(R) 94 system (copyright 1995, Gaussian, Inc.),
 the Gaussian 92(TM) system (copyright 1992, Gaussian, Inc.),
 the Gaussian 90(TM) system (copyright 1990, Gaussian, Inc.),
 the Gaussian 88(TM) system (copyright 1988, Gaussian, Inc.),
 the Gaussian 86(TM) system (copyright 1986, Carnegie Mellon
 University), and the Gaussian 82(TM) system (copyright 1983,
 Carnegie Mellon University). Gaussian is a federally registered
 trademark of Gaussian, Inc.
  
 This software contains proprietary and confidential information,
 including trade secrets, belonging to Gaussian, Inc.
  
 This software is provided under written license and may be
 used, copied, transmitted, or stored only in accord with that
 written license.
  
 The following legend is applicable only to US Government
 contracts under FAR:
  
                    RESTRICTED RIGHTS LEGEND
  
 Use, reproduction and disclosure by the US Government is
 subject to restrictions as set forth in subparagraphs (a)
 and (c) of the Commercial Computer Software - Restricted
 Rights clause in FAR 52.227-19.
  
 Gaussian, Inc.
 340 Quinnipiac St., Bldg. 40, Wallingford CT 06492
  
  
 ---------------------------------------------------------------
 Warning -- This program may not be used in any manner that
 competes with the business of Gaussian, Inc. or will provide
 assistance to any competitor of Gaussian, Inc.  The licensee
 of this program is prohibited from giving any competitor of
 Gaussian, Inc. access to this program.  By using this program,
 the user acknowledges that Gaussian, Inc. is engaged in the
 business of creating and licensing software in the field of
 computational chemistry and represents and warrants to the
 licensee that it is not a competitor of Gaussian, Inc. and that
 it will not use this program in any manner prohibited above.
 ---------------------------------------------------------------
  

 Cite this work as:
 Gaussian 16, Revision A.03,
 M. J. Frisch, G. W. Trucks, H. B. Schlegel, G. E. Scuseria, 
 M. A. Robb, J. R. Cheeseman, G. Scalmani, V. Barone, 
 G. A. Petersson, H. Nakatsuji, X. Li, M. Caricato, A. V. Marenich, 
 J. Bloino, B. G. Janesko, R. Gomperts, B. Mennucci, H. P. Hratchian, 
 J. V. Ortiz, A. F. Izmaylov, J. L. Sonnenberg, D. Williams-Young, 
 F. Ding, F. Lipparini, F. Egidi, J. Goings, B. Peng, A. Petrone, 
 T. Henderson, D. Ranasinghe, V. G. Zakrzewski, J. Gao, N. Rega, 
 G. Zheng, W. Liang, M. Hada, M. Ehara, K. Toyota, R. Fukuda, 
 J. Hasegawa, M. Ishida, T. Nakajima, Y. Honda, O. Kitao, H. Nakai, 
 T. Vreven, K. Throssell, J. A. Montgomery, Jr., J. E. Peralta, 
 F. Ogliaro, M. J. Bearpark, J. J. Heyd, E. N. Brothers, K. N. Kudin, 
 V. N. Staroverov, T. A. Keith, R. Kobayashi, J. Normand, 
 K. Raghavachari, A. P. Rendell, J. C. Burant, S. S. Iyengar, 
 J. Tomasi, M. Cossi, J. M. Millam, M. Klene, C. Adamo, R. Cammi, 
 J. W. Ochterski, R. L. Martin, K. Morokuma, O. Farkas, 
 J. B. Foresman, and D. J. Fox, Gaussian, Inc., Wallingford CT, 2016.
 
 ******************************************
 Gaussian 16:  ES64L-G16RevA.03 25-Dec-2016
                18-May-2022 
 ******************************************
 %chk=TMABA.chk
 %mem=200GB
 %nprocshared=22
 Will use up to   22 processors via shared memory.
 --------------------------------------
 #p opt freq b3lyp/6-311g(d,p) em=gd3bj
 --------------------------------------
 1/18=20,19=15,26=3,38=1/1,3;
 2/9=110,12=2,17=6,18=5,40=1/2;
 3/5=4,6=6,7=101,11=2,25=1,30=1,71=1,74=-5,124=41/1,2,3;
 4//1;
 5/5=2,38=5/2;
 6/7=2,8=2,9=2,10=2,28=1/1;
 7//1,2,3,16;
 1/18=20,19=15,26=3/3(2);
 2/9=110/2;
 99//99;
 2/9=110/2;
 3/5=4,6=6,7=101,11=2,25=1,30=1,71=1,74=-5,124=41/1,2,3;
 4/5=5,16=3,69=1/1;
 5/5=2,38=5/2;
 7//1,2,3,16;
 1/18=20,19=15,26=3/3(-5);
 2/9=110/2;
 6/7=2,8=2,9=2,10=2,19=2,28=1/1;
 99/9=1/99;
 Leave Link    1 at Wed May 18 09:29:40 2022, MaxMem= 26843545600 cpu:               0.7 elap:               0.0
 (Enter /data0/home/wuhanyu/software/g16/l101.exe)
 -------------------
 Title Card Required
 -------------------
 Symbolic Z-matrix:
 Charge =  0 Multiplicity = 1
 C                    -3.26814  -0.05003   0.83084 
 H                    -4.17193  -0.00981   0.22373 
 H                    -3.24261  -0.97714   1.40035 
 H                    -3.2375    0.7996    1.51034 
 C                    -2.09633  -1.16627  -0.99929 
 H                    -3.03392  -1.14898  -1.55355 
 H                    -1.25316  -1.09531  -1.67934 
 H                    -2.01874  -2.08285  -0.41747 
 C                    -2.08752   1.27874  -0.84541 
 H                    -1.99964   2.11429  -0.15351 
 H                    -1.24658   1.28619  -1.53185 
 H                    -3.02664   1.3395   -1.39397 
 C                    -0.79163  -0.05784   0.82366 
 H                    -0.88903  -0.98092   1.39828 
 H                    -0.88079   0.79117   1.50407 
 C                     0.50998  -0.01556   0.06073 
 H                     0.60589   0.90904  -0.51624 
 H                     0.60149  -0.86484  -0.62297 
 C                     1.72503  -0.06753   0.98795 
 H                     1.74135  -1.00285   1.55514 
 H                     1.7275    0.79336   1.66332 
 N                    -2.06779   0.00176  -0.05979 
 C                     2.96267   0.00764  -0.01648 
 O                     3.27907   1.1827   -0.33144 
 O                     3.35524  -1.11492  -0.42104 
 
 ITRead=  0  0  0  0  0  0  0  0  0  0  0  0  0  0  0  0  0  0  0  0
 ITRead=  0  0  0  0  0
 MicOpt= -1 -1 -1 -1 -1 -1 -1 -1 -1 -1 -1 -1 -1 -1 -1 -1 -1 -1 -1 -1
 MicOpt= -1 -1 -1 -1 -1
 NAtoms=     25 NQM=       25 NQMF=       0 NMMI=      0 NMMIF=      0
                NMic=       0 NMicF=      0.
                    Isotopes and Nuclear Properties:
 (Nuclear quadrupole moments (NQMom) in fm**2, nuclear magnetic moments (NMagM)
  in nuclear magnetons)

  Atom         1           2           3           4           5           6           7           8           9          10
 IAtWgt=          12           1           1           1          12           1           1           1          12           1
 AtmWgt=  12.0000000   1.0078250   1.0078250   1.0078250  12.0000000   1.0078250   1.0078250   1.0078250  12.0000000   1.0078250
 NucSpn=           0           1           1           1           0           1           1           1           0           1
 AtZEff=  -0.0000000  -0.0000000  -0.0000000  -0.0000000  -0.0000000  -0.0000000  -0.0000000  -0.0000000  -0.0000000  -0.0000000
 NQMom=    0.0000000   0.0000000   0.0000000   0.0000000   0.0000000   0.0000000   0.0000000   0.0000000   0.0000000   0.0000000
 NMagM=    0.0000000   2.7928460   2.7928460   2.7928460   0.0000000   2.7928460   2.7928460   2.7928460   0.0000000   2.7928460
 AtZNuc=   6.0000000   1.0000000   1.0000000   1.0000000   6.0000000   1.0000000   1.0000000   1.0000000   6.0000000   1.0000000

  Atom        11          12          13          14          15          16          17          18          19          20
 IAtWgt=           1           1          12           1           1          12           1           1          12           1
 AtmWgt=   1.0078250   1.0078250  12.0000000   1.0078250   1.0078250  12.0000000   1.0078250   1.0078250  12.0000000   1.0078250
 NucSpn=           1           1           0           1           1           0           1           1           0           1
 AtZEff=  -0.0000000  -0.0000000  -0.0000000  -0.0000000  -0.0000000  -0.0000000  -0.0000000  -0.0000000  -0.0000000  -0.0000000
 NQMom=    0.0000000   0.0000000   0.0000000   0.0000000   0.0000000   0.0000000   0.0000000   0.0000000   0.0000000   0.0000000
 NMagM=    2.7928460   2.7928460   0.0000000   2.7928460   2.7928460   0.0000000   2.7928460   2.7928460   0.0000000   2.7928460
 AtZNuc=   1.0000000   1.0000000   6.0000000   1.0000000   1.0000000   6.0000000   1.0000000   1.0000000   6.0000000   1.0000000

  Atom        21          22          23          24          25
 IAtWgt=           1          14          12          16          16
 AtmWgt=   1.0078250  14.0030740  12.0000000  15.9949146  15.9949146
 NucSpn=           1           2           0           0           0
 AtZEff=  -0.0000000  -0.0000000  -0.0000000  -0.0000000  -0.0000000
 NQMom=    0.0000000   2.0440000   0.0000000   0.0000000   0.0000000
 NMagM=    2.7928460   0.4037610   0.0000000   0.0000000   0.0000000
 AtZNuc=   1.0000000   7.0000000   6.0000000   8.0000000   8.0000000
 Leave Link  101 at Wed May 18 09:29:40 2022, MaxMem= 26843545600 cpu:               7.1 elap:               0.3
 (Enter /data0/home/wuhanyu/software/g16/l103.exe)

 GradGradGradGradGradGradGradGradGradGradGradGradGradGradGradGradGradGrad
 Berny optimization.
 Initialization pass.
                           ----------------------------
                           !    Initial Parameters    !
                           ! (Angstroms and Degrees)  !
 --------------------------                            --------------------------
 ! Name  Definition              Value          Derivative Info.                !
 --------------------------------------------------------------------------------
 ! R1    R(1,2)                  1.0895         estimate D2E/DX2                !
 ! R2    R(1,3)                  1.0884         estimate D2E/DX2                !
 ! R3    R(1,4)                  1.0884         estimate D2E/DX2                !
 ! R4    R(1,22)                 1.4956         estimate D2E/DX2                !
 ! R5    R(5,6)                  1.0893         estimate D2E/DX2                !
 ! R6    R(5,7)                  1.0856         estimate D2E/DX2                !
 ! R7    R(5,8)                  1.0884         estimate D2E/DX2                !
 ! R8    R(5,22)                 1.4993         estimate D2E/DX2                !
 ! R9    R(9,10)                 1.0884         estimate D2E/DX2                !
 ! R10   R(9,11)                 1.0856         estimate D2E/DX2                !
 ! R11   R(9,12)                 1.0893         estimate D2E/DX2                !
 ! R12   R(9,22)                 1.4994         estimate D2E/DX2                !
 ! R13   R(13,14)                1.0917         estimate D2E/DX2                !
 ! R14   R(13,15)                1.0917         estimate D2E/DX2                !
 ! R15   R(13,16)                1.5093         estimate D2E/DX2                !
 ! R16   R(13,22)                1.5533         estimate D2E/DX2                !
 ! R17   R(16,17)                1.0941         estimate D2E/DX2                !
 ! R18   R(16,18)                1.0941         estimate D2E/DX2                !
 ! R19   R(16,19)                1.5293         estimate D2E/DX2                !
 ! R20   R(19,20)                1.094          estimate D2E/DX2                !
 ! R21   R(19,21)                1.0942         estimate D2E/DX2                !
 ! R22   R(19,23)                1.5957         estimate D2E/DX2                !
 ! R23   R(23,24)                1.257          estimate D2E/DX2                !
 ! R24   R(23,25)                1.2562         estimate D2E/DX2                !
 ! A1    A(2,1,3)              110.0287         estimate D2E/DX2                !
 ! A2    A(2,1,4)              110.0251         estimate D2E/DX2                !
 ! A3    A(2,1,22)             109.431          estimate D2E/DX2                !
 ! A4    A(3,1,4)              109.733          estimate D2E/DX2                !
 ! A5    A(3,1,22)             108.8013         estimate D2E/DX2                !
 ! A6    A(4,1,22)             108.7938         estimate D2E/DX2                !
 ! A7    A(6,5,7)              110.4109         estimate D2E/DX2                !
 ! A8    A(6,5,8)              110.2867         estimate D2E/DX2                !
 ! A9    A(6,5,22)             108.8364         estimate D2E/DX2                !
 ! A10   A(7,5,8)              109.5453         estimate D2E/DX2                !
 ! A11   A(7,5,22)             109.0782         estimate D2E/DX2                !
 ! A12   A(8,5,22)             108.6467         estimate D2E/DX2                !
 ! A13   A(10,9,11)            109.522          estimate D2E/DX2                !
 ! A14   A(10,9,12)            110.2997         estimate D2E/DX2                !
 ! A15   A(10,9,22)            108.6424         estimate D2E/DX2                !
 ! A16   A(11,9,12)            110.4287         estimate D2E/DX2                !
 ! A17   A(11,9,22)            109.0848         estimate D2E/DX2                !
 ! A18   A(12,9,22)            108.8263         estimate D2E/DX2                !
 ! A19   A(14,13,15)           108.7994         estimate D2E/DX2                !
 ! A20   A(14,13,16)           111.5119         estimate D2E/DX2                !
 ! A21   A(14,13,22)           104.9827         estimate D2E/DX2                !
 ! A22   A(15,13,16)           111.3277         estimate D2E/DX2                !
 ! A23   A(15,13,22)           104.925          estimate D2E/DX2                !
 ! A24   A(16,13,22)           114.8319         estimate D2E/DX2                !
 ! A25   A(13,16,17)           111.4597         estimate D2E/DX2                !
 ! A26   A(13,16,18)           111.4844         estimate D2E/DX2                !
 ! A27   A(13,16,19)           112.1941         estimate D2E/DX2                !
 ! A28   A(17,16,18)           108.6097         estimate D2E/DX2                !
 ! A29   A(17,16,19)           106.1893         estimate D2E/DX2                !
 ! A30   A(18,16,19)           106.6208         estimate D2E/DX2                !
 ! A31   A(16,19,20)           110.809          estimate D2E/DX2                !
 ! A32   A(16,19,21)           110.4433         estimate D2E/DX2                !
 ! A33   A(16,19,23)           103.4729         estimate D2E/DX2                !
 ! A34   A(20,19,21)           110.6477         estimate D2E/DX2                !
 ! A35   A(20,19,23)           110.797          estimate D2E/DX2                !
 ! A36   A(21,19,23)           110.4696         estimate D2E/DX2                !
 ! A37   A(1,22,5)             109.3244         estimate D2E/DX2                !
 ! A38   A(1,22,9)             109.3267         estimate D2E/DX2                !
 ! A39   A(1,22,13)            108.6255         estimate D2E/DX2                !
 ! A40   A(5,22,9)             109.5672         estimate D2E/DX2                !
 ! A41   A(5,22,13)            110.0085         estimate D2E/DX2                !
 ! A42   A(9,22,13)            109.968          estimate D2E/DX2                !
 ! A43   A(19,23,24)           113.3896         estimate D2E/DX2                !
 ! A44   A(19,23,25)           113.7672         estimate D2E/DX2                !
 ! A45   A(24,23,25)           132.5337         estimate D2E/DX2                !
 ! D1    D(2,1,22,5)           -59.8998         estimate D2E/DX2                !
 ! D2    D(2,1,22,9)            60.0401         estimate D2E/DX2                !
 ! D3    D(2,1,22,13)         -179.9538         estimate D2E/DX2                !
 ! D4    D(3,1,22,5)            60.3484         estimate D2E/DX2                !
 ! D5    D(3,1,22,9)          -179.7118         estimate D2E/DX2                !
 ! D6    D(3,1,22,13)          -59.7056         estimate D2E/DX2                !
 ! D7    D(4,1,22,5)           179.8609         estimate D2E/DX2                !
 ! D8    D(4,1,22,9)           -60.1992         estimate D2E/DX2                !
 ! D9    D(4,1,22,13)           59.8069         estimate D2E/DX2                !
 ! D10   D(6,5,22,1)            56.4108         estimate D2E/DX2                !
 ! D11   D(6,5,22,9)           -63.3811         estimate D2E/DX2                !
 ! D12   D(6,5,22,13)          175.6124         estimate D2E/DX2                !
 ! D13   D(7,5,22,1)           176.9339         estimate D2E/DX2                !
 ! D14   D(7,5,22,9)            57.1419         estimate D2E/DX2                !
 ! D15   D(7,5,22,13)          -63.8646         estimate D2E/DX2                !
 ! D16   D(8,5,22,1)           -63.7049         estimate D2E/DX2                !
 ! D17   D(8,5,22,9)           176.5031         estimate D2E/DX2                !
 ! D18   D(8,5,22,13)           55.4967         estimate D2E/DX2                !
 ! D19   D(10,9,22,1)           63.9277         estimate D2E/DX2                !
 ! D20   D(10,9,22,5)         -176.2817         estimate D2E/DX2                !
 ! D21   D(10,9,22,13)         -55.2507         estimate D2E/DX2                !
 ! D22   D(11,9,22,1)         -176.7378         estimate D2E/DX2                !
 ! D23   D(11,9,22,5)          -56.9473         estimate D2E/DX2                !
 ! D24   D(11,9,22,13)          64.0837         estimate D2E/DX2                !
 ! D25   D(12,9,22,1)          -56.1952         estimate D2E/DX2                !
 ! D26   D(12,9,22,5)           63.5954         estimate D2E/DX2                !
 ! D27   D(12,9,22,13)        -175.3737         estimate D2E/DX2                !
 ! D28   D(14,13,16,17)        179.8971         estimate D2E/DX2                !
 ! D29   D(14,13,16,18)         58.3489         estimate D2E/DX2                !
 ! D30   D(14,13,16,19)        -61.1607         estimate D2E/DX2                !
 ! D31   D(15,13,16,17)        -58.3845         estimate D2E/DX2                !
 ! D32   D(15,13,16,18)       -179.9328         estimate D2E/DX2                !
 ! D33   D(15,13,16,19)         60.5576         estimate D2E/DX2                !
 ! D34   D(22,13,16,17)         60.6495         estimate D2E/DX2                !
 ! D35   D(22,13,16,18)        -60.8987         estimate D2E/DX2                !
 ! D36   D(22,13,16,19)        179.5917         estimate D2E/DX2                !
 ! D37   D(14,13,22,1)          57.1234         estimate D2E/DX2                !
 ! D38   D(14,13,22,5)         -62.5044         estimate D2E/DX2                !
 ! D39   D(14,13,22,9)         176.7299         estimate D2E/DX2                !
 ! D40   D(15,13,22,1)         -57.4953         estimate D2E/DX2                !
 ! D41   D(15,13,22,5)        -177.1232         estimate D2E/DX2                !
 ! D42   D(15,13,22,9)          62.1111         estimate D2E/DX2                !
 ! D43   D(16,13,22,1)         179.9511         estimate D2E/DX2                !
 ! D44   D(16,13,22,5)          60.3233         estimate D2E/DX2                !
 ! D45   D(16,13,22,9)         -60.4424         estimate D2E/DX2                !
 ! D46   D(13,16,19,20)         61.9231         estimate D2E/DX2                !
 ! D47   D(13,16,19,21)        -61.0502         estimate D2E/DX2                !
 ! D48   D(13,16,19,23)       -179.2847         estimate D2E/DX2                !
 ! D49   D(17,16,19,20)       -176.0795         estimate D2E/DX2                !
 ! D50   D(17,16,19,21)         60.9473         estimate D2E/DX2                !
 ! D51   D(17,16,19,23)        -57.2873         estimate D2E/DX2                !
 ! D52   D(18,16,19,20)        -60.3927         estimate D2E/DX2                !
 ! D53   D(18,16,19,21)        176.634          estimate D2E/DX2                !
 ! D54   D(18,16,19,23)         58.3995         estimate D2E/DX2                !
 ! D55   D(16,19,23,24)         85.1033         estimate D2E/DX2                !
 ! D56   D(16,19,23,25)        -89.3243         estimate D2E/DX2                !
 ! D57   D(20,19,23,24)       -156.0962         estimate D2E/DX2                !
 ! D58   D(20,19,23,25)         29.4762         estimate D2E/DX2                !
 ! D59   D(21,19,23,24)        -33.113          estimate D2E/DX2                !
 ! D60   D(21,19,23,25)        152.4594         estimate D2E/DX2                !
 --------------------------------------------------------------------------------
 Trust Radius=3.00D-01 FncErr=1.00D-07 GrdErr=1.00D-06 EigMax=2.50D+02 EigMin=1.00D-04
 Number of steps in this run=    139 maximum allowed number of steps=    150.
 GradGradGradGradGradGradGradGradGradGradGradGradGradGradGradGradGradGrad

 Leave Link  103 at Wed May 18 09:29:40 2022, MaxMem= 26843545600 cpu:               0.2 elap:               0.0
 (Enter /data0/home/wuhanyu/software/g16/l202.exe)
                          Input orientation:                          
 ---------------------------------------------------------------------
 Center     Atomic      Atomic             Coordinates (Angstroms)
 Number     Number       Type             X           Y           Z
 ---------------------------------------------------------------------
      1          6           0       -3.268139   -0.050033    0.830841
      2          1           0       -4.171930   -0.009814    0.223732
      3          1           0       -3.242606   -0.977138    1.400347
      4          1           0       -3.237498    0.799598    1.510336
      5          6           0       -2.096331   -1.166269   -0.999293
      6          1           0       -3.033921   -1.148980   -1.553550
      7          1           0       -1.253164   -1.095314   -1.679342
      8          1           0       -2.018743   -2.082847   -0.417465
      9          6           0       -2.087518    1.278742   -0.845409
     10          1           0       -1.999641    2.114290   -0.153508
     11          1           0       -1.246575    1.286191   -1.531849
     12          1           0       -3.026638    1.339499   -1.393970
     13          6           0       -0.791631   -0.057842    0.823660
     14          1           0       -0.889025   -0.980923    1.398279
     15          1           0       -0.880792    0.791167    1.504069
     16          6           0        0.509980   -0.015557    0.060727
     17          1           0        0.605887    0.909035   -0.516238
     18          1           0        0.601489   -0.864836   -0.622966
     19          6           0        1.725032   -0.067528    0.987948
     20          1           0        1.741352   -1.002846    1.555142
     21          1           0        1.727497    0.793363    1.663322
     22          7           0       -2.067794    0.001762   -0.059787
     23          6           0        2.962668    0.007642   -0.016478
     24          8           0        3.279069    1.182702   -0.331436
     25          8           0        3.355244   -1.114916   -0.421041
 ---------------------------------------------------------------------
                    Distance matrix (angstroms):
                    1          2          3          4          5
     1  C    0.000000
     2  H    1.089512   0.000000
     3  H    1.088353   1.784315   0.000000
     4  H    1.088359   1.784282   1.780145   0.000000
     5  C    2.443053   2.672319   2.666081   3.386020   0.000000
     6  H    2.635880   2.398227   2.966241   3.636729   1.089300
     7  H    3.384340   3.649547   3.668287   4.207412   1.085556
     8  H    2.692878   3.056929   2.454562   3.675632   1.088420
     9  C    2.443220   2.673614   3.386243   2.664877   2.449865
    10  H    2.694870   3.061530   3.676459   2.455419   3.389214
    11  H    3.384453   3.649575   4.207680   3.668165   2.649578
    12  H    2.634180   2.397770   3.636160   2.961579   2.701872
    13  C    2.476531   3.433459   2.680476   2.681230   2.500802
    14  H    2.617007   3.619403   2.353585   2.949260   2.690779
    15  H    2.619213   3.621108   2.952258   2.356729   3.402339
    16  C    3.855963   4.684750   4.098917   4.099931   3.039842
    17  H    4.212186   4.921318   4.694874   4.346330   3.441251
    18  H    4.213250   4.922752   4.345512   4.696716   2.740569
    19  C    4.995673   5.946555   5.067040   5.064731   4.445129
    20  H    5.150482   6.142123   4.986428   5.295258   4.612988
    21  H    5.134269   6.125418   5.282590   4.967355   5.054833
    22  N    1.495570   2.123183   2.114337   2.114246   1.499261
    23  C    6.288420   7.138662   6.440700   6.434315   5.285590
    24  O    6.762873   7.566220   7.084929   6.782665   5.904119
    25  O    6.824250   7.635138   6.846025   7.131608   5.482398
                    6          7          8          9         10
     6  H    0.000000
     7  H    1.786001   0.000000
     8  H    1.787004   1.775856   0.000000
     9  C    2.700181   2.650987   3.389417   0.000000
    10  H    3.698484   3.631385   4.205472   1.088389   0.000000
    11  H    3.020784   2.386077   3.631599   1.085560   1.775579
    12  H    2.493601   3.025717   3.698901   1.089292   1.787112
    13  C    3.445225   2.748523   2.673358   2.500314   2.670637
    14  H    3.652686   3.101199   2.405707   3.402441   3.636187
    15  H    4.212976   3.719083   3.639668   2.685882   2.397924
    16  C    4.055832   2.702294   3.301029   3.040278   3.298536
    17  H    4.308091   2.970908   3.981180   2.738516   2.893612
    18  H    3.763367   2.146809   2.896791   3.446036   3.982645
    19  C    5.502398   4.128006   4.478007   4.439502   4.465024
    20  H    5.699873   4.408805   4.381312   5.062463   5.160528
    21  H    6.065646   4.860539   5.161063   4.591695   4.351698
    22  N    2.118711   2.118999   2.115640   1.499423   2.115704
    23  C    6.297574   4.664211   5.417139   5.273253   5.392704
    24  O    6.839894   5.248556   6.223988   5.391999   5.363235
    25  O    6.488849   4.777147   5.460461   5.960985   6.258925
                   11         12         13         14         15
    11  H    0.000000
    12  H    1.786191   0.000000
    13  C    2.749877   3.444663   0.000000
    14  H    3.722002   4.213123   1.091674   0.000000
    15  H    3.097684   3.647458   1.091660   1.775264   0.000000
    16  C    2.704872   4.057091   1.509320   2.162913   2.160622
    17  H    2.146003   3.761775   2.164078   3.077674   2.511125
    18  H    2.977973   4.314724   2.164428   2.514068   3.076326
    19  C    4.124607   5.498329   2.522038   2.799278   2.791784
    20  H    4.867947   6.075983   2.800732   2.635141   3.177535
    21  H    4.392847   5.678653   2.788474   3.172464   2.613147
    22  N    2.119227   2.118718   1.553262   2.116866   2.116076
    23  C    4.652823   6.288332   3.847711   4.220703   4.206918
    24  O    4.683285   6.396523   4.409512   5.004617   4.563641
    25  O    5.308102   6.906458   4.456822   4.619708   5.028240
                   16         17         18         19         20
    16  C    0.000000
    17  H    1.094055   0.000000
    18  H    1.094114   1.777084   0.000000
    19  C    1.529311   2.113939   2.119692   0.000000
    20  H    2.173544   3.038945   2.462212   1.093981   0.000000
    21  H    2.169103   2.453950   3.040498   1.094198   1.799517
    22  N    2.580648   2.860081   2.862383   3.935490   4.257561
    23  C    2.454012   2.572292   2.589249   1.595702   2.232194
    24  O    3.042609   2.693501   3.383317   2.391418   3.271142
    25  O    3.088077   3.415319   2.772450   2.395801   2.553920
                   21         22         23         24         25
    21  H    0.000000
    22  N    4.242637   0.000000
    23  C    2.228168   5.030652   0.000000
    24  O    2.556955   5.482459   1.257010   0.000000
    25  O    3.261236   5.548587   1.256154   2.300626   0.000000
 Stoichiometry    C7H15NO2
 Framework group  C1[X(C7H15NO2)]
 Deg. of freedom    69
 Full point group                 C1      NOp   1
 Largest Abelian subgroup         C1      NOp   1
 Largest concise Abelian subgroup C1      NOp   1
                         Standard orientation:                         
 ---------------------------------------------------------------------
 Center     Atomic      Atomic             Coordinates (Angstroms)
 Number     Number       Type             X           Y           Z
 ---------------------------------------------------------------------
      1          6           0       -3.268139   -0.050033    0.830841
      2          1           0       -4.171930   -0.009814    0.223732
      3          1           0       -3.242606   -0.977138    1.400347
      4          1           0       -3.237498    0.799598    1.510336
      5          6           0       -2.096331   -1.166269   -0.999293
      6          1           0       -3.033921   -1.148980   -1.553550
      7          1           0       -1.253164   -1.095314   -1.679342
      8          1           0       -2.018743   -2.082847   -0.417465
      9          6           0       -2.087518    1.278742   -0.845409
     10          1           0       -1.999641    2.114290   -0.153508
     11          1           0       -1.246575    1.286191   -1.531849
     12          1           0       -3.026638    1.339499   -1.393970
     13          6           0       -0.791631   -0.057842    0.823660
     14          1           0       -0.889025   -0.980923    1.398279
     15          1           0       -0.880792    0.791167    1.504069
     16          6           0        0.509980   -0.015557    0.060727
     17          1           0        0.605887    0.909035   -0.516238
     18          1           0        0.601489   -0.864836   -0.622966
     19          6           0        1.725032   -0.067528    0.987948
     20          1           0        1.741352   -1.002846    1.555142
     21          1           0        1.727497    0.793363    1.663322
     22          7           0       -2.067794    0.001762   -0.059787
     23          6           0        2.962668    0.007642   -0.016478
     24          8           0        3.279069    1.182702   -0.331436
     25          8           0        3.355244   -1.114916   -0.421041
 ---------------------------------------------------------------------
 Rotational constants (GHZ):           2.8511750           0.5328137           0.5206950
 Leave Link  202 at Wed May 18 09:29:40 2022, MaxMem= 26843545600 cpu:               0.1 elap:               0.0
 (Enter /data0/home/wuhanyu/software/g16/l301.exe)
 Standard basis: 6-311G(d,p) (5D, 7F)
 Ernie: Thresh=  0.10000D-02 Tol=  0.10000D-05 Strict=F.
 There are   280 symmetry adapted cartesian basis functions of A   symmetry.
 There are   270 symmetry adapted basis functions of A   symmetry.
   270 basis functions,   440 primitive gaussians,   280 cartesian basis functions
    40 alpha electrons       40 beta electrons
       nuclear repulsion energy       562.2937753250 Hartrees.
 IExCor=  402 DFT=T Ex+Corr=B3LYP ExCW=0 ScaHFX=  0.200000
 ScaDFX=  0.800000  0.720000  1.000000  0.810000 ScalE2=  1.000000  1.000000
 IRadAn=      5 IRanWt=     -1 IRanGd=            0 ICorTp=0 IEmpDi=141
 NAtoms=   25 NActive=   25 NUniq=   25 SFac= 1.00D+00 NAtFMM=   60 NAOKFM=F Big=F
 Integral buffers will be    131072 words long.
 Raffenetti 2 integral format.
 Two-electron integral symmetry is turned on.
 R6Disp:  Grimme-D3(BJ) Dispersion energy=       -0.0402265930 Hartrees.
 Nuclear repulsion after empirical dispersion term =      562.2535487320 Hartrees.
 Leave Link  301 at Wed May 18 09:29:40 2022, MaxMem= 26843545600 cpu:               1.0 elap:               0.1
 (Enter /data0/home/wuhanyu/software/g16/l302.exe)
 NPDir=0 NMtPBC=     1 NCelOv=     1 NCel=       1 NClECP=     1 NCelD=      1
         NCelK=      1 NCelE2=     1 NClLst=     1 CellRange=     0.0.
 One-electron integrals computed using PRISM.
 One-electron integral symmetry used in STVInt
 NBasis=   270 RedAO= T EigKep=  1.26D-03  NBF=   270
 NBsUse=   270 1.00D-06 EigRej= -1.00D+00 NBFU=   270
 Precomputing XC quadrature grid using
 IXCGrd= 4 IRadAn=           5 IRanWt=          -1 IRanGd=           0 AccXCQ= 0.00D+00.
 Generated NRdTot=       0 NPtTot=           0 NUsed=           0 NTot=          32
 NSgBfM=   280   280   280   280   280 MxSgAt=    25 MxSgA2=    25.
 Leave Link  302 at Wed May 18 09:29:41 2022, MaxMem= 26843545600 cpu:               4.9 elap:               0.2
 (Enter /data0/home/wuhanyu/software/g16/l303.exe)
 DipDrv:  MaxL=1.
 Leave Link  303 at Wed May 18 09:29:41 2022, MaxMem= 26843545600 cpu:               0.6 elap:               0.0
 (Enter /data0/home/wuhanyu/software/g16/l401.exe)
 ExpMin= 1.03D-01 ExpMax= 8.59D+03 ExpMxC= 1.30D+03 IAcc=3 IRadAn=         5 AccDes= 0.00D+00
 Harris functional with IExCor=  402 and IRadAn=       5 diagonalized for initial guess.
 HarFok:  IExCor=  402 AccDes= 0.00D+00 IRadAn=         5 IDoV= 1 UseB2=F ITyADJ=14
 ICtDFT=  3500011 ScaDFX=  1.000000  1.000000  1.000000  1.000000
 FoFCou: FMM=F IPFlag=           0 FMFlag=      100000 FMFlg1=           0
         NFxFlg=           0 DoJE=T BraDBF=F KetDBF=T FulRan=T
         wScrn=  0.000000 ICntrl=       500 IOpCl=  0 I1Cent=   200000004 NGrid=           0
         NMat0=    1 NMatS0=      1 NMatT0=    0 NMatD0=    1 NMtDS0=    0 NMtDT0=    0
 Petite list used in FoFCou.
 Harris En= -481.222677163518    
 JPrj=0 DoOrth=F DoCkMO=F.
 Leave Link  401 at Wed May 18 09:29:41 2022, MaxMem= 26843545600 cpu:              17.2 elap:               0.8
 (Enter /data0/home/wuhanyu/software/g16/l502.exe)
 Integral symmetry usage will be decided dynamically.
 Closed shell SCF:
 Using DIIS extrapolation, IDIIS=  1040.
 NGot= 26843545600 LenX= 26843379633 LenY= 26843300792
 Requested convergence on RMS density matrix=1.00D-08 within 128 cycles.
 Requested convergence on MAX density matrix=1.00D-06.
 Requested convergence on             energy=1.00D-06.
 No special actions if energy rises.
 Fock matrices will be formed incrementally for  20 cycles.
 Integral accuracy reduced to 1.0D-05 until final iterations.

 Cycle   1  Pass 0  IDiag  1:
 FoFJK:  IHMeth= 1 ICntrl=       0 DoSepK=F KAlg= 0 I1Cent=           0 FoldK=F
 IRaf= 900000000 NMat=       1 IRICut=       1 DoRegI=T DoRafI=F ISym2E= 0 IDoP0=0 IntGTp=1.
 FoFCou: FMM=F IPFlag=           0 FMFlag=      100000 FMFlg1=           0
         NFxFlg=           0 DoJE=F BraDBF=F KetDBF=F FulRan=T
         wScrn=  0.000000 ICntrl=         0 IOpCl=  0 I1Cent=           0 NGrid=           0
         NMat0=    1 NMatS0=      1 NMatT0=    0 NMatD0=    1 NMtDS0=    0 NMtDT0=    0
 Symmetry not used in FoFCou.
 E= -480.661153002517    
 DIIS: error= 6.74D-02 at cycle   1 NSaved=   1.
 NSaved= 1 IEnMin= 1 EnMin= -480.661153002517     IErMin= 1 ErrMin= 6.74D-02
 ErrMax= 6.74D-02  0.00D+00 EMaxC= 1.00D-01 BMatC= 4.96D-01 BMatP= 4.96D-01
 IDIUse=3 WtCom= 3.26D-01 WtEn= 6.74D-01
 Coeff-Com:  0.100D+01
 Coeff-En:   0.100D+01
 Coeff:      0.100D+01
 Gap=     0.204 Goal=   None    Shift=    0.000
 GapD=    0.204 DampG=1.000 DampE=0.500 DampFc=0.5000 IDamp=-1.
 Damping current iteration by 5.00D-01
 RMSDP=3.90D-02 MaxDP=3.68D+00              OVMax= 9.93D-01

 Cycle   2  Pass 0  IDiag  1:
 RMSU=  1.95D-02    CP:  9.90D-01
 E= -478.641083745961     Delta-E=        2.020069256556 Rises=F Damp=T
 DIIS: error= 4.96D-02 at cycle   2 NSaved=   2.
 NSaved= 2 IEnMin= 1 EnMin= -480.661153002517     IErMin= 2 ErrMin= 4.96D-02
 ErrMax= 4.96D-02  0.00D+00 EMaxC= 1.00D-01 BMatC= 5.50D-01 BMatP= 4.96D-01
 IDIUse=2 WtCom= 0.00D+00 WtEn= 1.00D+00
 Coeff-En:   0.883D+00 0.117D+00
 Coeff:      0.883D+00 0.117D+00
 Gap=    -0.004 Goal=   None    Shift=    0.000
 RMSDP=1.95D-02 MaxDP=1.80D+00 DE= 2.02D+00 OVMax= 1.00D+00

 Cycle   3  Pass 0  IDiag  1:
 RMSU=  4.02D-03    CP:  9.86D-01  1.99D-02
 E= -480.703090371999     Delta-E=       -2.062006626038 Rises=F Damp=F
 DIIS: error= 5.48D-02 at cycle   3 NSaved=   3.
 NSaved= 3 IEnMin= 3 EnMin= -480.703090371999     IErMin= 2 ErrMin= 4.96D-02
 ErrMax= 5.48D-02  0.00D+00 EMaxC= 1.00D-01 BMatC= 4.61D-01 BMatP= 4.96D-01
 IDIUse=3 WtCom= 4.52D-01 WtEn= 5.48D-01
 Coeff-Com:  0.474D+00 0.711D-01 0.455D+00
 Coeff-En:   0.474D+00 0.000D+00 0.526D+00
 Coeff:      0.474D+00 0.321D-01 0.494D+00
 Gap=     0.096 Goal=   None    Shift=    0.000
 RMSDP=2.01D-03 MaxDP=1.30D-01 DE=-2.06D+00 OVMax= 1.31D-01

 Cycle   4  Pass 0  IDiag  1:
 RMSU=  9.23D-04    CP:  9.94D-01  1.45D-02  5.59D-01
 E= -481.053801991052     Delta-E=       -0.350711619053 Rises=F Damp=F
 DIIS: error= 9.35D-03 at cycle   4 NSaved=   4.
 NSaved= 4 IEnMin= 4 EnMin= -481.053801991052     IErMin= 4 ErrMin= 9.35D-03
 ErrMax= 9.35D-03  0.00D+00 EMaxC= 1.00D-01 BMatC= 1.58D-02 BMatP= 4.61D-01
 IDIUse=3 WtCom= 9.07D-01 WtEn= 9.35D-02
 Coeff-Com:  0.142D+00 0.172D-01 0.211D+00 0.629D+00
 Coeff-En:   0.000D+00 0.000D+00 0.000D+00 0.100D+01
 Coeff:      0.129D+00 0.156D-01 0.192D+00 0.664D+00
 Gap=     0.113 Goal=   None    Shift=    0.000
 RMSDP=4.03D-04 MaxDP=3.04D-02 DE=-3.51D-01 OVMax= 4.32D-02

 Cycle   5  Pass 0  IDiag  1:
 RMSU=  3.15D-04    CP:  9.96D-01  1.37D-02  5.53D-01  7.31D-01
 E= -481.063394112610     Delta-E=       -0.009592121558 Rises=F Damp=F
 DIIS: error= 4.11D-03 at cycle   5 NSaved=   5.
 NSaved= 5 IEnMin= 5 EnMin= -481.063394112610     IErMin= 5 ErrMin= 4.11D-03
 ErrMax= 4.11D-03  0.00D+00 EMaxC= 1.00D-01 BMatC= 3.05D-03 BMatP= 1.58D-02
 IDIUse=3 WtCom= 9.59D-01 WtEn= 4.11D-02
 Coeff-Com:  0.162D-01 0.435D-02 0.467D-01 0.364D+00 0.569D+00
 Coeff-En:   0.000D+00 0.000D+00 0.000D+00 0.170D+00 0.830D+00
 Coeff:      0.156D-01 0.417D-02 0.448D-01 0.356D+00 0.580D+00
 Gap=     0.103 Goal=   None    Shift=    0.000
 RMSDP=1.87D-04 MaxDP=9.32D-03 DE=-9.59D-03 OVMax= 1.30D-02

 Cycle   6  Pass 0  IDiag  1:
 RMSU=  8.36D-05    CP:  9.94D-01  1.38D-02  5.72D-01  8.25D-01  6.16D-01
 E= -481.066039879121     Delta-E=       -0.002645766511 Rises=F Damp=F
 DIIS: error= 7.08D-04 at cycle   6 NSaved=   6.
 NSaved= 6 IEnMin= 6 EnMin= -481.066039879121     IErMin= 6 ErrMin= 7.08D-04
 ErrMax= 7.08D-04  0.00D+00 EMaxC= 1.00D-01 BMatC= 1.07D-04 BMatP= 3.05D-03
 IDIUse=3 WtCom= 9.93D-01 WtEn= 7.08D-03
 Coeff-Com: -0.300D-02 0.460D-02 0.432D-02 0.110D+00 0.249D+00 0.634D+00
 Coeff-En:   0.000D+00 0.000D+00 0.000D+00 0.000D+00 0.000D+00 0.100D+01
 Coeff:     -0.298D-02 0.457D-02 0.429D-02 0.110D+00 0.247D+00 0.637D+00
 Gap=     0.105 Goal=   None    Shift=    0.000
 RMSDP=3.43D-05 MaxDP=1.79D-03 DE=-2.65D-03 OVMax= 2.17D-03

 Cycle   7  Pass 0  IDiag  1:
 RMSU=  2.29D-05    CP:  9.95D-01  1.37D-02  5.69D-01  8.20D-01  6.57D-01
                    CP:  7.72D-01
 E= -481.066107148377     Delta-E=       -0.000067269256 Rises=F Damp=F
 DIIS: error= 3.12D-04 at cycle   7 NSaved=   7.
 NSaved= 7 IEnMin= 7 EnMin= -481.066107148377     IErMin= 7 ErrMin= 3.12D-04
 ErrMax= 3.12D-04  0.00D+00 EMaxC= 1.00D-01 BMatC= 2.27D-05 BMatP= 1.07D-04
 IDIUse=3 WtCom= 9.97D-01 WtEn= 3.12D-03
 Coeff-Com: -0.345D-02 0.441D-02-0.722D-03 0.383D-01 0.965D-01 0.314D+00
 Coeff-Com:  0.551D+00
 Coeff-En:   0.000D+00 0.000D+00 0.000D+00 0.000D+00 0.000D+00 0.000D+00
 Coeff-En:   0.100D+01
 Coeff:     -0.344D-02 0.440D-02-0.720D-03 0.382D-01 0.962D-01 0.313D+00
 Coeff:      0.552D+00
 Gap=     0.105 Goal=   None    Shift=    0.000
 RMSDP=1.25D-05 MaxDP=4.01D-04 DE=-6.73D-05 OVMax= 6.78D-04

 Cycle   8  Pass 0  IDiag  1:
 RMSU=  7.82D-06    CP:  9.95D-01  1.38D-02  5.69D-01  8.23D-01  6.58D-01
                    CP:  7.88D-01  5.98D-01
 E= -481.066116353960     Delta-E=       -0.000009205583 Rises=F Damp=F
 DIIS: error= 5.14D-04 at cycle   8 NSaved=   8.
 NSaved= 8 IEnMin= 8 EnMin= -481.066116353960     IErMin= 7 ErrMin= 3.12D-04
 ErrMax= 5.14D-04  0.00D+00 EMaxC= 1.00D-01 BMatC= 1.64D-05 BMatP= 2.27D-05
 IDIUse=3 WtCom= 9.97D-01 WtEn= 3.12D-03
 Coeff-Com: -0.293D-02 0.393D-02-0.126D-02 0.752D-02 0.152D-01 0.351D-01
 Coeff-Com:  0.333D+00 0.609D+00
 Coeff-En:   0.000D+00 0.000D+00 0.000D+00 0.000D+00 0.000D+00 0.000D+00
 Coeff-En:   0.133D-01 0.987D+00
 Coeff:     -0.293D-02 0.392D-02-0.126D-02 0.749D-02 0.152D-01 0.350D-01
 Coeff:      0.332D+00 0.611D+00
 Gap=     0.105 Goal=   None    Shift=    0.000
 RMSDP=5.53D-06 MaxDP=1.86D-04 DE=-9.21D-06 OVMax= 4.81D-04

 Initial convergence to 1.0D-05 achieved.  Increase integral accuracy.
 Cycle   9  Pass 1  IDiag  1:
 E= -481.066122395793     Delta-E=       -0.000006041833 Rises=F Damp=F
 DIIS: error= 4.30D-04 at cycle   1 NSaved=   1.
 NSaved= 1 IEnMin= 1 EnMin= -481.066122395793     IErMin= 1 ErrMin= 4.30D-04
 ErrMax= 4.30D-04  0.00D+00 EMaxC= 1.00D-01 BMatC= 1.17D-05 BMatP= 1.17D-05
 IDIUse=3 WtCom= 9.96D-01 WtEn= 4.30D-03
 Coeff-Com:  0.100D+01
 Coeff-En:   0.100D+01
 Coeff:      0.100D+01
 Gap=     0.100 Goal=   None    Shift=    0.000
 RMSDP=5.53D-06 MaxDP=1.86D-04 DE=-6.04D-06 OVMax= 3.83D-03

 Cycle  10  Pass 1  IDiag  1:
 RMSU=  5.42D-05    CP:  1.00D+00
 E= -481.066113351812     Delta-E=        0.000009043981 Rises=F Damp=F
 DIIS: error= 7.27D-04 at cycle   2 NSaved=   2.
 NSaved= 2 IEnMin= 1 EnMin= -481.066122395793     IErMin= 1 ErrMin= 4.30D-04
 ErrMax= 7.27D-04  0.00D+00 EMaxC= 1.00D-01 BMatC= 3.06D-05 BMatP= 1.17D-05
 IDIUse=3 WtCom= 2.71D-01 WtEn= 7.29D-01
 Coeff-Com:  0.622D+00 0.378D+00
 Coeff-En:   0.618D+00 0.382D+00
 Coeff:      0.619D+00 0.381D+00
 Gap=     0.102 Goal=   None    Shift=    0.000
 RMSDP=2.26D-05 MaxDP=1.04D-03 DE= 9.04D-06 OVMax= 1.55D-03

 Cycle  11  Pass 1  IDiag  1:
 RMSU=  7.44D-06    CP:  1.00D+00  6.17D-01
 E= -481.066135660374     Delta-E=       -0.000022308562 Rises=F Damp=F
 DIIS: error= 4.69D-05 at cycle   3 NSaved=   3.
 NSaved= 3 IEnMin= 3 EnMin= -481.066135660374     IErMin= 3 ErrMin= 4.69D-05
 ErrMax= 4.69D-05  0.00D+00 EMaxC= 1.00D-01 BMatC= 5.85D-07 BMatP= 1.17D-05
 IDIUse=1 WtCom= 1.00D+00 WtEn= 0.00D+00
 Coeff-Com:  0.302D+00 0.184D+00 0.513D+00
 Coeff:      0.302D+00 0.184D+00 0.513D+00
 Gap=     0.102 Goal=   None    Shift=    0.000
 RMSDP=3.62D-06 MaxDP=1.61D-04 DE=-2.23D-05 OVMax= 2.79D-04

 Cycle  12  Pass 1  IDiag  1:
 RMSU=  2.44D-06    CP:  1.00D+00  5.81D-01  7.55D-01
 E= -481.066136104451     Delta-E=       -0.000000444077 Rises=F Damp=F
 DIIS: error= 3.64D-05 at cycle   4 NSaved=   4.
 NSaved= 4 IEnMin= 4 EnMin= -481.066136104451     IErMin= 4 ErrMin= 3.64D-05
 ErrMax= 3.64D-05  0.00D+00 EMaxC= 1.00D-01 BMatC= 1.39D-07 BMatP= 5.85D-07
 IDIUse=1 WtCom= 1.00D+00 WtEn= 0.00D+00
 Coeff-Com:  0.945D-01 0.404D-01 0.304D+00 0.561D+00
 Coeff:      0.945D-01 0.404D-01 0.304D+00 0.561D+00
 Gap=     0.102 Goal=   None    Shift=    0.000
 RMSDP=1.43D-06 MaxDP=3.58D-05 DE=-4.44D-07 OVMax= 1.82D-04

 Cycle  13  Pass 1  IDiag  1:
 RMSU=  9.75D-07    CP:  1.00D+00  5.73D-01  8.16D-01  6.52D-01
 E= -481.066136182634     Delta-E=       -0.000000078182 Rises=F Damp=F
 DIIS: error= 1.82D-05 at cycle   5 NSaved=   5.
 NSaved= 5 IEnMin= 5 EnMin= -481.066136182634     IErMin= 5 ErrMin= 1.82D-05
 ErrMax= 1.82D-05  0.00D+00 EMaxC= 1.00D-01 BMatC= 3.54D-08 BMatP= 1.39D-07
 IDIUse=1 WtCom= 1.00D+00 WtEn= 0.00D+00
 Coeff-Com:  0.323D-01 0.487D-02 0.155D+00 0.403D+00 0.405D+00
 Coeff:      0.323D-01 0.487D-02 0.155D+00 0.403D+00 0.405D+00
 Gap=     0.102 Goal=   None    Shift=    0.000
 RMSDP=5.50D-07 MaxDP=1.63D-05 DE=-7.82D-08 OVMax= 6.50D-05

 Cycle  14  Pass 1  IDiag  1:
 RMSU=  3.11D-07    CP:  1.00D+00  5.72D-01  8.09D-01  7.43D-01  6.10D-01
 E= -481.066136208913     Delta-E=       -0.000000026279 Rises=F Damp=F
 DIIS: error= 1.43D-06 at cycle   6 NSaved=   6.
 NSaved= 6 IEnMin= 6 EnMin= -481.066136208913     IErMin= 6 ErrMin= 1.43D-06
 ErrMax= 1.43D-06  0.00D+00 EMaxC= 1.00D-01 BMatC= 4.48D-10 BMatP= 3.54D-08
 IDIUse=1 WtCom= 1.00D+00 WtEn= 0.00D+00
 Coeff-Com:  0.485D-02-0.907D-03 0.300D-01 0.924D-01 0.144D+00 0.730D+00
 Coeff:      0.485D-02-0.907D-03 0.300D-01 0.924D-01 0.144D+00 0.730D+00
 Gap=     0.102 Goal=   None    Shift=    0.000
 RMSDP=9.46D-08 MaxDP=2.70D-06 DE=-2.63D-08 OVMax= 5.56D-06

 Cycle  15  Pass 1  IDiag  1:
 RMSU=  7.82D-08    CP:  1.00D+00  5.71D-01  8.10D-01  7.42D-01  6.50D-01
                    CP:  9.73D-01
 E= -481.066136209160     Delta-E=       -0.000000000247 Rises=F Damp=F
 DIIS: error= 9.40D-07 at cycle   7 NSaved=   7.
 NSaved= 7 IEnMin= 7 EnMin= -481.066136209160     IErMin= 7 ErrMin= 9.40D-07
 ErrMax= 9.40D-07  0.00D+00 EMaxC= 1.00D-01 BMatC= 1.47D-10 BMatP= 4.48D-10
 IDIUse=1 WtCom= 1.00D+00 WtEn= 0.00D+00
 Coeff-Com: -0.668D-04-0.631D-03 0.167D-02 0.112D-01 0.405D-01 0.414D+00
 Coeff-Com:  0.533D+00
 Coeff:     -0.668D-04-0.631D-03 0.167D-02 0.112D-01 0.405D-01 0.414D+00
 Coeff:      0.533D+00
 Gap=     0.102 Goal=   None    Shift=    0.000
 RMSDP=4.44D-08 MaxDP=1.68D-06 DE=-2.47D-10 OVMax= 2.82D-06

 Cycle  16  Pass 1  IDiag  1:
 RMSU=  2.66D-08    CP:  1.00D+00  5.71D-01  8.11D-01  7.44D-01  6.54D-01
                    CP:  1.00D+00  6.43D-01
 E= -481.066136209284     Delta-E=       -0.000000000124 Rises=F Damp=F
 DIIS: error= 2.79D-07 at cycle   8 NSaved=   8.
 NSaved= 8 IEnMin= 8 EnMin= -481.066136209284     IErMin= 8 ErrMin= 2.79D-07
 ErrMax= 2.79D-07  0.00D+00 EMaxC= 1.00D-01 BMatC= 1.03D-11 BMatP= 1.47D-10
 IDIUse=1 WtCom= 1.00D+00 WtEn= 0.00D+00
 Coeff-Com: -0.397D-03-0.999D-04-0.190D-02-0.354D-02 0.477D-02 0.120D+00
 Coeff-Com:  0.265D+00 0.616D+00
 Coeff:     -0.397D-03-0.999D-04-0.190D-02-0.354D-02 0.477D-02 0.120D+00
 Coeff:      0.265D+00 0.616D+00
 Gap=     0.102 Goal=   None    Shift=    0.000
 RMSDP=1.17D-08 MaxDP=5.31D-07 DE=-1.24D-10 OVMax= 6.23D-07

 Cycle  17  Pass 1  IDiag  1:
 RMSU=  7.11D-09    CP:  1.00D+00  5.71D-01  8.10D-01  7.44D-01  6.58D-01
                    CP:  1.01D+00  6.79D-01  8.09D-01
 E= -481.066136209299     Delta-E=       -0.000000000015 Rises=F Damp=F
 DIIS: error= 9.90D-08 at cycle   9 NSaved=   9.
 NSaved= 9 IEnMin= 9 EnMin= -481.066136209299     IErMin= 9 ErrMin= 9.90D-08
 ErrMax= 9.90D-08  0.00D+00 EMaxC= 1.00D-01 BMatC= 1.15D-12 BMatP= 1.03D-11
 IDIUse=1 WtCom= 1.00D+00 WtEn= 0.00D+00
 Coeff-Com: -0.202D-03-0.184D-04-0.102D-02-0.237D-02-0.641D-03 0.264D-01
 Coeff-Com:  0.958D-01 0.325D+00 0.557D+00
 Coeff:     -0.202D-03-0.184D-04-0.102D-02-0.237D-02-0.641D-03 0.264D-01
 Coeff:      0.958D-01 0.325D+00 0.557D+00
 Gap=     0.102 Goal=   None    Shift=    0.000
 RMSDP=3.06D-09 MaxDP=1.63D-07 DE=-1.50D-11 OVMax= 2.42D-07

 SCF Done:  E(RB3LYP) =  -481.066136209     A.U. after   17 cycles
            NFock= 17  Conv=0.31D-08     -V/T= 2.0040
 KE= 4.791558044846D+02 PE=-2.246742144287D+03 EE= 7.242666548612D+02
 Leave Link  502 at Wed May 18 09:29:57 2022, MaxMem= 26843545600 cpu:             341.9 elap:              15.6
 (Enter /data0/home/wuhanyu/software/g16/l601.exe)
 Copying SCF densities to generalized density rwf, IOpCl= 0 IROHF=0.

 **********************************************************************

            Population analysis using the SCF density.

 **********************************************************************

 Orbital symmetries:
       Occupied  (A) (A) (A) (A) (A) (A) (A) (A) (A) (A) (A) (A)
                 (A) (A) (A) (A) (A) (A) (A) (A) (A) (A) (A) (A)
                 (A) (A) (A) (A) (A) (A) (A) (A) (A) (A) (A) (A)
                 (A) (A) (A) (A)
       Virtual   (A) (A) (A) (A) (A) (A) (A) (A) (A) (A) (A) (A)
                 (A) (A) (A) (A) (A) (A) (A) (A) (A) (A) (A) (A)
                 (A) (A) (A) (A) (A) (A) (A) (A) (A) (A) (A) (A)
                 (A) (A) (A) (A) (A) (A) (A) (A) (A) (A) (A) (A)
                 (A) (A) (A) (A) (A) (A) (A) (A) (A) (A) (A) (A)
                 (A) (A) (A) (A) (A) (A) (A) (A) (A) (A) (A) (A)
                 (A) (A) (A) (A) (A) (A) (A) (A) (A) (A) (A) (A)
                 (A) (A) (A) (A) (A) (A) (A) (A) (A) (A) (A) (A)
                 (A) (A) (A) (A) (A) (A) (A) (A) (A) (A) (A) (A)
                 (A) (A) (A) (A) (A) (A) (A) (A) (A) (A) (A) (A)
                 (A) (A) (A) (A) (A) (A) (A) (A) (A) (A) (A) (A)
                 (A) (A) (A) (A) (A) (A) (A) (A) (A) (A) (A) (A)
                 (A) (A) (A) (A) (A) (A) (A) (A) (A) (A) (A) (A)
                 (A) (A) (A) (A) (A) (A) (A) (A) (A) (A) (A) (A)
                 (A) (A) (A) (A) (A) (A) (A) (A) (A) (A) (A) (A)
                 (A) (A) (A) (A) (A) (A) (A) (A) (A) (A) (A) (A)
                 (A) (A) (A) (A) (A) (A) (A) (A) (A) (A) (A) (A)
                 (A) (A) (A) (A) (A) (A) (A) (A) (A) (A) (A) (A)
                 (A) (A) (A) (A) (A) (A) (A) (A) (A) (A) (A) (A)
                 (A) (A)
 The electronic state is 1-A.
 Alpha  occ. eigenvalues --  -18.96062 -18.96054 -14.50341 -10.29382 -10.28536
 Alpha  occ. eigenvalues --  -10.28512 -10.26612 -10.17869 -10.16710 -10.12334
 Alpha  occ. eigenvalues --   -1.08072  -0.92605  -0.84514  -0.82897  -0.81983
 Alpha  occ. eigenvalues --   -0.81712  -0.73928  -0.68024  -0.60884  -0.58985
 Alpha  occ. eigenvalues --   -0.58623  -0.56750  -0.52255  -0.50988  -0.48241
 Alpha  occ. eigenvalues --   -0.47577  -0.47486  -0.47145  -0.46610  -0.44017
 Alpha  occ. eigenvalues --   -0.40922  -0.39541  -0.35858  -0.33785  -0.32934
 Alpha  occ. eigenvalues --   -0.29783  -0.28180  -0.15694  -0.14232  -0.14146
 Alpha virt. eigenvalues --   -0.03941   0.00186   0.00866   0.01189   0.01906
 Alpha virt. eigenvalues --    0.02593   0.03053   0.05320   0.06332   0.06924
 Alpha virt. eigenvalues --    0.08626   0.09220   0.09607   0.09887   0.11309
 Alpha virt. eigenvalues --    0.11429   0.12508   0.14792   0.15153   0.17456
 Alpha virt. eigenvalues --    0.18934   0.21616   0.21768   0.23193   0.26583
 Alpha virt. eigenvalues --    0.27552   0.29931   0.31221   0.32401   0.34004
 Alpha virt. eigenvalues --    0.35983   0.36460   0.37189   0.37442   0.39746
 Alpha virt. eigenvalues --    0.41491   0.43310   0.44768   0.45336   0.47425
 Alpha virt. eigenvalues --    0.48061   0.50817   0.52587   0.52722   0.52866
 Alpha virt. eigenvalues --    0.53156   0.54554   0.55165   0.56406   0.56482
 Alpha virt. eigenvalues --    0.57165   0.57346   0.58623   0.59426   0.59490
 Alpha virt. eigenvalues --    0.60882   0.61063   0.61556   0.62606   0.66230
 Alpha virt. eigenvalues --    0.67585   0.70892   0.72175   0.74029   0.78504
 Alpha virt. eigenvalues --    0.85227   0.87771   0.88588   0.90984   0.91983
 Alpha virt. eigenvalues --    0.93275   0.95055   0.96293   0.97256   0.98402
 Alpha virt. eigenvalues --    1.04238   1.05669   1.07041   1.08370   1.10086
 Alpha virt. eigenvalues --    1.11153   1.15005   1.16435   1.19178   1.28179
 Alpha virt. eigenvalues --    1.31194   1.31209   1.32016   1.33926   1.35334
 Alpha virt. eigenvalues --    1.35450   1.36549   1.37593   1.37994   1.40065
 Alpha virt. eigenvalues --    1.41233   1.42502   1.43441   1.45201   1.46171
 Alpha virt. eigenvalues --    1.46344   1.49641   1.50454   1.52647   1.56114
 Alpha virt. eigenvalues --    1.56288   1.56536   1.58821   1.59221   1.60578
 Alpha virt. eigenvalues --    1.61197   1.63722   1.63903   1.65560   1.68325
 Alpha virt. eigenvalues --    1.69370   1.69868   1.71384   1.71564   1.73171
 Alpha virt. eigenvalues --    1.75918   1.77111   1.82972   1.83256   1.86362
 Alpha virt. eigenvalues --    1.87248   1.87927   1.91056   1.92675   1.95385
 Alpha virt. eigenvalues --    1.96901   1.97271   2.01431   2.02801   2.03501
 Alpha virt. eigenvalues --    2.05746   2.08672   2.09310   2.10214   2.11758
 Alpha virt. eigenvalues --    2.16886   2.19659   2.24545   2.24636   2.28277
 Alpha virt. eigenvalues --    2.28607   2.29505   2.33012   2.36903   2.37192
 Alpha virt. eigenvalues --    2.40747   2.40818   2.41405   2.43421   2.43680
 Alpha virt. eigenvalues --    2.44640   2.46579   2.48143   2.50216   2.50773
 Alpha virt. eigenvalues --    2.52090   2.53513   2.56385   2.57362   2.58329
 Alpha virt. eigenvalues --    2.60867   2.62936   2.63346   2.65164   2.68577
 Alpha virt. eigenvalues --    2.69041   2.71360   2.72079   2.73599   2.75617
 Alpha virt. eigenvalues --    2.79280   2.82005   2.87543   2.91017   2.92941
 Alpha virt. eigenvalues --    2.96891   3.00881   3.03294   3.03910   3.07931
 Alpha virt. eigenvalues --    3.10661   3.15084   3.27462   3.31102   3.36990
 Alpha virt. eigenvalues --    3.40656   3.44848   3.46954   3.52034   3.52339
 Alpha virt. eigenvalues --    3.56271   3.56578   3.67540   3.68636   3.68705
 Alpha virt. eigenvalues --    3.71968   3.72044   3.72457   3.74042   3.75563
 Alpha virt. eigenvalues --    3.83772   3.88953   4.00736   4.09312   4.18702
 Alpha virt. eigenvalues --    4.24197   4.60864   4.64723   4.64907   5.01460
 Alpha virt. eigenvalues --    5.05644   5.07101   5.13691   5.55696   5.85829
 Alpha virt. eigenvalues --   23.75536  23.80428  23.82459  23.82681  23.85942
 Alpha virt. eigenvalues --   23.88117  23.92115  35.32547  50.04614  50.11800
          Condensed to atoms (all electrons):
               1          2          3          4          5          6
     1  C    4.908583   0.400533   0.404822   0.404847  -0.063112  -0.006972
     2  H    0.400533   0.514865  -0.022188  -0.022207  -0.006058   0.004327
     3  H    0.404822  -0.022188   0.498076  -0.019813  -0.005339  -0.001098
     4  H    0.404847  -0.022207  -0.019813   0.497935   0.007196   0.000111
     5  C   -0.063112  -0.006058  -0.005339   0.007196   4.927063   0.401914
     6  H   -0.006972   0.004327  -0.001098   0.000111   0.401914   0.520217
     7  H    0.005689   0.000068   0.000003  -0.000341   0.409138  -0.020165
     8  H   -0.004299  -0.000875   0.003638   0.000004   0.402013  -0.022679
     9  C   -0.063017  -0.006074   0.007206  -0.005298  -0.065546  -0.005573
    10  H   -0.004311  -0.000866   0.000001   0.003629   0.006564  -0.000006
    11  H    0.005657   0.000069  -0.000336   0.000009  -0.005072  -0.001146
    12  H   -0.006976   0.004317   0.000118  -0.001107  -0.005584   0.003225
    13  C   -0.060817   0.005700  -0.004281  -0.004255  -0.062097   0.005795
    14  H   -0.006993   0.000226   0.004541  -0.001237  -0.010181  -0.000112
    15  H   -0.006908   0.000234  -0.001247   0.004507   0.007954  -0.000276
    16  C    0.006302  -0.000354   0.000131   0.000119  -0.005317   0.000304
    17  H   -0.000384   0.000044  -0.000046   0.000055  -0.001326  -0.000019
    18  H   -0.000403   0.000047   0.000053  -0.000037   0.000842   0.000472
    19  C   -0.000319   0.000024  -0.000058  -0.000058  -0.000261   0.000009
    20  H   -0.000044   0.000005  -0.000033   0.000002  -0.000151  -0.000000
    21  H   -0.000046   0.000005   0.000003  -0.000033  -0.000007   0.000007
    22  N    0.266363  -0.021716  -0.023169  -0.023171   0.254695  -0.023392
    23  C    0.000001  -0.000000  -0.000001  -0.000001  -0.000038   0.000001
    24  O   -0.000000   0.000000  -0.000000   0.000000   0.000001   0.000000
    25  O   -0.000000   0.000000   0.000000  -0.000000  -0.000008   0.000000
               7          8          9         10         11         12
     1  C    0.005689  -0.004299  -0.063017  -0.004311   0.005657  -0.006976
     2  H    0.000068  -0.000875  -0.006074  -0.000866   0.000069   0.004317
     3  H    0.000003   0.003638   0.007206   0.000001  -0.000336   0.000118
     4  H   -0.000341   0.000004  -0.005298   0.003629   0.000009  -0.001107
     5  C    0.409138   0.402013  -0.065546   0.006564  -0.005072  -0.005584
     6  H   -0.020165  -0.022679  -0.005573  -0.000006  -0.001146   0.003225
     7  H    0.465354  -0.017304  -0.005088   0.000322   0.001073  -0.001138
     8  H   -0.017304   0.494624   0.006588  -0.000436   0.000333  -0.000009
     9  C   -0.005088   0.006588   4.927595   0.402058   0.409157   0.401773
    10  H    0.000322  -0.000436   0.402058   0.494032  -0.017214  -0.022649
    11  H    0.001073   0.000333   0.409157  -0.017214   0.465021  -0.020129
    12  H   -0.001138  -0.000009   0.401773  -0.022649  -0.020129   0.520520
    13  C   -0.006768  -0.003624  -0.062300  -0.003600  -0.006911   0.005792
    14  H   -0.000973   0.003396   0.007969   0.000242   0.000472  -0.000277
    15  H    0.000479   0.000222  -0.010318   0.003386  -0.000988  -0.000103
    16  C    0.006377  -0.001582  -0.004441  -0.001663   0.007190   0.000335
    17  H    0.002370  -0.000090   0.000461   0.000390  -0.004632   0.000458
    18  H   -0.004095   0.000345  -0.001291  -0.000074   0.002187  -0.000020
    19  C   -0.000341  -0.000053  -0.000241  -0.000045  -0.000256   0.000009
    20  H    0.000072  -0.000050  -0.000006   0.000000  -0.000063   0.000007
    21  H   -0.000072   0.000001  -0.000154  -0.000048   0.000079  -0.000000
    22  N   -0.021056  -0.022252   0.254005  -0.022208  -0.021249  -0.023447
    23  C   -0.000014  -0.000006  -0.000043  -0.000006   0.000005   0.000001
    24  O    0.000047  -0.000000  -0.000013   0.000002  -0.000349   0.000000
    25  O   -0.000268   0.000001   0.000000  -0.000000   0.000036   0.000000
              13         14         15         16         17         18
     1  C   -0.060817  -0.006993  -0.006908   0.006302  -0.000384  -0.000403
     2  H    0.005700   0.000226   0.000234  -0.000354   0.000044   0.000047
     3  H   -0.004281   0.004541  -0.001247   0.000131  -0.000046   0.000053
     4  H   -0.004255  -0.001237   0.004507   0.000119   0.000055  -0.000037
     5  C   -0.062097  -0.010181   0.007954  -0.005317  -0.001326   0.000842
     6  H    0.005795  -0.000112  -0.000276   0.000304  -0.000019   0.000472
     7  H   -0.006768  -0.000973   0.000479   0.006377   0.002370  -0.004095
     8  H   -0.003624   0.003396   0.000222  -0.001582  -0.000090   0.000345
     9  C   -0.062300   0.007969  -0.010318  -0.004441   0.000461  -0.001291
    10  H   -0.003600   0.000242   0.003386  -0.001663   0.000390  -0.000074
    11  H   -0.006911   0.000472  -0.000988   0.007190  -0.004632   0.002187
    12  H    0.005792  -0.000277  -0.000103   0.000335   0.000458  -0.000020
    13  C    5.235448   0.398259   0.398815   0.286209  -0.051141  -0.052835
    14  H    0.398259   0.524955  -0.026296  -0.032667   0.006644  -0.004463
    15  H    0.398815  -0.026296   0.524483  -0.033772  -0.004316   0.006761
    16  C    0.286209  -0.032667  -0.033772   5.167967   0.364881   0.368111
    17  H   -0.051141   0.006644  -0.004316   0.364881   0.598064  -0.041556
    18  H   -0.052835  -0.004463   0.006761   0.368111  -0.041556   0.598559
    19  C   -0.045607   0.001847   0.001664   0.341136  -0.041142  -0.038273
    20  H   -0.012300   0.006290  -0.000326  -0.040434   0.014749  -0.006559
    21  H   -0.012920  -0.000370   0.006519  -0.040980  -0.006912   0.014940
    22  N    0.170387  -0.025704  -0.025145  -0.041279  -0.000731  -0.001000
    23  C    0.004562   0.000083   0.000120  -0.040600  -0.000053   0.001169
    24  O   -0.000162   0.000038  -0.000003  -0.018700   0.037729  -0.002492
    25  O   -0.000189  -0.000015   0.000039  -0.017674  -0.001937   0.031914
              19         20         21         22         23         24
     1  C   -0.000319  -0.000044  -0.000046   0.266363   0.000001  -0.000000
     2  H    0.000024   0.000005   0.000005  -0.021716  -0.000000   0.000000
     3  H   -0.000058  -0.000033   0.000003  -0.023169  -0.000001  -0.000000
     4  H   -0.000058   0.000002  -0.000033  -0.023171  -0.000001   0.000000
     5  C   -0.000261  -0.000151  -0.000007   0.254695  -0.000038   0.000001
     6  H    0.000009  -0.000000   0.000007  -0.023392   0.000001   0.000000
     7  H   -0.000341   0.000072  -0.000072  -0.021056  -0.000014   0.000047
     8  H   -0.000053  -0.000050   0.000001  -0.022252  -0.000006  -0.000000
     9  C   -0.000241  -0.000006  -0.000154   0.254005  -0.000043  -0.000013
    10  H   -0.000045   0.000000  -0.000048  -0.022208  -0.000006   0.000002
    11  H   -0.000256  -0.000063   0.000079  -0.021249   0.000005  -0.000349
    12  H    0.000009   0.000007  -0.000000  -0.023447   0.000001   0.000000
    13  C   -0.045607  -0.012300  -0.012920   0.170387   0.004562  -0.000162
    14  H    0.001847   0.006290  -0.000370  -0.025704   0.000083   0.000038
    15  H    0.001664  -0.000326   0.006519  -0.025145   0.000120  -0.000003
    16  C    0.341136  -0.040434  -0.040980  -0.041279  -0.040600  -0.018700
    17  H   -0.041142   0.014749  -0.006912  -0.000731  -0.000053   0.037729
    18  H   -0.038273  -0.006559   0.014940  -0.001000   0.001169  -0.002492
    19  C    5.401143   0.332028   0.334342   0.004530   0.181269  -0.127299
    20  H    0.332028   0.643440  -0.033304   0.000434  -0.008978   0.008145
    21  H    0.334342  -0.033304   0.643953   0.000445  -0.009658   0.014985
    22  N    0.004530   0.000434   0.000445   6.680453   0.000002   0.000004
    23  C    0.181269  -0.008978  -0.009658   0.000002   4.409787   0.584849
    24  O   -0.127299   0.008145   0.014985   0.000004   0.584849   8.065659
    25  O   -0.125444   0.015633   0.007747   0.000003   0.591506  -0.074937
              25
     1  C   -0.000000
     2  H    0.000000
     3  H    0.000000
     4  H   -0.000000
     5  C   -0.000008
     6  H    0.000000
     7  H   -0.000268
     8  H    0.000001
     9  C    0.000000
    10  H   -0.000000
    11  H    0.000036
    12  H    0.000000
    13  C   -0.000189
    14  H   -0.000015
    15  H    0.000039
    16  C   -0.017674
    17  H   -0.001937
    18  H    0.031914
    19  C   -0.125444
    20  H    0.015633
    21  H    0.007747
    22  N    0.000003
    23  C    0.591506
    24  O   -0.074937
    25  O    8.058222
 Mulliken charges:
               1
     1  C   -0.178198
     2  H    0.149875
     3  H    0.159017
     4  H    0.159143
     5  C   -0.187283
     6  H    0.145056
     7  H    0.186630
     8  H    0.162095
     9  C   -0.187411
    10  H    0.162502
    11  H    0.187056
    12  H    0.144884
    13  C   -0.121161
    14  H    0.154325
    15  H    0.154515
    16  C   -0.269601
    17  H    0.128439
    18  H    0.127696
    19  C   -0.218606
    20  H    0.081442
    21  H    0.081478
    22  N   -0.335801
    23  C    0.286043
    24  O   -0.487503
    25  O   -0.484630
 Sum of Mulliken charges =  -0.00000
 Mulliken charges with hydrogens summed into heavy atoms:
               1
     1  C    0.289836
     5  C    0.306498
     9  C    0.307031
    13  C    0.187679
    16  C   -0.013466
    19  C   -0.055686
    22  N   -0.335801
    23  C    0.286043
    24  O   -0.487503
    25  O   -0.484630
 Electronic spatial extent (au):  <R**2>=           2249.4726
 Charge=             -0.0000 electrons
 Dipole moment (field-independent basis, Debye):
    X=            -21.0678    Y=             -0.1326    Z=              1.2430  Tot=             21.1048
 Quadrupole moment (field-independent basis, Debye-Ang):
   XX=            -87.2070   YY=            -65.4258   ZZ=            -59.1324
   XY=             -0.3783   XZ=              7.5111   YZ=             -0.1393
 Traceless Quadrupole moment (field-independent basis, Debye-Ang):
   XX=            -16.6186   YY=              5.1626   ZZ=             11.4560
   XY=             -0.3783   XZ=              7.5111   YZ=             -0.1393
 Octapole moment (field-independent basis, Debye-Ang**2):
  XXX=           -219.4236  YYY=             -0.4237  ZZZ=             -6.5823  XYY=            -38.4848
  XXY=             -0.3352  XXZ=             24.0179  XZZ=            -14.0244  YZZ=              0.3454
  YYZ=              0.6914  XYZ=             -0.8255
 Hexadecapole moment (field-independent basis, Debye-Ang**3):
 XXXX=          -2582.2349 YYYY=           -330.1929 ZZZZ=           -298.9876 XXXY=              1.8365
 XXXZ=             81.8900 YYYX=             -2.3741 YYYZ=             -0.4385 ZZZX=             -5.1919
 ZZZY=              1.7551 XXYY=           -501.8443 XXZZ=           -407.8178 YYZZ=            -98.2447
 XXYZ=             -3.4583 YYXZ=              9.5987 ZZXY=              1.0529
 N-N= 5.622535487320D+02 E-N=-2.246742139766D+03  KE= 4.791558044846D+02
 No NMR shielding tensors so no spin-rotation constants.
 Leave Link  601 at Wed May 18 09:29:57 2022, MaxMem= 26843545600 cpu:               2.3 elap:               0.1
 (Enter /data0/home/wuhanyu/software/g16/l701.exe)
 ... and contract with generalized density number  0.
 Compute integral first derivatives.
 R6Disp: Adding Grimme-D3(BJ) dispersion energy 1st derivatives to the gradient.
 Leave Link  701 at Wed May 18 09:29:57 2022, MaxMem= 26843545600 cpu:               3.1 elap:               0.2
 (Enter /data0/home/wuhanyu/software/g16/l702.exe)
 L702 exits ... SP integral derivatives will be done elsewhere.
 Leave Link  702 at Wed May 18 09:29:57 2022, MaxMem= 26843545600 cpu:               0.4 elap:               0.0
 (Enter /data0/home/wuhanyu/software/g16/l703.exe)
 Integral derivatives from FoFJK, PRISM(SPDF).
 Compute integral first derivatives, UseDBF=F ICtDFT=           0.
 Calling FoFJK, ICntrl=      2127 FMM=F ISym2X=0 I1Cent= 0 IOpClX= 0 NMat=1 NMatS=1 NMatT=0.
 FoFJK:  IHMeth= 1 ICntrl=    2127 DoSepK=F KAlg= 0 I1Cent=           0 FoldK=F
 IRaf=         0 NMat=       1 IRICut=       1 DoRegI=T DoRafI=F ISym2E= 0 IDoP0=0 IntGTp=1.
 FoFCou: FMM=F IPFlag=           0 FMFlag=      100000 FMFlg1=         800
         NFxFlg=           0 DoJE=F BraDBF=F KetDBF=F FulRan=T
         wScrn=  0.000000 ICntrl=      2127 IOpCl=  0 I1Cent=           0 NGrid=           0
         NMat0=    1 NMatS0=      1 NMatT0=    0 NMatD0=    1 NMtDS0=    0 NMtDT0=    0
 Symmetry not used in FoFCou.
 Leave Link  703 at Wed May 18 09:30:01 2022, MaxMem= 26843545600 cpu:              68.5 elap:               3.1
 (Enter /data0/home/wuhanyu/software/g16/l716.exe)
 Dipole        =-8.28869952D+00-5.21822968D-02 4.89028367D-01
 ***** Axes restored to original set *****
 -------------------------------------------------------------------
 Center     Atomic                   Forces (Hartrees/Bohr)
 Number     Number              X              Y              Z
 -------------------------------------------------------------------
      1        6           0.000064231    0.000010166    0.000128071
      2        1           0.000028347    0.000004200   -0.000002379
      3        1          -0.000003282   -0.000000055    0.000003732
      4        1           0.000001178   -0.000005739    0.000009704
      5        6          -0.000120227   -0.000021516   -0.000026987
      6        1           0.000054370    0.000061622   -0.000062384
      7        1           0.000076529   -0.000064382    0.000064533
      8        1          -0.000102997   -0.000007681    0.000004381
      9        6          -0.000097416    0.000010617   -0.000049562
     10        1          -0.000117088    0.000008910    0.000007774
     11        1           0.000084239    0.000061034    0.000080965
     12        1           0.000059624   -0.000058732   -0.000079663
     13        6          -0.000164027    0.000073977   -0.000393869
     14        1          -0.000012735    0.000030519    0.000077062
     15        1          -0.000006830   -0.000119149    0.000173892
     16        6          -0.000073879    0.000168820    0.000009695
     17        1           0.000028361   -0.000153883   -0.000153782
     18        1           0.000025730    0.000068971   -0.000003209
     19        6           0.001927265    0.000203424   -0.001688102
     20        1           0.000105887    0.000058456   -0.000209108
     21        1           0.000181438   -0.000193195   -0.000003719
     22        7           0.000309579    0.000003706    0.000150384
     23        6           0.006615562    0.000046717   -0.006622489
     24        8          -0.003921350   -0.015868862    0.003485291
     25        8          -0.004942509    0.015682058    0.005099770
 -------------------------------------------------------------------
 Cartesian Forces:  Max     0.015868862 RMS     0.002990299
 Leave Link  716 at Wed May 18 09:30:01 2022, MaxMem= 26843545600 cpu:               0.5 elap:               0.0
 (Enter /data0/home/wuhanyu/software/g16/l103.exe)

 GradGradGradGradGradGradGradGradGradGradGradGradGradGradGradGradGradGrad
 Berny optimization.
 FormGI is forming the generalized inverse of G from B-inverse, IUseBI=4.
 Internal  Forces:  Max     0.017201955 RMS     0.002131352
 Search for a local minimum.
 Step number   1 out of a maximum of  139
 All quantities printed in internal units (Hartrees-Bohrs-Radians)
 RMS Force = .21314D-02 SwitMx=.10000D-02 MixMth= 1
 Mixed Optimization -- RFO/linear search
 Second derivative matrix not updated -- first step.
 ITU=  0
     Eigenvalues ---    0.00230   0.00230   0.00298   0.00377   0.00378
     Eigenvalues ---    0.00379   0.00428   0.00643   0.03504   0.03781
     Eigenvalues ---    0.04677   0.04829   0.04909   0.04919   0.04948
     Eigenvalues ---    0.05101   0.05600   0.05887   0.05895   0.05897
     Eigenvalues ---    0.05953   0.05954   0.05970   0.07810   0.08294
     Eigenvalues ---    0.08673   0.11664   0.12109   0.12382   0.14366
     Eigenvalues ---    0.14507   0.16000   0.16000   0.16000   0.16000
     Eigenvalues ---    0.16000   0.16000   0.16000   0.16000   0.16000
     Eigenvalues ---    0.21877   0.21972   0.22033   0.24104   0.25000
     Eigenvalues ---    0.25000   0.27376   0.29487   0.31419   0.32438
     Eigenvalues ---    0.32455   0.32847   0.34332   0.34342   0.34348
     Eigenvalues ---    0.34357   0.34620   0.34621   0.34869   0.34894
     Eigenvalues ---    0.34895   0.34996   0.35000   0.35003   0.35004
     Eigenvalues ---    0.35331   0.35331   0.80700   0.81004
 RFO step:  Lambda=-8.26591877D-04 EMin= 2.30000000D-03
 Linear search not attempted -- first point.
 Iteration  1 RMS(Cart)=  0.01529908 RMS(Int)=  0.00042502
 Iteration  2 RMS(Cart)=  0.00038540 RMS(Int)=  0.00012423
 Iteration  3 RMS(Cart)=  0.00000014 RMS(Int)=  0.00012423
 ITry= 1 IFail=0 DXMaxC= 1.10D-01 DCOld= 1.00D+10 DXMaxT= 3.00D-01 DXLimC= 3.00D+00 Rises=F
 Variable       Old X    -DE/DX   Delta X   Delta X   Delta X     New X
                                 (Linear)    (Quad)   (Total)
    R1        2.05888  -0.00002   0.00000  -0.00006  -0.00006   2.05882
    R2        2.05669   0.00000   0.00000   0.00000   0.00000   2.05669
    R3        2.05670   0.00000   0.00000   0.00000   0.00000   2.05670
    R4        2.82622   0.00001   0.00000   0.00003   0.00003   2.82624
    R5        2.05848  -0.00001   0.00000  -0.00004  -0.00004   2.05844
    R6        2.05140   0.00002   0.00000   0.00004   0.00004   2.05145
    R7        2.05682   0.00000   0.00000   0.00000   0.00000   2.05682
    R8        2.83319   0.00004   0.00000   0.00013   0.00013   2.83332
    R9        2.05676   0.00000   0.00000   0.00000   0.00000   2.05676
   R10        2.05141   0.00002   0.00000   0.00004   0.00004   2.05145
   R11        2.05846  -0.00001   0.00000  -0.00004  -0.00004   2.05842
   R12        2.83350   0.00004   0.00000   0.00013   0.00013   2.83363
   R13        2.06296   0.00002   0.00000   0.00005   0.00005   2.06301
   R14        2.06294   0.00002   0.00000   0.00005   0.00005   2.06299
   R15        2.85220  -0.00001   0.00000  -0.00003  -0.00003   2.85218
   R16        2.93524  -0.00032   0.00000  -0.00117  -0.00117   2.93407
   R17        2.06746  -0.00005   0.00000  -0.00014  -0.00014   2.06733
   R18        2.06758  -0.00005   0.00000  -0.00014  -0.00014   2.06743
   R19        2.88998   0.00002   0.00000   0.00006   0.00006   2.89004
   R20        2.06733  -0.00016   0.00000  -0.00045  -0.00045   2.06687
   R21        2.06773  -0.00015   0.00000  -0.00044  -0.00044   2.06729
   R22        3.01544  -0.00299   0.00000  -0.01236  -0.01236   3.00308
   R23        2.37540  -0.01669   0.00000  -0.02067  -0.02067   2.35474
   R24        2.37379  -0.01720   0.00000  -0.02121  -0.02121   2.35257
    A1        1.92036   0.00001   0.00000   0.00004   0.00004   1.92040
    A2        1.92030   0.00001   0.00000   0.00005   0.00005   1.92035
    A3        1.90993  -0.00003   0.00000  -0.00020  -0.00020   1.90973
    A4        1.91520  -0.00001   0.00000  -0.00003  -0.00003   1.91518
    A5        1.89894   0.00001   0.00000   0.00007   0.00007   1.89901
    A6        1.89881   0.00001   0.00000   0.00007   0.00007   1.89888
    A7        1.92703   0.00000   0.00000   0.00006   0.00006   1.92710
    A8        1.92487  -0.00000   0.00000  -0.00001  -0.00001   1.92486
    A9        1.89955  -0.00001   0.00000  -0.00003  -0.00003   1.89952
   A10        1.91193  -0.00001   0.00000  -0.00008  -0.00008   1.91185
   A11        1.90377   0.00001   0.00000   0.00004   0.00004   1.90381
   A12        1.89624   0.00001   0.00000   0.00002   0.00002   1.89626
   A13        1.91152  -0.00001   0.00000  -0.00007  -0.00007   1.91145
   A14        1.92509  -0.00000   0.00000  -0.00002  -0.00002   1.92508
   A15        1.89617   0.00001   0.00000   0.00002   0.00002   1.89619
   A16        1.92735   0.00000   0.00000   0.00006   0.00006   1.92740
   A17        1.90389   0.00001   0.00000   0.00004   0.00004   1.90393
   A18        1.89938  -0.00001   0.00000  -0.00004  -0.00004   1.89934
   A19        1.89891  -0.00011   0.00000  -0.00131  -0.00131   1.89759
   A20        1.94625   0.00007   0.00000   0.00028   0.00028   1.94653
   A21        1.83229   0.00009   0.00000   0.00037   0.00037   1.83267
   A22        1.94304   0.00009   0.00000   0.00070   0.00070   1.94374
   A23        1.83129   0.00009   0.00000   0.00069   0.00069   1.83197
   A24        2.00420  -0.00023   0.00000  -0.00080  -0.00080   2.00340
   A25        1.94534   0.00005   0.00000   0.00073   0.00073   1.94607
   A26        1.94577   0.00002   0.00000   0.00005   0.00005   1.94582
   A27        1.95816  -0.00001   0.00000   0.00022   0.00022   1.95838
   A28        1.89560  -0.00007   0.00000  -0.00130  -0.00130   1.89429
   A29        1.85335   0.00002   0.00000   0.00041   0.00041   1.85377
   A30        1.86088  -0.00000   0.00000  -0.00019  -0.00019   1.86070
   A31        1.93398   0.00010   0.00000   0.00099   0.00099   1.93497
   A32        1.92760   0.00010   0.00000   0.00124   0.00124   1.92884
   A33        1.80594  -0.00006   0.00000  -0.00038  -0.00038   1.80557
   A34        1.93117  -0.00002   0.00000   0.00017   0.00017   1.93133
   A35        1.93377  -0.00008   0.00000  -0.00128  -0.00128   1.93249
   A36        1.92806  -0.00004   0.00000  -0.00077  -0.00077   1.92729
   A37        1.90807   0.00000   0.00000   0.00002   0.00002   1.90809
   A38        1.90811   0.00000   0.00000   0.00004   0.00004   1.90815
   A39        1.89587  -0.00000   0.00000   0.00003   0.00003   1.89590
   A40        1.91231  -0.00001   0.00000  -0.00012  -0.00012   1.91219
   A41        1.92001   0.00000   0.00000   0.00001   0.00001   1.92002
   A42        1.91930   0.00000   0.00000   0.00002   0.00002   1.91933
   A43        1.97902   0.00057   0.00000  -0.00015  -0.00095   1.97807
   A44        1.98561   0.00052   0.00000  -0.00031  -0.00111   1.98450
   A45        2.31315  -0.00111   0.00000  -0.00684  -0.00766   2.30549
    D1       -1.04545   0.00000   0.00000  -0.00048  -0.00048  -1.04593
    D2        1.04790  -0.00001   0.00000  -0.00059  -0.00059   1.04731
    D3       -3.14079  -0.00000   0.00000  -0.00052  -0.00052  -3.14131
    D4        1.05328  -0.00000   0.00000  -0.00051  -0.00051   1.05276
    D5       -3.13656  -0.00001   0.00000  -0.00062  -0.00062  -3.13718
    D6       -1.04206  -0.00000   0.00000  -0.00055  -0.00055  -1.04261
    D7        3.13917   0.00000   0.00000  -0.00046  -0.00046   3.13870
    D8       -1.05067  -0.00001   0.00000  -0.00057  -0.00057  -1.05124
    D9        1.04383  -0.00000   0.00000  -0.00050  -0.00050   1.04333
   D10        0.98455   0.00007   0.00000   0.01513   0.01513   0.99969
   D11       -1.10621   0.00007   0.00000   0.01514   0.01514  -1.09107
   D12        3.06501   0.00007   0.00000   0.01518   0.01518   3.08020
   D13        3.08808   0.00007   0.00000   0.01521   0.01521   3.10329
   D14        0.99731   0.00007   0.00000   0.01523   0.01523   1.01254
   D15       -1.11465   0.00007   0.00000   0.01526   0.01526  -1.09938
   D16       -1.11186   0.00007   0.00000   0.01515   0.01515  -1.09671
   D17        3.08056   0.00007   0.00000   0.01516   0.01516   3.09573
   D18        0.96860   0.00007   0.00000   0.01520   0.01520   0.98380
   D19        1.11575  -0.00008   0.00000  -0.01710  -0.01710   1.09865
   D20       -3.07670  -0.00008   0.00000  -0.01712  -0.01712  -3.09382
   D21       -0.96431  -0.00008   0.00000  -0.01717  -0.01717  -0.98148
   D22       -3.08466  -0.00008   0.00000  -0.01715  -0.01715  -3.10181
   D23       -0.99392  -0.00008   0.00000  -0.01717  -0.01717  -1.01109
   D24        1.11847  -0.00008   0.00000  -0.01722  -0.01722   1.10125
   D25       -0.98079  -0.00008   0.00000  -0.01708  -0.01708  -0.99787
   D26        1.10995  -0.00008   0.00000  -0.01710  -0.01710   1.09285
   D27       -3.06085  -0.00008   0.00000  -0.01715  -0.01715  -3.07799
   D28        3.13980  -0.00004   0.00000  -0.00359  -0.00359   3.13620
   D29        1.01838   0.00000   0.00000  -0.00247  -0.00247   1.01591
   D30       -1.06746   0.00000   0.00000  -0.00242  -0.00242  -1.06987
   D31       -1.01900  -0.00007   0.00000  -0.00459  -0.00459  -1.02359
   D32       -3.14042  -0.00003   0.00000  -0.00347  -0.00347   3.13930
   D33        1.05693  -0.00003   0.00000  -0.00342  -0.00342   1.05351
   D34        1.05853  -0.00005   0.00000  -0.00373  -0.00373   1.05481
   D35       -1.06288   0.00000   0.00000  -0.00260  -0.00260  -1.06549
   D36        3.13447   0.00000   0.00000  -0.00255  -0.00255   3.13191
   D37        0.99699  -0.00001   0.00000   0.00358   0.00358   1.00057
   D38       -1.09091  -0.00001   0.00000   0.00353   0.00354  -1.08737
   D39        3.08452  -0.00000   0.00000   0.00366   0.00366   3.08818
   D40       -1.00348   0.00004   0.00000   0.00461   0.00461  -0.99888
   D41       -3.09138   0.00004   0.00000   0.00456   0.00456  -3.08682
   D42        1.08404   0.00005   0.00000   0.00468   0.00468   1.08873
   D43        3.14074   0.00000   0.00000   0.00371   0.00371  -3.13874
   D44        1.05284  -0.00000   0.00000   0.00366   0.00366   1.05650
   D45       -1.05492   0.00001   0.00000   0.00379   0.00379  -1.05113
   D46        1.08076   0.00007   0.00000   0.00456   0.00456   1.08532
   D47       -1.06553  -0.00005   0.00000   0.00280   0.00280  -1.06272
   D48       -3.12911  -0.00001   0.00000   0.00332   0.00332  -3.12579
   D49       -3.07317   0.00013   0.00000   0.00587   0.00587  -3.06730
   D50        1.06373   0.00001   0.00000   0.00411   0.00411   1.06784
   D51       -0.99985   0.00005   0.00000   0.00463   0.00463  -0.99522
   D52       -1.05405   0.00005   0.00000   0.00449   0.00449  -1.04957
   D53        3.08285  -0.00006   0.00000   0.00273   0.00273   3.08557
   D54        1.01926  -0.00003   0.00000   0.00325   0.00325   1.02251
   D55        1.48533  -0.00022   0.00000  -0.06669  -0.06664   1.41870
   D56       -1.55900   0.00003   0.00000  -0.00079  -0.00084  -1.55984
   D57       -2.72439  -0.00018   0.00000  -0.06636  -0.06631  -2.79070
   D58        0.51446   0.00007   0.00000  -0.00046  -0.00051   0.51395
   D59       -0.57793  -0.00029   0.00000  -0.06756  -0.06751  -0.64544
   D60        2.66092  -0.00004   0.00000  -0.00166  -0.00171   2.65921
         Item               Value     Threshold  Converged?
 Maximum Force            0.017202     0.000450     NO 
 RMS     Force            0.002131     0.000300     NO 
 Maximum Displacement     0.109971     0.001800     NO 
 RMS     Displacement     0.015272     0.001200     NO 
 Predicted change in Energy=-4.196758D-04
 Lowest energy point so far.  Saving SCF results.
 GradGradGradGradGradGradGradGradGradGradGradGradGradGradGradGradGradGrad

 Leave Link  103 at Wed May 18 09:30:01 2022, MaxMem= 26843545600 cpu:               0.7 elap:               0.1
 (Enter /data0/home/wuhanyu/software/g16/l202.exe)
                          Input orientation:                          
[...]
 .00001004,-0.00002157,0.00012266,0.00003055,-0.00100934,-0.00029489,-0
 .00084713,-0.00015715,0.00034856,0.00038036,-0.00043825,0.00023721,0.0
 0091930,-0.00010301,-0.00000320,0.00014042,0.00008427,0.00089417,-0.00
 024238,-0.00040124,-0.00001713,-0.00006739,-0.00071766,0.00031735,0.00
 038162,-0.00019542,-0.00010434,0.00021263,0.00038933,-0.00001146,-0.01
 213672,0.00067231,-0.00103109,-0.00068043,0.00146438,0.00043102,-0.000
 37084,-0.01076761,0.01574410,-0.29802294,0.01785958,-0.01736989,0.3276
 6540,-0.00059062,0.00029413,-0.00111028,-0.00048448,0.00008558,0.00023
 243,-0.00001981,-0.00004664,0.00004969,0.00001052,-0.00007328,-0.00006
 759,0.00035826,0.00053795,0.00038655,-0.00003773,-0.00014065,-0.000077
 41,0.00005951,0.00006664,-0.00017155,-0.00014499,-0.00001915,0.0000521
 4,-0.00021085,-0.00059953,0.00050941,-0.00036082,-0.00003532,-0.000211
 17,-0.00023742,-0.00009136,0.00002223,0.00004059,0.00008604,-0.0000302
 3,-0.00504415,0.02588589,-0.00587307,0.00041211,0.00016453,-0.00101718
 ,-0.00196036,0.00013779,0.00095220,-0.04880624,0.02713075,-0.00554028,
 -0.00044861,0.00168444,-0.00073199,0.05950538,0.00019171,-0.00009386,0
 .00032819,0.00011761,-0.00003060,-0.00004955,0.00003493,0.00000656,-0.
 00002081,-0.00005530,0.00005776,0.00005812,0.00001780,-0.00031283,-0.0
 0014553,0.00001411,0.00006079,0.00002434,0.00000098,-0.00012579,0.0000
 7382,0.00012234,-0.00000167,0.00000241,-0.00027693,0.00022995,-0.00008
 372,-0.00020830,0.00002546,-0.00011654,-0.00018902,0.00001305,-0.00011
 680,0.00009586,0.00002181,-0.00000399,0.00138880,-0.00935793,0.0030182
 3,0.00003884,0.00187946,-0.00016058,0.00098876,-0.00020570,-0.00040209
 ,0.03167401,-0.28523842,0.05927170,0.00007290,-0.00168406,0.00150352,-
 0.03098922,0.30911121,0.00016725,-0.00021174,0.00020859,0.00017293,0.0
 0000925,0.00002679,-0.00002257,0.00002372,0.00002453,0.00000114,0.0000
 4533,0.00003598,-0.00008108,0.00010196,0.00029889,0.00005117,-0.000049
 12,-0.00003507,0.00035299,0.00032038,-0.00009416,-0.00011531,0.0000087
 0,0.00009878,0.00025202,0.00034024,-0.00051186,-0.00019023,-0.00003462
 ,0.00000731,-0.00009733,-0.00021607,0.00029934,-0.00011636,0.00003402,
 0.00020416,0.00516709,-0.01470912,0.00150065,-0.00008570,-0.00028793,0
 .00153397,0.00108737,-0.00087132,-0.00105685,-0.00826514,0.05945190,-0
 .06122978,-0.00429735,0.03200094,-0.00754067,0.00503503,-0.06398903,0.
 06438491,-0.00034843,0.00021995,-0.00032191,-0.00017535,0.00022709,0.0
 0004863,0.00008408,0.00004702,-0.00009250,-0.00001907,0.00005430,0.000
 04333,0.00017741,0.00014641,0.00043699,0.00000182,-0.00008810,-0.00012
 857,-0.00000702,0.00007515,-0.00024276,-0.00002518,0.00007046,0.000020
 94,0.00031325,0.00007028,0.00039279,-0.00022367,0.00043892,0.00014714,
 -0.00014003,-0.00022092,-0.00037399,0.00026117,0.00008611,-0.00003549,
 -0.03135301,-0.00963045,-0.00330995,-0.00174977,0.00043586,0.00082503,
 -0.00008623,-0.00148184,-0.00114933,-0.12393922,-0.04180529,-0.0209777
 2,-0.00497349,-0.00272351,-0.00380242,0.00241799,-0.00038330,0.0006145
 6,0.49894575,0.00016486,-0.00022136,0.00043221,0.00006233,-0.00015539,
 -0.00017039,0.00004473,0.00003207,0.00002570,-0.00007783,-0.00006306,-
 0.00000718,-0.00000511,-0.00043452,-0.00039280,-0.00003921,0.00006694,
 0.00005224,0.00004005,-0.00010389,0.00003359,0.00016703,0.00003491,-0.
 00003259,0.00041309,0.00049445,0.00000133,-0.00088496,-0.00043229,-0.0
 0042518,-0.00016214,-0.00031179,0.00010887,0.00002105,0.00005683,0.000
 05580,0.00410137,0.00920886,0.00679031,0.00114520,-0.00009548,-0.00120
 889,0.00080642,-0.00134110,-0.00008743,-0.02950513,-0.10249785,-0.0138
 6191,-0.00091475,-0.00004961,-0.00185234,-0.02868586,-0.01730734,-0.01
 232027,-0.06677741,0.39845956,0.00033611,-0.00015631,0.00053326,0.0001
 8368,-0.00022315,-0.00005540,-0.00007382,0.00001412,0.00008021,-0.0000
 6535,-0.00000905,0.00006753,-0.00037359,-0.00042095,-0.00102562,-0.000
 18165,0.00011138,0.00024552,0.00007397,0.00025045,0.00039134,-0.000131
 50,0.00007159,0.00007940,0.00034761,0.00039641,0.00006495,-0.00036734,
 -0.00008817,-0.00027725,-0.00008606,-0.00024945,-0.00001118,0.00009529
 ,-0.00000658,0.00006511,0.01196131,0.00783992,0.00350579,0.00227800,-0
 .00058813,-0.00133424,0.00240136,-0.00087150,0.00152782,-0.02293273,-0
 .01801795,-0.08194558,-0.02888712,-0.01822661,-0.01196854,0.00695122,0
 .00381361,0.00242638,-0.05692025,0.01387642,0.59794617,-0.00009777,0.0
 0007589,-0.00029384,-0.00009399,0.00009015,0.00002940,0.00004857,-0.00
 000115,-0.00002891,0.00002405,-0.00002346,-0.00000230,0.00002610,0.000
 22867,0.00015711,-0.00002659,-0.00001598,-0.00004842,-0.00000362,-0.00
 001406,0.00001738,0.00002617,0.00000909,0.00000448,-0.00009173,-0.0002
 1167,0.00015950,0.00004140,-0.00000809,-0.00000545,-0.00006745,0.00001
 102,0.00002796,-0.00001335,0.00002825,-0.00004934,-0.00247399,-0.00337
 885,-0.00174496,-0.00080975,0.00022213,0.00036854,0.00031305,0.0001076
 6,-0.00045755,-0.02175150,0.00864809,0.01148912,0.00077974,0.00067869,
 -0.00005799,0.00061518,-0.00035822,0.00037398,-0.21736672,0.07111520,0
 .10256261,0.23799874,-0.00012925,0.00006110,-0.00028420,-0.00007425,0.
 00007696,0.00005137,0.00002670,0.00001344,-0.00001573,-0.00003340,-0.0
 0001449,0.00002154,0.00005087,0.00010717,0.00009081,-0.00002383,-0.000
 02292,-0.00002894,0.00002417,-0.00000885,0.00000115,0.00000719,0.00001
 674,-0.00000903,-0.00000494,-0.00015147,0.00013987,-0.00036831,-0.0001
 5701,-0.00034276,-0.00002487,-0.00000528,-0.00005317,0.00005012,0.0000
 8257,0.00003742,-0.00258442,-0.00134371,-0.00148442,-0.00036644,0.0000
 8489,0.00038561,-0.00053487,-0.00054862,-0.00027431,-0.01661347,0.0053
 2595,0.00895157,0.00070417,0.00080750,0.00018024,0.00080757,0.00063875
 ,0.00056627,0.07350354,-0.07221888,-0.04066441,-0.07463661,0.07836278,
 -0.00011097,0.00006064,-0.00009084,-0.00004374,0.00004893,0.00001645,0
 .00001734,0.00000931,-0.00002763,-0.00001462,0.00000480,-0.00000121,0.
 00007074,0.00000253,0.00009275,0.00001488,0.00000547,0.00000094,-0.000
 02775,-0.00002073,-0.00001798,0.00001711,0.00000670,-0.00000401,0.0000
 5888,-0.00004516,0.00006113,-0.00011921,-0.00002530,-0.00009030,-0.000
 03832,0.00000235,-0.00001983,0.00002597,0.00001748,0.00001143,-0.00211
 392,-0.00181353,-0.00001369,-0.00044310,0.00016449,0.00025960,-0.00036
 444,0.00021159,0.00003445,-0.01004237,0.00307448,0.00404381,0.00006957
 ,0.00061974,0.00089432,0.00056712,0.00030151,0.00018712,0.10715233,-0.
 04304242,-0.11522045,-0.11358902,0.04827874,0.11927784,-0.00000671,0.0
 0001756,0.00000069,0.00001259,-0.00000988,0.00003013,-0.00002182,-0.00
 001080,-0.00000695,-0.00003108,0.00003939,-0.00000681,-0.00001964,-0.0
 0016064,-0.00024928,-0.00006671,0.00007485,0.00011219,0.00003012,0.000
 07849,0.00019358,-0.00001803,0.00000721,0.00002154,0.00011254,0.000065
 68,-0.00000702,-0.00005508,-0.00000898,-0.00003788,0.00000362,-0.00015
 374,0.00007385,-0.00003277,-0.00001322,0.00003683,0.00140097,-0.000370
 08,-0.00145356,0.00001667,-0.00002688,-0.00006358,-0.00049447,0.000400
 02,0.00023865,-0.00651684,0.00160704,-0.02690453,-0.00404027,-0.002952
 38,-0.00208513,0.00124899,0.00046404,0.00073425,-0.05408392,0.00599173
 ,-0.02908068,0.00563008,-0.00321182,0.02488217,0.05687266,0.00001981,0
 .00004531,-0.00001038,-0.00001373,-0.00000751,-0.00000359,0.00000718,0
 .00000008,-0.00000830,-0.00000482,-0.00000661,0.00001520,-0.00002151,-
 0.00005826,-0.00017594,-0.00004368,0.00003685,0.00004860,0.00002591,0.
 00002767,0.00013322,-0.00001215,0.00001079,0.00002137,-0.00009121,-0.0
 0010058,0.00004536,-0.00003536,0.00010598,0.00001556,-0.00023110,-0.00
 011816,-0.00005576,0.00001839,-0.00000441,-0.00002385,0.00096729,-0.00
 008877,0.00011443,-0.00004752,-0.00002623,-0.00003439,0.00044528,0.000
 20612,0.00047056,-0.00439301,0.00031701,-0.02035851,-0.00376500,-0.001
 48266,-0.00085863,0.00103834,0.00091117,0.00015751,0.00818239,-0.04640
 749,0.02271592,-0.00205750,0.00034997,-0.00989769,-0.00141794,0.050216
 64,0.00000805,-0.00002044,-0.00005934,-0.00000626,0.00001338,0.0000146
 7,-0.00001618,-0.00001028,-0.00000022,0.00000149,0.00001366,-0.0000166
 3,0.00014463,-0.00006811,-0.00001127,0.00001692,0.00003495,0.00003854,
 0.00002511,0.00002072,0.00005528,-0.00000767,-0.00000334,0.00001055,0.
 00009054,0.00006991,-0.00007243,-0.00001757,-0.00006716,-0.00005530,0.
 00017610,-0.00002271,0.00010657,-0.00004327,-0.00000020,0.00003307,0.0
 0050667,-0.00060813,0.00021666,-0.00025533,0.00006982,0.00004565,-0.00
 052362,0.00045392,0.00015640,-0.00133302,0.00079630,-0.00767783,-0.001
 05292,-0.00096145,0.00084842,-0.00022828,-0.00071811,0.00045825,-0.033
 09698,0.02274348,-0.29822643,-0.00234218,0.00177738,-0.01308059,0.0368
 4907,-0.02378964,0.32375852,-0.12649826,0.01684977,0.02729630,-0.02330
 760,0.01085482,0.01916690,-0.01452276,0.00692240,0.00974307,0.00674478
 ,-0.00269187,-0.00506334,-0.10143638,-0.01588950,-0.01289785,-0.011067
 78,-0.02123033,-0.01686334,0.01154580,0.01834608,0.01505117,-0.0077814
 2,-0.01122449,-0.01081821,-0.09818523,-0.01688814,0.01273643,-0.006465
 22,-0.01095833,0.01108931,-0.00721557,-0.02530225,0.01294758,0.0083310
 4,0.01878668,-0.01307591,-0.08891475,0.00274515,-0.01325481,0.00480127
 ,-0.00414369,0.00564306,-0.01233233,0.00796933,-0.01246170,-0.01913662
 ,0.01021651,-0.01606665,0.00149157,-0.00030265,-0.00095503,-0.00343060
 ,0.00009962,0.00043792,-0.00173788,0.00331771,0.00222822,-0.00073483,-
 0.00103604,-0.00013222,0.00036791,0.00009781,-0.00015135,0.49050527,0.
 01904759,-0.09804905,-0.01550520,0.01090098,-0.00768481,-0.00984748,-0
 .01846460,0.00902779,0.01388596,0.02246965,-0.01096754,-0.01606295,-0.
 02084518,-0.12778501,-0.03337419,0.00350881,0.00678548,0.00633054,-0.0
 0696437,-0.01324602,-0.01011200,-0.01088625,-0.02273559,-0.01978922,-0
 .00965029,-0.11316080,0.01675405,-0.00860024,-0.02333198,0.01985931,0.
 00064766,0.00619918,-0.00455272,-0.00811111,-0.01691587,0.01029392,-0.
 00325553,-0.08684332,0.00401986,0.02106372,-0.01352636,0.02285118,-0.0
 1392610,0.01148649,-0.01480549,0.00781485,-0.00963668,0.00495836,-0.00
 072414,0.00095881,0.00053203,0.00304489,0.00034583,-0.00084931,-0.0004
 2790,-0.00049419,-0.00043451,-0.00001454,0.00009001,0.00024037,0.00012
 731,0.00005379,0.00026208,0.01322799,0.50920415,0.03183431,-0.01589464
 ,-0.11182257,-0.01294276,0.00633375,0.00979989,0.01645337,-0.00965725,
 -0.01468766,0.01925927,-0.00836542,-0.01555783,-0.01772517,-0.03236371
 ,-0.11719588,-0.00836711,-0.01839866,-0.01675044,-0.00953323,-0.016596
 42,-0.01603095,0.00595049,0.01167329,0.00993323,0.00565992,0.01422753,
 -0.10219613,-0.00466040,-0.01285382,0.01285951,0.00494208,0.01902784,-
 0.01393489,0.01035702,0.01905479,-0.01588227,0.00010562,0.00312901,-0.
 09693680,-0.01587112,0.00855392,-0.01857944,-0.01816851,0.01339086,-0.
 02081091,0.00307729,-0.00475778,0.01513277,-0.00072689,0.00012644,-0.0
 0032937,0.00217461,-0.00148985,-0.00158972,0.00155307,-0.00008925,-0.0
 0117999,0.00048190,0.00032000,0.00031190,0.00017278,-0.00000840,0.0001
 5558,-0.01427354,0.02448391,0.51436112,-0.00039795,-0.00038494,-0.0003
 2458,0.00004346,0.00008121,0.00012400,0.00005510,0.00015520,0.00009006
 ,-0.00044034,0.00007023,0.00018253,0.00036653,-0.00036474,-0.00071159,
 -0.00002126,0.00012965,0.00016316,0.00015677,0.00006454,0.00025164,0.0
 0015077,0.00014211,0.00007577,-0.00377058,-0.00060739,-0.00199996,-0.0
 1077535,0.00005805,-0.00609434,0.00045371,0.00102565,-0.00035074,0.000
 11091,0.00093271,0.00094047,0.00140106,-0.00097396,0.00108278,0.000615
 08,0.00141118,0.00071451,-0.00694357,-0.00623559,0.00179960,0.00770300
 ,-0.03213794,0.00732895,0.00098475,0.00092374,0.00033493,-0.00694342,-
 0.00536479,-0.00238590,-0.08710945,0.00938195,-0.01087788,-0.00437293,
 0.02507390,-0.00555603,-0.00196544,0.00255024,0.00331956,-0.00188164,0
 .00069760,0.00073435,0.40160343,0.00036713,-0.00014221,0.00125834,0.00
 041596,-0.00025504,-0.00015392,-0.00026695,-0.00017583,0.00011702,0.00
 067063,0.00019192,-0.00025337,0.00001942,-0.00004549,0.00103837,0.0003
 5159,-0.00003811,-0.00011417,-0.00022336,0.00008110,-0.00060253,-0.000
 24180,-0.00023085,-0.00007601,-0.00192787,0.00258515,-0.00216747,0.006
 53109,0.00031836,0.00250069,0.00054062,0.00126734,0.00005170,-0.001143
 40,-0.00120353,-0.00050918,-0.00435314,-0.00320703,-0.00043114,0.00079
 681,-0.00136353,-0.00121039,0.00351199,0.00700691,0.00083908,-0.015609
 67,-0.02781263,-0.00101420,0.00239013,0.00080042,0.00247216,0.00217509
 ,0.00232782,0.00070529,0.00696953,-0.11601210,0.01001015,-0.00096872,-
 0.00327292,0.00062617,-0.00090676,0.00472681,-0.00399262,0.00128226,-0
 .00076739,-0.00036822,-0.08794607,0.49781190,0.00029256,0.00167530,0.0
 0000379,-0.00037974,-0.00006541,-0.00028006,0.00041168,-0.00019775,-0.
 00041215,0.00098387,-0.00017124,-0.00001846,-0.00043209,0.00078406,-0.
 00003781,-0.00025098,-0.00005454,-0.00024114,-0.00013968,-0.00054058,0
 .00013743,0.00026518,0.00009029,0.00000421,-0.00584153,0.00029227,-0.0
 0093057,0.00405854,0.00146555,0.00861508,-0.00831827,-0.00350179,-0.00
 335301,0.00041503,-0.00150938,-0.00228358,-0.00070973,-0.00216952,0.00
 465692,-0.00123755,-0.00216492,-0.00179568,0.00756338,0.00716003,-0.00
 210767,0.00362199,-0.00657475,0.00319767,-0.00164645,-0.00418731,-0.00
 207706,-0.00320381,-0.00176750,-0.00164610,-0.00818162,0.01112726,-0.0
 7003848,0.00580641,-0.01936822,0.00003907,-0.00313907,0.03063521,-0.01
 138001,0.00229902,-0.00027814,-0.00104001,-0.21835113,-0.02584811,0.80
 854346,0.00019384,-0.00058254,0.00025591,0.00013194,-0.00004421,-0.000
 06450,-0.00020029,-0.00002439,0.00020809,0.00016683,0.00003499,-0.0001
 6114,0.00008836,0.00017993,0.00060485,0.00010291,0.00002635,-0.0000105
 2,-0.00002381,0.00012612,-0.00007512,-0.00013366,-0.00018890,-0.000001
 22,-0.00158886,-0.00103042,-0.00182827,0.00199398,-0.00019457,0.000940
 12,-0.00136445,0.00041453,0.00119110,-0.00091752,0.00015343,0.00054000
 ,-0.00101213,0.00006003,-0.00073206,0.00006420,-0.00026456,-0.00000372
 ,0.00106010,0.00115189,0.00027571,-0.00110090,0.00407163,-0.00213100,-
 0.00027812,0.00037849,0.00033588,0.00130022,0.00091414,0.00064439,0.01
 779832,0.00411304,0.00313696,0.00183714,-0.00369154,-0.00036287,0.0015
 0308,0.00024474,-0.00158759,-0.00116633,-0.00031234,0.00015994,-0.1082
 2732,-0.02366308,0.10282187,0.08801181,0.00000548,0.00009941,-0.000421
 44,-0.00016590,0.00006117,0.00001096,0.00010458,0.00003198,-0.00004288
 ,-0.00009477,-0.00011360,0.00009308,0.00007885,0.00012035,-0.00031579,
 -0.00014697,0.00002778,0.00001749,0.00013956,-0.00004310,0.00026913,0.
 00009451,0.00005876,0.00007258,-0.00132640,-0.00109644,-0.00080531,-0.
 00055321,-0.00030209,0.00081915,-0.00085049,-0.00097341,0.00003486,-0.
 00008101,0.00024828,0.00019469,0.00186329,-0.00021102,0.00083060,-0.00
 045864,0.00027887,0.00021405,-0.00081132,-0.00130247,-0.00022975,0.002
 51228,0.00082192,0.00225398,0.00042732,0.00082208,-0.00044615,-0.00100
 722,-0.00072935,-0.00030630,-0.00173280,-0.01834810,0.04502342,-0.0009
 2906,0.00200062,0.00076747,-0.00017616,-0.00935844,0.00465899,-0.00021
 313,0.00069704,-0.00025857,-0.02351731,-0.14960408,0.13630626,0.018903
 55,0.13980152,-0.00020288,-0.00129726,0.00009357,0.00033748,0.00001051
 ,0.00016149,-0.00038082,0.00010588,0.00034697,-0.00061754,0.00013114,-
 0.00007331,0.00034494,-0.00053431,0.00017341,0.00029591,0.00004959,0.0
 0016267,0.00003331,0.00039809,-0.00020855,-0.00022967,-0.00013092,0.00
 001462,-0.00003204,-0.00028433,-0.00115919,-0.00362346,-0.00097362,-0.
 00526217,0.00425326,0.00285663,0.00118245,-0.00078587,0.00060762,0.001
 16037,0.00006586,0.00195345,-0.00252343,0.00089928,0.00101182,0.000949
 56,-0.00367776,-0.00417082,0.00068461,-0.00383644,-0.00032896,-0.00345
 612,0.00155789,0.00170337,0.00220440,0.00176747,0.00093814,0.00185347,
 0.00920263,0.02705910,-0.02817472,-0.00189844,0.00089063,0.00089501,-0
 .00061064,0.00404512,0.00047118,-0.00156431,0.00042267,0.00112277,0.09
 826358,0.14073929,-0.47770836,-0.15693085,-0.16163483,0.58725657,0.000
 82140,0.00065656,0.00062555,0.00003399,-0.00015520,-0.00026987,-0.0000
 4698,-0.00030903,-0.00010074,0.00101922,-0.00006556,-0.00044130,-0.000
 19935,0.00047970,0.00099769,0.00010806,-0.00002913,-0.00017346,-0.0001
 7460,-0.00009505,-0.00025582,-0.00008258,-0.00025111,-0.00001555,-0.00
 656654,0.00161135,-0.00600789,0.00289782,0.00007053,0.00348755,-0.0027
 8627,-0.00111886,-0.00071996,-0.00098574,-0.00235308,-0.00206179,-0.00
 561697,-0.00704562,0.00269874,-0.00076752,-0.00261070,-0.00206382,0.00
 224717,0.00282882,-0.00160158,-0.00653799,0.00528243,-0.00085946,0.000
 11648,-0.00077739,0.00021989,0.00275134,0.00158862,0.00056488,0.003338
 64,0.02616662,0.01742165,0.00056399,0.00308583,0.00008248,0.00015357,-
 0.00146285,-0.00047592,0.00202756,-0.00036846,-0.00064727,-0.18079534,
 0.11122855,0.12329214,0.00176065,0.00793498,0.05736909,0.18671998,0.00
 008925,-0.00045546,-0.00104716,-0.00033115,0.00015663,0.00006994,0.000
 16902,0.00017993,0.00003841,-0.00051675,-0.00040431,0.00014508,-0.0002
 2102,0.00049780,-0.00069206,-0.00026340,-0.00004401,-0.00019547,0.0001
 5932,0.00001186,0.00030450,0.00023466,0.00024927,0.00004500,0.00064979
 ,-0.00005183,0.00166616,-0.00360763,-0.00251650,-0.00353472,0.00131724
 ,0.00047834,0.00041358,0.00023129,0.00057167,0.00017840,-0.00314994,-0
 .00485882,0.00183952,-0.00098670,-0.00102383,-0.00112274,-0.00058578,-
 0.00598131,-0.00112614,0.00270377,0.00175894,0.00140573,-0.00006497,-0
 .00014901,-0.00068370,-0.00145139,-0.00054208,0.00007930,0.03474452,-0
 .03185917,-0.02416662,0.00140308,-0.01027428,0.00040207,0.00054596,0.0
 0065092,-0.00065237,-0.00083568,0.00029602,0.00078062,0.11483476,-0.21
 298697,-0.12113707,-0.00077631,0.03701233,-0.01356801,-0.14429195,0.22
 928386,0.00011938,-0.00106748,-0.00048822,0.00019848,0.00014540,0.0002
 0149,-0.00030402,0.00003469,0.00021233,-0.00072352,0.00012678,-0.00021
 437,0.00026915,-0.00069883,0.00049944,0.00025141,0.00014177,0.00024950
 ,0.00006460,0.00026201,0.00001815,-0.00017085,-0.00030670,-0.00000454,
 -0.00296065,0.00046526,-0.00212145,0.00040020,-0.00026288,-0.00460677,
 0.00327925,0.00130009,0.00084516,-0.00037199,-0.00074696,-0.00022273,0
 .00164274,0.00302988,-0.00077515,0.00026000,0.00078754,0.00092273,-0.0
 0398124,-0.00412119,-0.00125728,0.00273233,0.00063839,0.00103649,0.000
 30218,0.00116569,0.00038208,-0.00043725,-0.00026950,0.00015509,0.00819
 605,-0.00881565,0.00252440,-0.00096001,0.00083259,0.00244071,0.0002993
 9,-0.00319298,0.00421073,-0.00106070,0.00071694,0.00084809,0.13124627,
 -0.12361693,-0.24984749,0.05277404,-0.02710567,-0.08016727,-0.19106522
 ,0.16055775,0.32515888\\0.00000782,-0.00000754,-0.00000117,0.00000165,
 0.00000078,0.00000207,-0.00000388,-0.00000300,-0.00000100,-0.00000206,
 -0.00000235,0.00000331,0.00000768,0.00000706,0.00000127,-0.00000132,0.
 00000132,-0.00000272,-0.00000588,0.00000017,-0.00000337,-0.00000017,-0
 .00000127,-0.00000611,0.00000912,0.00000802,0.00000288,0.00000323,0.00
 000047,-0.00000068,0.00000735,0.00000545,0.00000016,0.00000229,0.00000
 210,0.00000571,0.00001747,-0.00001205,0.00000758,-0.00000837,0.0000023
 3,-0.00000710,0.00000348,0.00000881,0.00000576,-0.00002480,-0.00002012
 ,-0.00000440,0.00000527,0.00000252,0.00000263,0.00000106,-0.00000042,-
 0.00000556,-0.00000384,-0.00000954,0.00000547,-0.00000250,0.00000527,0
 .00000068,-0.00000360,0.00000126,0.00000083,-0.00002035,-0.00000865,-0
 .00000532,0.00000251,0.00001203,0.00001370,0.00000017,0.00001982,-0.00
 000199,0.00000765,-0.00001245,-0.00001263\\\@


 WHEN A MATHEMATICIAN ENGAGED IN INVESTIGATING
 PHYSICAL ACTIONS AND RESULTS HAS ARRIVED AT HIS
 CONCLUSIONS, MAY THEY NOT BE EXPRESSED IN COMMON
 LANGUAGE AS FULLY, CLEARLY, AND DEFINITELY AS IN
 MATHEMATICAL FORMULAE?
           - LETTER FROM M. FARADAY TO J.C. MAXWELL, 1857.
 Job cpu time:       0 days  0 hours 54 minutes  6.9 seconds.
 Elapsed time:       0 days  0 hours  2 minutes 28.4 seconds.
 File lengths (MBytes):  RWF=    182 Int=      0 D2E=      0 Chk=      7 Scr=      1
 Normal termination of Gaussian 16 at Wed May 18 09:42:18 2022.
