Title Card Required                                                     
Freq      RB3LYP                                                      6-311G(d,p)         
Number of atoms                            I               25
Info1-9                                    I   N=           9
          34          34        1002           0           0         100
           6          18        -502
Full Title                                 C   N=           2
Title Card Required     
Route                                      C   N=           4
#p opt freq b3lyp/6-311g(d,p) em=gd3bj          
Charge                                     I                0
Multiplicity                               I                1
Number of electrons                        I               80
Number of alpha electrons                  I               40
Number of beta electrons                   I               40
Number of basis functions                  I              270
Number of independent functions            I              270
Number of point charges in /Mol/           I                0
Number of translation vectors              I                0
Atomic numbers                             I   N=          25
           6           1           1           1           6           1
           1           1           6           1           1           1
           6           1           1           6           1           1
           6           1           1           7           6           8
           8
Nuclear charges                            R   N=          25
  6.00000000E+00  1.00000000E+00  1.00000000E+00  1.00000000E+00  6.00000000E+00
  1.00000000E+00  1.00000000E+00  1.00000000E+00  6.00000000E+00  1.00000000E+00
  1.00000000E+00  1.00000000E+00  6.00000000E+00  1.00000000E+00  1.00000000E+00
  6.00000000E+00  1.00000000E+00  1.00000000E+00  6.00000000E+00  1.00000000E+00
  1.00000000E+00  7.00000000E+00  6.00000000E+00  8.00000000E+00  8.00000000E+00
Current cartesian coordinates              R   N=          75
 -4.37856989E+00  1.52722096E+00  1.80957161E+00 -5.70339169E+00  2.73993100E+00
  8.04753358E-01 -5.40082298E+00  1.46413287E-01  2.94244392E+00 -3.14911798E+00
  2.65971101E+00  3.00599867E+00 -4.38244733E+00 -1.35843128E+00 -1.79684360E+00
 -5.66983021E+00 -1.02058070E-01 -2.79648183E+00 -3.18243541E+00 -2.33609236E+00
 -3.14632616E+00 -5.44590559E+00 -2.72560462E+00 -6.84196361E-01 -1.34515753E+00
  2.14657200E+00 -1.58645944E+00 -1.29885429E-01  3.19971465E+00 -2.94366288E-01
 -1.15072059E-01  1.23518266E+00 -2.95294268E+00 -2.75339513E+00  3.32350690E+00
 -2.51900131E+00 -9.88245132E-01 -1.56897532E+00  1.43440811E+00 -2.26463641E+00
 -2.84983525E+00  2.42574094E+00 -2.08872312E-02 -3.10295536E-01  2.75295904E+00
  1.01216262E+00 -2.99536661E+00 -1.16081874E-01  7.55571645E-01 -2.68376034E+00
 -2.14385947E+00  7.77894011E-01 -5.02552020E+00  1.92398816E-01  3.70377916E+00
 -2.11089805E+00  5.71291428E-01  5.06325617E+00 -3.08871876E+00 -6.31136129E-01
  4.09686612E+00 -2.54376517E+00  2.55323731E+00 -2.75705520E+00  1.72808203E-01
 -7.22555797E-02  3.77816017E+00  7.81633228E-01  9.55821700E-02  4.29655141E+00
  1.46137406E+00 -2.09372487E+00  2.95883436E+00  2.11625140E+00  1.90969448E+00
Number of symbols in /Mol/                 I                0
Force Field                                I                0
Atom Types                                 C   N=          25
                                                            
                                                            
                                                            
                                                            
                                                            
Int Atom Types                             I   N=          25
           0           0           0           0           0           0
           0           0           0           0           0           0
           0           0           0           0           0           0
           0           0           0           0           0           0
           0
MM charges                                 R   N=          25
  0.00000000E+00  0.00000000E+00  0.00000000E+00  0.00000000E+00  0.00000000E+00
  0.00000000E+00  0.00000000E+00  0.00000000E+00  0.00000000E+00  0.00000000E+00
  0.00000000E+00  0.00000000E+00  0.00000000E+00  0.00000000E+00  0.00000000E+00
  0.00000000E+00  0.00000000E+00  0.00000000E+00  0.00000000E+00  0.00000000E+00
  0.00000000E+00  0.00000000E+00  0.00000000E+00  0.00000000E+00  0.00000000E+00
Integer atomic weights                     I   N=          25
          12           1           1           1          12           1
           1           1          12           1           1           1
          12           1           1          12           1           1
          12           1           1          14          12          16
          16
Real atomic weights                        R   N=          25
  1.20000000E+01  1.00782504E+00  1.00782504E+00  1.00782504E+00  1.20000000E+01
  1.00782504E+00  1.00782504E+00  1.00782504E+00  1.20000000E+01  1.00782504E+00
  1.00782504E+00  1.00782504E+00  1.20000000E+01  1.00782504E+00  1.00782504E+00
  1.20000000E+01  1.00782504E+00  1.00782504E+00  1.20000000E+01  1.00782504E+00
  1.00782504E+00  1.40030740E+01  1.20000000E+01  1.59949146E+01  1.59949146E+01
Atom fragment info                         I   N=          25
           0           0           0           0           0           0
           0           0           0           0           0           0
           0           0           0           0           0           0
           0           0           0           0           0           0
           0
Atom residue num                           I   N=          25
           0           0           0           0           0           0
           0           0           0           0           0           0
           0           0           0           0           0           0
           0           0           0           0           0           0
           0
Nuclear spins                              I   N=          25
           0           1           1           1           0           1
           1           1           0           1           1           1
           0           1           1           0           1           1
           0           1           1           2           0           0
           0
Nuclear ZEff                               R   N=          25
 -3.60000000E+00 -1.00000000E+00 -1.00000000E+00 -1.00000000E+00 -3.60000000E+00
 -1.00000000E+00 -1.00000000E+00 -1.00000000E+00 -3.60000000E+00 -1.00000000E+00
 -1.00000000E+00 -1.00000000E+00 -3.60000000E+00 -1.00000000E+00 -1.00000000E+00
 -3.60000000E+00 -1.00000000E+00 -1.00000000E+00 -3.60000000E+00 -1.00000000E+00
 -1.00000000E+00 -4.55000000E+00 -3.60000000E+00 -5.60000000E+00 -5.60000000E+00
Nuclear ZNuc                               R   N=          25
  6.00000000E+00  1.00000000E+00  1.00000000E+00  1.00000000E+00  6.00000000E+00
  1.00000000E+00  1.00000000E+00  1.00000000E+00  6.00000000E+00  1.00000000E+00
  1.00000000E+00  1.00000000E+00  6.00000000E+00  1.00000000E+00  1.00000000E+00
  6.00000000E+00  1.00000000E+00  1.00000000E+00  6.00000000E+00  1.00000000E+00
  1.00000000E+00  7.00000000E+00  6.00000000E+00  8.00000000E+00  8.00000000E+00
Nuclear QMom                               R   N=          25
  0.00000000E+00  0.00000000E+00  0.00000000E+00  0.00000000E+00  0.00000000E+00
  0.00000000E+00  0.00000000E+00  0.00000000E+00  0.00000000E+00  0.00000000E+00
  0.00000000E+00  0.00000000E+00  0.00000000E+00  0.00000000E+00  0.00000000E+00
  0.00000000E+00  0.00000000E+00  0.00000000E+00  0.00000000E+00  0.00000000E+00
  0.00000000E+00  2.04400000E+00  0.00000000E+00  0.00000000E+00  0.00000000E+00
Nuclear GFac                               R   N=          25
  0.00000000E+00  2.79284600E+00  2.79284600E+00  2.79284600E+00  0.00000000E+00
  2.79284600E+00  2.79284600E+00  2.79284600E+00  0.00000000E+00  2.79284600E+00
  2.79284600E+00  2.79284600E+00  0.00000000E+00  2.79284600E+00  2.79284600E+00
  0.00000000E+00  2.79284600E+00  2.79284600E+00  0.00000000E+00  2.79284600E+00
  2.79284600E+00  4.03761000E-01  0.00000000E+00  0.00000000E+00  0.00000000E+00
MicOpt                                     I   N=          25
          -1          -1          -1          -1          -1          -1
          -1          -1          -1          -1          -1          -1
          -1          -1          -1          -1          -1          -1
          -1          -1          -1          -1          -1          -1
          -1
Number of residues                         I                0
Number of secondary structures             I                0
Redundant internal dimensions              I   N=           4
         129          24          45          60
Redundant internal coordinate indices      I   N=         516
           1           2           0           0           1           3
           0           0           1           4           0           0
           1          22           0           0           5           6
           0           0           5           7           0           0
           5           8           0           0           5          22
           0           0           9          10           0           0
           9          11           0           0           9          12
           0           0           9          22           0           0
          13          14           0           0          13          15
           0           0          13          16           0           0
          13          22           0           0          16          17
           0           0          16          18           0           0
          16          19           0           0          19          20
           0           0          19          21           0           0
          19          23           0           0          23          24
           0           0          23          25           0           0
           2           1           3           0           2           1
           4           0           2           1          22           0
           3           1           4           0           3           1
          22           0           4           1          22           0
           6           5           7           0           6           5
           8           0           6           5          22           0
           7           5           8           0           7           5
          22           0           8           5          22           0
          10           9          11           0          10           9
          12           0          10           9          22           0
          11           9          12           0          11           9
          22           0          12           9          22           0
          14          13          15           0          14          13
          16           0          14          13          22           0
          15          13          16           0          15          13
          22           0          16          13          22           0
          13          16          17           0          13          16
          18           0          13          16          19           0
          17          16          18           0          17          16
          19           0          18          16          19           0
          16          19          20           0          16          19
          21           0          16          19          23           0
          20          19          21           0          20          19
          23           0          21          19          23           0
           1          22           5           0           1          22
           9           0           1          22          13           0
           5          22           9           0           5          22
          13           0           9          22          13           0
          19          23          24           0          19          23
          25           0          24          23          25           0
           2           1          22           5           2           1
          22           9           2           1          22          13
           3           1          22           5           3           1
          22           9           3           1          22          13
           4           1          22           5           4           1
          22           9           4           1          22          13
           6           5          22           1           6           5
          22           9           6           5          22          13
           7           5          22           1           7           5
          22           9           7           5          22          13
           8           5          22           1           8           5
          22           9           8           5          22          13
          10           9          22           1          10           9
          22           5          10           9          22          13
          11           9          22           1          11           9
          22           5          11           9          22          13
          12           9          22           1          12           9
          22           5          12           9          22          13
          14          13          16          17          14          13
          16          18          14          13          16          19
          15          13          16          17          15          13
          16          18          15          13          16          19
          22          13          16          17          22          13
          16          18          22          13          16          19
          14          13          22           1          14          13
          22           5          14          13          22           9
          15          13          22           1          15          13
          22           5          15          13          22           9
          16          13          22           1          16          13
          22           5          16          13          22           9
          13          16          19          20          13          16
          19          21          13          16          19          23
          17          16          19          20          17          16
          19          21          17          16          19          23
          18          16          19          20          18          16
          19          21          18          16          19          23
          16          19          23          24          16          19
          23          25          20          19          23          24
          20          19          23          25          21          19
          23          24          21          19          23          25
Redundant internal coordinates             R   N=         129
  2.05802773E+00  2.05791907E+00  2.05560779E+00  2.82931394E+00  2.05793705E+00
  2.05352209E+00  2.05866226E+00  2.82148857E+00  2.06288643E+00  2.05207633E+00
  2.05862654E+00  2.86042163E+00  2.06216334E+00  2.06364548E+00  2.90520954E+00
  2.90388263E+00  2.06756363E+00  2.06677664E+00  2.91540157E+00  2.06158752E+00
  2.06639802E+00  2.93233167E+00  2.35028560E+00  2.39656085E+00  1.92237714E+00
  1.92255480E+00  1.90315609E+00  1.92447565E+00  1.90671059E+00  1.88396560E+00
  1.91452982E+00  1.92283912E+00  1.90282129E+00  1.91863791E+00  1.90012923E+00
  1.90461079E+00  1.86574646E+00  1.97670808E+00  1.88755436E+00  1.94154956E+00
  1.91975896E+00  1.87196622E+00  1.94102711E+00  1.95820475E+00  1.81827528E+00
  1.89408960E+00  1.82471619E+00  2.02306195E+00  1.94332825E+00  1.90135518E+00
  1.94005404E+00  1.85496435E+00  1.87558381E+00  1.94707327E+00  1.90435259E+00
  1.91581280E+00  1.85920787E+00  1.91199475E+00  1.93533614E+00  1.93628887E+00
  1.91365768E+00  1.88037377E+00  1.86620944E+00  1.91268402E+00  1.92038598E+00
  1.96913034E+00  2.02862673E+00  2.00188121E+00  2.23885409E+00 -1.02889499E+00
  1.05161887E+00 -3.11037749E+00  1.07290598E+00 -3.12976547E+00 -1.00857652E+00
 -3.11741533E+00 -1.03690147E+00  1.08428748E+00  1.05741908E+00 -1.00310397E+00
  3.10526894E+00 -3.13764023E+00  1.08502203E+00 -1.08979037E+00 -1.04347375E+00
 -3.10399680E+00  1.00437611E+00  1.09041015E+00 -3.11164095E+00 -9.65418690E-01
  3.12215855E+00 -1.07989255E+00  1.06632971E+00 -1.04718327E+00  1.03395094E+00
 -3.10301211E+00  1.98967715E+00 -5.04949173E-02 -2.20290598E+00 -2.14172113E+00
  2.10129211E+00 -5.11189577E-02 -9.59435982E-02 -2.13611567E+00  1.99465857E+00
  1.06616292E+00 -1.01096494E+00  3.13029536E+00 -9.72669179E-01 -3.04979703E+00
  1.09146326E+00 -3.05669341E+00  1.14936404E+00 -9.92560977E-01 -3.09040820E+00
  1.09741011E+00 -1.00019606E+00 -9.59964216E-01 -3.05533121E+00  1.13024793E+00
  1.06677423E+00 -1.02859277E+00 -3.12619894E+00 -1.50800071E+00  1.47066854E+00
  5.62018634E-01 -2.74249742E+00  2.69084080E+00 -6.13675261E-01
ZRed-IntVec                                I   N=         129
           0           0           0           0           0           0
           0           0           0           0           0           0
           0           0           0           0           0           0
           0           0           0           0           0           0
           0           0           0           0           0           0
           0           0           0           0           0           0
           0           0           0           0           0           0
           0           0           0           0           0           0
           0           0           0           0           0           0
           0           0           0           0           0           0
           0           0           0           0           0           0
           0           0           0           0           0           0
           0           0           0           0           0           0
           0           0           0           0           0           0
           0           0           0           0           0           0
           0           0           0           0           0           0
           0           0           0           0           0           0
           0           0           0           0           0           0
           0           0           0           0           0           0
           0           0           0           0           0           0
           0           0           0           0           0           0
           0           0           0
ZRed-FPVec                                 R   N=         129
  0.00000000E+00  0.00000000E+00  0.00000000E+00  0.00000000E+00  0.00000000E+00
  0.00000000E+00  0.00000000E+00  0.00000000E+00  0.00000000E+00  0.00000000E+00
  0.00000000E+00  0.00000000E+00  0.00000000E+00  0.00000000E+00  0.00000000E+00
  0.00000000E+00  0.00000000E+00  0.00000000E+00  0.00000000E+00  0.00000000E+00
  0.00000000E+00  0.00000000E+00  0.00000000E+00  0.00000000E+00  0.00000000E+00
  0.00000000E+00  0.00000000E+00  0.00000000E+00  0.00000000E+00  0.00000000E+00
  0.00000000E+00  0.00000000E+00  0.00000000E+00  0.00000000E+00  0.00000000E+00
  0.00000000E+00  0.00000000E+00  0.00000000E+00  0.00000000E+00  0.00000000E+00
  0.00000000E+00  0.00000000E+00  0.00000000E+00  0.00000000E+00  0.00000000E+00
  0.00000000E+00  0.00000000E+00  0.00000000E+00  0.00000000E+00  0.00000000E+00
  0.00000000E+00  0.00000000E+00  0.00000000E+00  0.00000000E+00  0.00000000E+00
  0.00000000E+00  0.00000000E+00  0.00000000E+00  0.00000000E+00  0.00000000E+00
  0.00000000E+00  0.00000000E+00  0.00000000E+00  0.00000000E+00  0.00000000E+00
  0.00000000E+00  0.00000000E+00  0.00000000E+00  0.00000000E+00  0.00000000E+00
  0.00000000E+00  0.00000000E+00  0.00000000E+00  0.00000000E+00  0.00000000E+00
  0.00000000E+00  0.00000000E+00  0.00000000E+00  0.00000000E+00  0.00000000E+00
  0.00000000E+00  0.00000000E+00  0.00000000E+00  0.00000000E+00  0.00000000E+00
  0.00000000E+00  0.00000000E+00  0.00000000E+00  0.00000000E+00  0.00000000E+00
  0.00000000E+00  0.00000000E+00  0.00000000E+00  0.00000000E+00  0.00000000E+00
  0.00000000E+00  0.00000000E+00  0.00000000E+00  0.00000000E+00  0.00000000E+00
  0.00000000E+00  0.00000000E+00  0.00000000E+00  0.00000000E+00  0.00000000E+00
  0.00000000E+00  0.00000000E+00  0.00000000E+00  0.00000000E+00  0.00000000E+00
  0.00000000E+00  0.00000000E+00  0.00000000E+00  0.00000000E+00  0.00000000E+00
  0.00000000E+00  0.00000000E+00  0.00000000E+00  0.00000000E+00  0.00000000E+00
  0.00000000E+00  0.00000000E+00  0.00000000E+00  0.00000000E+00  0.00000000E+00
  0.00000000E+00  0.00000000E+00  0.00000000E+00  0.00000000E+00
ZRed-Constraint1                           R   N=         129
  2.05802773E+00  2.05791907E+00  2.05560779E+00  2.82931394E+00  2.05793705E+00
  2.05352209E+00  2.05866226E+00  2.82148857E+00  2.06288643E+00  2.05207633E+00
  2.05862654E+00  2.86042163E+00  2.06216334E+00  2.06364548E+00  2.90520954E+00
  2.90388263E+00  2.06756363E+00  2.06677664E+00  2.91540157E+00  2.06158752E+00
  2.06639802E+00  2.93233167E+00  2.35028560E+00  2.39656085E+00  1.92237714E+00
  1.92255480E+00  1.90315609E+00  1.92447565E+00  1.90671059E+00  1.88396560E+00
  1.91452982E+00  1.92283912E+00  1.90282129E+00  1.91863791E+00  1.90012923E+00
  1.90461079E+00  1.86574646E+00  1.97670808E+00  1.88755436E+00  1.94154956E+00
  1.91975896E+00  1.87196622E+00  1.94102711E+00  1.95820475E+00  1.81827528E+00
  1.89408960E+00  1.82471619E+00  2.02306195E+00  1.94332825E+00  1.90135518E+00
  1.94005404E+00  1.85496435E+00  1.87558381E+00  1.94707327E+00  1.90435259E+00
  1.91581280E+00  1.85920787E+00  1.91199475E+00  1.93533614E+00  1.93628887E+00
  1.91365768E+00  1.88037377E+00  1.86620944E+00  1.91268402E+00  1.92038598E+00
  1.96913034E+00  2.02862673E+00  2.00188121E+00  2.23885409E+00 -1.02889499E+00
  1.05161887E+00 -3.11037749E+00  1.07290598E+00 -3.12976547E+00 -1.00857652E+00
 -3.11741533E+00 -1.03690147E+00  1.08428748E+00  1.05741908E+00 -1.00310397E+00
  3.10526894E+00 -3.13764023E+00  1.08502203E+00 -1.08979037E+00 -1.04347375E+00
 -3.10399680E+00  1.00437611E+00  1.09041015E+00 -3.11164095E+00 -9.65418690E-01
  3.12215855E+00 -1.07989255E+00  1.06632971E+00 -1.04718327E+00  1.03395094E+00
 -3.10301211E+00  1.98967715E+00 -5.04949173E-02 -2.20290598E+00 -2.14172113E+00
  2.10129211E+00 -5.11189577E-02 -9.59435982E-02 -2.13611567E+00  1.99465857E+00
  1.06616292E+00 -1.01096494E+00  3.13029536E+00 -9.72669179E-01 -3.04979703E+00
  1.09146326E+00 -3.05669341E+00  1.14936404E+00 -9.92560977E-01 -3.09040820E+00
  1.09741011E+00 -1.00019606E+00 -9.59964216E-01 -3.05533121E+00  1.13024793E+00
  1.06677423E+00 -1.02859277E+00 -3.12619894E+00 -1.50800071E+00  1.47066854E+00
  5.62018634E-01 -2.74249742E+00  2.69084080E+00 -6.13675261E-01
ZRed-Constraint2                           R   N=         129
  2.05887988E+00  2.05668948E+00  2.05670030E+00  2.82621735E+00  2.05847888E+00
  2.05140355E+00  2.05681645E+00  2.83319189E+00  2.05675644E+00  2.05141107E+00
  2.05846346E+00  2.83349853E+00  2.06296401E+00  2.06293913E+00  2.85220088E+00
  2.93524002E+00  2.06746500E+00  2.06757528E+00  2.88997833E+00  2.06732509E+00
  2.06773469E+00  3.01543982E+00  2.37540463E+00  2.37378758E+00  1.92036236E+00
  1.92030060E+00  1.90993184E+00  1.91520247E+00  1.89894060E+00  1.89881023E+00
  1.92703400E+00  1.92486622E+00  1.89955424E+00  1.91192675E+00  1.90377297E+00
  1.89624267E+00  1.91152025E+00  1.92509279E+00  1.89616793E+00  1.92734522E+00
  1.90388822E+00  1.89937793E+00  1.89890805E+00  1.94625023E+00  1.83229429E+00
  1.94303545E+00  1.83128596E+00  2.00419537E+00  1.94533908E+00  1.94576951E+00
  1.95815684E+00  1.89559707E+00  1.85335291E+00  1.86088476E+00  1.93398214E+00
  1.92759921E+00  1.80594305E+00  1.93116672E+00  1.93377278E+00  1.92805827E+00
  1.90807133E+00  1.90811115E+00  1.89587261E+00  1.91230912E+00  1.92001057E+00
  1.91930285E+00  1.97902192E+00  1.98561309E+00  2.31315007E+00 -1.04544835E+00
  1.04789738E+00 -3.14078589E+00  1.05327754E+00 -3.13656203E+00 -1.04205999E+00
  3.13916540E+00 -1.05067417E+00  1.04382787E+00  9.84554827E-01 -1.10620972E+00
  3.06501460E+00  3.08807879E+00  9.97314245E-01 -1.11464674E+00 -1.11185972E+00
  3.08056104E+00  9.68600053E-01  1.11574896E+00 -3.07669620E+00 -9.64307102E-01
 -3.08465719E+00 -9.93917041E-01  1.11847206E+00 -9.80791785E-01  1.10994836E+00
 -3.06084785E+00  3.13979727E+00  1.01837976E+00 -1.06745637E+00 -1.01900256E+00
 -3.14042007E+00  1.05692911E+00  1.05853411E+00 -1.06288340E+00  3.13446577E+00
  9.96992113E-01 -1.09090711E+00  3.08451917E+00 -1.00348311E+00 -3.09138234E+00
  1.08404394E+00  3.14073859E+00  1.05283937E+00 -1.05491966E+00  1.08076125E+00
 -1.06552647E+00 -3.12910897E+00 -3.07316689E+00  1.06373070E+00 -9.99851799E-01
 -1.05405229E+00  3.08284530E+00  1.01926280E+00  1.48533345E+00 -1.55900355E+00
 -2.72439206E+00  5.14456240E-01 -5.77930026E-01  2.66091828E+00
SymInf integers                            I   N=          26
           1           1           1           1           1           0
           0           0           0           0           0           0
           0           0           0           0           0           0
           0           0           0           0           0           0
           0           0
RotTr to input orientation                 R   N=          12
  9.65956568E-01  2.45779686E-01  8.07480873E-02 -2.38926721E-01  9.67233670E-01
 -8.58664619E-02 -9.92065009E-02  6.36503971E-02  9.93029051E-01 -6.80127696E-01
  5.16642179E-01  1.60859065E-01
Number of contracted shells                I              110
Number of primitive shells                 I              210
Pure/Cartesian d shells                    I                0
Pure/Cartesian f shells                    I                0
Highest angular momentum                   I                2
Largest degree of contraction              I                6
Shell types                                I   N=         110
           0          -1          -1          -1          -2           0
           0           0           1           0           0           0
           1           0           0           0           1           0
          -1          -1          -1          -2           0           0
           0           1           0           0           0           1
           0           0           0           1           0          -1
          -1          -1          -2           0           0           0
           1           0           0           0           1           0
           0           0           1           0          -1          -1
          -1          -2           0           0           0           1
           0           0           0           1           0          -1
          -1          -1          -2           0           0           0
           1           0           0           0           1           0
          -1          -1          -1          -2           0           0
           0           1           0           0           0           1
           0          -1          -1          -1          -2           0
          -1          -1          -1          -2           0          -1
          -1          -1          -2           0          -1          -1
          -1          -2
Number of primitives per shell             I   N=         110
           6           3           1           1           1           3
           1           1           1           3           1           1
           1           3           1           1           1           6
           3           1           1           1           3           1
           1           1           3           1           1           1
           3           1           1           1           6           3
           1           1           1           3           1           1
           1           3           1           1           1           3
           1           1           1           6           3           1
           1           1           3           1           1           1
           3           1           1           1           6           3
           1           1           1           3           1           1
           1           3           1           1           1           6
           3           1           1           1           3           1
           1           1           3           1           1           1
           6           3           1           1           1           6
           3           1           1           1           6           3
           1           1           1           6           3           1
           1           1
Shell to atom map                          I   N=         110
           1           1           1           1           1           2
           2           2           2           3           3           3
           3           4           4           4           4           5
           5           5           5           5           6           6
           6           6           7           7           7           7
           8           8           8           8           9           9
           9           9           9          10          10          10