 Entering Gaussian System, Link 0=g16
 Initial command:
 /data0/home/software/g16/l1.exe "/data0/home/software/g16/scratch/Gau-2517194.inp" -scrdir="/data0/home/software/g16/scratch/"
 Default is to use a total of  22 processors:
                               22 via shared-memory
                                1 via Linda
 Entering Link 1 = /data0/home/software/g16/l1.exe PID=   2517195.
  
 Copyright (c) 1988,1990,1992,1993,1995,1998,2003,2009,2016,
            Gaussian, Inc.  All Rights Reserved.
  
 This is part of the Gaussian(R) 16 program.  It is based on
 the Gaussian(R) 09 system (copyright 2009, Gaussian, Inc.),
 the Gaussian(R) 03 system (copyright 2003, Gaussian, Inc.),
 the Gaussian(R) 98 system (copyright 1998, Gaussian, Inc.),
 the Gaussian(R) 94 system (copyright 1995, Gaussian, Inc.),
 the Gaussian 92(TM) system (copyright 1992, Gaussian, Inc.),
 the Gaussian 90(TM) system (copyright 1990, Gaussian, Inc.),
 the Gaussian 88(TM) system (copyright 1988, Gaussian, Inc.),
 the Gaussian 86(TM) system (copyright 1986, Carnegie Mellon
 University), and the Gaussian 82(TM) system (copyright 1983,
 Carnegie Mellon University). Gaussian is a federally registered
 trademark of Gaussian, Inc.
  
 This software contains proprietary and confidential information,
 including trade secrets, belonging to Gaussian, Inc.
  
 This software is provided under written license and may be
 used, copied, transmitted, or stored only in accord with that
 written license.
  
 The following legend is applicable only to US Government
 contracts under FAR:
  
                    RESTRICTED RIGHTS LEGEND
  
 Use, reproduction and disclosure by the US Government is
 subject to restrictions as set forth in subparagraphs (a)
 and (c) of the Commercial Computer Software - Restricted
 Rights clause in FAR 52.227-19.
  
 Gaussian, Inc.
 340 Quinnipiac St., Bldg. 40, Wallingford CT 06492
  
  
 ---------------------------------------------------------------
 Warning -- This program may not be used in any manner that
 competes with the business of Gaussian, Inc. or will provide
 assistance to any competitor of Gaussian, Inc.  The licensee
 of this program is prohibited from giving any competitor of
 Gaussian, Inc. access to this program.  By using this program,
 the user acknowledges that Gaussian, Inc. is engaged in the
 business of creating and licensing software in the field of
 computational chemistry and represents and warrants to the
 licensee that it is not a competitor of Gaussian, Inc. and that
 it will not use this program in any manner prohibited above.
 ---------------------------------------------------------------
  

 Cite this work as:
 Gaussian 16, Revision A.03,
 M. J. Frisch, G. W. Trucks, H. B. Schlegel, G. E. Scuseria, 
 M. A. Robb, J. R. Cheeseman, G. Scalmani, V. Barone, 
 G. A. Petersson, H. Nakatsuji, X. Li, M. Caricato, A. V. Marenich, 
 J. Bloino, B. G. Janesko, R. Gomperts, B. Mennucci, H. P. Hratchian, 
 J. V. Ortiz, A. F. Izmaylov, J. L. Sonnenberg, D. Williams-Young, 
 F. Ding, F. Lipparini, F. Egidi, J. Goings, B. Peng, A. Petrone, 
 T. Henderson, D. Ranasinghe, V. G. Zakrzewski, J. Gao, N. Rega, 
 G. Zheng, W. Liang, M. Hada, M. Ehara, K. Toyota, R. Fukuda, 
 J. Hasegawa, M. Ishida, T. Nakajima, Y. Honda, O. Kitao, H. Nakai, 
 T. Vreven, K. Throssell, J. A. Montgomery, Jr., J. E. Peralta, 
 F. Ogliaro, M. J. Bearpark, J. J. Heyd, E. N. Brothers, K. N. Kudin, 
 V. N. Staroverov, T. A. Keith, R. Kobayashi, J. Normand, 
 K. Raghavachari, A. P. Rendell, J. C. Burant, S. S. Iyengar, 
 J. Tomasi, M. Cossi, J. M. Millam, M. Klene, C. Adamo, R. Cammi, 
 J. W. Ochterski, R. L. Martin, K. Morokuma, O. Farkas, 
 J. B. Foresman, and D. J. Fox, Gaussian, Inc., Wallingford CT, 2016.
 
 ******************************************
 Gaussian 16:  ES64L-G16RevA.03 25-Dec-2016
                11-Oct-2023 
 ******************************************
 %mem=50GB
 %nprocshared=24
 Will use up to   24 processors via shared memory.
 ----------------------------------------
 #p M052X/6-31G* scrf=(smd,solvent=water)
 ----------------------------------------
 1/38=1,172=1/1;
 2/12=2,17=6,18=5,40=1/2;
 3/5=1,6=6,7=1,11=2,25=1,30=1,70=32201,72=1,74=-38/1,2,3;
 4//1;
 5/5=2,38=5,53=1/2;
 6/7=2,8=2,9=2,10=2,28=1/1;
 99/5=1,9=1/99;
 Leave Link    1 at Wed Oct 11 17:23:42 2023, MaxMem=  6710886400 cpu:               0.8 elap:               0.0
 (Enter /data0/home/software/g16/l101.exe)
 -------------------
 Title Card Required
 -------------------
 Symbolic Z-matrix:
 Charge =  0 Multiplicity = 1
 C                    -1.78485  -1.57499  -0.48953 
 C                    -2.74825  -1.18945  -1.39828 
 C                    -3.47242  -0.03058  -1.17099 
 C                    -3.23079   0.7417   -0.03137 
 C                    -2.25421   0.30207   0.84036 
 H                    -4.23119   0.28241  -1.8774 
 H                    -1.1823   -2.46297  -0.60368 
 H                    -2.91964  -1.79919  -2.27364 
 H                    -2.00147   0.83744   1.74444 
 C                    -3.99495   1.99952   0.24761 
 H                    -3.65973   2.46755   1.17233 
 H                    -3.86639   2.71088  -0.57092 
 H                    -5.06252   1.7849    0.33149 
 N                    -1.56063  -0.83184   0.60775 
 C                    -0.47026  -1.20531   1.54408 
 H                    -0.84909  -1.05112   2.55197 
 H                    -0.27645  -2.26563   1.39955 
 C                     0.78402  -0.3706    1.31498 
 H                     0.54561   0.68616   1.44704 
 H                     1.48962  -0.64798   2.09965 
 C                     1.40874  -0.60755  -0.05158 
 H                     0.74981  -0.30938  -0.86776 
 H                     1.68441  -1.65379  -0.19023 
 S                     2.91998   0.34174  -0.29944 
 O                     3.40026  -0.02993  -1.65089 
 O                     3.8583   -0.06709   0.77225 
 O                     2.53667   1.77037  -0.20357 
 
 ITRead=  0  0  0  0  0  0  0  0  0  0  0  0  0  0  0  0  0  0  0  0
 ITRead=  0  0  0  0  0  0  0
 MicOpt= -1 -1 -1 -1 -1 -1 -1 -1 -1 -1 -1 -1 -1 -1 -1 -1 -1 -1 -1 -1
 MicOpt= -1 -1 -1 -1 -1 -1 -1
 NAtoms=     27 NQM=       27 NQMF=       0 NMMI=      0 NMMIF=      0
                NMic=       0 NMicF=      0.
                    Isotopes and Nuclear Properties:
 (Nuclear quadrupole moments (NQMom) in fm**2, nuclear magnetic moments (NMagM)
  in nuclear magnetons)

  Atom         1           2           3           4           5           6           7           8           9          10
 IAtWgt=          12          12          12          12          12           1           1           1           1          12
 AtmWgt=  12.0000000  12.0000000  12.0000000  12.0000000  12.0000000   1.0078250   1.0078250   1.0078250   1.0078250  12.0000000
 NucSpn=           0           0           0           0           0           1           1           1           1           0
 AtZEff=  -0.0000000  -0.0000000  -0.0000000  -0.0000000  -0.0000000  -0.0000000  -0.0000000  -0.0000000  -0.0000000  -0.0000000
 NQMom=    0.0000000   0.0000000   0.0000000   0.0000000   0.0000000   0.0000000   0.0000000   0.0000000   0.0000000   0.0000000
 NMagM=    0.0000000   0.0000000   0.0000000   0.0000000   0.0000000   2.7928460   2.7928460   2.7928460   2.7928460   0.0000000
 AtZNuc=   6.0000000   6.0000000   6.0000000   6.0000000   6.0000000   1.0000000   1.0000000   1.0000000   1.0000000   6.0000000

  Atom        11          12          13          14          15          16          17          18          19          20
 IAtWgt=           1           1           1          14          12           1           1          12           1           1
 AtmWgt=   1.0078250   1.0078250   1.0078250  14.0030740  12.0000000   1.0078250   1.0078250  12.0000000   1.0078250   1.0078250
 NucSpn=           1           1           1           2           0           1           1           0           1           1
 AtZEff=  -0.0000000  -0.0000000  -0.0000000  -0.0000000  -0.0000000  -0.0000000  -0.0000000  -0.0000000  -0.0000000  -0.0000000
 NQMom=    0.0000000   0.0000000   0.0000000   2.0440000   0.0000000   0.0000000   0.0000000   0.0000000   0.0000000   0.0000000
 NMagM=    2.7928460   2.7928460   2.7928460   0.4037610   0.0000000   2.7928460   2.7928460   0.0000000   2.7928460   2.7928460
 AtZNuc=   1.0000000   1.0000000   1.0000000   7.0000000   6.0000000   1.0000000   1.0000000   6.0000000   1.0000000   1.0000000

  Atom        21          22          23          24          25          26          27
 IAtWgt=          12           1           1          32          16          16          16
 AtmWgt=  12.0000000   1.0078250   1.0078250  31.9720718  15.9949146  15.9949146  15.9949146
 NucSpn=           0           1           1           0           0           0           0
 AtZEff=  -0.0000000  -0.0000000  -0.0000000  -0.0000000  -0.0000000  -0.0000000  -0.0000000
 NQMom=    0.0000000   0.0000000   0.0000000   0.0000000   0.0000000   0.0000000   0.0000000
 NMagM=    0.0000000   2.7928460   2.7928460   0.0000000   0.0000000   0.0000000   0.0000000
 AtZNuc=   6.0000000   1.0000000   1.0000000  16.0000000   8.0000000   8.0000000   8.0000000
 Leave Link  101 at Wed Oct 11 17:23:42 2023, MaxMem=  6710886400 cpu:               2.0 elap:               0.1
 (Enter /data0/home/software/g16/l202.exe)
                          Input orientation:                          
 ---------------------------------------------------------------------
 Center     Atomic      Atomic             Coordinates (Angstroms)
 Number     Number       Type             X           Y           Z
 ---------------------------------------------------------------------
      1          6           0       -1.784851   -1.574988   -0.489527
      2          6           0       -2.748249   -1.189447   -1.398279
      3          6           0       -3.472423   -0.030579   -1.170990
      4          6           0       -3.230790    0.741700   -0.031367
      5          6           0       -2.254213    0.302072    0.840356
      6          1           0       -4.231193    0.282411   -1.877396
      7          1           0       -1.182303   -2.462974   -0.603681
      8          1           0       -2.919637   -1.799189   -2.273640
      9          1           0       -2.001472    0.837444    1.744442
     10          6           0       -3.994949    1.999520    0.247613
     11          1           0       -3.659726    2.467552    1.172329
     12          1           0       -3.866389    2.710878   -0.570924
     13          1           0       -5.062522    1.784897    0.331494
     14          7           0       -1.560628   -0.831844    0.607749
     15          6           0       -0.470258   -1.205313    1.544078
     16          1           0       -0.849094   -1.051123    2.551969
     17          1           0       -0.276449   -2.265631    1.399550
     18          6           0        0.784018   -0.370601    1.314979
     19          1           0        0.545609    0.686164    1.447037
     20          1           0        1.489623   -0.647981    2.099654
     21          6           0        1.408741   -0.607545   -0.051575
     22          1           0        0.749814   -0.309383   -0.867756
     23          1           0        1.684414   -1.653786   -0.190226
     24         16           0        2.919983    0.341743   -0.299443
     25          8           0        3.400264   -0.029925   -1.650891
     26          8           0        3.858297   -0.067088    0.772247
     27          8           0        2.536669    1.770368   -0.203572
 ---------------------------------------------------------------------
                    Distance matrix (angstroms):
                    1          2          3          4          5
     1  C    0.000000
     2  C    1.379350   0.000000
     3  C    2.386942   1.385303   0.000000
     4  C    2.769060   2.414668   1.397692   0.000000
     5  C    2.347817   2.734993   2.374912   1.380897   0.000000
     6  H    3.370564   2.143605   1.082915   2.149320   3.360805
     7  H    1.079173   2.169204   3.388663   3.846268   3.298441
     8  H    2.126280   1.080470   2.156245   3.403046   3.815109
     9  H    3.295052   3.813484   3.378891   2.161917   1.080682
    10  C    4.266734   3.799044   2.531160   1.497959   2.502566
    11  H    4.755949   4.562067   3.430289   2.147425   2.602879
    12  H    4.765299   4.140928   2.833880   2.138404   3.223844
    13  H    4.765084   4.146649   2.842855   2.138965   3.216257
    14  N    1.344081   2.358489   2.731464   2.382006   1.349419
    15  C    2.449564   3.721150   4.214806   3.727388   2.439248
    16  H    3.225023   4.385246   4.667311   3.944657   2.595210
    17  H    2.514135   3.885333   4.670908   4.451931   3.288974
    18  C    3.362421   4.528707   4.940946   4.378190   3.147793
    19  H    3.780758   4.739540   4.848955   4.055854   2.890431
    20  H    4.276141   5.521619   5.974964   5.362347   4.062603
    21  C    3.365528   4.408264   5.041006   4.831782   3.878167
    22  H    2.858206   3.645876   4.242283   4.201134   3.509373
    23  H    3.483043   4.617738   5.494512   5.470175   4.516665
    24  S    5.083842   5.973344   6.462281   6.169590   5.298398
    25  O    5.533661   6.261990   6.889422   6.869435   6.187863
    26  O    5.975864   7.043956   7.583994   7.180187   6.124026
    27  O    5.472542   6.173993   6.347322   5.861006   5.118421
                    6          7          8          9         10
     6  H    0.000000
     7  H    4.295954   0.000000
     8  H    2.492037   2.499541   0.000000
     9  H    4.289222   4.132491   4.892836   0.000000
    10  C    2.742250   5.343176   4.684357   2.750431   0.000000
    11  H    3.795028   5.796717   5.534213   2.394655   1.089279
    12  H    2.781619   5.828734   4.912869   3.514056   1.092044
    13  H    2.797815   5.828813   4.921824   3.502016   1.092159
    14  N    3.814371   2.066707   3.329424   2.067108   3.751298
    15  C    5.297588   2.588743   4.574617   2.560785   4.937127
    16  H    5.730286   3.473108   5.304079   2.355156   4.951049
    17  H    5.733314   2.207363   4.549323   3.567034   5.774575
    18  C    5.980805   3.453361   5.351272   3.066393   5.440153
    19  H    5.833756   4.136205   5.659359   2.568844   4.876494
    20  H    7.029245   4.212055   6.316055   3.810565   6.365520
    21  C    5.994539   3.234339   5.009236   4.116215   6.007176
    22  H    5.116642   2.905300   4.202488   3.963378   5.393316
    23  H    6.449016   3.007291   5.055595   4.851281   6.767090
    24  S    7.323440   4.978730   6.525504   5.352000   7.131885
    25  O    7.641204   5.293042   6.592364   6.438895   7.900135
    26  O    8.519543   5.748138   7.630071   6.008347   8.137542
    27  O    7.128791   5.649073   6.840921   5.025916   6.551192
                   11         12         13         14         15
    11  H    0.000000
    12  H    1.772244   0.000000
    13  H    1.772247   1.761401   0.000000
    14  N    3.951073   4.388244   4.380287   0.000000
    15  C    4.878611   5.598526   5.612540   1.484957   0.000000
    16  H    4.710003   5.745362   5.543148   2.081911   1.087720
    17  H    5.822475   6.444849   6.360347   2.081300   1.087531
    18  C    5.274687   5.888839   6.308363   2.492044   1.523955
    19  H    4.575331   5.257125   5.822610   2.728550   2.149206
    20  H    6.089522   6.863001   7.209431   3.400532   2.111970
    21  C    6.053389   6.253691   6.909976   3.049946   2.536547
    22  H    5.596191   5.524438   6.293446   2.790739   2.847492
    23  H    6.884898   7.071537   7.590644   3.441315   2.802062
    24  S    7.069494   7.193146   8.136410   4.719765   4.157606
    25  O    8.003213   7.841083   8.879312   5.509535   5.154639
    26  O    7.943874   8.318172   9.121684   5.475094   4.541769
    27  O    6.385490   6.482180   7.618019   4.921137   4.577179
                   16         17         18         19         20
    16  H    0.000000
    17  H    1.769469   0.000000
    18  C    2.158775   2.173219   0.000000
    19  H    2.486813   3.064495   1.091343   0.000000
    20  H    2.415928   2.495185   1.091115   1.759834   0.000000
    21  C    3.474625   2.773964   1.521148   2.159749   2.153129
    22  H    3.847233   3.165564   2.183861   2.528059   3.076928
    23  H    3.781732   2.597446   2.173228   3.074552   2.508613
    24  S    4.927126   4.461183   2.770585   2.967570   2.963300
    25  O    6.063326   5.274636   3.969532   4.273055   4.254307
    26  O    5.127891   4.724746   3.136538   3.463615   2.776700
    27  O    5.197808   5.174256   3.156189   2.804341   3.499938
                   21         22         23         24         25
    21  C    0.000000
    22  H    1.090521   0.000000
    23  H    1.090798   1.771989   0.000000
    24  S    1.801788   2.335932   2.349616   0.000000
    25  O    2.618706   2.777820   2.777518   1.481627   0.000000
    26  O    2.640284   3.522923   2.858274   1.481923   2.466328
    27  O    2.636246   2.821233   3.528647   1.482259   2.466087
                   26         27
    26  O    0.000000
    27  O    2.464786   0.000000
 Stoichiometry    C9H13NO3S
 Framework group  C1[X(C9H13NO3S)]
 Deg. of freedom    75
 Full point group                 C1      NOp   1
 Largest Abelian subgroup         C1      NOp   1
 Largest concise Abelian subgroup C1      NOp   1
                         Standard orientation:                         
 ---------------------------------------------------------------------
 Center     Atomic      Atomic             Coordinates (Angstroms)
 Number     Number       Type             X           Y           Z
 ---------------------------------------------------------------------
      1          6           0       -1.784851   -1.574988   -0.489527
      2          6           0       -2.748249   -1.189447   -1.398279
      3          6           0       -3.472423   -0.030579   -1.170990
      4          6           0       -3.230790    0.741700   -0.031367
      5          6           0       -2.254213    0.302072    0.840356
      6          1           0       -4.231193    0.282411   -1.877396
      7          1           0       -1.182303   -2.462974   -0.603681
      8          1           0       -2.919637   -1.799189   -2.273640
      9          1           0       -2.001472    0.837444    1.744442
     10          6           0       -3.994949    1.999520    0.247613
     11          1           0       -3.659726    2.467552    1.172329
     12          1           0       -3.866389    2.710878   -0.570924
     13          1           0       -5.062522    1.784897    0.331494
     14          7           0       -1.560628   -0.831844    0.607749
     15          6           0       -0.470258   -1.205313    1.544078
     16          1           0       -0.849094   -1.051123    2.551969
     17          1           0       -0.276449   -2.265631    1.399550
     18          6           0        0.784018   -0.370601    1.314979
     19          1           0        0.545609    0.686164    1.447037
     20          1           0        1.489623   -0.647981    2.099654
     21          6           0        1.408741   -0.607545   -0.051575
     22          1           0        0.749814   -0.309383   -0.867756
     23          1           0        1.684414   -1.653786   -0.190226
     24         16           0        2.919983    0.341743   -0.299443
     25          8           0        3.400264   -0.029925   -1.650891
     26          8           0        3.858297   -0.067088    0.772247
     27          8           0        2.536669    1.770368   -0.203572
 ---------------------------------------------------------------------
 Rotational constants (GHZ):           1.2058933           0.2803558           0.2752453
 Leave Link  202 at Wed Oct 11 17:23:42 2023, MaxMem=  6710886400 cpu:               0.1 elap:               0.0
 (Enter /data0/home/software/g16/l301.exe)
 Standard basis: 6-31G(d) (6D, 7F)
 Ernie: Thresh=  0.10000D-02 Tol=  0.10000D-05 Strict=F.
 There are   240 symmetry adapted cartesian basis functions of A   symmetry.
 There are   240 symmetry adapted basis functions of A   symmetry.
   240 basis functions,   468 primitive gaussians,   240 cartesian basis functions
    57 alpha electrons       57 beta electrons
       nuclear repulsion energy      1031.9087023687 Hartrees.
 IExCor= 3428 DFT=T Ex+Corr=M052X ExCW=0 ScaHFX=  0.560000
 ScaDFX=  0.440000  0.440000  1.000000  1.000000 ScalE2=  1.000000  1.000000
 IRadAn=      5 IRanWt=     -1 IRanGd=            0 ICorTp=0 IEmpDi=  4
 NAtoms=   27 NActive=   27 NUniq=   27 SFac= 1.00D+00 NAtFMM=   60 NAOKFM=F Big=F
 Integral buffers will be    131072 words long.
 Raffenetti 2 integral format.
 Two-electron integral symmetry is turned on.
 ------------------------------------------------------------------------------
 Polarizable Continuum Model (PCM)
 =================================
 Model                : PCM.
 Atomic radii         : SMD-Coulomb.
 Polarization charges : Total charges.
 Charge compensation  : None.
 Solution method      : On-the-fly selection.
 Cavity type          : VdW (van der Waals Surface) (Alpha=1.000).
 Cavity algorithm     : GePol (No added spheres)
                        Default sphere list used, NSphG=   27.
                        Lebedev-Laikov grids with approx.  5.0 points / Ang**2.
                        Smoothing algorithm: York/Karplus (Gamma=1.0000).
                        Polarization charges: spherical gaussians, with
                                              point-specific exponents (IZeta= 3).
                        Self-potential: point-specific (ISelfS= 7).
                        Self-field    : sphere-specific E.n sum rule (ISelfD= 2).
 Solvent              : Water, Eps=  78.355300 Eps(inf)=   1.777849
 ------------------------------------------------------------------------------
 GePol: Number of generator spheres                  =      27
 GePol: Total number of spheres                      =      27
 GePol: Number of exposed spheres                    =      27 (100.00%)
 GePol: Number of points                             =    1993
 GePol: Average weight of points                     =       0.12
 GePol: Minimum weight of points                     =   0.85D-09
 GePol: Maximum weight of points                     =    0.21991
 GePol: Number of points with low weight             =     144
 GePol: Fraction of low-weight points (<1% of avg)   =       7.23%
 GePol: Cavity surface area                          =    234.529 Ang**2
 GePol: Cavity volume                                =    213.349 Ang**3
 ------------------------------------------------------------------------------
 Atomic radii for non-electrostatic terms: SMD-CDS.
 ------------------------------------------------------------------------------
 PCM non-electrostatic energy =         0.0062473081 Hartrees.
 Nuclear repulsion after PCM non-electrostatic terms =     1031.9149496769 Hartrees.
 Leave Link  301 at Wed Oct 11 17:23:43 2023, MaxMem=  6710886400 cpu:               1.8 elap:               0.1
 (Enter /data0/home/software/g16/l302.exe)
 NPDir=0 NMtPBC=     1 NCelOv=     1 NCel=       1 NClECP=     1 NCelD=      1
         NCelK=      1 NCelE2=     1 NClLst=     1 CellRange=     0.0.
 One-electron integrals computed using PRISM.
 One-electron integral symmetry used in STVInt
 NBasis=   240 RedAO= T EigKep=  6.35D-04  NBF=   240
 NBsUse=   240 1.00D-06 EigRej= -1.00D+00 NBFU=   240
 Precomputing XC quadrature grid using
 IXCGrd= 4 IRadAn=           5 IRanWt=          -1 IRanGd=           0 AccXCQ= 0.00D+00.
 Generated NRdTot=       0 NPtTot=           0 NUsed=           0 NTot=          32
 NSgBfM=   239   239   239   239   239 MxSgAt=    27 MxSgA2=    27.
 Leave Link  302 at Wed Oct 11 17:23:43 2023, MaxMem=  6710886400 cpu:               5.0 elap:               0.2
 (Enter /data0/home/software/g16/l303.exe)
 DipDrv:  MaxL=1.
 Leave Link  303 at Wed Oct 11 17:23:43 2023, MaxMem=  6710886400 cpu:               0.6 elap:               0.0
 (Enter /data0/home/software/g16/l401.exe)
 ExpMin= 1.17D-01 ExpMax= 2.19D+04 ExpMxC= 3.30D+03 IAcc=3 IRadAn=         5 AccDes= 0.00D+00
 Harris functional with IExCor= 1009 and IRadAn=       5 diagonalized for initial guess.
 HarFok:  IExCor= 1009 AccDes= 0.00D+00 IRadAn=         5 IDoV= 1 UseB2=F ITyADJ=14
 ICtDFT=  3500011 ScaDFX=  1.000000  1.000000  1.000000  1.000000
 FoFCou: FMM=F IPFlag=           0 FMFlag=      100000 FMFlg1=           0
         NFxFlg=           0 DoJE=T BraDBF=F KetDBF=T FulRan=T
         wScrn=  0.000000 ICntrl=       500 IOpCl=  0 I1Cent=   200000004 NGrid=           0
         NMat0=    1 NMatS0=      1 NMatT0=    0 NMatD0=    1 NMtDS0=    0 NMtDT0=    0
 Petite list used in FoFCou.
 Harris En= -1028.66085930303    
 JPrj=0 DoOrth=F DoCkMO=F.
 Leave Link  401 at Wed Oct 11 17:23:44 2023, MaxMem=  6710886400 cpu:              15.6 elap:               0.7
 (Enter /data0/home/software/g16/l502.exe)
 Integral symmetry usage will be decided dynamically.
 Closed shell SCF:
 Using DIIS extrapolation, IDIIS=  1040.
 NGot=  6710886400 LenX=  6710762668 LenY=  6710704627
 Requested convergence on RMS density matrix=1.00D-08 within 128 cycles.
 Requested convergence on MAX density matrix=1.00D-06.
 Requested convergence on             energy=1.00D-06.
 No special actions if energy rises.
 Fock matrices will be formed incrementally for  20 cycles.

 Cycle   1  Pass 1  IDiag  1:
 FoFJK:  IHMeth= 1 ICntrl=       0 DoSepK=F KAlg= 0 I1Cent=           0 FoldK=F
 IRaf= 850000000 NMat=       1 IRICut=       1 DoRegI=T DoRafI=F ISym2E= 0 IDoP0=0 IntGTp=1.
 FoFCou: FMM=F IPFlag=           0 FMFlag=      100000 FMFlg1=           0
         NFxFlg=           0 DoJE=F BraDBF=F KetDBF=F FulRan=T
         wScrn=  0.000000 ICntrl=         0 IOpCl=  0 I1Cent=           0 NGrid=           0
         NMat0=    1 NMatS0=      1 NMatT0=    0 NMatD0=    1 NMtDS0=    0 NMtDT0=    0
 Symmetry not used in FoFCou.
 Inv3:  Mode=1 IEnd=    11916147.
 Iteration    1 A*A^-1 deviation from unit magnitude is 5.66D-15 for    226.
 Iteration    1 A*A^-1 deviation from orthogonality  is 5.03D-15 for    826    215.
 Iteration    1 A^-1*A deviation from unit magnitude is 5.77D-15 for   1981.
 Iteration    1 A^-1*A deviation from orthogonality  is 8.18D-15 for   1398    862.
 E= -1028.84126271703    
 DIIS: error= 7.00D-02 at cycle   1 NSaved=   1.
 NSaved= 1 IEnMin= 1 EnMin= -1028.84126271703     IErMin= 1 ErrMin= 7.00D-02
 ErrMax= 7.00D-02  0.00D+00 EMaxC= 1.00D-01 BMatC= 5.68D-01 BMatP= 5.68D-01
 IDIUse=3 WtCom= 3.00D-01 WtEn= 7.00D-01
 Coeff-Com:  0.100D+01
 Coeff-En:   0.100D+01
 Coeff:      0.100D+01
 Gap=     0.192 Goal=   None    Shift=    0.000
 GapD=    0.192 DampG=1.000 DampE=0.500 DampFc=0.5000 IDamp=-1.
 Damping current iteration by 5.00D-01
 RMSDP=5.25D-03 MaxDP=3.46D-01              OVMax= 1.50D-01

 Cycle   2  Pass 1  IDiag  1:
 RMSU=  2.62D-03    CP:  9.96D-01
 E= -1029.05252315429     Delta-E=       -0.211260437261 Rises=F Damp=T
 DIIS: error= 1.16D-02 at cycle   2 NSaved=   2.
 NSaved= 2 IEnMin= 2 EnMin= -1029.05252315429     IErMin= 2 ErrMin= 1.16D-02
 ErrMax= 1.16D-02  0.00D+00 EMaxC= 1.00D-01 BMatC= 3.15D-02 BMatP= 5.68D-01
 IDIUse=3 WtCom= 8.84D-01 WtEn= 1.16D-01
 Coeff-Com:  0.110D-01 0.989D+00
 Coeff-En:   0.236D-02 0.998D+00
 Coeff:      0.996D-02 0.990D+00
 Gap=     0.300 Goal=   None    Shift=    0.000
 RMSDP=1.07D-03 MaxDP=4.37D-02 DE=-2.11D-01 OVMax= 8.92D-02

 Cycle   3  Pass 1  IDiag  1:
 RMSU=  1.06D-03    CP:  9.92D-01  1.02D+00
 E= -1029.27611690845     Delta-E=       -0.223593754158 Rises=F Damp=F
 DIIS: error= 5.39D-03 at cycle   3 NSaved=   3.
 NSaved= 3 IEnMin= 3 EnMin= -1029.27611690845     IErMin= 3 ErrMin= 5.39D-03
 ErrMax= 5.39D-03  0.00D+00 EMaxC= 1.00D-01 BMatC= 8.83D-03 BMatP= 3.15D-02
 IDIUse=3 WtCom= 9.46D-01 WtEn= 5.39D-02
 Coeff-Com: -0.405D-01 0.311D+00 0.729D+00
 Coeff-En:   0.000D+00 0.000D+00 0.100D+01
 Coeff:     -0.383D-01 0.295D+00 0.744D+00
 Gap=     0.280 Goal=   None    Shift=    0.000
 RMSDP=4.57D-04 MaxDP=2.52D-02 DE=-2.24D-01 OVMax= 2.09D-02

 Cycle   4  Pass 1  IDiag  1:
 RMSU=  3.31D-04    CP:  9.95D-01  1.07D+00  7.47D-01
 E= -1029.28236375086     Delta-E=       -0.006246842412 Rises=F Damp=F
 DIIS: error= 1.30D-03 at cycle   4 NSaved=   4.
 NSaved= 4 IEnMin= 4 EnMin= -1029.28236375086     IErMin= 4 ErrMin= 1.30D-03
 ErrMax= 1.30D-03  0.00D+00 EMaxC= 1.00D-01 BMatC= 1.45D-03 BMatP= 8.83D-03
 IDIUse=3 WtCom= 9.87D-01 WtEn= 1.30D-02
 Coeff-Com: -0.119D-01 0.311D-01 0.312D+00 0.669D+00
 Coeff-En:   0.000D+00 0.000D+00 0.762D-01 0.924D+00
 Coeff:     -0.118D-01 0.307D-01 0.309D+00 0.673D+00
 Gap=     0.286 Goal=   None    Shift=    0.000
 RMSDP=1.52D-04 MaxDP=6.17D-03 DE=-6.25D-03 OVMax= 7.54D-03

 Cycle   5  Pass 1  IDiag  1:
 RMSU=  7.85D-05    CP:  9.94D-01  1.07D+00  8.26D-01  7.04D-01
 E= -1029.28364094085     Delta-E=       -0.001277189987 Rises=F Damp=F
 DIIS: error= 3.27D-04 at cycle   5 NSaved=   5.
 NSaved= 5 IEnMin= 5 EnMin= -1029.28364094085     IErMin= 5 ErrMin= 3.27D-04
 ErrMax= 3.27D-04  0.00D+00 EMaxC= 1.00D-01 BMatC= 5.29D-05 BMatP= 1.45D-03
 IDIUse=3 WtCom= 9.97D-01 WtEn= 3.27D-03
 Coeff-Com: -0.308D-02 0.371D-02 0.964D-01 0.265D+00 0.638D+00
 Coeff-En:   0.000D+00 0.000D+00 0.000D+00 0.000D+00 0.100D+01
 Coeff:     -0.307D-02 0.369D-02 0.961D-01 0.264D+00 0.639D+00
 Gap=     0.286 Goal=   None    Shift=    0.000
 RMSDP=3.21D-05 MaxDP=2.03D-03 DE=-1.28D-03 OVMax= 2.50D-03

 Cycle   6  Pass 1  IDiag  1:
 RMSU=  2.21D-05    CP:  9.94D-01  1.07D+00  8.30D-01  7.35D-01  7.43D-01
 E= -1029.28368808637     Delta-E=       -0.000047145524 Rises=F Damp=F
 DIIS: error= 9.13D-05 at cycle   6 NSaved=   6.
 NSaved= 6 IEnMin= 6 EnMin= -1029.28368808637     IErMin= 6 ErrMin= 9.13D-05
 ErrMax= 9.13D-05  0.00D+00 EMaxC= 1.00D-01 BMatC= 5.28D-06 BMatP= 5.29D-05
 IDIUse=1 WtCom= 1.00D+00 WtEn= 0.00D+00
 Coeff-Com: -0.207D-03-0.166D-02 0.961D-02 0.437D-01 0.262D+00 0.687D+00
 Coeff:     -0.207D-03-0.166D-02 0.961D-02 0.437D-01 0.262D+00 0.687D+00
 Gap=     0.286 Goal=   None    Shift=    0.000
 RMSDP=1.02D-05 MaxDP=4.33D-04 DE=-4.71D-05 OVMax= 4.18D-04

 Cycle   7  Pass 1  IDiag  1:
 RMSU=  7.92D-06    CP:  9.94D-01  1.07D+00  8.32D-01  7.42D-01  8.12D-01
                    CP:  9.10D-01
 E= -1029.28369215436     Delta-E=       -0.000004067986 Rises=F Damp=F
 DIIS: error= 3.55D-05 at cycle   7 NSaved=   7.
 NSaved= 7 IEnMin= 7 EnMin= -1029.28369215436     IErMin= 7 ErrMin= 3.55D-05
 ErrMax= 3.55D-05  0.00D+00 EMaxC= 1.00D-01 BMatC= 5.16D-07 BMatP= 5.28D-06
 IDIUse=1 WtCom= 1.00D+00 WtEn= 0.00D+00
 Coeff-Com:  0.283D-03-0.109D-02-0.902D-02-0.177D-01 0.339D-01 0.265D+00
 Coeff-Com:  0.728D+00
 Coeff:      0.283D-03-0.109D-02-0.902D-02-0.177D-01 0.339D-01 0.265D+00
 Coeff:      0.728D+00
 Gap=     0.286 Goal=   None    Shift=    0.000
 RMSDP=4.12D-06 MaxDP=1.31D-04 DE=-4.07D-06 OVMax= 2.82D-04

 Cycle   8  Pass 1  IDiag  1:
 RMSU=  2.40D-06    CP:  9.94D-01  1.07D+00  8.32D-01  7.44D-01  8.37D-01
                    CP:  9.91D-01  7.98D-01
 E= -1029.28369273957     Delta-E=       -0.000000585210 Rises=F Damp=F
 DIIS: error= 1.27D-05 at cycle   8 NSaved=   8.
 NSaved= 8 IEnMin= 8 EnMin= -1029.28369273957     IErMin= 8 ErrMin= 1.27D-05
 ErrMax= 1.27D-05  0.00D+00 EMaxC= 1.00D-01 BMatC= 4.38D-08 BMatP= 5.16D-07
 IDIUse=1 WtCom= 1.00D+00 WtEn= 0.00D+00
 Coeff-Com:  0.480D-04-0.350D-04-0.293D-02-0.850D-02-0.135D-01-0.219D-01
 Coeff-Com:  0.200D+00 0.847D+00
 Coeff:      0.480D-04-0.350D-04-0.293D-02-0.850D-02-0.135D-01-0.219D-01
 Coeff:      0.200D+00 0.847D+00
 Gap=     0.286 Goal=   None    Shift=    0.000
 RMSDP=1.21D-06 MaxDP=2.76D-05 DE=-5.85D-07 OVMax= 6.16D-05

 Cycle   9  Pass 1  IDiag  1:
 RMSU=  5.35D-07    CP:  9.94D-01  1.07D+00  8.32D-01  7.45D-01  8.43D-01
                    CP:  1.01D+00  9.03D-01  9.86D-01
 E= -1029.28369278851     Delta-E=       -0.000000048942 Rises=F Damp=F
 DIIS: error= 1.91D-06 at cycle   9 NSaved=   9.
 NSaved= 9 IEnMin= 9 EnMin= -1029.28369278851     IErMin= 9 ErrMin= 1.91D-06
 ErrMax= 1.91D-06  0.00D+00 EMaxC= 1.00D-01 BMatC= 1.54D-09 BMatP= 4.38D-08
 IDIUse=1 WtCom= 1.00D+00 WtEn= 0.00D+00
 Coeff-Com: -0.106D-04 0.577D-04-0.553D-04-0.675D-03-0.326D-02-0.204D-01
 Coeff-Com:  0.558D-02 0.126D+00 0.893D+00
 Coeff:     -0.106D-04 0.577D-04-0.553D-04-0.675D-03-0.326D-02-0.204D-01
 Coeff:      0.558D-02 0.126D+00 0.893D+00
 Gap=     0.286 Goal=   None    Shift=    0.000
 RMSDP=2.83D-07 MaxDP=6.11D-06 DE=-4.89D-08 OVMax= 2.30D-05

 Cycle  10  Pass 1  IDiag  1:
 RMSU=  1.84D-07    CP:  9.94D-01  1.07D+00  8.33D-01  7.44D-01  8.44D-01
                    CP:  1.02D+00  9.17D-01  1.04D+00  1.16D+00
 E= -1029.28369279101     Delta-E=       -0.000000002501 Rises=F Damp=F
 DIIS: error= 1.35D-06 at cycle  10 NSaved=  10.
 NSaved=10 IEnMin=10 EnMin= -1029.28369279101     IErMin=10 ErrMin= 1.35D-06
 ErrMax= 1.35D-06  0.00D+00 EMaxC= 1.00D-01 BMatC= 3.09D-10 BMatP= 1.54D-09
 IDIUse=1 WtCom= 1.00D+00 WtEn= 0.00D+00
 Coeff-Com: -0.897D-05 0.226D-04 0.345D-03 0.793D-03 0.729D-03-0.527D-02
 Coeff-Com: -0.217D-01-0.639D-01 0.311D+00 0.778D+00
 Coeff:     -0.897D-05 0.226D-04 0.345D-03 0.793D-03 0.729D-03-0.527D-02
 Coeff:     -0.217D-01-0.639D-01 0.311D+00 0.778D+00
 Gap=     0.286 Goal=   None    Shift=    0.000
 RMSDP=1.18D-07 MaxDP=3.36D-06 DE=-2.50D-09 OVMax= 1.14D-05

 Cycle  11  Pass 1  IDiag  1:
 RMSU=  6.68D-08    CP:  9.94D-01  1.07D+00  8.33D-01  7.44D-01  8.45D-01
                    CP:  1.02D+00  9.21D-01  1.05D+00  1.30D+00  9.70D-01
 E= -1029.28369279147     Delta-E=       -0.000000000462 Rises=F Damp=F
 DIIS: error= 3.22D-07 at cycle  11 NSaved=  11.
 NSaved=11 IEnMin=11 EnMin= -1029.28369279147     IErMin=11 ErrMin= 3.22D-07
 ErrMax= 3.22D-07  0.00D+00 EMaxC= 1.00D-01 BMatC= 2.58D-11 BMatP= 3.09D-10
 IDIUse=1 WtCom= 1.00D+00 WtEn= 0.00D+00
 Coeff-Com:  0.908D-06-0.472D-05 0.710D-04 0.212D-03 0.584D-03 0.111D-02
 Coeff-Com: -0.450D-02-0.243D-01-0.432D-01 0.168D+00 0.902D+00
 Coeff:      0.908D-06-0.472D-05 0.710D-04 0.212D-03 0.584D-03 0.111D-02
 Coeff:     -0.450D-02-0.243D-01-0.432D-01 0.168D+00 0.902D+00
 Gap=     0.286 Goal=   None    Shift=    0.000
 RMSDP=4.13D-08 MaxDP=8.79D-07 DE=-4.62D-10 OVMax= 5.00D-06

 Cycle  12  Pass 1  IDiag  1:
 RMSU=  2.20D-08    CP:  9.94D-01  1.07D+00  8.33D-01  7.44D-01  8.45D-01
                    CP:  1.02D+00  9.21D-01  1.06D+00  1.34D+00  1.11D+00
                    CP:  1.10D+00
 E= -1029.28369279155     Delta-E=       -0.000000000074 Rises=F Damp=F
 DIIS: error= 1.46D-07 at cycle  12 NSaved=  12.
 NSaved=12 IEnMin=12 EnMin= -1029.28369279155     IErMin=12 ErrMin= 1.46D-07
 ErrMax= 1.46D-07  0.00D+00 EMaxC= 1.00D-01 BMatC= 5.52D-12 BMatP= 2.58D-11
 IDIUse=1 WtCom= 1.00D+00 WtEn= 0.00D+00
 Coeff-Com:  0.168D-05-0.506D-05-0.608D-05 0.488D-05 0.192D-03 0.109D-02
 Coeff-Com:  0.345D-03-0.318D-02-0.579D-01-0.180D-01 0.377D+00 0.700D+00
 Coeff:      0.168D-05-0.506D-05-0.608D-05 0.488D-05 0.192D-03 0.109D-02
 Coeff:      0.345D-03-0.318D-02-0.579D-01-0.180D-01 0.377D+00 0.700D+00
 Gap=     0.286 Goal=   None    Shift=    0.000
 RMSDP=1.42D-08 MaxDP=2.80D-07 DE=-7.37D-11 OVMax= 1.23D-06

 Cycle  13  Pass 1  IDiag  1:
 RMSU=  7.84D-09    CP:  9.94D-01  1.07D+00  8.33D-01  7.44D-01  8.45D-01
                    CP:  1.02D+00  9.21D-01  1.06D+00  1.35D+00  1.13D+00
                    CP:  1.22D+00  9.07D-01
 E= -1029.28369279155     Delta-E=       -0.000000000006 Rises=F Damp=F
 DIIS: error= 3.11D-08 at cycle  13 NSaved=  13.
 NSaved=13 IEnMin=13 EnMin= -1029.28369279155     IErMin=13 ErrMin= 3.11D-08
 ErrMax= 3.11D-08  0.00D+00 EMaxC= 1.00D-01 BMatC= 4.35D-13 BMatP= 5.52D-12
 IDIUse=1 WtCom= 1.00D+00 WtEn= 0.00D+00
 Coeff-Com:  0.442D-06-0.104D-05-0.105D-04-0.252D-04-0.877D-05 0.195D-03
 Coeff-Com:  0.634D-03 0.233D-02-0.129D-01-0.254D-01 0.633D-02 0.219D+00
 Coeff-Com:  0.810D+00
 Coeff:      0.442D-06-0.104D-05-0.105D-04-0.252D-04-0.877D-05 0.195D-03
 Coeff:      0.634D-03 0.233D-02-0.129D-01-0.254D-01 0.633D-02 0.219D+00
 Coeff:      0.810D+00
 Gap=     0.286 Goal=   None    Shift=    0.000
 RMSDP=4.81D-09 MaxDP=1.25D-07 DE=-6.37D-12 OVMax= 5.68D-07

 Error on total polarization charges =  0.03866
 SCF Done:  E(RM052X) =  -1029.28369279     A.U. after   13 cycles
            NFock= 13  Conv=0.48D-08     -V/T= 2.0071
 KE= 1.022001942497D+03 PE=-4.478520080143D+03 EE= 1.395319495178D+03
 SMD-CDS (non-electrostatic) energy       (kcal/mol) =       3.92
 (included in total energy above)
 Leave Link  502 at Wed Oct 11 17:24:08 2023, MaxMem=  6710886400 cpu:             566.4 elap:              24.5
 (Enter /data0/home/software/g16/l601.exe)
 Copying SCF densities to generalized density rwf, IOpCl= 0 IROHF=0.

 **********************************************************************

            Population analysis using the SCF density.

 **********************************************************************

 Orbital symmetries:
       Occupied  (A) (A) (A) (A) (A) (A) (A) (A) (A) (A) (A) (A)
                 (A) (A) (A) (A) (A) (A) (A) (A) (A) (A) (A) (A)
                 (A) (A) (A) (A) (A) (A) (A) (A) (A) (A) (A) (A)
                 (A) (A) (A) (A) (A) (A) (A) (A) (A) (A) (A) (A)
                 (A) (A) (A) (A) (A) (A) (A) (A) (A)
       Virtual   (A) (A) (A) (A) (A) (A) (A) (A) (A) (A) (A) (A)
                 (A) (A) (A) (A) (A) (A) (A) (A) (A) (A) (A) (A)
                 (A) (A) (A) (A) (A) (A) (A) (A) (A) (A) (A) (A)
                 (A) (A) (A) (A) (A) (A) (A) (A) (A) (A) (A) (A)
                 (A) (A) (A) (A) (A) (A) (A) (A) (A) (A) (A) (A)
                 (A) (A) (A) (A) (A) (A) (A) (A) (A) (A) (A) (A)
                 (A) (A) (A) (A) (A) (A) (A) (A) (A) (A) (A) (A)
                 (A) (A) (A) (A) (A) (A) (A) (A) (A) (A) (A) (A)
                 (A) (A) (A) (A) (A) (A) (A) (A) (A) (A) (A) (A)
                 (A) (A) (A) (A) (A) (A) (A) (A) (A) (A) (A) (A)
                 (A) (A) (A) (A) (A) (A) (A) (A) (A) (A) (A) (A)
                 (A) (A) (A) (A) (A) (A) (A) (A) (A) (A) (A) (A)
                 (A) (A) (A) (A) (A) (A) (A) (A) (A) (A) (A) (A)
                 (A) (A) (A) (A) (A) (A) (A) (A) (A) (A) (A) (A)
                 (A) (A) (A) (A) (A) (A) (A) (A) (A) (A) (A) (A)
                 (A) (A) (A)
 The electronic state is 1-A.
 Alpha  occ. eigenvalues --  -90.22867 -19.64208 -19.64188 -19.64184 -14.92216
 Alpha  occ. eigenvalues --  -10.65800 -10.65495 -10.62991 -10.62367 -10.62154
 Alpha  occ. eigenvalues --  -10.61213 -10.59014 -10.58505 -10.57125  -8.43514
 Alpha  occ. eigenvalues --   -6.36144  -6.36144  -6.36035  -1.22132  -1.15896
 Alpha  occ. eigenvalues --   -1.07244  -1.07207  -0.97691  -0.92795  -0.91253
 Alpha  occ. eigenvalues --   -0.83974  -0.82800  -0.76433  -0.74209  -0.71285
 Alpha  occ. eigenvalues --   -0.65278  -0.63248  -0.61339  -0.58873  -0.57260
 Alpha  occ. eigenvalues --   -0.55957  -0.54253  -0.54157  -0.53306  -0.52264
 Alpha  occ. eigenvalues --   -0.51531  -0.49830  -0.49229  -0.47634  -0.45564
 Alpha  occ. eigenvalues --   -0.44982  -0.44380  -0.43128  -0.42264  -0.40415
 Alpha  occ. eigenvalues --   -0.40334  -0.37410  -0.35821  -0.35799  -0.34411
 Alpha  occ. eigenvalues --   -0.33918  -0.31997
 Alpha virt. eigenvalues --   -0.03422   0.00632   0.12916   0.15546   0.15972
 Alpha virt. eigenvalues --    0.16297   0.17420   0.18215   0.19068   0.19734
 Alpha virt. eigenvalues --    0.19805   0.20326   0.21114   0.22000   0.22112
 Alpha virt. eigenvalues --    0.23131   0.23748   0.25199   0.25610   0.26435
 Alpha virt. eigenvalues --    0.27015   0.29071   0.29850   0.31697   0.33949
 Alpha virt. eigenvalues --    0.35011   0.36173   0.39196   0.40952   0.44745
 Alpha virt. eigenvalues --    0.46289   0.47241   0.48410   0.48974   0.54564
 Alpha virt. eigenvalues --    0.55970   0.57208   0.58062   0.59040   0.60150
 Alpha virt. eigenvalues --    0.61282   0.61550   0.62298   0.64019   0.64874
 Alpha virt. eigenvalues --    0.67435   0.69292   0.69681   0.70515   0.72070
 Alpha virt. eigenvalues --    0.74319   0.75904   0.76357   0.79869   0.81378
 Alpha virt. eigenvalues --    0.82121   0.85629   0.86721   0.87853   0.88335
 Alpha virt. eigenvalues --    0.89406   0.89867   0.91191   0.91485   0.92868
 Alpha virt. eigenvalues --    0.94866   0.96292   0.97228   0.97554   0.99419
 Alpha virt. eigenvalues --    0.99725   1.00107   1.01824   1.03687   1.05550
 Alpha virt. eigenvalues --    1.06196   1.07033   1.09256   1.09441   1.11109
 Alpha virt. eigenvalues --    1.12330   1.12760   1.13039   1.14349   1.15096
 Alpha virt. eigenvalues --    1.15240   1.16465   1.19590   1.21702   1.23486
 Alpha virt. eigenvalues --    1.27044   1.28410   1.30306   1.31878   1.32152
 Alpha virt. eigenvalues --    1.38279   1.39174   1.41541   1.43841   1.48155
 Alpha virt. eigenvalues --    1.49873   1.52206   1.52589   1.52905   1.54069
 Alpha virt. eigenvalues --    1.57754   1.61825   1.67725   1.70573   1.75043
 Alpha virt. eigenvalues --    1.76307   1.77599   1.83216   1.85733   1.87940
 Alpha virt. eigenvalues --    1.88578   1.90702   1.91086   1.91487   1.91718
 Alpha virt. eigenvalues --    1.92198   1.94642   1.94826   1.95500   1.97235
 Alpha virt. eigenvalues --    1.98338   2.01751   2.02366   2.04298   2.07085
 Alpha virt. eigenvalues --    2.07758   2.08501   2.13021   2.14871   2.17003
 Alpha virt. eigenvalues --    2.18323   2.21010   2.22074   2.22984   2.24751
 Alpha virt. eigenvalues --    2.25027   2.29265   2.31736   2.33542   2.35830
 Alpha virt. eigenvalues --    2.37675   2.37858   2.38558   2.40576   2.44817
 Alpha virt. eigenvalues --    2.46027   2.49343   2.49917   2.54467   2.64122
 Alpha virt. eigenvalues --    2.65028   2.67256   2.72145   2.73343   2.75306
 Alpha virt. eigenvalues --    2.76772   2.81620   2.84495   2.86014   2.88726
 Alpha virt. eigenvalues --    2.90031   2.90796   3.11356   3.45453   3.78698
 Alpha virt. eigenvalues --    3.87033   3.99907   4.07983   4.11001   4.13323
 Alpha virt. eigenvalues --    4.15239   4.25051   4.30244   4.31002   4.39323
 Alpha virt. eigenvalues --    4.43682   4.56282   4.70249
          Condensed to atoms (all electrons):
               1          2          3          4          5          6
     1  C    4.796685   0.537439  -0.039273  -0.032241  -0.062507   0.004231
     2  C    0.537439   4.929773   0.511588  -0.009257  -0.042429  -0.035951
     3  C   -0.039273   0.511588   4.908204   0.522809  -0.037011   0.373283
     4  C   -0.032241  -0.009257   0.522809   4.706562   0.565782  -0.038275
     5  C   -0.062507  -0.042429  -0.037011   0.565782   4.858842   0.005244
     6  H    0.004231  -0.035951   0.373283  -0.038275   0.005244   0.443402
     7  H    0.373590  -0.026134   0.003102   0.000162   0.003032  -0.000090
     8  H   -0.031433   0.372442  -0.026554   0.002824   0.000515  -0.003540
     9  H    0.003125  -0.000238   0.004436  -0.025233   0.370535  -0.000085
    10  C    0.000349   0.005433  -0.060505   0.365381  -0.052281  -0.005405
    11  H    0.000006  -0.000150   0.004159  -0.031401  -0.003255   0.000034
    12  H    0.000019  -0.000014  -0.004194  -0.027926   0.000951   0.001268
    13  H    0.000018  -0.000026  -0.004125  -0.027591   0.000851   0.001206
    14  N    0.381807  -0.016134  -0.045085  -0.008215   0.346696  -0.000081
    15  C   -0.036465   0.004408   0.000302   0.003479  -0.036823   0.000007
    16  H    0.002558  -0.000249   0.000023   0.000260  -0.002592  -0.000000
    17  H   -0.001186   0.000596  -0.000022  -0.000156   0.003369  -0.000000
    18  C   -0.003323  -0.000326   0.000050  -0.000073  -0.003513   0.000000
    19  H    0.000051   0.000022  -0.000006  -0.000046   0.004168  -0.000000
    20  H   -0.000050   0.000003  -0.000000   0.000001   0.000025   0.000000
    21  C    0.001773  -0.000414   0.000042  -0.000100   0.000236   0.000000
    22  H    0.002006   0.000029   0.000073  -0.000121   0.000486   0.000001
    23  H    0.000145   0.000016  -0.000001   0.000002   0.000025  -0.000000
    24  S   -0.000036  -0.000001  -0.000000  -0.000004  -0.000013   0.000000
    25  O    0.000001  -0.000000  -0.000000   0.000000   0.000000  -0.000000
    26  O   -0.000000  -0.000000   0.000000  -0.000000   0.000000   0.000000
    27  O    0.000000   0.000000  -0.000000  -0.000000  -0.000003   0.000000
               7          8          9         10         11         12
     1  C    0.373590  -0.031433   0.003125   0.000349   0.000006   0.000019
     2  C   -0.026134   0.372442  -0.000238   0.005433  -0.000150  -0.000014
     3  C    0.003102  -0.026554   0.004436  -0.060505   0.004159  -0.004194
     4  C    0.000162   0.002824  -0.025233   0.365381  -0.031401  -0.027926
     5  C    0.003032   0.000515   0.370535  -0.052281  -0.003255   0.000951
     6  H   -0.000090  -0.003540  -0.000085  -0.005405   0.000034   0.001268
     7  H    0.397309  -0.002366  -0.000099   0.000006  -0.000000  -0.000000
     8  H   -0.002366   0.422698   0.000011  -0.000119   0.000001   0.000000
     9  H   -0.000099   0.000011   0.404793  -0.004957   0.004008   0.000061
    10  C    0.000006  -0.000119  -0.004957   5.187873   0.377404   0.375477
    11  H   -0.000000   0.000001   0.004008   0.377404   0.477533  -0.021390
    12  H   -0.000000   0.000000   0.000061   0.375477  -0.021390   0.477179
    13  H   -0.000000   0.000000   0.000061   0.374880  -0.021430  -0.023132
    14  N   -0.042148   0.002999  -0.044811   0.004656   0.000117  -0.000091
    15  C   -0.003226  -0.000087  -0.001627  -0.000119  -0.000002   0.000002
    16  H    0.000178   0.000002   0.001434  -0.000002  -0.000000   0.000000
    17  H    0.002454  -0.000000   0.000166   0.000002   0.000000  -0.000000
    18  C   -0.000094   0.000001  -0.000135   0.000004  -0.000001  -0.000000
    19  H    0.000011   0.000000   0.001135   0.000005   0.000003  -0.000001
    20  H   -0.000025  -0.000000  -0.000054  -0.000000  -0.000000   0.000000
    21  C    0.000520  -0.000005   0.000030  -0.000001  -0.000000  -0.000000
    22  H   -0.000113  -0.000011   0.000008  -0.000002  -0.000000   0.000000
    23  H    0.000374  -0.000000  -0.000000   0.000000   0.000000  -0.000000
    24  S    0.000006   0.000000  -0.000003  -0.000000  -0.000000  -0.000000
    25  O    0.000000   0.000000   0.000000  -0.000000  -0.000000  -0.000000
    26  O    0.000000  -0.000000   0.000000  -0.000000  -0.000000  -0.000000
    27  O    0.000000   0.000000  -0.000002   0.000000  -0.000000   0.000000
              13         14         15         16         17         18
     1  C    0.000018   0.381807  -0.036465   0.002558  -0.001186  -0.003323
     2  C   -0.000026  -0.016134   0.004408  -0.000249   0.000596  -0.000326
     3  C   -0.004125  -0.045085   0.000302   0.000023  -0.000022   0.000050
     4  C   -0.027591  -0.008215   0.003479   0.000260  -0.000156  -0.000073
     5  C    0.000851   0.346696  -0.036823  -0.002592   0.003369  -0.003513
     6  H    0.001206  -0.000081   0.000007  -0.000000  -0.000000   0.000000
     7  H   -0.000000  -0.042148  -0.003226   0.000178   0.002454  -0.000094
     8  H    0.000000   0.002999  -0.000087   0.000002  -0.000000   0.000001
     9  H    0.000061  -0.044811  -0.001627   0.001434   0.000166  -0.000135
    10  C    0.374880   0.004656  -0.000119  -0.000002   0.000002   0.000004
    11  H   -0.021430   0.000117  -0.000002  -0.000000   0.000000  -0.000001
    12  H   -0.023132  -0.000091   0.000002   0.000000  -0.000000  -0.000000
    13  H    0.477899  -0.000102   0.000002  -0.000000  -0.000000   0.000000
    14  N   -0.000102   6.740698   0.230876  -0.033092  -0.035383  -0.059169
    15  C    0.000002   0.230876   5.080962   0.387956   0.387028   0.332263
    16  H   -0.000000  -0.033092   0.387956   0.440169  -0.020112  -0.033005
    17  H   -0.000000  -0.035383   0.387028  -0.020112   0.443067  -0.032539
    18  C    0.000000  -0.059169   0.332263  -0.033005  -0.032539   5.182633
    19  H   -0.000000  -0.004747  -0.033166  -0.002795   0.003609   0.379008
    20  H    0.000000   0.003781  -0.032018  -0.002581  -0.001594   0.379217
    21  C    0.000000  -0.003504  -0.039833   0.003917  -0.004960   0.270147
    22  H    0.000000   0.002198  -0.006727  -0.000018  -0.000012  -0.030223
    23  H   -0.000000  -0.000315  -0.002573   0.000012   0.002887  -0.033875
    24  S    0.000000  -0.000100   0.000235   0.000022  -0.000043  -0.002006
    25  O    0.000000   0.000000  -0.000040   0.000000  -0.000000   0.002340
    26  O    0.000000  -0.000001   0.000028  -0.000001   0.000003  -0.003983
    27  O    0.000000   0.000001   0.000044   0.000001  -0.000001  -0.004528
              19         20         21         22         23         24
     1  C    0.000051  -0.000050   0.001773   0.002006   0.000145  -0.000036
     2  C    0.000022   0.000003  -0.000414   0.000029   0.000016  -0.000001
     3  C   -0.000006  -0.000000   0.000042   0.000073  -0.000001  -0.000000
     4  C   -0.000046   0.000001  -0.000100  -0.000121   0.000002  -0.000004
     5  C    0.004168   0.000025   0.000236   0.000486   0.000025  -0.000013
     6  H   -0.000000   0.000000   0.000000   0.000001  -0.000000   0.000000
     7  H    0.000011  -0.000025   0.000520  -0.000113   0.000374   0.000006
     8  H    0.000000  -0.000000  -0.000005  -0.000011  -0.000000   0.000000
     9  H    0.001135  -0.000054   0.000030   0.000008  -0.000000  -0.000003
    10  C    0.000005  -0.000000  -0.000001  -0.000002   0.000000  -0.000000
    11  H    0.000003  -0.000000  -0.000000  -0.000000   0.000000  -0.000000
    12  H   -0.000001   0.000000  -0.000000   0.000000  -0.000000  -0.000000
    13  H   -0.000000   0.000000   0.000000   0.000000  -0.000000   0.000000
    14  N   -0.004747   0.003781  -0.003504   0.002198  -0.000315  -0.000100
    15  C   -0.033166  -0.032018  -0.039833  -0.006727  -0.002573   0.000235
    16  H   -0.002795  -0.002581   0.003917  -0.000018   0.000012   0.000022
    17  H    0.003609  -0.001594  -0.004960  -0.000012   0.002887  -0.000043
    18  C    0.379008   0.379217   0.270147  -0.030223  -0.033875  -0.002006
    19  H    0.493516  -0.022466  -0.042338  -0.002723   0.004318  -0.000292
    20  H   -0.022466   0.482299  -0.038270   0.004194  -0.003045  -0.000279
    21  C   -0.042338  -0.038270   5.703127   0.348104   0.351210   0.202657
    22  H   -0.002723   0.004194   0.348104   0.473062  -0.022905  -0.005117
    23  H    0.004318  -0.003045   0.351210  -0.022905   0.471207  -0.006694
    24  S   -0.000292  -0.000279   0.202657  -0.005117  -0.006694  13.350633
    25  O    0.000016   0.000018  -0.063400  -0.000067  -0.000165   0.438519
    26  O   -0.000606   0.008685  -0.066727   0.001996  -0.001312   0.430485
    27  O    0.008379  -0.000483  -0.066493  -0.001109   0.001986   0.429104
              25         26         27
     1  C    0.000001  -0.000000   0.000000
     2  C   -0.000000  -0.000000   0.000000
     3  C   -0.000000   0.000000  -0.000000
     4  C    0.000000  -0.000000  -0.000000
     5  C    0.000000   0.000000  -0.000003
     6  H   -0.000000   0.000000   0.000000
     7  H    0.000000   0.000000   0.000000
     8  H    0.000000  -0.000000   0.000000
     9  H    0.000000   0.000000  -0.000002
    10  C   -0.000000  -0.000000   0.000000
    11  H   -0.000000  -0.000000  -0.000000
    12  H   -0.000000  -0.000000   0.000000
    13  H    0.000000   0.000000   0.000000
    14  N    0.000000  -0.000001   0.000001
    15  C   -0.000040   0.000028   0.000044
    16  H    0.000000  -0.000001   0.000001
    17  H   -0.000000   0.000003  -0.000001
    18  C    0.002340  -0.003983  -0.004528
    19  H    0.000016  -0.000606   0.008379
    20  H    0.000018   0.008685  -0.000483
    21  C   -0.063400  -0.066727  -0.066493
    22  H   -0.000067   0.001996  -0.001109
    23  H   -0.000165  -0.001312   0.001986
    24  S    0.438519   0.430485   0.429104
    25  O    8.441273  -0.060841  -0.060763
    26  O   -0.060841   8.453422  -0.060854
    27  O   -0.060763  -0.060854   8.456131
 Mulliken charges:
               1
     1  C    0.102712
     2  C   -0.230425
     3  C   -0.111295
     4  C    0.033377
     5  C    0.079671
     6  H    0.254751
     7  H    0.293549
     8  H    0.262622
     9  H    0.287442
    10  C   -0.568080
    11  H    0.214364
    12  H    0.221790
    13  H    0.221489
    14  N   -0.420851
    15  C   -0.234886
    16  H    0.257916
    17  H    0.252826
    18  C   -0.338869
    19  H    0.214945
    20  H    0.222641
    21  C   -0.555718
    22  H    0.236990
    23  H    0.238704
    24  S    1.162928
    25  O   -0.696889
    26  O   -0.700294
    27  O   -0.701410
 Sum of Mulliken charges =  -0.00000
 Mulliken charges with hydrogens summed into heavy atoms:
               1
     1  C    0.396261
     2  C    0.032197
     3  C    0.143456
     4  C    0.033377
     5  C    0.367113
    10  C    0.089564
    14  N   -0.420851
    15  C    0.275856
    18  C    0.098716
    21  C   -0.080024
    24  S    1.162928
    25  O   -0.696889
    26  O   -0.700294
    27  O   -0.701410
 Electronic spatial extent (au):  <R**2>=           4125.8415
 Charge=             -0.0000 electrons
 Dipole moment (field-independent basis, Debye):
    X=            -27.7676    Y=             -6.8072    Z=              3.4885  Tot=             28.8019
 Quadrupole moment (field-independent basis, Debye-Ang):
   XX=           -124.8557   YY=            -83.2043   ZZ=            -84.7375
   XY=            -12.5619   XZ=             11.9015   YZ=              2.9287
 Traceless Quadrupole moment (field-independent basis, Debye-Ang):
   XX=            -27.2565   YY=             14.3948   ZZ=             12.8617
   XY=            -12.5619   XZ=             11.9015   YZ=              2.9287
 Octapole moment (field-independent basis, Debye-Ang**2):
  XXX=           -334.0348  YYY=            -32.1015  ZZZ=             18.4325  XYY=            -36.4668
  XXY=              2.9468  XXZ=             -8.6671  XZZ=            -53.0574  YZZ=             -7.5944
  YYZ=             -0.2482  XYZ=             -8.8172
 Hexadecapole moment (field-independent basis, Debye-Ang**3):
 XXXX=          -4509.9523 YYYY=           -647.6852 ZZZZ=           -552.7338 XXXY=           -136.6527
 XXXZ=            148.5905 YYYX=            -44.6963 YYYZ=             12.6514 ZZZX=             61.8914
 ZZZY=              6.4955 XXYY=           -776.2126 XXZZ=           -806.4562 YYZZ=           -186.8589
 XXYZ=             25.1751 YYXZ=             15.1422 ZZXY=             12.1397
 N-N= 1.031914949677D+03 E-N=-4.478520080782D+03  KE= 1.022001942497D+03
 No NMR shielding tensors so no spin-rotation constants.
 Leave Link  601 at Wed Oct 11 17:24:08 2023, MaxMem=  6710886400 cpu:               2.4 elap:               0.1
 (Enter /data0/home/software/g16/l9999.exe)
 1\1\GINC-LOCALHOST\SP\RM052X\6-31G(d)\C9H13N1O3S1\WUHANYU\11-Oct-2023\
 0\\#p M052X/6-31G* scrf=(smd,solvent=water)\\Title Card Required\\0,1\
 C,0,-1.784851,-1.574988,-0.489527\C,0,-2.748249,-1.189447,-1.398279\C,
 0,-3.472423,-0.030579,-1.17099\C,0,-3.23079,0.7417,-0.031367\C,0,-2.25
 4213,0.302072,0.840356\H,0,-4.231193,0.282411,-1.877396\H,0,-1.182303,
 -2.462974,-0.603681\H,0,-2.919637,-1.799189,-2.27364\H,0,-2.001472,0.8
 37444,1.744442\C,0,-3.994949,1.99952,0.247613\H,0,-3.659726,2.467552,1
 .172329\H,0,-3.866389,2.710878,-0.570924\H,0,-5.062522,1.784897,0.3314
 94\N,0,-1.560628,-0.831844,0.607749\C,0,-0.470258,-1.205313,1.544078\H
 ,0,-0.849094,-1.051123,2.551969\H,0,-0.276449,-2.265631,1.39955\C,0,0.
 784018,-0.370601,1.314979\H,0,0.545609,0.686164,1.447037\H,0,1.489623,
 -0.647981,2.099654\C,0,1.408741,-0.607545,-0.051575\H,0,0.749814,-0.30
 9383,-0.867756\H,0,1.684414,-1.653786,-0.190226\S,0,2.919983,0.341743,
 -0.299443\O,0,3.400264,-0.029925,-1.650891\O,0,3.858297,-0.067088,0.77
 2247\O,0,2.536669,1.770368,-0.203572\\Version=ES64L-G16RevA.03\State=1
 -A\HF=-1029.2836928\RMSD=4.809e-09\Dipole=-10.924628,-2.6781454,1.3724
 899\Quadrupole=-20.2645723,10.7022114,9.5623609,-9.3394646,8.8484496,2
 .1774389\PG=C01 [X(C9H13N1O3S1)]\\@


 TO ERR IS HUMAN - AND TO BLAME IT ON A COMPUTER IS EVEN MORE SO.
 Job cpu time:       0 days  0 hours  9 minutes 55.4 seconds.
 Elapsed time:       0 days  0 hours  0 minutes 25.9 seconds.
 File lengths (MBytes):  RWF=    103 Int=      0 D2E=      0 Chk=      5 Scr=      1
 Normal termination of Gaussian 16 at Wed Oct 11 17:24:08 2023.
