 Entering Gaussian System, Link 0=g16
 Initial command:
 /data0/hywu0/study/g16/l1.exe "/data0/hywu0/study/g16/scratch/Gau-2712190.inp" -scrdir="/data0/hywu0/study/g16/scratch/"
 Default is to use a total of  16 processors:
                               16 via shared-memory
                                1 via Linda
 Entering Link 1 = /data0/hywu0/study/g16/l1.exe PID=   2712191.
  
 Copyright (c) 1988,1990,1992,1993,1995,1998,2003,2009,2016,
            Gaussian, Inc.  All Rights Reserved.
  
 This is part of the Gaussian(R) 16 program.  It is based on
 the Gaussian(R) 09 system (copyright 2009, Gaussian, Inc.),
 the Gaussian(R) 03 system (copyright 2003, Gaussian, Inc.),
 the Gaussian(R) 98 system (copyright 1998, Gaussian, Inc.),
 the Gaussian(R) 94 system (copyright 1995, Gaussian, Inc.),
 the Gaussian 92(TM) system (copyright 1992, Gaussian, Inc.),
 the Gaussian 90(TM) system (copyright 1990, Gaussian, Inc.),
 the Gaussian 88(TM) system (copyright 1988, Gaussian, Inc.),
 the Gaussian 86(TM) system (copyright 1986, Carnegie Mellon
 University), and the Gaussian 82(TM) system (copyright 1983,
 Carnegie Mellon University). Gaussian is a federally registered
 trademark of Gaussian, Inc.
  
 This software contains proprietary and confidential information,
 including trade secrets, belonging to Gaussian, Inc.
  
 This software is provided under written license and may be
 used, copied, transmitted, or stored only in accord with that
 written license.
  
 The following legend is applicable only to US Government
 contracts under FAR:
  
                    RESTRICTED RIGHTS LEGEND
  
 Use, reproduction and disclosure by the US Government is
 subject to restrictions as set forth in subparagraphs (a)
 and (c) of the Commercial Computer Software - Restricted
 Rights clause in FAR 52.227-19.
  
 Gaussian, Inc.
 340 Quinnipiac St., Bldg. 40, Wallingford CT 06492
  
  
 ---------------------------------------------------------------
 Warning -- This program may not be used in any manner that
 competes with the business of Gaussian, Inc. or will provide
 assistance to any competitor of Gaussian, Inc.  The licensee
 of this program is prohibited from giving any competitor of
 Gaussian, Inc. access to this program.  By using this program,
 the user acknowledges that Gaussian, Inc. is engaged in the
 business of creating and licensing software in the field of
 computational chemistry and represents and warrants to the
 licensee that it is not a competitor of Gaussian, Inc. and that
 it will not use this program in any manner prohibited above.
 ---------------------------------------------------------------
  

 Cite this work as:
 Gaussian 16, Revision A.03,
 M. J. Frisch, G. W. Trucks, H. B. Schlegel, G. E. Scuseria, 
 M. A. Robb, J. R. Cheeseman, G. Scalmani, V. Barone, 
 G. A. Petersson, H. Nakatsuji, X. Li, M. Caricato, A. V. Marenich, 
 J. Bloino, B. G. Janesko, R. Gomperts, B. Mennucci, H. P. Hratchian, 
 J. V. Ortiz, A. F. Izmaylov, J. L. Sonnenberg, D. Williams-Young, 
 F. Ding, F. Lipparini, F. Egidi, J. Goings, B. Peng, A. Petrone, 
 T. Henderson, D. Ranasinghe, V. G. Zakrzewski, J. Gao, N. Rega, 
 G. Zheng, W. Liang, M. Hada, M. Ehara, K. Toyota, R. Fukuda, 
 J. Hasegawa, M. Ishida, T. Nakajima, Y. Honda, O. Kitao, H. Nakai, 
 T. Vreven, K. Throssell, J. A. Montgomery, Jr., J. E. Peralta, 
 F. Ogliaro, M. J. Bearpark, J. J. Heyd, E. N. Brothers, K. N. Kudin, 
 V. N. Staroverov, T. A. Keith, R. Kobayashi, J. Normand, 
 K. Raghavachari, A. P. Rendell, J. C. Burant, S. S. Iyengar, 
 J. Tomasi, M. Cossi, J. M. Millam, M. Klene, C. Adamo, R. Cammi, 
 J. W. Ochterski, R. L. Martin, K. Morokuma, O. Farkas, 
 J. B. Foresman, and D. J. Fox, Gaussian, Inc., Wallingford CT, 2016.
 
 ******************************************
 Gaussian 16:  ES64L-G16RevA.03 25-Dec-2016
                12-May-2022 
 ******************************************
 %nproc=16
 Will use up to   16 processors via shared memory.
 %mem=40000MB
 ---------------------------------------------------
 #p M062X/6-311+G(2d,p) nosymm em=GD3 counterpoise=5
 ---------------------------------------------------
 1/38=1,62=5,172=1/1;
 2/12=2,15=1,17=6,18=5,40=1/2;
 1/38=1,53=2,62=5,63=1/22;
 3/5=4,6=6,7=112,11=2,25=1,30=1,74=-55,124=31/1,2,3;
 4//1;
 5/5=2,38=5/2;
 6/7=2,8=2,9=2,10=2,28=1/1;
 1/53=2,62=5,63=1/22;
 3/5=7,6=11,7=112,11=2,25=1,30=1,74=-55,82=7,124=31/1,2,3;
 4//1;
 5/5=2,38=5/2;
 6/7=2,8=2,9=2,10=2,28=1/1;
 1/53=2,62=5,63=1/22(-4);
 99/5=1,9=1/99;
 Leave Link    1 at Thu May 12 22:08:06 2022, MaxMem=  5242880000 cpu:               0.5 elap:               0.0
 (Enter /data0/hywu0/study/g16/l101.exe)
 -------------------
 Title Card Required
 -------------------
 Symbolic Z-matrix:
 Charge =  0 Multiplicity = 1 in supermolecule
 Charge =  0 Multiplicity = 1 in fragment      1.
 Charge =  0 Multiplicity = 1 in fragment      2.
 Charge =  0 Multiplicity = 1 in fragment      3.
 Charge =  0 Multiplicity = 1 in fragment      4.
 Charge =  0 Multiplicity = 1 in fragment      5.
 C                     10.9962   7.95437   11.13808    
 C                     11.59988   9.16004   11.47835    
 C                     9.37383   9.40329   11.71809    
 N                     9.62395   8.12302   11.30453    
 H                     11.43522   7.0419    10.76169    
 H                     12.63471   9.4391    11.44811    
 H                     8.38421   9.84706   11.86913    
 C                     8.60022   7.12648   11.05403    
 H                     8.99418   6.28713   10.44546    
 H                     8.19298   6.72873   11.99762    
 H                     7.75184   7.57622   10.46896    
 N                     10.58122   10.04198   11.84601    
 C                     10.75795   11.44132   12.23808    
 H                     11.34045   11.4653   13.18836    
 H                     9.75175   11.88437   12.45663    
 C                     11.47537   12.27877   11.15693    
 H                     12.09408   13.04899   11.6617    
 H                     12.20032   11.64446   10.59509    
 C                     10.52034   12.96047   10.183     
 H                     11.08151   13.59771   9.4747     
 H                     9.82484   13.63969   10.70546    
 S                     9.57044   11.74302   9.24776    
 O                     8.97071   12.41118   8.08444    
 O                     10.57737   10.70653   8.87859    
 O                     8.59431   11.23182   10.25024    
 P                     10.13086   7.44911   7.47456    
 O                     11.15321   6.81341   8.29833    
 O                     8.73998   7.40761   8.23734    
 H                     8.01817   7.96195   7.73662    
 O                     10.38225   8.91622   6.94903    
 H                     10.55828   9.58684   7.77861    
 O                     9.77018   6.69905   6.10435    
 H                     10.4622   6.98263   5.4023     
 O                     6.67216   9.02304   7.14036    
 H                     6.18033   8.62141   6.43313    
 H                     7.17018   9.77239   6.71438    
 O                     8.20171   10.86733   5.94532    
 H                     8.35715   11.58384   6.60916    
 H                     9.00746   10.34266   6.01278    
 O                     6.62265   9.2895    10.09019    
 H                     6.49962   9.18369   9.14203    
 H                     7.22573   10.05638   10.15051    
 
 ITRead=  0  0  0  0  0  0  0  0  0  0  0  0  0  0  0  0  0  0  0  0
 ITRead=  0  0  0  0  0  0  0  0  0  0  0  0  0  0  0  0  0  0  0  0
 ITRead=  0  0
 MicOpt= -1 -1 -1 -1 -1 -1 -1 -1 -1 -1 -1 -1 -1 -1 -1 -1 -1 -1 -1 -1
 MicOpt= -1 -1 -1 -1 -1 -1 -1 -1 -1 -1 -1 -1 -1 -1 -1 -1 -1 -1 -1 -1
 MicOpt= -1 -1
 NAtoms=     42 NQM=       42 NQMF=       0 NMMI=      0 NMMIF=      0
                NMic=       0 NMicF=      0.
                    Isotopes and Nuclear Properties:
 (Nuclear quadrupole moments (NQMom) in fm**2, nuclear magnetic moments (NMagM)
  in nuclear magnetons)

  Atom         1           2           3           4           5           6           7           8           9          10
 IAtWgt=          12          12          12          14           1           1           1          12           1           1
 AtmWgt=  12.0000000  12.0000000  12.0000000  14.0030740   1.0078250   1.0078250   1.0078250  12.0000000   1.0078250   1.0078250
 NucSpn=           0           0           0           2           1           1           1           0           1           1
 AtZEff=  -0.0000000  -0.0000000  -0.0000000  -0.0000000  -0.0000000  -0.0000000  -0.0000000  -0.0000000  -0.0000000  -0.0000000
 NQMom=    0.0000000   0.0000000   0.0000000   2.0440000   0.0000000   0.0000000   0.0000000   0.0000000   0.0000000   0.0000000
 NMagM=    0.0000000   0.0000000   0.0000000   0.4037610   2.7928460   2.7928460   2.7928460   0.0000000   2.7928460   2.7928460
 AtZNuc=   6.0000000   6.0000000   6.0000000   7.0000000   1.0000000   1.0000000   1.0000000   6.0000000   1.0000000   1.0000000

  Atom        11          12          13          14          15          16          17          18          19          20
 IAtWgt=           1          14          12           1           1          12           1           1          12           1
 AtmWgt=   1.0078250  14.0030740  12.0000000   1.0078250   1.0078250  12.0000000   1.0078250   1.0078250  12.0000000   1.0078250
 NucSpn=           1           2           0           1           1           0           1           1           0           1
 AtZEff=  -0.0000000  -0.0000000  -0.0000000  -0.0000000  -0.0000000  -0.0000000  -0.0000000  -0.0000000  -0.0000000  -0.0000000
 NQMom=    0.0000000   2.0440000   0.0000000   0.0000000   0.0000000   0.0000000   0.0000000   0.0000000   0.0000000   0.0000000
 NMagM=    2.7928460   0.4037610   0.0000000   2.7928460   2.7928460   0.0000000   2.7928460   2.7928460   0.0000000   2.7928460
 AtZNuc=   1.0000000   7.0000000   6.0000000   1.0000000   1.0000000   6.0000000   1.0000000   1.0000000   6.0000000   1.0000000

  Atom        21          22          23          24          25          26          27          28          29          30
 IAtWgt=           1          32          16          16          16          31          16          16           1          16
 AtmWgt=   1.0078250  31.9720718  15.9949146  15.9949146  15.9949146  30.9737634  15.9949146  15.9949146   1.0078250  15.9949146
 NucSpn=           1           0           0           0           0           1           0           0           1           0
 AtZEff=  -0.0000000  -0.0000000  -0.0000000  -0.0000000  -0.0000000  -0.0000000  -0.0000000  -0.0000000  -0.0000000  -0.0000000
 NQMom=    0.0000000   0.0000000   0.0000000   0.0000000   0.0000000   0.0000000   0.0000000   0.0000000   0.0000000   0.0000000
 NMagM=    2.7928460   0.0000000   0.0000000   0.0000000   0.0000000   1.1316000   0.0000000   0.0000000   2.7928460   0.0000000
 AtZNuc=   1.0000000  16.0000000   8.0000000   8.0000000   8.0000000  15.0000000   8.0000000   8.0000000   1.0000000   8.0000000

  Atom        31          32          33          34          35          36          37          38          39          40
 IAtWgt=           1          16           1          16           1           1          16           1           1          16
 AtmWgt=   1.0078250  15.9949146   1.0078250  15.9949146   1.0078250   1.0078250  15.9949146   1.0078250   1.0078250  15.9949146
 NucSpn=           1           0           1           0           1           1           0           1           1           0
 AtZEff=  -0.0000000  -0.0000000  -0.0000000  -0.0000000  -0.0000000  -0.0000000  -0.0000000  -0.0000000  -0.0000000  -0.0000000
 NQMom=    0.0000000   0.0000000   0.0000000   0.0000000   0.0000000   0.0000000   0.0000000   0.0000000   0.0000000   0.0000000
 NMagM=    2.7928460   0.0000000   2.7928460   0.0000000   2.7928460   2.7928460   0.0000000   2.7928460   2.7928460   0.0000000
 AtZNuc=   1.0000000   8.0000000   1.0000000   8.0000000   1.0000000   1.0000000   8.0000000   1.0000000   1.0000000   8.0000000

  Atom        41          42
 IAtWgt=           1           1
 AtmWgt=   1.0078250   1.0078250
 NucSpn=           1           1
 AtZEff=  -0.0000000  -0.0000000
 NQMom=    0.0000000   0.0000000
 NMagM=    2.7928460   2.7928460
 AtZNuc=   1.0000000   1.0000000
 Leave Link  101 at Thu May 12 22:08:06 2022, MaxMem=  5242880000 cpu:               1.5 elap:               0.1
 (Enter /data0/hywu0/study/g16/l202.exe)
                          Input orientation:                          
 ---------------------------------------------------------------------
 Center     Atomic      Atomic             Coordinates (Angstroms)
 Number     Number       Type             X           Y           Z
 ---------------------------------------------------------------------
      1          6           0       10.996203    7.954371   11.138083
      2          6           0       11.599877    9.160041   11.478352
      3          6           0        9.373827    9.403292   11.718093
      4          7           0        9.623953    8.123020   11.304530
      5          1           0       11.435224    7.041895   10.761688
      6          1           0       12.634707    9.439103   11.448111
      7          1           0        8.384206    9.847057   11.869127
      8          6           0        8.600223    7.126480   11.054029
      9          1           0        8.994181    6.287131   10.445456
     10          1           0        8.192975    6.728727   11.997619
     11          1           0        7.751843    7.576215   10.468959
     12          7           0       10.581225   10.041981   11.846007
     13          6           0       10.757954   11.441316   12.238075
     14          1           0       11.340451   11.465300   13.188364
     15          1           0        9.751752   11.884365   12.456632
     16          6           0       11.475371   12.278767   11.156927
     17          1           0       12.094080   13.048990   11.661704
     18          1           0       12.200320   11.644459   10.595085
     19          6           0       10.520343   12.960470   10.182997
     20          1           0       11.081507   13.597710    9.474696
     21          1           0        9.824844   13.639694   10.705462
     22         16           0        9.570444   11.743016    9.247762
     23          8           0        8.970711   12.411181    8.084441
     24          8           0       10.577371   10.706526    8.878586
     25          8           0        8.594315   11.231815   10.250245
     26         15           0       10.130861    7.449115    7.474560
     27          8           0       11.153215    6.813412    8.298325
     28          8           0        8.739975    7.407611    8.237345
     29          1           0        8.018170    7.961954    7.736617
     30          8           0       10.382252    8.916224    6.949025
     31          1           0       10.558283    9.586841    7.778612
     32          8           0        9.770184    6.699050    6.104347
     33          1           0       10.462198    6.982634    5.402295
     34          8           0        6.672164    9.023042    7.140364
     35          1           0        6.180332    8.621413    6.433125
     36          1           0        7.170178    9.772395    6.714376
     37          8           0        8.201705   10.867328    5.945323
     38          1           0        8.357150   11.583840    6.609160
     39          1           0        9.007458   10.342656    6.012781
     40          8           0        6.622647    9.289502   10.090189
     41          1           0        6.499619    9.183694    9.142028
     42          1           0        7.225727   10.056383   10.150510
 ---------------------------------------------------------------------
                    Distance matrix (angstroms):
                    1          2          3          4          5
     1  C    0.000000
     2  C    1.390628   0.000000
     3  C    2.251197   2.252098   0.000000
     4  N    1.392558   2.238281   1.368464   0.000000
     5  H    1.080289   2.242155   3.277234   2.178121   0.000000
     6  H    2.232766   1.072224   3.272233   3.288971   2.767046
     7  H    3.307448   3.311380   1.095029   2.197281   4.289996
     8  C    2.536373   3.648746   2.494658   1.450471   2.851289
     9  H    2.695833   4.013744   3.387358   2.122524   2.574561
    10  H    3.177907   4.217571   2.936979   2.114740   3.483931
    11  H    3.334157   4.281909   2.743971   2.121785   3.733428
    12  N    2.243096   1.396653   1.371895   2.211782   3.302359
    13  C    3.664087   2.547593   2.517882   3.628850   4.689703
    14  H    4.080292   2.881955   3.206429   4.203098   5.046211
    15  H    4.328058   3.434318   2.616102   3.935910   5.399669
    16  C    4.350903   3.137717   3.605517   4.551897   5.251919
    17  H    5.237810   3.924510   4.549074   5.522163   6.109772
    18  H    3.919374   2.704261   3.777968   4.420578   4.668696
    19  C    5.118560   4.157716   4.040363   5.046016   6.016762
    20  H    5.883996   4.896555   5.053924   5.953569   6.690305
    21  H    5.820837   4.880102   4.379034   5.552741   6.791718
    22  S    4.467654   3.970628   3.408152   4.163836   5.279196
    23  O    5.769792   5.385263   4.734271   5.402224   6.486194
    24  O    3.585402   3.193105   3.348095   3.669975   4.208504
    25  O    4.159202   3.851480   2.470974   3.440389   5.088002
    26  P    3.798092   4.595174   4.732809   3.921705   3.559832
    27  O    3.064419   3.977279   4.644191   3.618146   2.489958
    28  O    3.715346   4.664137   4.062034   3.271216   3.710852
    29  H    4.520919   5.316448   4.446056   3.915927   4.655515
    30  O    4.341694   4.696473   4.898792   4.491616   4.377015
    31  H    3.760688   3.867189   4.117783   3.930374   4.018024
    32  O    5.330802   6.187421   6.243730   5.393605   4.957895
    33  H    5.841977   6.553921   6.850799   6.069556   5.447328
    34  O    5.985075   6.566526   5.329088   5.182989   6.302830
    35  H    6.765662   7.424009   6.224197   5.986444   6.988936
    36  H    6.124774   6.533963   5.479917   5.459942   6.482822
    37  O    6.577180   6.713927   6.069773   6.186689   6.948882
    38  H    6.375640   6.332386   5.647089   5.968967   6.880937
    39  H    5.993975   6.163739   5.793722   5.771435   6.272255
    40  O    4.691338   5.168808   3.198751   3.441387   5.353835
    41  H    5.070970   5.609956   3.865929   3.944985   5.618790
    42  H    4.428346   4.658302   2.738280   3.289551   5.213496
                    6          7          8          9         10
     6  H    0.000000
     7  H    4.290739   0.000000
     8  C    4.666968   2.848260   0.000000
     9  H    4.918707   3.882265   1.109086   0.000000
    10  H    5.232311   3.126829   1.102007   1.801707   0.000000
    11  H    5.317090   2.741729   1.124419   1.790445   1.802674
    12  N    2.176826   2.205770   3.612720   4.310354   4.087099
    13  C    2.855714   2.883134   4.967452   5.734980   5.370794
    14  H    2.968005   3.619182   5.557841   6.312049   5.810301
    15  H    3.912525   2.523087   5.092228   5.995646   5.405653
    16  C    3.080997   3.996967   5.901112   6.523971   6.502602
    17  H    3.656389   4.904953   6.903074   7.537332   7.434863
    18  H    2.404151   4.406423   5.795124   6.245213   6.495409
    19  C    4.297799   4.135149   6.203305   6.850658   6.895224
    20  H    4.858066   5.203473   7.108297   7.664455   7.867127
    21  H    5.108016   4.220622   6.636501   7.403903   7.217626
    22  S    4.420323   3.445776   5.051370   5.615446   5.882366
    23  O    5.794169   4.608966   6.073202   6.563454   6.943207
    24  O    3.527244   3.806835   4.632321   4.949002   5.588971
    25  O    4.579680   2.140673   4.183286   4.964665   4.846874
    26  P    5.100824   5.302183   3.906347   3.386513   4.973170
    27  O    4.360072   5.442521   3.769573   3.090076   4.738667
    28  O    5.441040   4.389454   2.834127   2.489147   3.860020
    29  H    6.104881   4.556889   3.470162   3.330982   4.439318
    30  O    5.058530   5.391293   4.819737   4.589543   5.921687
    31  H    4.218837   4.639681   4.540455   4.521787   5.618142
    32  O    6.653510   6.712941   5.104004   4.429118   6.100748
    33  H    6.877930   7.371763   5.952289   5.298327   6.979408
    34  O    7.367612   5.096203   4.757219   4.878586   5.582981
    35  H    8.214479   5.992444   5.426182   5.428206   6.212615
    36  H    7.237431   5.296310   5.280008   5.421717   6.182450
    37  O    7.209161   6.013794   6.344418   6.469731   7.332011
    38  H    6.805354   5.539350   6.299524   6.571005   7.254968
    39  H    6.596678   5.910233   5.993647   6.008000   7.038619
    40  O    6.165322   2.564874   3.085200   3.842476   3.558341
    41  H    6.559158   3.380649   3.507195   4.038792   4.129009
    42  H    5.596594   2.083155   3.360047   4.173929   3.926917
                   11         12         13         14         15
    11  H    0.000000
    12  N    3.997708   0.000000
    13  C    5.206292   1.463929   0.000000
    14  H    5.949643   2.098615   1.114866   0.000000
    15  H    5.148848   2.110750   1.120938   1.798614   0.000000
    16  C    6.037546   2.505502   1.544310   2.192412   2.194459
    17  H    7.087237   3.371172   2.168422   2.325236   2.734001
    18  H    6.029549   2.598886   2.195701   2.737986   3.085190
    19  C    6.061070   3.359596   2.566639   3.455480   2.630238
    20  H    6.952239   4.303093   3.520083   4.290170   3.687240
    21  H    6.412413   3.849220   2.837686   3.631784   2.480548
    22  S    4.707533   3.265896   3.231590   4.328787   3.217095
    23  O    5.527066   4.728239   4.624668   5.706171   4.472540
    24  O    4.506855   3.040925   3.443645   4.442096   3.856341
    25  O    3.757793   2.812467   2.945623   4.028439   2.575583
    26  P    3.826527   5.102483   6.246758   7.088047   6.681033
    27  O    4.106440   4.830826   6.090596   6.751859   6.705981
    28  O    2.446412   4.832447   6.029001   6.909407   6.234373
    29  H    2.772259   5.270944   6.314705   7.282344   6.377237
    30  O    4.593976   5.028653   5.872929   6.807737   6.288174
    31  H    4.376836   4.092845   4.833814   5.779776   5.273801
    32  O    4.888042   6.693253   7.815843   8.681369   8.199961
    33  H    5.776629   7.134087   8.166713   9.027098   8.619476
    34  O    3.786629   6.201780   6.966232   8.020962   6.777443
    35  H    4.455339   7.119351   7.912264   8.963692   7.725577
    36  H    4.388443   6.167784   6.794754   7.884772   6.640666
    37  O    5.612226   6.415714   6.816348   7.916498   6.770093
    38  H    5.596919   5.894778   6.121181   7.224961   6.018983
    39  H    5.393263   6.049271   6.559388   7.628380   6.667387
    40  O    2.086601   4.395391   5.132688   6.049005   4.703686
    41  H    2.431625   4.970681   5.728506   6.709114   5.371833
    42  H    2.555277   3.759559   4.330427   5.305144   3.878211
                   16         17         18         19         20
    16  C    0.000000
    17  H    1.109434   0.000000
    18  H    1.115152   1.766825   0.000000
    19  C    1.524906   2.161263   2.173482   0.000000
    20  H    2.173624   2.471720   2.514399   1.105744   0.000000
    21  H    2.186363   2.532343   3.104196   1.103646   1.759474
    22  S    2.749670   3.728461   2.956559   1.805316   2.403061
    23  O    3.966236   4.791560   4.161919   2.665899   2.792153
    24  O    2.910186   3.941229   2.541663   2.604804   2.994736
    25  O    3.196665   4.188400   3.645883   2.588891   3.519241
    26  P    6.220376   7.262576   5.623277   6.153240   6.535250
    27  O    6.176204   7.147026   5.450739   6.460560   6.885905
    28  O    6.303532   7.402798   5.956829   6.147318   6.732840
    29  H    6.502740   7.609027   6.262752   6.101705   6.645803
    30  O    5.496184   6.497650   4.903304   5.180113   5.365099
    31  H    4.415940   5.424348   3.855204   4.142931   4.386061
    32  O    7.718126   8.752511   7.108401   7.510227   7.789116
    33  H    7.886148   8.868140   7.191575   7.654607   7.792767
    34  O    7.057147   8.126989   7.026196   6.290424   6.768973
    35  H    7.982981   9.050629   7.918395   7.191985   7.618150
    36  H    6.674792   7.710833   6.623206   5.780896   6.127879
    37  O    6.314259   7.251706   6.181678   5.264523   5.310812
    38  H    5.557734   6.452868   5.537258   4.398503   4.437239
    39  H    6.025061   6.982966   5.734681   5.150968   5.184777
    40  O    5.798497   6.822022   6.075457   5.355059   6.230644
    41  H    6.196564   7.251708   6.376890   5.613722   6.370864
    42  H    4.900137   5.911029   5.240821   4.391955   5.278708
                   21         22         23         24         25
    21  H    0.000000
    22  S    2.405618   0.000000
    23  O    3.018036   1.469503   0.000000
    24  O    3.536559   1.491477   2.473433   0.000000
    25  O    2.742135   1.489673   2.494651   2.467770   0.000000
    26  P    6.989681   4.679305   5.132251   3.575107   4.937025
    27  O    7.359144   5.263800   6.011995   3.978019   5.466283
    28  O    6.790243   4.528395   5.011221   3.830151   4.324063
    29  H    6.656939   4.357699   4.563325   3.922535   4.164404
    30  O    6.060750   3.732824   3.936539   2.639405   4.410979
    31  H    5.052722   2.789860   3.254353   1.569714   3.559786
    32  O    8.327412   5.946642   6.098227   4.940427   6.254366
    33  H    8.535001   6.184180   6.235989   5.095609   6.711717
    34  O    6.630444   4.498823   4.201677   4.594146   4.271382
    35  H    7.531167   5.399949   4.987525   5.446276   5.216504
    36  H    6.158898   4.007826   3.475944   4.143111   4.081721
    37  O    5.742780   3.680541   2.747850   3.778052   4.338127
    38  H    4.812520   2.908546   1.799279   3.293836   3.665743
    39  H    5.793085   3.569743   2.927784   3.287836   4.349413
    40  O    5.436616   3.926693   4.391049   4.372160   2.772305
    41  H    5.775585   3.998909   4.200174   4.360789   3.132203
    42  H    4.461334   3.026117   3.585901   3.643349   1.806826
                   26         27         28         29         30
    26  P    0.000000
    27  O    1.458737   0.000000
    28  O    1.586861   2.486065   0.000000
    29  H    2.189781   3.385731   1.038762   0.000000
    30  O    1.578542   2.614730   2.575414   2.668298   0.000000
    31  H    2.201138   2.883740   2.875017   3.015658   1.081170
    32  O    1.603175   2.596034   2.472462   2.707173   2.450300
    33  H    2.149807   2.982135   3.344274   3.518721   2.477405
    34  O    3.814645   5.128660   2.844086   1.814706   3.716554
    35  H    4.250359   5.610473   3.358615   2.347685   4.243725
    36  H    3.839421   5.208556   3.221164   2.245387   3.332493
    37  O    4.212409   5.539157   4.184823   3.418131   3.093382
    38  H    4.581585   5.781716   4.498714   3.808428   3.366411
    39  H    3.430949   4.720545   3.692522   3.101297   2.191191
    40  O    4.747221   5.465148   3.384911   3.041245   4.913337
    41  H    4.356045   5.290182   2.998686   2.402879   4.467174
    42  H    4.732690   5.419651   3.601269   3.292640   4.638224
                   31         32         33         34         35
    31  H    0.000000
    32  O    3.429811   0.000000
    33  H    3.526756   1.025758   0.000000
    34  O    3.978335   4.008990   4.642037   0.000000
    35  H    4.680688   4.085415   4.699211   0.950469   0.000000
    36  H    3.556161   4.071562   4.510179   0.995497   1.543910
    37  O    3.248701   4.456451   4.527202   2.677501   3.060724
    38  H    3.193839   5.110056   5.201812   3.111116   3.680421
    39  H    2.468699   3.723708   3.711968   2.909712   3.336466
    40  O    4.573951   5.701260   6.483837   2.962249   3.743809
    41  H    4.300487   5.108577   5.876419   2.015500   2.785006
    42  H    4.117317   5.841009   6.516765   3.230357   4.119580
                   36         37         38         39         40
    36  H    0.000000
    37  O    1.689488   0.000000
    38  H    2.168250   0.989056   0.000000
    39  H    2.047689   0.963882   1.522861   0.000000
    40  O    3.453851   4.707746   4.515534   4.839598   0.000000
    41  H    2.586448   3.993826   3.953042   4.174283   0.961946
    42  H    3.448297   4.392467   4.019254   4.514124   0.977472
                   41         42
    41  H    0.000000
    42  H    1.518504   0.000000
 Symmetry turned off by external request.
 Stoichiometry    C7H21N2O10PS
 Framework group  C1[X(C7H21N2O10PS)]
 Deg. of freedom   120
 Full point group                 C1      NOp   1
 Rotational constants (GHZ):           0.3122030           0.2227827           0.1819289
 Leave Link  202 at Thu May 12 22:08:06 2022, MaxMem=  5242880000 cpu:               0.1 elap:               0.0
 (Enter /data0/hywu0/study/g16/l122.exe)
 Counterpoise: doing full-system calculation.
 Leave Link  122 at Thu May 12 22:08:06 2022, MaxMem=  5242880000 cpu:               0.0 elap:               0.0
 (Enter /data0/hywu0/study/g16/l301.exe)
 Standard basis: 6-311+G(2d,p) (5D, 7F)
 Ernie: Thresh=  0.10000D-02 Tol=  0.10000D-05 Strict=F.
   709 basis functions,  1078 primitive gaussians,   751 cartesian basis functions
    94 alpha electrons       94 beta electrons
       nuclear repulsion energy      2548.3932756387 Hartrees.
 IExCor= 4336 DFT=T Ex+Corr=M062X ExCW=0 ScaHFX=  0.540000
 ScaDFX=  1.000000  1.000000  1.000000  1.000000 ScalE2=  1.000000  1.000000
 IRadAn=      5 IRanWt=     -1 IRanGd=            0 ICorTp=0 IEmpDi=131
 NAtoms=   42 NActive=   42 NUniq=   42 SFac= 1.00D+00 NAtFMM=   60 NAOKFM=F Big=F
 Integral buffers will be    131072 words long.
 Raffenetti 2 integral format.
 Two-electron integral symmetry is turned off.
 R6Disp:  Grimme-D3 Dispersion energy=       -0.0040318290 Hartrees.
 Nuclear repulsion after empirical dispersion term =     2548.3892438097 Hartrees.
 Leave Link  301 at Thu May 12 22:08:06 2022, MaxMem=  5242880000 cpu:               0.8 elap:               0.1
 (Enter /data0/hywu0/study/g16/l302.exe)
 NPDir=0 NMtPBC=     1 NCelOv=     1 NCel=       1 NClECP=     1 NCelD=      1
         NCelK=      1 NCelE2=     1 NClLst=     1 CellRange=     0.0.
 One-electron integrals computed using PRISM.
 NBasis=   709 RedAO= T EigKep=  6.55D-06  NBF=   709
 NBsUse=   709 1.00D-06 EigRej= -1.00D+00 NBFU=   709
 Precomputing XC quadrature grid using
 IXCGrd= 4 IRadAn=           5 IRanWt=          -1 IRanGd=           0 AccXCQ= 0.00D+00.
 Generated NRdTot=       0 NPtTot=           0 NUsed=           0 NTot=          32
 NSgBfM=   749   745   747   749   749 MxSgAt=    42 MxSgA2=    42.
 Leave Link  302 at Thu May 12 22:08:07 2022, MaxMem=  5242880000 cpu:              13.2 elap:               0.8
 (Enter /data0/hywu0/study/g16/l303.exe)
 DipDrv:  MaxL=1.
 Leave Link  303 at Thu May 12 22:08:07 2022, MaxMem=  5242880000 cpu:               1.5 elap:               0.1
 (Enter /data0/hywu0/study/g16/l401.exe)
 ExpMin= 3.48D-02 ExpMax= 9.34D+04 ExpMxC= 3.17D+03 IAcc=3 IRadAn=         5 AccDes= 0.00D+00
 Harris functional with IExCor= 1009 and IRadAn=       5 diagonalized for initial guess.
 HarFok:  IExCor= 1009 AccDes= 0.00D+00 IRadAn=         5 IDoV= 1 UseB2=F ITyADJ=14
 ICtDFT=  3500011 ScaDFX=  1.000000  1.000000  1.000000  1.000000
 FoFCou: FMM=F IPFlag=           0 FMFlag=      100000 FMFlg1=           0
         NFxFlg=           0 DoJE=T BraDBF=F KetDBF=T FulRan=T
         wScrn=  0.000000 ICntrl=       500 IOpCl=  0 I1Cent=   200000004 NGrid=           0
         NMat0=    1 NMatS0=      1 NMatT0=    0 NMatD0=    1 NMtDS0=    0 NMtDT0=    0
 Symmetry not used in FoFCou.
 Harris En= -1880.01759079987    
 JPrj=0 DoOrth=F DoCkMO=F.
 Leave Link  401 at Thu May 12 22:08:12 2022, MaxMem=  5242880000 cpu:              67.0 elap:               4.2
 (Enter /data0/hywu0/study/g16/l502.exe)
 Two-electron integral symmetry not used.
 Closed shell SCF:
 Using DIIS extrapolation, IDIIS=  1040.
 NGot=  5242880000 LenX=  5241734753 LenY=  5241170001
 Requested convergence on RMS density matrix=1.00D-08 within 128 cycles.
 Requested convergence on MAX density matrix=1.00D-06.
 Requested convergence on             energy=1.00D-06.
 No special actions if energy rises.
 Fock matrices will be formed incrementally for  20 cycles.

 Cycle   1  Pass 1  IDiag  1:
 FoFJK:  IHMeth= 1 ICntrl=       0 DoSepK=F KAlg= 0 I1Cent=           0 FoldK=F
 IRaf= 820000000 NMat=       1 IRICut=       1 DoRegI=T DoRafI=F ISym2E= 0 IDoP0=0 IntGTp=1.
 FoFCou: FMM=F IPFlag=           0 FMFlag=      100000 FMFlg1=           0
         NFxFlg=           0 DoJE=F BraDBF=F KetDBF=F FulRan=T
         wScrn=  0.000000 ICntrl=         0 IOpCl=  0 I1Cent=           0 NGrid=           0
         NMat0=    1 NMatS0=      1 NMatT0=    0 NMatD0=    1 NMtDS0=    0 NMtDT0=    0
 Symmetry not used in FoFCou.
 E= -1879.89093049867    
 DIIS: error= 2.50D-02 at cycle   1 NSaved=   1.
 NSaved= 1 IEnMin= 1 EnMin= -1879.89093049867     IErMin= 1 ErrMin= 2.50D-02
 ErrMax= 2.50D-02  0.00D+00 EMaxC= 1.00D-01 BMatC= 1.48D+00 BMatP= 1.48D+00
 IDIUse=3 WtCom= 7.50D-01 WtEn= 2.50D-01
 Coeff-Com:  0.100D+01
 Coeff-En:   0.100D+01
 Coeff:      0.100D+01
 Gap=     0.279 Goal=   None    Shift=    0.000
 GapD=    0.279 DampG=1.000 DampE=0.500 DampFc=0.5000 IDamp=-1.
 Damping current iteration by 5.00D-01
 RMSDP=4.60D-03 MaxDP=2.99D-01              OVMax= 2.26D-01

 Cycle   2  Pass 1  IDiag  1:
 RMSU=  2.30D-03    CP:  9.97D-01
 E= -1880.27192945140     Delta-E=       -0.380998952732 Rises=F Damp=T
 DIIS: error= 4.69D-03 at cycle   2 NSaved=   2.
 NSaved= 2 IEnMin= 2 EnMin= -1880.27192945140     IErMin= 2 ErrMin= 4.69D-03
 ErrMax= 4.69D-03  0.00D+00 EMaxC= 1.00D-01 BMatC= 8.24D-02 BMatP= 1.48D+00
 IDIUse=3 WtCom= 9.53D-01 WtEn= 4.69D-02
 Coeff-Com:  0.294D-01 0.971D+00
 Coeff-En:   0.120D+00 0.880D+00
 Coeff:      0.336D-01 0.966D+00
 Gap=     0.347 Goal=   None    Shift=    0.000
 RMSDP=2.19D-03 MaxDP=5.30D-01 DE=-3.81D-01 OVMax= 1.21D-01

 Cycle   3  Pass 1  IDiag  1:
 RMSU=  1.59D-03    CP:  8.76D-01  8.27D-01
 E= -1880.73352303430     Delta-E=       -0.461593582902 Rises=F Damp=F
 DIIS: error= 3.72D-03 at cycle   3 NSaved=   3.
 NSaved= 3 IEnMin= 3 EnMin= -1880.73352303430     IErMin= 3 ErrMin= 3.72D-03
 ErrMax= 3.72D-03  0.00D+00 EMaxC= 1.00D-01 BMatC= 2.66D-02 BMatP= 8.24D-02
 IDIUse=3 WtCom= 9.63D-01 WtEn= 3.72D-02
 Coeff-Com: -0.470D-01 0.317D+00 0.730D+00
 Coeff-En:   0.000D+00 0.000D+00 0.100D+01
 Coeff:     -0.453D-01 0.306D+00 0.740D+00
 Gap=     0.302 Goal=   None    Shift=    0.000
 RMSDP=4.49D-04 MaxDP=2.68D-02 DE=-4.62D-01 OVMax= 3.79D-02

 Cycle   4  Pass 1  IDiag  1:
 RMSU=  3.94D-04    CP:  8.73D-01  9.16D-01  9.68D-01
 E= -1880.74748241361     Delta-E=       -0.013959379310 Rises=F Damp=F
 DIIS: error= 2.56D-03 at cycle   4 NSaved=   4.
 NSaved= 4 IEnMin= 4 EnMin= -1880.74748241361     IErMin= 4 ErrMin= 2.56D-03
 ErrMax= 2.56D-03  0.00D+00 EMaxC= 1.00D-01 BMatC= 8.03D-03 BMatP= 2.66D-02
 IDIUse=3 WtCom= 9.74D-01 WtEn= 2.56D-02
 Coeff-Com: -0.272D-01 0.745D-01 0.401D+00 0.552D+00
 Coeff-En:   0.000D+00 0.000D+00 0.214D+00 0.786D+00
 Coeff:     -0.265D-01 0.726D-01 0.396D+00 0.558D+00
 Gap=     0.300 Goal=   None    Shift=    0.000
 RMSDP=1.86D-04 MaxDP=2.12D-02 DE=-1.40D-02 OVMax= 1.40D-02

 Cycle   5  Pass 1  IDiag  1:
 RMSU=  1.07D-04    CP:  8.70D-01  9.03D-01  1.01D+00  6.73D-01
 E= -1880.75326612515     Delta-E=       -0.005783711538 Rises=F Damp=F
 DIIS: error= 4.08D-04 at cycle   5 NSaved=   5.
 NSaved= 5 IEnMin= 5 EnMin= -1880.75326612515     IErMin= 5 ErrMin= 4.08D-04
 ErrMax= 4.08D-04  0.00D+00 EMaxC= 1.00D-01 BMatC= 2.31D-04 BMatP= 8.03D-03
 IDIUse=3 WtCom= 9.96D-01 WtEn= 4.08D-03
 Coeff-Com: -0.813D-02 0.154D-01 0.127D+00 0.234D+00 0.632D+00
 Coeff-En:   0.000D+00 0.000D+00 0.000D+00 0.000D+00 0.100D+01
 Coeff:     -0.810D-02 0.153D-01 0.126D+00 0.233D+00 0.634D+00
 Gap=     0.298 Goal=   None    Shift=    0.000
 RMSDP=3.89D-05 MaxDP=2.64D-03 DE=-5.78D-03 OVMax= 2.91D-03

 Cycle   6  Pass 1  IDiag  1:
 RMSU=  2.92D-05    CP:  8.69D-01  9.02D-01  1.01D+00  7.04D-01  8.12D-01
 E= -1880.75342732654     Delta-E=       -0.000161201395 Rises=F Damp=F
 DIIS: error= 1.06D-04 at cycle   6 NSaved=   6.
 NSaved= 6 IEnMin= 6 EnMin= -1880.75342732654     IErMin= 6 ErrMin= 1.06D-04
 ErrMax= 1.06D-04  0.00D+00 EMaxC= 1.00D-01 BMatC= 2.40D-05 BMatP= 2.31D-04
 IDIUse=3 WtCom= 9.99D-01 WtEn= 1.06D-03
 Coeff-Com: -0.167D-02 0.155D-02 0.273D-01 0.657D-01 0.300D+00 0.607D+00
 Coeff-En:   0.000D+00 0.000D+00 0.000D+00 0.000D+00 0.000D+00 0.100D+01
 Coeff:     -0.166D-02 0.155D-02 0.273D-01 0.656D-01 0.300D+00 0.607D+00
 Gap=     0.298 Goal=   None    Shift=    0.000
 RMSDP=1.26D-05 MaxDP=1.31D-03 DE=-1.61D-04 OVMax= 1.09D-03

 Cycle   7  Pass 1  IDiag  1:
 RMSU=  1.07D-05    CP:  8.69D-01  9.01D-01  1.01D+00  7.11D-01  8.28D-01
                    CP:  8.37D-01
 E= -1880.75344600138     Delta-E=       -0.000018674838 Rises=F Damp=F
 DIIS: error= 3.78D-05 at cycle   7 NSaved=   7.
 NSaved= 7 IEnMin= 7 EnMin= -1880.75344600138     IErMin= 7 ErrMin= 3.78D-05
 ErrMax= 3.78D-05  0.00D+00 EMaxC= 1.00D-01 BMatC= 2.37D-06 BMatP= 2.40D-05
 IDIUse=1 WtCom= 1.00D+00 WtEn= 0.00D+00
 Coeff-Com:  0.165D-03-0.101D-02-0.259D-02 0.336D-02 0.700D-01 0.268D+00
 Coeff-Com:  0.662D+00
 Coeff:      0.165D-03-0.101D-02-0.259D-02 0.336D-02 0.700D-01 0.268D+00
 Coeff:      0.662D+00
 Gap=     0.298 Goal=   None    Shift=    0.000
 RMSDP=4.27D-06 MaxDP=4.58D-04 DE=-1.87D-05 OVMax= 4.37D-04

 Cycle   8  Pass 1  IDiag  1:
 RMSU=  3.30D-06    CP:  8.69D-01  9.01D-01  1.01D+00  7.14D-01  8.40D-01
                    CP:  8.80D-01  9.52D-01
 E= -1880.75344786774     Delta-E=       -0.000001866362 Rises=F Damp=F
 DIIS: error= 1.24D-05 at cycle   8 NSaved=   8.
 NSaved= 8 IEnMin= 8 EnMin= -1880.75344786774     IErMin= 8 ErrMin= 1.24D-05
 ErrMax= 1.24D-05  0.00D+00 EMaxC= 1.00D-01 BMatC= 3.40D-07 BMatP= 2.37D-06
 IDIUse=1 WtCom= 1.00D+00 WtEn= 0.00D+00
 Coeff-Com:  0.308D-03-0.643D-03-0.549D-02-0.852D-02-0.132D-01 0.201D-01
 Coeff-Com:  0.293D+00 0.714D+00
 Coeff:      0.308D-03-0.643D-03-0.549D-02-0.852D-02-0.132D-01 0.201D-01
 Coeff:      0.293D+00 0.714D+00
 Gap=     0.298 Goal=   None    Shift=    0.000
 RMSDP=2.68D-06 MaxDP=6.97D-04 DE=-1.87D-06 OVMax= 1.68D-04

 Cycle   9  Pass 1  IDiag  1:
 RMSU=  1.72D-06    CP:  8.69D-01  9.01D-01  1.01D+00  7.15D-01  8.51D-01
                    CP:  9.04D-01  9.58D-01  8.18D-01
 E= -1880.75344815982     Delta-E=       -0.000000292078 Rises=F Damp=F
 DIIS: error= 4.01D-06 at cycle   9 NSaved=   9.
 NSaved= 9 IEnMin= 9 EnMin= -1880.75344815982     IErMin= 9 ErrMin= 4.01D-06
 ErrMax= 4.01D-06  0.00D+00 EMaxC= 1.00D-01 BMatC= 4.41D-08 BMatP= 3.40D-07
 IDIUse=1 WtCom= 1.00D+00 WtEn= 0.00D+00
 Coeff-Com:  0.122D-03-0.201D-03-0.241D-02-0.430D-02-0.118D-01-0.133D-01
 Coeff-Com:  0.848D-01 0.345D+00 0.603D+00
 Coeff:      0.122D-03-0.201D-03-0.241D-02-0.430D-02-0.118D-01-0.133D-01
 Coeff:      0.848D-01 0.345D+00 0.603D+00
 Gap=     0.298 Goal=   None    Shift=    0.000
 RMSDP=6.39D-07 MaxDP=5.13D-05 DE=-2.92D-07 OVMax= 4.73D-05

 Cycle  10  Pass 1  IDiag  1:
 RMSU=  4.38D-07    CP:  8.69D-01  9.01D-01  1.01D+00  7.15D-01  8.50D-01
                    CP:  9.09D-01  9.79D-01  8.90D-01  8.85D-01
 E= -1880.75344819820     Delta-E=       -0.000000038378 Rises=F Damp=F
 DIIS: error= 1.13D-06 at cycle  10 NSaved=  10.
 NSaved=10 IEnMin=10 EnMin= -1880.75344819820     IErMin=10 ErrMin= 1.13D-06
 ErrMax= 1.13D-06  0.00D+00 EMaxC= 1.00D-01 BMatC= 3.91D-09 BMatP= 4.41D-08
 IDIUse=1 WtCom= 1.00D+00 WtEn= 0.00D+00
 Coeff-Com:  0.644D-05 0.227D-05-0.252D-03-0.577D-03-0.284D-02-0.793D-02
 Coeff-Com: -0.468D-02 0.388D-01 0.236D+00 0.742D+00
 Coeff:      0.644D-05 0.227D-05-0.252D-03-0.577D-03-0.284D-02-0.793D-02
 Coeff:     -0.468D-02 0.388D-01 0.236D+00 0.742D+00
 Gap=     0.298 Goal=   None    Shift=    0.000
 RMSDP=2.27D-07 MaxDP=4.20D-05 DE=-3.84D-08 OVMax= 2.35D-05

 Cycle  11  Pass 1  IDiag  1:
 RMSU=  1.72D-07    CP:  8.69D-01  9.01D-01  1.01D+00  7.15D-01  8.51D-01
                    CP:  9.10D-01  9.82D-01  9.11D-01  9.34D-01  9.73D-01
 E= -1880.75344820218     Delta-E=       -0.000000003977 Rises=F Damp=F
 DIIS: error= 4.73D-07 at cycle  11 NSaved=  11.
 NSaved=11 IEnMin=11 EnMin= -1880.75344820218     IErMin=11 ErrMin= 4.73D-07
 ErrMax= 4.73D-07  0.00D+00 EMaxC= 1.00D-01 BMatC= 4.82D-10 BMatP= 3.91D-09
 IDIUse=1 WtCom= 1.00D+00 WtEn= 0.00D+00
 Coeff-Com: -0.147D-04 0.296D-04 0.243D-03 0.373D-03 0.469D-03-0.138D-02
 Coeff-Com: -0.140D-01-0.358D-01 0.211D-02 0.279D+00 0.769D+00
 Coeff:     -0.147D-04 0.296D-04 0.243D-03 0.373D-03 0.469D-03-0.138D-02
 Coeff:     -0.140D-01-0.358D-01 0.211D-02 0.279D+00 0.769D+00
 Gap=     0.298 Goal=   None    Shift=    0.000
 RMSDP=1.24D-07 MaxDP=2.77D-05 DE=-3.98D-09 OVMax= 1.33D-05

 Cycle  12  Pass 1  IDiag  1:
 RMSU=  4.83D-08    CP:  8.69D-01  9.01D-01  1.01D+00  7.15D-01  8.51D-01
                    CP:  9.11D-01  9.79D-01  9.14D-01  9.72D-01  1.08D+00
                    CP:  1.00D+00
 E= -1880.75344820287     Delta-E=       -0.000000000695 Rises=F Damp=F
 DIIS: error= 1.62D-07 at cycle  12 NSaved=  12.
 NSaved=12 IEnMin=12 EnMin= -1880.75344820287     IErMin=12 ErrMin= 1.62D-07
 ErrMax= 1.62D-07  0.00D+00 EMaxC= 1.00D-01 BMatC= 5.03D-11 BMatP= 4.82D-10
 IDIUse=1 WtCom= 1.00D+00 WtEn= 0.00D+00
 Coeff-Com: -0.474D-05 0.861D-05 0.102D-03 0.173D-03 0.432D-03 0.362D-03
 Coeff-Com: -0.395D-02-0.154D-01-0.226D-01 0.201D-01 0.268D+00 0.753D+00
 Coeff:     -0.474D-05 0.861D-05 0.102D-03 0.173D-03 0.432D-03 0.362D-03
 Coeff:     -0.395D-02-0.154D-01-0.226D-01 0.201D-01 0.268D+00 0.753D+00
 Gap=     0.298 Goal=   None    Shift=    0.000
 RMSDP=2.94D-08 MaxDP=4.98D-06 DE=-6.95D-10 OVMax= 3.27D-06

 Cycle  13  Pass 1  IDiag  1:
 RMSU=  1.97D-08    CP:  8.69D-01  9.01D-01  1.01D+00  7.15D-01  8.51D-01
                    CP:  9.11D-01  9.78D-01  9.15D-01  9.76D-01  1.10D+00
                    CP:  1.06D+00  1.06D+00
 E= -1880.75344820292     Delta-E=       -0.000000000046 Rises=F Damp=F
 DIIS: error= 4.97D-08 at cycle  13 NSaved=  13.
 NSaved=13 IEnMin=13 EnMin= -1880.75344820292     IErMin=13 ErrMin= 4.97D-08
 ErrMax= 4.97D-08  0.00D+00 EMaxC= 1.00D-01 BMatC= 7.15D-12 BMatP= 5.03D-11
 IDIUse=1 WtCom= 1.00D+00 WtEn= 0.00D+00
 Coeff-Com:  0.371D-06-0.995D-06 0.498D-05 0.113D-04 0.845D-04 0.277D-03
 Coeff-Com:  0.380D-03-0.649D-03-0.812D-02-0.305D-01-0.560D-02 0.290D+00
 Coeff-Com:  0.754D+00
 Coeff:      0.371D-06-0.995D-06 0.498D-05 0.113D-04 0.845D-04 0.277D-03
 Coeff:      0.380D-03-0.649D-03-0.812D-02-0.305D-01-0.560D-02 0.290D+00
 Coeff:      0.754D+00
 Gap=     0.298 Goal=   None    Shift=    0.000
 RMSDP=1.03D-08 MaxDP=1.25D-06 DE=-4.64D-11 OVMax= 2.07D-06

 Cycle  14  Pass 1  IDiag  1:
 RMSU=  6.74D-09    CP:  8.69D-01  9.01D-01  1.01D+00  7.15D-01  8.51D-01
                    CP:  9.11D-01  9.79D-01  9.16D-01  9.75D-01  1.10D+00
                    CP:  1.09D+00  1.15D+00  9.49D-01
 E= -1880.75344820281     Delta-E=        0.000000000110 Rises=F Damp=F
 DIIS: error= 1.91D-08 at cycle  14 NSaved=  14.
 NSaved=14 IEnMin=13 EnMin= -1880.75344820292     IErMin=14 ErrMin= 1.91D-08
 ErrMax= 1.91D-08  0.00D+00 EMaxC= 1.00D-01 BMatC= 1.15D-12 BMatP= 7.15D-12
 IDIUse=1 WtCom= 1.00D+00 WtEn= 0.00D+00
 Coeff-Com:  0.699D-06-0.141D-05-0.861D-05-0.136D-04-0.798D-05 0.858D-04
 Coeff-Com:  0.617D-03 0.147D-02-0.129D-02-0.174D-01-0.348D-01 0.472D-01
 Coeff-Com:  0.344D+00 0.660D+00
 Coeff:      0.699D-06-0.141D-05-0.861D-05-0.136D-04-0.798D-05 0.858D-04
 Coeff:      0.617D-03 0.147D-02-0.129D-02-0.174D-01-0.348D-01 0.472D-01
 Coeff:      0.344D+00 0.660D+00
 Gap=     0.298 Goal=   None    Shift=    0.000
 RMSDP=4.27D-09 MaxDP=5.64D-07 DE= 1.10D-10 OVMax= 3.47D-07

 SCF Done:  E(RM062X) =  -1880.75344820     A.U. after   14 cycles
            NFock= 14  Conv=0.43D-08     -V/T= 2.0030
 KE= 1.875066207618D+03 PE=-9.536354839058D+03 EE= 3.232145939427D+03
 Leave Link  502 at Thu May 12 22:13:06 2022, MaxMem=  5242880000 cpu:            4692.3 elap:             294.2
 (Enter /data0/hywu0/study/g16/l601.exe)
 Copying SCF densities to generalized density rwf, IOpCl= 0 IROHF=0.

 **********************************************************************

            Population analysis using the SCF density.

 **********************************************************************

 Alpha  occ. eigenvalues --  -90.10609 -78.13909 -19.65120 -19.64072 -19.63526
 Alpha  occ. eigenvalues --  -19.62842 -19.61803 -19.61166 -19.61014 -19.60854
 Alpha  occ. eigenvalues --  -19.58644 -19.56703 -14.86403 -14.86164 -10.66950
 Alpha  occ. eigenvalues --  -10.63179 -10.61791 -10.61474 -10.58698 -10.58638
 Alpha  occ. eigenvalues --  -10.58267  -8.44055  -6.94663  -6.36341  -6.36308
 Alpha  occ. eigenvalues --   -6.36262  -5.06582  -5.06565  -5.06355  -1.25000
 Alpha  occ. eigenvalues --   -1.20845  -1.19009  -1.14385  -1.13182  -1.12874
 Alpha  occ. eigenvalues --   -1.12014  -1.11129  -1.10874  -1.09674  -1.07849
 Alpha  occ. eigenvalues --   -1.07298  -0.93988  -0.90212  -0.86416  -0.81709
 Alpha  occ. eigenvalues --   -0.76502  -0.72740  -0.70962  -0.69689  -0.68034
 Alpha  occ. eigenvalues --   -0.65382  -0.63047  -0.61801  -0.61012  -0.60742
 Alpha  occ. eigenvalues --   -0.59886  -0.58794  -0.58253  -0.57430  -0.56671
 Alpha  occ. eigenvalues --   -0.56420  -0.55860  -0.54944  -0.54550  -0.53087
 Alpha  occ. eigenvalues --   -0.53044  -0.51687  -0.50933  -0.50440  -0.50225
 Alpha  occ. eigenvalues --   -0.48679  -0.48294  -0.47044  -0.46511  -0.45894
 Alpha  occ. eigenvalues --   -0.45290  -0.44900  -0.44550  -0.43707  -0.43090
 Alpha  occ. eigenvalues --   -0.42616  -0.42203  -0.41163  -0.41053  -0.39376
 Alpha  occ. eigenvalues --   -0.39067  -0.38507  -0.37532  -0.36854  -0.36529
 Alpha  occ. eigenvalues --   -0.35976  -0.35873  -0.35307  -0.32027
 Alpha virt. eigenvalues --   -0.02208  -0.00337   0.00632   0.00870   0.01214
 Alpha virt. eigenvalues --    0.01598   0.02756   0.02972   0.03512   0.03600
 Alpha virt. eigenvalues --    0.04361   0.05253   0.05505   0.05947   0.06040
 Alpha virt. eigenvalues --    0.06521   0.07180   0.07953   0.08411   0.08737
 Alpha virt. eigenvalues --    0.09261   0.09503   0.09834   0.10289   0.10722
 Alpha virt. eigenvalues --    0.11459   0.11882   0.12231   0.12527   0.12890
 Alpha virt. eigenvalues --    0.13366   0.13696   0.13794   0.14173   0.14340
 Alpha virt. eigenvalues --    0.15031   0.15525   0.15876   0.16252   0.16388
 Alpha virt. eigenvalues --    0.16506   0.16917   0.17243   0.17401   0.17847
 Alpha virt. eigenvalues --    0.17922   0.18241   0.18322   0.18836   0.19232
 Alpha virt. eigenvalues --    0.19520   0.19630   0.19964   0.20409   0.20732
 Alpha virt. eigenvalues --    0.21113   0.21861   0.22042   0.22205   0.23013
 Alpha virt. eigenvalues --    0.23054   0.23374   0.23722   0.24081   0.24391
 Alpha virt. eigenvalues --    0.24640   0.25169   0.25255   0.25973   0.26069
 Alpha virt. eigenvalues --    0.26380   0.26874   0.27200   0.27571   0.28182
 Alpha virt. eigenvalues --    0.28224   0.28672   0.29049   0.29149   0.29424
 Alpha virt. eigenvalues --    0.29585   0.30141   0.30319   0.30454   0.31056
 Alpha virt. eigenvalues --    0.31588   0.31676   0.32300   0.32611   0.32985
 Alpha virt. eigenvalues --    0.33061   0.33598   0.34178   0.34565   0.34668
 Alpha virt. eigenvalues --    0.35062   0.35319   0.35891   0.36008   0.36302
 Alpha virt. eigenvalues --    0.36696   0.37474   0.37857   0.38169   0.38612
 Alpha virt. eigenvalues --    0.39012   0.39637   0.40071   0.40209   0.40754
 Alpha virt. eigenvalues --    0.41347   0.41825   0.42586   0.43342   0.43588
 Alpha virt. eigenvalues --    0.44507   0.44910   0.45198   0.45860   0.46468
 Alpha virt. eigenvalues --    0.47073   0.47531   0.47808   0.48280   0.48494
 Alpha virt. eigenvalues --    0.49242   0.49694   0.51482   0.51914   0.52567
 Alpha virt. eigenvalues --    0.53338   0.53564   0.54611   0.55076   0.55567
 Alpha virt. eigenvalues --    0.56363   0.57114   0.58049   0.58544   0.59274
 Alpha virt. eigenvalues --    0.59596   0.60037   0.60253   0.61048   0.61306
 Alpha virt. eigenvalues --    0.61869   0.62799   0.63417   0.63648   0.64337
 Alpha virt. eigenvalues --    0.64817   0.64942   0.66336   0.66595   0.66978
 Alpha virt. eigenvalues --    0.67271   0.68174   0.68636   0.68897   0.70223
 Alpha virt. eigenvalues --    0.70581   0.71111   0.71590   0.71700   0.73158
 Alpha virt. eigenvalues --    0.73323   0.74155   0.74461   0.75333   0.75687
 Alpha virt. eigenvalues --    0.76546   0.77843   0.78173   0.78787   0.79008
 Alpha virt. eigenvalues --    0.80159   0.80417   0.81586   0.81938   0.82610
 Alpha virt. eigenvalues --    0.83931   0.84260   0.85232   0.86009   0.86776
 Alpha virt. eigenvalues --    0.87817   0.88292   0.89871   0.90592   0.91045
 Alpha virt. eigenvalues --    0.92517   0.92773   0.93500   0.94140   0.95380
 Alpha virt. eigenvalues --    0.96358   0.98228   0.98954   0.99712   1.01566
 Alpha virt. eigenvalues --    1.02424   1.03399   1.05323   1.05885   1.06747
 Alpha virt. eigenvalues --    1.07941   1.08251   1.08948   1.09621   1.10650
 Alpha virt. eigenvalues --    1.10892   1.11323   1.12351   1.13540   1.14166
 Alpha virt. eigenvalues --    1.14179   1.15224   1.15728   1.16634   1.16987
 Alpha virt. eigenvalues --    1.17897   1.18404   1.18925   1.19166   1.20248
 Alpha virt. eigenvalues --    1.20725   1.21153   1.21749   1.22376   1.22738
 Alpha virt. eigenvalues --    1.22874   1.23573   1.24084   1.24992   1.25857
 Alpha virt. eigenvalues --    1.26646   1.26799   1.27631   1.27933   1.28635
 Alpha virt. eigenvalues --    1.29033   1.29408   1.29804   1.30250   1.31100
 Alpha virt. eigenvalues --    1.31521   1.31664   1.32248   1.33266   1.33726
 Alpha virt. eigenvalues --    1.34628   1.35140   1.35497   1.36178   1.36468
 Alpha virt. eigenvalues --    1.37971   1.38306   1.39172   1.39389   1.40018
 Alpha virt. eigenvalues --    1.40730   1.41413   1.42288   1.42557   1.43232
 Alpha virt. eigenvalues --    1.43568   1.44457   1.45112   1.46010   1.46284
 Alpha virt. eigenvalues --    1.47101   1.48130   1.48918   1.49816   1.50470
 Alpha virt. eigenvalues --    1.50746   1.51018   1.51761   1.52344   1.53019
 Alpha virt. eigenvalues --    1.54398   1.55062   1.55101   1.55917   1.56706
 Alpha virt. eigenvalues --    1.57668   1.58329   1.60222   1.61450   1.62315
 Alpha virt. eigenvalues --    1.62395   1.63249   1.63590   1.64420   1.65205
 Alpha virt. eigenvalues --    1.66170   1.66538   1.68713   1.70752   1.71264
 Alpha virt. eigenvalues --    1.71964   1.72906   1.74219   1.74514   1.74984
 Alpha virt. eigenvalues --    1.76599   1.77524   1.77877   1.78556   1.79545
 Alpha virt. eigenvalues --    1.80381   1.81354   1.81727   1.82528   1.83073
 Alpha virt. eigenvalues --    1.83796   1.85037   1.85786   1.87039   1.88687
 Alpha virt. eigenvalues --    1.89206   1.89804   1.90025   1.90573   1.91738
 Alpha virt. eigenvalues --    1.92766   1.94197   1.94994   1.96168   1.96423
 Alpha virt. eigenvalues --    1.97855   1.98421   1.99011   1.99881   2.00354
 Alpha virt. eigenvalues --    2.02377   2.02813   2.04385   2.05671   2.05817
 Alpha virt. eigenvalues --    2.07565   2.07958   2.08490   2.09673   2.10267
 Alpha virt. eigenvalues --    2.10872   2.11468   2.12355   2.12669   2.13137
 Alpha virt. eigenvalues --    2.14217   2.15393   2.16176   2.17100   2.17857
 Alpha virt. eigenvalues --    2.19177   2.20166   2.21332   2.21748   2.23912
 Alpha virt. eigenvalues --    2.23948   2.24696   2.26454   2.27420   2.27893
 Alpha virt. eigenvalues --    2.28769   2.29694   2.30673   2.30881   2.31591
 Alpha virt. eigenvalues --    2.33747   2.34526   2.34613   2.35966   2.37039
 Alpha virt. eigenvalues --    2.37579   2.38872   2.40724   2.41414   2.42553
 Alpha virt. eigenvalues --    2.43043   2.43680   2.44177   2.44939   2.47001
 Alpha virt. eigenvalues --    2.47609   2.48374   2.50747   2.52013   2.53383
 Alpha virt. eigenvalues --    2.54045   2.55866   2.56742   2.60694   2.62310
 Alpha virt. eigenvalues --    2.64588   2.67275   2.68233   2.70323   2.71404
 Alpha virt. eigenvalues --    2.71750   2.72128   2.73673   2.74867   2.76570
 Alpha virt. eigenvalues --    2.77531   2.77621   2.79547   2.81117   2.82102
 Alpha virt. eigenvalues --    2.84019   2.85529   2.86564   2.87168   2.89180
 Alpha virt. eigenvalues --    2.89834   2.90510   2.91691   2.92245   2.93871
 Alpha virt. eigenvalues --    2.94836   2.95906   2.97555   2.98319   2.99622
 Alpha virt. eigenvalues --    3.00369   3.02635   3.04530   3.05866   3.07019
 Alpha virt. eigenvalues --    3.08412   3.10127   3.10226   3.11513   3.15769
 Alpha virt. eigenvalues --    3.16062   3.17859   3.19953   3.22280   3.23430
 Alpha virt. eigenvalues --    3.25228   3.27096   3.27884   3.30247   3.31984
 Alpha virt. eigenvalues --    3.34207   3.35744   3.37621   3.37826   3.39415
 Alpha virt. eigenvalues --    3.42550   3.45010   3.46998   3.47690   3.48835
 Alpha virt. eigenvalues --    3.49449   3.50928   3.51944   3.53277   3.55100
 Alpha virt. eigenvalues --    3.57144   3.58077   3.59179   3.62161   3.62745
 Alpha virt. eigenvalues --    3.62952   3.64993   3.65644   3.67260   3.68432
 Alpha virt. eigenvalues --    3.70908   3.72094   3.73491   3.82461   3.84347
 Alpha virt. eigenvalues --    3.87158   3.89059   3.91627   3.93561   3.97221
 Alpha virt. eigenvalues --    4.04581   4.06060   4.09021   4.15074   4.16059
 Alpha virt. eigenvalues --    4.18262   4.18896   4.21272   4.23527   4.37440
 Alpha virt. eigenvalues --    4.48062   4.54336   4.96403   5.01933   5.04166
 Alpha virt. eigenvalues --    5.07378   5.08533   5.12850   5.13179   5.14524
 Alpha virt. eigenvalues --    5.15868   5.16377   5.17992   5.18788   5.19189
 Alpha virt. eigenvalues --    5.20054   5.20944   5.22399   5.23483   5.26326
 Alpha virt. eigenvalues --    5.28225   5.29238   5.31412   5.31936   5.33624
 Alpha virt. eigenvalues --    5.35599   5.36958   5.38782   5.42652   5.45112
 Alpha virt. eigenvalues --    5.46808   5.49784   5.52492   5.56032   5.57445
 Alpha virt. eigenvalues --    5.58049   5.58800   5.62782   5.64020   5.68214
 Alpha virt. eigenvalues --    5.69176   5.70955   5.86056   5.94505   5.95980
 Alpha virt. eigenvalues --    6.03601   6.76852   6.77625   6.78009   6.79125
 Alpha virt. eigenvalues --    6.79606   6.79663   6.80649   6.80749   6.82128
 Alpha virt. eigenvalues --    6.82986   6.83831   6.84566   6.85025   6.86660
 Alpha virt. eigenvalues --    6.87365   6.87689   6.88048   6.89885   6.90745
 Alpha virt. eigenvalues --    6.91988   6.93050   6.93541   6.94841   6.96102
 Alpha virt. eigenvalues --    6.96698   6.97390   6.98205   7.00761   7.01197
 Alpha virt. eigenvalues --    7.02444   7.03608   7.04605   7.06850   7.07178
 Alpha virt. eigenvalues --    7.09258   7.13687   7.16079   7.17134   7.20080
 Alpha virt. eigenvalues --    7.22145   7.24577   7.25605   7.28498   7.29564
 Alpha virt. eigenvalues --    7.32504   7.38015   7.39211   7.41614   7.42879
 Alpha virt. eigenvalues --    7.46728   7.72817   8.61725  14.30149  14.32089
 Alpha virt. eigenvalues --   14.42558  17.75344  17.77687  17.84902  23.91662
 Alpha virt. eigenvalues --   23.95314  23.99439  24.02568  24.06615  24.11847
 Alpha virt. eigenvalues --   24.18135  35.61049  35.70061  50.03482  50.05535
 Alpha virt. eigenvalues --   50.07112  50.07906  50.09393  50.10036  50.11219
 Alpha virt. eigenvalues --   50.12926  50.15451  50.18225 163.97464 189.93116
          Condensed to atoms (all electrons):
               1          2          3          4          5          6
     1  C    9.457993  -2.473111  -1.014185  -0.033376   0.369536  -0.025170
     2  C   -2.473111   7.840524  -0.182443   0.331235   0.007071   0.392708
     3  C   -1.014185  -0.182443   8.508649  -0.356475   0.012413   0.011046
     4  N   -0.033376   0.331235  -0.356475   6.487689  -0.039038   0.008447
     5  H    0.369536   0.007071   0.012413  -0.039038   0.436501  -0.001101
     6  H   -0.025170   0.392708   0.011046   0.008447  -0.001101   0.479012
     7  H    0.021770   0.007050   0.305010  -0.004647  -0.000016  -0.000079
     8  C   -0.190000   0.028411  -0.258395   0.158612   0.001936  -0.002037
     9  H   -0.001489   0.015718   0.006400  -0.056731   0.001797  -0.000007
    10  H   -0.002328   0.004113  -0.016539  -0.042396   0.000348   0.000010
    11  H   -0.008007   0.000104   0.029126  -0.040513   0.000011   0.000010
    12  N    0.256438   0.159191  -0.158006   0.035698   0.005249  -0.034533
    13  C   -0.257425   0.112851  -0.198717  -0.004283   0.001775   0.007509
    14  H    0.012474  -0.014897  -0.005681  -0.002816  -0.000027   0.000188
    15  H    0.000276  -0.005425  -0.014918   0.008491   0.000007  -0.000121
    16  C    0.128365  -0.253908   0.218550  -0.038377  -0.001115   0.002252
    17  H    0.002235   0.004799  -0.002442  -0.000156   0.000000  -0.000342
    18  H   -0.012841   0.014491  -0.011638   0.001182   0.000045   0.000375
    19  C   -0.125367   0.170031   0.111959   0.001408   0.000457   0.000121
    20  H   -0.000476   0.001802   0.001629  -0.000150   0.000000  -0.000015
    21  H    0.001182  -0.003136  -0.000592   0.000139  -0.000000   0.000008
    22  S    0.080783  -0.006650  -0.256342   0.007742   0.000192  -0.001147
    23  O   -0.011546   0.016223  -0.005912   0.000655   0.000008  -0.000018
    24  O    0.032084  -0.028752   0.000037  -0.000887   0.000323  -0.001510
    25  O    0.060267  -0.042716  -0.256223   0.078009  -0.000165   0.000129
    26  P   -0.141348   0.085421   0.016853   0.025298   0.009028   0.000091
    27  O    0.239003  -0.112474  -0.039071   0.003022  -0.016683  -0.000072
    28  O   -0.088547   0.013296   0.024991   0.020213   0.000595  -0.000019
    29  H    0.016457  -0.000881  -0.006497  -0.002524  -0.000046  -0.000002
    30  O   -0.045868   0.010696   0.026826  -0.003269   0.000295   0.000188
    31  H    0.015251  -0.004889  -0.001336  -0.003115  -0.000072  -0.000283
    32  O   -0.015065   0.006191  -0.000712  -0.001292   0.000304  -0.000002
    33  H    0.002958  -0.000821  -0.000060  -0.000239  -0.000027   0.000000
    34  O    0.000300  -0.000181  -0.003911   0.002342  -0.000010   0.000001
    35  H    0.000368  -0.000099  -0.000613   0.000319  -0.000000   0.000000
    36  H    0.001457  -0.000506   0.000495  -0.000822  -0.000000  -0.000000
    37  O   -0.000961  -0.000098  -0.003878   0.001943  -0.000000   0.000002
    38  H   -0.000113  -0.000018   0.003177  -0.000480  -0.000000  -0.000000
    39  H    0.000672   0.000319  -0.000729  -0.000351  -0.000001  -0.000001
    40  O   -0.008465   0.007174  -0.048561   0.006641  -0.000034   0.000014
    41  H    0.000716  -0.000492   0.011235  -0.004738   0.000004  -0.000001
    42  H    0.012287  -0.009683   0.052892  -0.019011  -0.000011  -0.000008
               7          8          9         10         11         12
     1  C    0.021770  -0.190000  -0.001489  -0.002328  -0.008007   0.256438
     2  C    0.007050   0.028411   0.015718   0.004113   0.000104   0.159191
     3  C    0.305010  -0.258395   0.006400  -0.016539   0.029126  -0.158006
     4  N   -0.004647   0.158612  -0.056731  -0.042396  -0.040513   0.035698
     5  H   -0.000016   0.001936   0.001797   0.000348   0.000011   0.005249
     6  H   -0.000079  -0.002037  -0.000007   0.000010   0.000010  -0.034533
     7  H    0.425933   0.010370  -0.000103   0.000546   0.002619  -0.011741
     8  C    0.010370   5.643136   0.409395   0.422833   0.382972  -0.011310
     9  H   -0.000103   0.409395   0.459767  -0.020465  -0.013024  -0.001359
    10  H    0.000546   0.422833  -0.020465   0.505983  -0.027515  -0.006510
    11  H    0.002619   0.382972  -0.013024  -0.027515   0.429319   0.004337
    12  N   -0.011741  -0.011310  -0.001359  -0.006510   0.004337   6.392072
    13  C   -0.003353  -0.002790   0.000878  -0.000841   0.000157   0.078045
    14  H    0.000418  -0.000298  -0.000002  -0.000015   0.000007  -0.049695
    15  H    0.003699   0.000836   0.000000  -0.000004   0.000021  -0.045578
    16  C   -0.000586  -0.014791   0.000075   0.000074   0.000596  -0.003803
    17  H   -0.000023   0.000100  -0.000000  -0.000000  -0.000000  -0.002684
    18  H    0.000133  -0.000293   0.000000   0.000000  -0.000001  -0.001474
    19  C   -0.003169   0.002238   0.000012  -0.000120   0.000893   0.010145
    20  H   -0.000010  -0.000011   0.000000   0.000000  -0.000000  -0.000098
    21  H    0.000120   0.000003  -0.000000   0.000000  -0.000001   0.000227
    22  S    0.010989  -0.009904  -0.000262   0.000084   0.002911  -0.007034
    23  O   -0.000210  -0.000384  -0.000004  -0.000002   0.000206  -0.013547
    24  O    0.002443   0.002552  -0.000006   0.000030  -0.000711   0.016035
    25  O   -0.007551   0.015864   0.000020   0.000059  -0.004067   0.064821
    26  P    0.000356  -0.023730   0.005884   0.000827   0.002437  -0.000618
    27  O    0.000007  -0.032576  -0.000836   0.000294   0.000518   0.000567
    28  O   -0.000668   0.039653  -0.014169   0.002601  -0.023792  -0.010513
    29  H    0.000106  -0.014494   0.000805   0.000057   0.003408   0.001030
    30  O   -0.000178   0.008853   0.000160   0.000006   0.000089  -0.003637
    31  H    0.000071   0.001759  -0.000021  -0.000009  -0.000134   0.002463
    32  O    0.000004   0.007030  -0.000269   0.000015  -0.000206  -0.000076
    33  H   -0.000000   0.000093   0.000005   0.000000   0.000001   0.000011
    34  O    0.000088  -0.002088  -0.000034   0.000013  -0.001743   0.000244
    35  H   -0.000001  -0.000345  -0.000004   0.000000  -0.000136  -0.000006
    36  H    0.000001  -0.000245   0.000012   0.000002   0.000168  -0.000022
    37  O    0.000064  -0.001324  -0.000012  -0.000000  -0.000018   0.000090
    38  H   -0.000029   0.000173   0.000001   0.000000   0.000011  -0.000009
    39  H   -0.000006   0.000395  -0.000000  -0.000000  -0.000018   0.000156
    40  O   -0.004618  -0.015035  -0.000222   0.002134  -0.054008   0.021798
    41  H    0.000540  -0.000364   0.000300  -0.000089   0.012750  -0.002438
    42  H    0.004043  -0.016253   0.000122  -0.000055   0.010996  -0.008204
              13         14         15         16         17         18
     1  C   -0.257425   0.012474   0.000276   0.128365   0.002235  -0.012841
     2  C    0.112851  -0.014897  -0.005425  -0.253908   0.004799   0.014491
     3  C   -0.198717  -0.005681  -0.014918   0.218550  -0.002442  -0.011638
     4  N   -0.004283  -0.002816   0.008491  -0.038377  -0.000156   0.001182
     5  H    0.001775  -0.000027   0.000007  -0.001115   0.000000   0.000045
     6  H    0.007509   0.000188  -0.000121   0.002252  -0.000342   0.000375
     7  H   -0.003353   0.000418   0.003699  -0.000586  -0.000023   0.000133
     8  C   -0.002790  -0.000298   0.000836  -0.014791   0.000100  -0.000293
     9  H    0.000878  -0.000002   0.000000   0.000075  -0.000000   0.000000
    10  H   -0.000841  -0.000015  -0.000004   0.000074  -0.000000   0.000000
    11  H    0.000157   0.000007   0.000021   0.000596  -0.000000  -0.000001
    12  N    0.078045  -0.049695  -0.045578  -0.003803  -0.002684  -0.001474
    13  C    6.353551   0.444049   0.446640  -0.431051  -0.013885  -0.046756
    14  H    0.444049   0.509627  -0.022235  -0.066263  -0.006575  -0.000101
    15  H    0.446640  -0.022235   0.453677  -0.033070   0.000595   0.003323
    16  C   -0.431051  -0.066263  -0.033070   6.421614   0.401268   0.465930
    17  H   -0.013885  -0.006575   0.000595   0.401268   0.515896  -0.029293
    18  H   -0.046756  -0.000101   0.003323   0.465930  -0.029293   0.473639
    19  C   -0.002720   0.008663  -0.015301  -0.466728  -0.036808  -0.046533
    20  H    0.017714  -0.000073  -0.000117  -0.082313  -0.003916  -0.004556
    21  H   -0.019904   0.000082   0.001979  -0.015134  -0.004934   0.004347
    22  S   -0.089035   0.005827   0.008936  -0.010527   0.002697   0.016247
    23  O    0.001493  -0.000040  -0.000480  -0.032593  -0.000311   0.000756
    24  O    0.021647   0.000781   0.000696   0.005588   0.001333  -0.011689
    25  O   -0.012454   0.002080   0.004195  -0.005458   0.000004   0.001341
    26  P   -0.000584   0.000021   0.000025  -0.004967   0.000016   0.000217
    27  O   -0.002676   0.000002   0.000003   0.002919  -0.000002   0.000005
    28  O   -0.002125  -0.000002  -0.000007  -0.000798  -0.000001   0.000004
    29  H    0.001139   0.000000   0.000000  -0.000055  -0.000000   0.000002
    30  O   -0.005074   0.000002   0.000005   0.005850  -0.000024   0.000003
    31  H    0.006547   0.000004  -0.000010  -0.006830   0.000068  -0.000241
    32  O    0.000413  -0.000000  -0.000000  -0.000479   0.000000   0.000001
    33  H    0.000026  -0.000000  -0.000000   0.000027   0.000000   0.000000
    34  O   -0.001360   0.000000   0.000005   0.000354   0.000000   0.000000
    35  H   -0.000033   0.000000   0.000000   0.000018   0.000000  -0.000000
    36  H    0.001084  -0.000000  -0.000002  -0.000667   0.000000   0.000001
    37  O   -0.006288   0.000000   0.000013   0.004890  -0.000000  -0.000029
    38  H    0.002585  -0.000000  -0.000010  -0.000752  -0.000000   0.000004
    39  H    0.001477  -0.000000  -0.000001  -0.000501  -0.000000   0.000009
    40  O    0.008379  -0.000000   0.000132  -0.005367  -0.000001   0.000062
    41  H   -0.000153   0.000000   0.000008  -0.000203  -0.000000  -0.000002
    42  H   -0.003856   0.000007  -0.000336   0.004495   0.000004  -0.000087
              19         20         21         22         23         24
     1  C   -0.125367  -0.000476   0.001182   0.080783  -0.011546   0.032084
     2  C    0.170031   0.001802  -0.003136  -0.006650   0.016223  -0.028752
     3  C    0.111959   0.001629  -0.000592  -0.256342  -0.005912   0.000037
     4  N    0.001408  -0.000150   0.000139   0.007742   0.000655  -0.000887
     5  H    0.000457   0.000000  -0.000000   0.000192   0.000008   0.000323
     6  H    0.000121  -0.000015   0.000008  -0.001147  -0.000018  -0.001510
     7  H   -0.003169  -0.000010   0.000120   0.010989  -0.000210   0.002443
     8  C    0.002238  -0.000011   0.000003  -0.009904  -0.000384   0.002552
     9  H    0.000012   0.000000  -0.000000  -0.000262  -0.000004  -0.000006
    10  H   -0.000120   0.000000   0.000000   0.000084  -0.000002   0.000030
    11  H    0.000893  -0.000000  -0.000001   0.002911   0.000206  -0.000711
    12  N    0.010145  -0.000098   0.000227  -0.007034  -0.013547   0.016035
    13  C   -0.002720   0.017714  -0.019904  -0.089035   0.001493   0.021647
    14  H    0.008663  -0.000073   0.000082   0.005827  -0.000040   0.000781
    15  H   -0.015301  -0.000117   0.001979   0.008936  -0.000480   0.000696
    16  C   -0.466728  -0.082313  -0.015134  -0.010527  -0.032593   0.005588
    17  H   -0.036808  -0.003916  -0.004934   0.002697  -0.000311   0.001333
    18  H   -0.046533  -0.004556   0.004347   0.016247   0.000756  -0.011689
    19  C    6.999488   0.449927   0.407087  -0.448548  -0.102384  -0.204931
    20  H    0.449927   0.456481  -0.025716  -0.046953   0.011680   0.005871
    21  H    0.407087  -0.025716   0.454857  -0.029910   0.002286  -0.002895
    22  S   -0.448548  -0.046953  -0.029910  14.558938   0.512191   0.347165
    23  O   -0.102384   0.011680   0.002286   0.512191   8.223791  -0.124827
    24  O   -0.204931   0.005871  -0.002895   0.347165  -0.124827   8.555525
    25  O   -0.199419  -0.000097   0.016130   0.306891  -0.047980  -0.001234
    26  P    0.007553   0.000047   0.000043  -0.012100  -0.002598   0.009354
    27  O   -0.001742  -0.000005   0.000002   0.002177  -0.000910  -0.020703
    28  O   -0.000503   0.000003  -0.000003  -0.017765  -0.000822   0.024717
    29  H    0.000168  -0.000000   0.000000   0.012386   0.000476  -0.004837
    30  O   -0.011088   0.000016  -0.000000  -0.028906   0.002360   0.080551
    31  H    0.014706  -0.000111   0.000078   0.034882   0.000056  -0.007873
    32  O    0.000296   0.000001  -0.000000  -0.000414   0.000671   0.006432
    33  H   -0.000093   0.000000   0.000000   0.000414  -0.000002   0.000212
    34  O   -0.005874   0.000002   0.000004  -0.033912   0.007575   0.007371
    35  H    0.000057  -0.000000  -0.000000   0.001159   0.000012  -0.000167
    36  H    0.006333  -0.000003  -0.000002   0.034402  -0.014517  -0.007611
    37  O   -0.033215   0.000043   0.000061  -0.045137   0.040580   0.026536
    38  H    0.024951  -0.000096  -0.000067   0.020983   0.003246  -0.003992
    39  H    0.003735   0.000023  -0.000004   0.011617  -0.013050  -0.006322
    40  O   -0.022924   0.000023   0.000116  -0.049632  -0.006490   0.011889
    41  H    0.005064  -0.000002  -0.000006   0.015099   0.000553  -0.003199
    42  H    0.015960   0.000013  -0.000175   0.048903   0.003515  -0.006239
              25         26         27         28         29         30
     1  C    0.060267  -0.141348   0.239003  -0.088547   0.016457  -0.045868
     2  C   -0.042716   0.085421  -0.112474   0.013296  -0.000881   0.010696
     3  C   -0.256223   0.016853  -0.039071   0.024991  -0.006497   0.026826
     4  N    0.078009   0.025298   0.003022   0.020213  -0.002524  -0.003269
     5  H   -0.000165   0.009028  -0.016683   0.000595  -0.000046   0.000295
     6  H    0.000129   0.000091  -0.000072  -0.000019  -0.000002   0.000188
     7  H   -0.007551   0.000356   0.000007  -0.000668   0.000106  -0.000178
     8  C    0.015864  -0.023730  -0.032576   0.039653  -0.014494   0.008853
     9  H    0.000020   0.005884  -0.000836  -0.014169   0.000805   0.000160
    10  H    0.000059   0.000827   0.000294   0.002601   0.000057   0.000006
    11  H   -0.004067   0.002437   0.000518  -0.023792   0.003408   0.000089
    12  N    0.064821  -0.000618   0.000567  -0.010513   0.001030  -0.003637
    13  C   -0.012454  -0.000584  -0.002676  -0.002125   0.001139  -0.005074
    14  H    0.002080   0.000021   0.000002  -0.000002   0.000000   0.000002
    15  H    0.004195   0.000025   0.000003  -0.000007   0.000000   0.000005
    16  C   -0.005458  -0.004967   0.002919  -0.000798  -0.000055   0.005850
    17  H    0.000004   0.000016  -0.000002  -0.000001  -0.000000  -0.000024
    18  H    0.001341   0.000217   0.000005   0.000004   0.000002   0.000003
    19  C   -0.199419   0.007553  -0.001742  -0.000503   0.000168  -0.011088
    20  H   -0.000097   0.000047  -0.000005   0.000003  -0.000000   0.000016
    21  H    0.016130   0.000043   0.000002  -0.000003   0.000000  -0.000000
    22  S    0.306891  -0.012100   0.002177  -0.017765   0.012386  -0.028906
    23  O   -0.047980  -0.002598  -0.000910  -0.000822   0.000476   0.002360
    24  O   -0.001234   0.009354  -0.020703   0.024717  -0.004837   0.080551
    25  O    8.683254   0.001952   0.001702   0.006406  -0.002007  -0.002959
    26  P    0.001952  12.762936   0.435041   0.147112   0.044399   0.244356
    27  O    0.001702   0.435041   8.282732  -0.046528   0.015061  -0.052559
    28  O    0.006406   0.147112  -0.046528   8.257507   0.192980   0.056418
    29  H   -0.002007   0.044399   0.015061   0.192980   0.435746  -0.029347
    30  O   -0.002959   0.244356  -0.052559   0.056418  -0.029347   8.313791
    31  H    0.000257   0.036176   0.017908  -0.032821   0.001567   0.103651
    32  O   -0.000314   0.143828  -0.059497   0.023913  -0.011246   0.031464
    33  H   -0.000000   0.001754  -0.003699  -0.005561   0.002849  -0.004465
    34  O    0.005243   0.006318  -0.000488   0.020730  -0.057070   0.029549
    35  H    0.000132   0.003136   0.000310  -0.003081   0.001775  -0.002034
    36  H   -0.001639   0.014667   0.001328  -0.012160   0.020161  -0.022093
    37  O    0.000339  -0.019176  -0.003272   0.003337  -0.005158   0.071317
    38  H   -0.000371   0.001922   0.000337  -0.001042   0.000427  -0.016542
    39  H   -0.000906   0.016441   0.002540  -0.003978   0.002401   0.001173
    40  O    0.045260  -0.008115   0.000330   0.057406  -0.016487   0.002677
    41  H   -0.011754   0.001421  -0.000005  -0.011461   0.003468  -0.002141
    42  H   -0.009945   0.002817   0.000052  -0.014291   0.002857  -0.001639
              31         32         33         34         35         36
     1  C    0.015251  -0.015065   0.002958   0.000300   0.000368   0.001457
     2  C   -0.004889   0.006191  -0.000821  -0.000181  -0.000099  -0.000506
     3  C   -0.001336  -0.000712  -0.000060  -0.003911  -0.000613   0.000495
     4  N   -0.003115  -0.001292  -0.000239   0.002342   0.000319  -0.000822
     5  H   -0.000072   0.000304  -0.000027  -0.000010  -0.000000  -0.000000
     6  H   -0.000283  -0.000002   0.000000   0.000001   0.000000  -0.000000
     7  H    0.000071   0.000004  -0.000000   0.000088  -0.000001   0.000001
     8  C    0.001759   0.007030   0.000093  -0.002088  -0.000345  -0.000245
     9  H   -0.000021  -0.000269   0.000005  -0.000034  -0.000004   0.000012
    10  H   -0.000009   0.000015   0.000000   0.000013   0.000000   0.000002
    11  H   -0.000134  -0.000206   0.000001  -0.001743  -0.000136   0.000168
    12  N    0.002463  -0.000076   0.000011   0.000244  -0.000006  -0.000022
    13  C    0.006547   0.000413   0.000026  -0.001360  -0.000033   0.001084
    14  H    0.000004  -0.000000  -0.000000   0.000000   0.000000  -0.000000
    15  H   -0.000010  -0.000000  -0.000000   0.000005   0.000000  -0.000002
    16  C   -0.006830  -0.000479   0.000027   0.000354   0.000018  -0.000667
    17  H    0.000068   0.000000   0.000000   0.000000   0.000000   0.000000
    18  H   -0.000241   0.000001   0.000000   0.000000  -0.000000   0.000001
    19  C    0.014706   0.000296  -0.000093  -0.005874   0.000057   0.006333
    20  H   -0.000111   0.000001   0.000000   0.000002  -0.000000  -0.000003
    21  H    0.000078  -0.000000   0.000000   0.000004  -0.000000  -0.000002
    22  S    0.034882  -0.000414   0.000414  -0.033912   0.001159   0.034402
    23  O    0.000056   0.000671  -0.000002   0.007575   0.000012  -0.014517
    24  O   -0.007873   0.006432   0.000212   0.007371  -0.000167  -0.007611
    25  O    0.000257  -0.000314  -0.000000   0.005243   0.000132  -0.001639
    26  P    0.036176   0.143828   0.001754   0.006318   0.003136   0.014667
    27  O    0.017908  -0.059497  -0.003699  -0.000488   0.000310   0.001328
    28  O   -0.032821   0.023913  -0.005561   0.020730  -0.003081  -0.012160
    29  H    0.001567  -0.011246   0.002849  -0.057070   0.001775   0.020161
    30  O    0.103651   0.031464  -0.004465   0.029549  -0.002034  -0.022093
    31  H    0.295102  -0.003155  -0.000625  -0.011013   0.000143   0.006787
    32  O   -0.003155   8.100141   0.247922   0.002016  -0.002521  -0.006048
    33  H   -0.000625   0.247922   0.445426  -0.000047   0.000024  -0.000033
    34  O   -0.011013   0.002016  -0.000047   8.354537   0.276034   0.165971
    35  H    0.000143  -0.002521   0.000024   0.276034   0.403736  -0.010845
    36  H    0.006787  -0.006048  -0.000033   0.165971  -0.010845   0.433388
    37  O   -0.036443   0.006511   0.000306   0.061414   0.011280  -0.123510
    38  H    0.008554  -0.000861  -0.000018  -0.026319  -0.000445   0.050781
    39  H    0.013909  -0.006307  -0.000125  -0.028553  -0.001215   0.043930
    40  O   -0.001952  -0.000020   0.000003   0.049759   0.000991  -0.016061
    41  H    0.000936   0.000058  -0.000002  -0.044194   0.001060   0.014653
    42  H    0.001843  -0.000019   0.000001  -0.005204  -0.000138   0.001465
              37         38         39         40         41         42
     1  C   -0.000961  -0.000113   0.000672  -0.008465   0.000716   0.012287
     2  C   -0.000098  -0.000018   0.000319   0.007174  -0.000492  -0.009683
     3  C   -0.003878   0.003177  -0.000729  -0.048561   0.011235   0.052892
     4  N    0.001943  -0.000480  -0.000351   0.006641  -0.004738  -0.019011
     5  H   -0.000000  -0.000000  -0.000001  -0.000034   0.000004  -0.000011
     6  H    0.000002  -0.000000  -0.000001   0.000014  -0.000001  -0.000008
     7  H    0.000064  -0.000029  -0.000006  -0.004618   0.000540   0.004043
     8  C   -0.001324   0.000173   0.000395  -0.015035  -0.000364  -0.016253
     9  H   -0.000012   0.000001  -0.000000  -0.000222   0.000300   0.000122
    10  H   -0.000000   0.000000  -0.000000   0.002134  -0.000089  -0.000055
    11  H   -0.000018   0.000011  -0.000018  -0.054008   0.012750   0.010996
    12  N    0.000090  -0.000009   0.000156   0.021798  -0.002438  -0.008204
    13  C   -0.006288   0.002585   0.001477   0.008379  -0.000153  -0.003856
    14  H    0.000000  -0.000000  -0.000000  -0.000000   0.000000   0.000007
    15  H    0.000013  -0.000010  -0.000001   0.000132   0.000008  -0.000336
    16  C    0.004890  -0.000752  -0.000501  -0.005367  -0.000203   0.004495
    17  H   -0.000000  -0.000000  -0.000000  -0.000001  -0.000000   0.000004
    18  H   -0.000029   0.000004   0.000009   0.000062  -0.000002  -0.000087
    19  C   -0.033215   0.024951   0.003735  -0.022924   0.005064   0.015960
    20  H    0.000043  -0.000096   0.000023   0.000023  -0.000002   0.000013
    21  H    0.000061  -0.000067  -0.000004   0.000116  -0.000006  -0.000175
    22  S   -0.045137   0.020983   0.011617  -0.049632   0.015099   0.048903
    23  O    0.040580   0.003246  -0.013050  -0.006490   0.000553   0.003515
    24  O    0.026536  -0.003992  -0.006322   0.011889  -0.003199  -0.006239
    25  O    0.000339  -0.000371  -0.000906   0.045260  -0.011754  -0.009945
    26  P   -0.019176   0.001922   0.016441  -0.008115   0.001421   0.002817
    27  O   -0.003272   0.000337   0.002540   0.000330  -0.000005   0.000052
    28  O    0.003337  -0.001042  -0.003978   0.057406  -0.011461  -0.014291
    29  H   -0.005158   0.000427   0.002401  -0.016487   0.003468   0.002857
    30  O    0.071317  -0.016542   0.001173   0.002677  -0.002141  -0.001639
    31  H   -0.036443   0.008554   0.013909  -0.001952   0.000936   0.001843
    32  O    0.006511  -0.000861  -0.006307  -0.000020   0.000058  -0.000019
    33  H    0.000306  -0.000018  -0.000125   0.000003  -0.000002   0.000001
    34  O    0.061414  -0.026319  -0.028553   0.049759  -0.044194  -0.005204
    35  H    0.011280  -0.000445  -0.001215   0.000991   0.001060  -0.000138
    36  H   -0.123510   0.050781   0.043930  -0.016061   0.014653   0.001465
    37  O    8.304629   0.181229   0.189827   0.006217  -0.010308  -0.000191
    38  H    0.181229   0.360461   0.033764  -0.002576   0.002373   0.000640
    39  H    0.189827   0.033764   0.437664  -0.000118   0.001001  -0.000121
    40  O    0.006217  -0.002576  -0.000118   8.227150   0.249467   0.205389
    41  H   -0.010308   0.002373   0.001001   0.249467   0.403435   0.014263
    42  H   -0.000191   0.000640  -0.000121   0.205389   0.014263   0.407642
 Mulliken charges:
               1
     1  C   -0.257185
     2  C   -0.088244
     3  C   -0.497411
     4  N    0.476602
     5  H    0.210453
     6  H    0.164357
     7  H    0.240610
     8  C   -0.540548
     9  H    0.207663
    10  H    0.176858
    11  H    0.290226
    12  N    0.324278
    13  C   -0.402593
    14  H    0.184488
    15  H    0.204050
    16  C   -0.186528
    17  H    0.172380
    18  H    0.183417
    19  C   -0.513785
    20  H    0.219445
    21  H    0.213726
    22  S    1.050565
    23  O   -0.449705
    24  O   -0.720787
    25  O   -0.687098
    26  P    1.185491
    27  O   -0.612064
    28  O   -0.601225
    29  H    0.390928
    30  O   -0.758471
    31  H    0.548218
    32  O   -0.468704
    33  H    0.313784
    34  O   -0.767872
    35  H    0.321130
    36  H    0.419702
    37  O   -0.621608
    38  H    0.358121
    39  H    0.301255
    40  O   -0.642327
    41  H    0.353149
    42  H    0.305258
 Sum of Mulliken charges =  -0.00000
[...]
    40  O    0.000000
         Mulliken charges condensed to fragments:
      1      0.000000
      2      0.000000
      3      0.000000
      4     -0.000000
      5      0.000000
 Electronic spatial extent (au):  <R**2>=           7967.0011
 Charge=             -0.0000 electrons
 Dipole moment (field-independent basis, Debye):
    X=              1.6974    Y=              0.3247    Z=              1.2802  Tot=              2.1507
 Quadrupole moment (field-independent basis, Debye-Ang):
   XX=             21.9173   YY=              1.5449   ZZ=              8.6632
   XY=             20.1831   XZ=             20.9580   YZ=             17.0734
 Traceless Quadrupole moment (field-independent basis, Debye-Ang):
   XX=             11.2088   YY=             -9.1636   ZZ=             -2.0452
   XY=             20.1831   XZ=             20.9580   YZ=             17.0734
 Octapole moment (field-independent basis, Debye-Ang**2):
  XXX=            196.5292  YYY=            -64.5241  ZZZ=             18.3512  XYY=            193.1871
  XXY=            244.0737  XXZ=            222.2157  XZZ=            135.1261  YZZ=            120.7900
  YYZ=            187.5143  XYZ=            248.2652
 Hexadecapole moment (field-independent basis, Debye-Ang**3):
 XXXX=           1340.4352 YYYY=          -2239.5407 ZZZZ=           -332.0682 XXXY=           2108.7322
 XXXZ=           1943.2361 YYYX=           1327.1456 YYYZ=           1708.6748 ZZZX=            540.9937
 ZZZY=            408.0012 XXYY=           2346.5224 XXZZ=           1419.1092 YYZZ=           1410.0363
 XXYZ=           2534.0501 YYXZ=           2656.5099 ZZXY=           1655.4555
 N-N= 9.019796959892D+00 E-N=-1.988753756345D+02  KE= 7.616563482128D+01
 No NMR shielding tensors so no spin-rotation constants.
 Leave Link  601 at Thu May 12 22:31:19 2022, MaxMem=  5242880000 cpu:               1.0 elap:               0.1
 (Enter /data0/hywu0/study/g16/l122.exe)
 CPIOFr:  IOpCl= 0 IRwI=-1 IRwCP=  731 ICalc=  9 LCPTot=      769957 Len1MO=     2025449 IndFrg=    21024447
 Counterpoise: doing calculation for fragment   5 using the basis set of the fragment.
 Leave Link  122 at Thu May 12 22:31:19 2022, MaxMem=  5242880000 cpu:               0.2 elap:               0.0
 (Enter /data0/hywu0/study/g16/l301.exe)
 Basis read from rwf:  (5D, 7F)
 No pseudopotential information found on rwf file.
    39 basis functions,    58 primitive gaussians,    41 cartesian basis functions
     5 alpha electrons        5 beta electrons
       nuclear repulsion energy         9.0803622873 Hartrees.
 IExCor= 4336 DFT=T Ex+Corr=M062X ExCW=0 ScaHFX=  0.540000
 ScaDFX=  1.000000  1.000000  1.000000  1.000000 ScalE2=  1.000000  1.000000
 IRadAn=      5 IRanWt=     -1 IRanGd=            0 ICorTp=0 IEmpDi=131
 NAtoms=   42 NActive=    3 NUniq=    3 SFac= 1.00D+00 NAtFMM=   60 NAOKFM=F Big=F
 Integral buffers will be    131072 words long.
 Raffenetti 2 integral format.
 Two-electron integral symmetry is turned off.
 R6Disp:  Grimme-D3 Dispersion energy=       -0.0000000075 Hartrees.
 Nuclear repulsion after empirical dispersion term =        9.0803622798 Hartrees.
 No density basis found on file   718.
 Leave Link  301 at Thu May 12 22:31:19 2022, MaxMem=  5242880000 cpu:               0.8 elap:               0.1
 (Enter /data0/hywu0/study/g16/l302.exe)
 NPDir=0 NMtPBC=     1 NCelOv=     1 NCel=       1 NClECP=     1 NCelD=      1
         NCelK=      1 NCelE2=     1 NClLst=     1 CellRange=     0.0.
 One-electron integrals computed using PRISM.
 NBasis=    39 RedAO= T EigKep=  3.03D-03  NBF=    39
 NBsUse=    39 1.00D-06 EigRej= -1.00D+00 NBFU=    39
 Precomputing XC quadrature grid using
 IXCGrd= 4 IRadAn=           5 IRanWt=          -1 IRanGd=           0 AccXCQ= 0.00D+00.
 Generated NRdTot=       0 NPtTot=           0 NUsed=           0 NTot=          32
 NSgBfM=    41    41    41    41    41 MxSgAt=     3 MxSgA2=     3.
 Leave Link  302 at Thu May 12 22:31:19 2022, MaxMem=  5242880000 cpu:               1.3 elap:               0.1
 (Enter /data0/hywu0/study/g16/l303.exe)
 DipDrv:  MaxL=1.
 Leave Link  303 at Thu May 12 22:31:19 2022, MaxMem=  5242880000 cpu:               0.3 elap:               0.0
 (Enter /data0/hywu0/study/g16/l401.exe)
 ExpMin= 8.45D-02 ExpMax= 8.59D+03 ExpMxC= 1.30D+03 IAcc=3 IRadAn=         5 AccDes= 0.00D+00
 Harris functional with IExCor= 1009 and IRadAn=       5 diagonalized for initial guess.
 HarFok:  IExCor= 1009 AccDes= 0.00D+00 IRadAn=         5 IDoV= 1 UseB2=F ITyADJ=14
 ICtDFT=  3500011 ScaDFX=  1.000000  1.000000  1.000000  1.000000
 FoFCou: FMM=F IPFlag=           0 FMFlag=      100000 FMFlg1=           0
         NFxFlg=           0 DoJE=T BraDBF=F KetDBF=T FulRan=T
         wScrn=  0.000000 ICntrl=       500 IOpCl=  0 I1Cent=   200000004 NGrid=           0
         NMat0=    1 NMatS0=      1 NMatT0=    0 NMatD0=    1 NMtDS0=    0 NMtDT0=    0
 Symmetry not used in FoFCou.
 Harris En= -76.4161652102380    
 JPrj=0 DoOrth=F DoCkMO=F.
 Leave Link  401 at Thu May 12 22:31:19 2022, MaxMem=  5242880000 cpu:               1.7 elap:               0.1
 (Enter /data0/hywu0/study/g16/l502.exe)
 Keep R1 ints in memory in canonical form, NReq=14134375.
 FoFCou: FMM=F IPFlag=           0 FMFlag=           0 FMFlg1=           0
         NFxFlg=           0 DoJE=F BraDBF=F KetDBF=F FulRan=T
         wScrn=  0.000000 ICntrl=       600 IOpCl=  0 I1Cent=           0 NGrid=           0
         NMat0=    1 NMatS0=    780 NMatT0=    0 NMatD0=    1 NMtDS0=    0 NMtDT0=    0
 Symmetry not used in FoFCou.
 Two-electron integral symmetry not used.
 Closed shell SCF:
 Using DIIS extrapolation, IDIIS=  1040.
 NGot=  5242880000 LenX=  5242569713 LenY=  5242567591
 Requested convergence on RMS density matrix=1.00D-08 within 128 cycles.
 Requested convergence on MAX density matrix=1.00D-06.
 Requested convergence on             energy=1.00D-06.
 No special actions if energy rises.
 Integral accuracy reduced to 1.0D-05 until final iterations.

 Cycle   1  Pass 0  IDiag  1:
 E= -76.3466469831967    
 DIIS: error= 6.98D-02 at cycle   1 NSaved=   1.
 NSaved= 1 IEnMin= 1 EnMin= -76.3466469831967     IErMin= 1 ErrMin= 6.98D-02
 ErrMax= 6.98D-02  0.00D+00 EMaxC= 1.00D-01 BMatC= 1.20D-01 BMatP= 1.20D-01
 IDIUse=3 WtCom= 3.02D-01 WtEn= 6.98D-01
 Coeff-Com:  0.100D+01
 Coeff-En:   0.100D+01
 Coeff:      0.100D+01
 Gap=     0.325 Goal=   None    Shift=    0.000
 GapD=    0.325 DampG=1.000 DampE=0.500 DampFc=0.5000 IDamp=-1.
 Damping current iteration by 5.00D-01
 RMSDP=7.96D-03 MaxDP=1.00D-01              OVMax= 1.67D-01

 Cycle   2  Pass 0  IDiag  1:
 E= -76.3778203201016     Delta-E=       -0.031173336905 Rises=F Damp=T
 DIIS: error= 1.13D-02 at cycle   2 NSaved=   2.
 NSaved= 2 IEnMin= 2 EnMin= -76.3778203201016     IErMin= 2 ErrMin= 1.13D-02
 ErrMax= 1.13D-02  0.00D+00 EMaxC= 1.00D-01 BMatC= 4.86D-03 BMatP= 1.20D-01
 IDIUse=3 WtCom= 8.87D-01 WtEn= 1.13D-01
 Coeff-Com:  0.837D-01 0.916D+00
 Coeff-En:   0.190D+00 0.810D+00
 Coeff:      0.957D-01 0.904D+00
 Gap=     0.457 Goal=   None    Shift=    0.000
 RMSDP=9.51D-04 MaxDP=1.41D-02 DE=-3.12D-02 OVMax= 1.00D-01

 Cycle   3  Pass 0  IDiag  1:
 E= -76.4215910412221     Delta-E=       -0.043770721120 Rises=F Damp=F
 DIIS: error= 2.17D-03 at cycle   3 NSaved=   3.
 NSaved= 3 IEnMin= 3 EnMin= -76.4215910412221     IErMin= 3 ErrMin= 2.17D-03
 ErrMax= 2.17D-03  0.00D+00 EMaxC= 1.00D-01 BMatC= 9.10D-05 BMatP= 4.86D-03
 IDIUse=3 WtCom= 9.78D-01 WtEn= 2.17D-02
 Coeff-Com: -0.199D-01 0.395D-01 0.980D+00
 Coeff-En:   0.000D+00 0.000D+00 0.100D+01
 Coeff:     -0.195D-01 0.387D-01 0.981D+00
 Gap=     0.461 Goal=   None    Shift=    0.000
 RMSDP=1.15D-04 MaxDP=9.83D-04 DE=-4.38D-02 OVMax= 3.33D-03

 Cycle   4  Pass 0  IDiag  1:
 E= -76.4216687826192     Delta-E=       -0.000077741397 Rises=F Damp=F
 DIIS: error= 4.16D-04 at cycle   4 NSaved=   4.
 NSaved= 4 IEnMin= 4 EnMin= -76.4216687826192     IErMin= 4 ErrMin= 4.16D-04
 ErrMax= 4.16D-04  0.00D+00 EMaxC= 1.00D-01 BMatC= 3.30D-06 BMatP= 9.10D-05
 IDIUse=3 WtCom= 9.96D-01 WtEn= 4.16D-03
 Coeff-Com: -0.191D-02-0.226D-02 0.162D+00 0.842D+00
 Coeff-En:   0.000D+00 0.000D+00 0.000D+00 0.100D+01
 Coeff:     -0.190D-02-0.225D-02 0.162D+00 0.842D+00
 Gap=     0.462 Goal=   None    Shift=    0.000
 RMSDP=2.22D-05 MaxDP=3.56D-04 DE=-7.77D-05 OVMax= 5.40D-04

 Cycle   5  Pass 0  IDiag  1:
 E= -76.4216708277562     Delta-E=       -0.000002045137 Rises=F Damp=F
 DIIS: error= 8.95D-05 at cycle   5 NSaved=   5.
 NSaved= 5 IEnMin= 5 EnMin= -76.4216708277562     IErMin= 5 ErrMin= 8.95D-05
 ErrMax= 8.95D-05  0.00D+00 EMaxC= 1.00D-01 BMatC= 8.33D-08 BMatP= 3.30D-06
 IDIUse=1 WtCom= 1.00D+00 WtEn= 0.00D+00
 Coeff-Com:  0.118D-02-0.180D-02-0.369D-01-0.651D-01 0.110D+01
 Coeff:      0.118D-02-0.180D-02-0.369D-01-0.651D-01 0.110D+01
 Gap=     0.462 Goal=   None    Shift=    0.000
 RMSDP=9.04D-06 MaxDP=1.02D-04 DE=-2.05D-06 OVMax= 2.05D-04

 Initial convergence to 1.0D-05 achieved.  Increase integral accuracy.
 Cycle   6  Pass 1  IDiag  1:
 E= -76.4216812312358     Delta-E=       -0.000010403480 Rises=F Damp=F
 DIIS: error= 2.09D-05 at cycle   1 NSaved=   1.
 NSaved= 1 IEnMin= 1 EnMin= -76.4216812312358     IErMin= 1 ErrMin= 2.09D-05
 ErrMax= 2.09D-05  0.00D+00 EMaxC= 1.00D-01 BMatC= 2.44D-08 BMatP= 2.44D-08
 IDIUse=1 WtCom= 1.00D+00 WtEn= 0.00D+00
 Coeff-Com:  0.100D+01
 Coeff:      0.100D+01
 Gap=     0.462 Goal=   None    Shift=    0.000
 RMSDP=9.04D-06 MaxDP=1.02D-04 DE=-1.04D-05 OVMax= 4.41D-05

 Cycle   7  Pass 1  IDiag  1:
 E= -76.4216812506954     Delta-E=       -0.000000019460 Rises=F Damp=F
 DIIS: error= 5.56D-06 at cycle   2 NSaved=   2.
 NSaved= 2 IEnMin= 2 EnMin= -76.4216812506954     IErMin= 2 ErrMin= 5.56D-06
 ErrMax= 5.56D-06  0.00D+00 EMaxC= 1.00D-01 BMatC= 4.98D-10 BMatP= 2.44D-08
 IDIUse=1 WtCom= 1.00D+00 WtEn= 0.00D+00
 Coeff-Com: -0.436D-01 0.104D+01
 Coeff:     -0.436D-01 0.104D+01
 Gap=     0.462 Goal=   None    Shift=    0.000
 RMSDP=6.26D-07 MaxDP=6.50D-06 DE=-1.95D-08 OVMax= 1.39D-05

 Cycle   8  Pass 1  IDiag  1:
 E= -76.4216812508933     Delta-E=       -0.000000000198 Rises=F Damp=F
 DIIS: error= 4.20D-06 at cycle   3 NSaved=   3.
 NSaved= 3 IEnMin= 3 EnMin= -76.4216812508933     IErMin= 3 ErrMin= 4.20D-06
 ErrMax= 4.20D-06  0.00D+00 EMaxC= 1.00D-01 BMatC= 4.43D-10 BMatP= 4.98D-10
 IDIUse=1 WtCom= 1.00D+00 WtEn= 0.00D+00
 Coeff-Com: -0.417D-01 0.527D+00 0.515D+00
 Coeff:     -0.417D-01 0.527D+00 0.515D+00
 Gap=     0.462 Goal=   None    Shift=    0.000
 RMSDP=2.49D-07 MaxDP=3.59D-06 DE=-1.98D-10 OVMax= 5.49D-06

 Cycle   9  Pass 1  IDiag  1:
 E= -76.4216812511773     Delta-E=       -0.000000000284 Rises=F Damp=F
 DIIS: error= 6.92D-07 at cycle   4 NSaved=   4.
 NSaved= 4 IEnMin= 4 EnMin= -76.4216812511773     IErMin= 4 ErrMin= 6.92D-07
 ErrMax= 6.92D-07  0.00D+00 EMaxC= 1.00D-01 BMatC= 5.96D-12 BMatP= 4.43D-10
 IDIUse=1 WtCom= 1.00D+00 WtEn= 0.00D+00
 Coeff-Com: -0.131D-03-0.302D-01 0.638D-01 0.967D+00
 Coeff:     -0.131D-03-0.302D-01 0.638D-01 0.967D+00
 Gap=     0.462 Goal=   None    Shift=    0.000
 RMSDP=6.14D-08 MaxDP=4.19D-07 DE=-2.84D-10 OVMax= 1.32D-06

 Cycle  10  Pass 1  IDiag  1:
 E= -76.4216812511836     Delta-E=       -0.000000000006 Rises=F Damp=F
 DIIS: error= 6.72D-08 at cycle   5 NSaved=   5.
 NSaved= 5 IEnMin= 5 EnMin= -76.4216812511836     IErMin= 5 ErrMin= 6.72D-08
 ErrMax= 6.72D-08  0.00D+00 EMaxC= 1.00D-01 BMatC= 1.65D-13 BMatP= 5.96D-12
 IDIUse=1 WtCom= 1.00D+00 WtEn= 0.00D+00
 Coeff-Com:  0.156D-02-0.239D-01-0.179D-01 0.998D-01 0.940D+00
 Coeff:      0.156D-02-0.239D-01-0.179D-01 0.998D-01 0.940D+00
 Gap=     0.462 Goal=   None    Shift=    0.000
 RMSDP=1.96D-08 MaxDP=1.32D-07 DE=-6.28D-12 OVMax= 3.13D-07

 Cycle  11  Pass 1  IDiag  1:
 E= -76.4216812511840     Delta-E=       -0.000000000000 Rises=F Damp=F
 DIIS: error= 1.14D-08 at cycle   6 NSaved=   6.
 NSaved= 6 IEnMin= 6 EnMin= -76.4216812511840     IErMin= 6 ErrMin= 1.14D-08
 ErrMax= 1.14D-08  0.00D+00 EMaxC= 1.00D-01 BMatC= 6.61D-15 BMatP= 1.65D-13
 IDIUse=1 WtCom= 1.00D+00 WtEn= 0.00D+00
 Coeff-Com:  0.783D-04 0.347D-03-0.470D-02-0.446D-01-0.135D-01 0.106D+01
 Coeff:      0.783D-04 0.347D-03-0.470D-02-0.446D-01-0.135D-01 0.106D+01
 Gap=     0.462 Goal=   None    Shift=    0.000
 RMSDP=4.63D-09 MaxDP=3.22D-08 DE=-3.69D-13 OVMax= 8.15D-08

 SCF Done:  E(RM062X) =  -76.4216812512     A.U. after   11 cycles
            NFock= 11  Conv=0.46D-08     -V/T= 2.0031
 KE= 7.618783959903D+01 PE=-1.990068176501D+02 EE= 3.731693452003D+01
 Leave Link  502 at Thu May 12 22:31:20 2022, MaxMem=  5242880000 cpu:               5.8 elap:               0.4
 (Enter /data0/hywu0/study/g16/l601.exe)
 Copying SCF densities to generalized density rwf, IOpCl= 0 IROHF=0.

 **********************************************************************

            Population analysis using the SCF density.

 **********************************************************************

 Alpha  occ. eigenvalues --  -19.62691  -1.13303  -0.60431  -0.47684  -0.39989
 Alpha virt. eigenvalues --    0.06194   0.13286   0.17423   0.17944   0.18902
 Alpha virt. eigenvalues --    0.23405   0.50824   0.53319   0.98128   1.00279
 Alpha virt. eigenvalues --    1.06007   1.17593   1.20100   1.31949   1.34060
 Alpha virt. eigenvalues --    1.70346   1.74221   1.75251   2.07303   2.09468
 Alpha virt. eigenvalues --    2.36283   2.39551   2.54805   2.87642   3.01036
 Alpha virt. eigenvalues --    5.05618   5.48551   5.90421   6.78479   6.80064
 Alpha virt. eigenvalues --    6.87342   6.91591   7.09607  49.95419
          Condensed to atoms (all electrons):
              40         41         42
    40  O    7.919085   0.318602   0.316027
    41  H    0.318602   0.429443  -0.023759
    42  H    0.316027  -0.023759   0.429732
 Mulliken charges:
               1
     1  C    0.000000
     2  C    0.000000
     3  C    0.000000
     4  N    0.000000
     5  H    0.000000
     6  H    0.000000
     7  H    0.000000
     8  C    0.000000
     9  H    0.000000
    10  H    0.000000
    11  H    0.000000
    12  N    0.000000
    13  C    0.000000
    14  H    0.000000
    15  H    0.000000
    16  C    0.000000
    17  H    0.000000
    18  H    0.000000
    19  C    0.000000
    20  H    0.000000
    21  H    0.000000
    22  S    0.000000
    23  O    0.000000
    24  O    0.000000
    25  O    0.000000
    26  P    0.000000
    27  O    0.000000
    28  O    0.000000
    29  H    0.000000
    30  O    0.000000
    31  H    0.000000
    32  O    0.000000
    33  H    0.000000
    34  O    0.000000
    35  H    0.000000
    36  H    0.000000
    37  O    0.000000
    38  H    0.000000
    39  H    0.000000
    40  O   -0.553714
    41  H    0.275714
    42  H    0.278000
 Sum of Mulliken charges =  -0.00000
 Mulliken charges with hydrogens summed into heavy atoms:
               1
     1  C    0.000000
     2  C    0.000000
     3  C    0.000000
     4  N    0.000000
     8  C    0.000000
    12  N    0.000000
    13  C    0.000000
    16  C    0.000000
    19  C    0.000000
    22  S    0.000000
    23  O    0.000000
    24  O    0.000000
    25  O    0.000000
    26  P    0.000000
    27  O    0.000000
    28  O    0.000000
    30  O    0.000000
    32  O    0.000000
    34  O    0.000000
    37  O    0.000000
    40  O   -0.000000
         Mulliken charges condensed to fragments:
      1      0.000000
      2      0.000000
      3      0.000000
      4      0.000000
      5     -0.000000
 Electronic spatial extent (au):  <R**2>=           8305.6069
 Charge=             -0.0000 electrons
 Dipole moment (field-independent basis, Debye):
    X=              0.8455    Y=              1.1651    Z=             -1.5784  Tot=              2.1363
 Quadrupole moment (field-independent basis, Debye-Ang):
   XX=              4.5109   YY=             15.5646   ZZ=            -37.0803
   XY=             16.8929   XZ=             -1.4306   YZ=             -2.4150
 Traceless Quadrupole moment (field-independent basis, Debye-Ang):
   XX=             10.1792   YY=             21.2328   ZZ=            -31.4120
   XY=             16.8929   XZ=             -1.4306   YZ=             -2.4150
 Octapole moment (field-independent basis, Debye-Ang**2):
  XXX=            -21.8287  YYY=            132.1633  ZZZ=           -640.9169  XYY=            201.1212
  XXY=            110.7954  XXZ=            -16.7969  XZZ=           -150.0093  YZZ=           -216.4056
  YYZ=             30.4164  XYZ=             81.2070
 Hexadecapole moment (field-independent basis, Debye-Ang**3):
 XXXX=           -790.2978 YYYY=            580.9747 ZZZZ=          -9708.6968 XXXY=            315.2088
 XXXZ=           -606.0013 YYYX=           1909.9840 YYYZ=            207.9020 ZZZX=          -3238.9193
 ZZZY=          -4621.3107 XXYY=           1407.0869 XXZZ=          -1035.9171 YYZZ=          -1433.6639
 XXYZ=            561.1886 YYXZ=           1233.8662 ZZXY=           -410.0888
 N-N= 9.080362279813D+00 E-N=-1.990068175339D+02  KE= 7.618783959903D+01
 No NMR shielding tensors so no spin-rotation constants.
 Leave Link  601 at Thu May 12 22:31:20 2022, MaxMem=  5242880000 cpu:               1.0 elap:               0.1
 (Enter /data0/hywu0/study/g16/l122.exe)
 CPIOFr:  IOpCl= 0 IRwI=-1 IRwCP=  731 ICalc= 10 LCPTot=      769957 Len1MO=     2025449 IndFrg=    23049896
 Restoring MOs from calculation   1 to rwf.
 CPIOFr:  IOpCl= 0 IRwI=-2 IRwCP=  731 ICalc=  0 LCPTot=      769957 Len1MO=     2025449 IndFrg=     2795406
 Counterpoise corrected energy =   -1880.744605943022
                   BSSE energy =       0.008842259786
              sum of fragments =   -1880.622567118832
           complexation energy =     -82.13 kcal/mole (raw)
           complexation energy =     -76.58 kcal/mole (corrected)
 Leave Link  122 at Thu May 12 22:31:20 2022, MaxMem=  5242880000 cpu:               0.5 elap:               0.0
 (Enter /data0/hywu0/study/g16/l9999.exe)
 1\1\GINC-LOCALHOST\SP\RM062X\6-311+G(2d,p)\C7H21N2O10P1S1\HYWU0\12-May
 -2022\0\\#p M062X/6-311+G(2d,p) nosymm em=GD3 counterpoise=5\\Title Ca
 rd Required\\0,1\C,0,10.996203,7.954371,11.138083\C,0,11.599877,9.1600
 41,11.478352\C,0,9.373827,9.403292,11.718093\N,0,9.623953,8.12302,11.3
 0453\H,0,11.435224,7.041895,10.761688\H,0,12.634707,9.439103,11.448111
 \H,0,8.384206,9.847057,11.869127\C,0,8.600223,7.12648,11.054029\H,0,8.
 994181,6.287131,10.445456\H,0,8.192975,6.728727,11.997619\H,0,7.751843
 ,7.576215,10.468959\N,0,10.581225,10.041981,11.846007\C,0,10.757954,11
 .441316,12.238075\H,0,11.340451,11.4653,13.188364\H,0,9.751752,11.8843
 65,12.456632\C,0,11.475371,12.278767,11.156927\H,0,12.09408,13.04899,1
 1.661704\H,0,12.20032,11.644459,10.595085\C,0,10.520343,12.96047,10.18
 2997\H,0,11.081507,13.59771,9.474696\H,0,9.824844,13.639694,10.705462\
 S,0,9.570444,11.743016,9.247762\O,0,8.970711,12.411181,8.084441\O,0,10
 .577371,10.706526,8.878586\O,0,8.594315,11.231815,10.250245\P,0,10.130
 861,7.449115,7.47456\O,0,11.153215,6.813412,8.298325\O,0,8.739975,7.40
 7611,8.237345\H,0,8.01817,7.961954,7.736617\O,0,10.382252,8.916224,6.9
 49025\H,0,10.558283,9.586841,7.778612\O,0,9.770184,6.69905,6.104347\H,
 0,10.462198,6.982634,5.402295\O,0,6.672164,9.023042,7.140364\H,0,6.180
 332,8.621413,6.433125\H,0,7.170178,9.772395,6.714376\O,0,8.201705,10.8
 67328,5.945323\H,0,8.35715,11.58384,6.60916\H,0,9.007458,10.342656,6.0
 12781\O,0,6.622647,9.289502,10.090189\H,0,6.499619,9.183694,9.142028\H
 ,0,7.225727,10.056383,10.15051\\Version=ES64L-G16RevA.03\HF=-76.421681
 3\RMSD=4.630e-09\Dipole=1.6177593,0.8135825,2.3398029\Quadrupole=-3.54
 14847,-32.2060792,35.747564,55.1037897,78.5334358,65.2415836\PG=C01 [X
 (C7H21N2O10P1S1)]\\@


  THE LARGE PRINT GIVETH,
  AND THE SMALL PRINT TAKETH AWAY.

                     -- TOM WAITS
 Job cpu time:       0 days  6 hours  9 minutes 43.8 seconds.
 Elapsed time:       0 days  0 hours 23 minutes 13.7 seconds.
 File lengths (MBytes):  RWF=    490 Int=      0 D2E=      0 Chk=    204 Scr=      1
 Normal termination of Gaussian 16 at Thu May 12 22:31:20 2022.
