 Entering Gaussian System, Link 0=g16
 Initial command:
 /data0/home/software/g16/l1.exe "/data0/home/software/g16/scratch/Gau-365632.inp" -scrdir="/data0/home/software/g16/scratch/"
 Default is to use a total of  22 processors:
                               22 via shared-memory
                                1 via Linda
 Entering Link 1 = /data0/home/software/g16/l1.exe PID=    365633.
  
 Copyright (c) 1988,1990,1992,1993,1995,1998,2003,2009,2016,
            Gaussian, Inc.  All Rights Reserved.
  
 This is part of the Gaussian(R) 16 program.  It is based on
 the Gaussian(R) 09 system (copyright 2009, Gaussian, Inc.),
 the Gaussian(R) 03 system (copyright 2003, Gaussian, Inc.),
 the Gaussian(R) 98 system (copyright 1998, Gaussian, Inc.),
 the Gaussian(R) 94 system (copyright 1995, Gaussian, Inc.),
 the Gaussian 92(TM) system (copyright 1992, Gaussian, Inc.),
 the Gaussian 90(TM) system (copyright 1990, Gaussian, Inc.),
 the Gaussian 88(TM) system (copyright 1988, Gaussian, Inc.),
 the Gaussian 86(TM) system (copyright 1986, Carnegie Mellon
 University), and the Gaussian 82(TM) system (copyright 1983,
 Carnegie Mellon University). Gaussian is a federally registered
 trademark of Gaussian, Inc.
  
 This software contains proprietary and confidential information,
 including trade secrets, belonging to Gaussian, Inc.
  
 This software is provided under written license and may be
 used, copied, transmitted, or stored only in accord with that
 written license.
  
 The following legend is applicable only to US Government
 contracts under FAR:
  
                    RESTRICTED RIGHTS LEGEND
  
 Use, reproduction and disclosure by the US Government is
 subject to restrictions as set forth in subparagraphs (a)
 and (c) of the Commercial Computer Software - Restricted
 Rights clause in FAR 52.227-19.
  
 Gaussian, Inc.
 340 Quinnipiac St., Bldg. 40, Wallingford CT 06492
  
  
 ---------------------------------------------------------------
 Warning -- This program may not be used in any manner that
 competes with the business of Gaussian, Inc. or will provide
 assistance to any competitor of Gaussian, Inc.  The licensee
 of this program is prohibited from giving any competitor of
 Gaussian, Inc. access to this program.  By using this program,
 the user acknowledges that Gaussian, Inc. is engaged in the
 business of creating and licensing software in the field of
 computational chemistry and represents and warrants to the
 licensee that it is not a competitor of Gaussian, Inc. and that
 it will not use this program in any manner prohibited above.
 ---------------------------------------------------------------
  

 Cite this work as:
 Gaussian 16, Revision A.03,
 M. J. Frisch, G. W. Trucks, H. B. Schlegel, G. E. Scuseria, 
 M. A. Robb, J. R. Cheeseman, G. Scalmani, V. Barone, 
 G. A. Petersson, H. Nakatsuji, X. Li, M. Caricato, A. V. Marenich, 
 J. Bloino, B. G. Janesko, R. Gomperts, B. Mennucci, H. P. Hratchian, 
 J. V. Ortiz, A. F. Izmaylov, J. L. Sonnenberg, D. Williams-Young, 
 F. Ding, F. Lipparini, F. Egidi, J. Goings, B. Peng, A. Petrone, 
 T. Henderson, D. Ranasinghe, V. G. Zakrzewski, J. Gao, N. Rega, 
 G. Zheng, W. Liang, M. Hada, M. Ehara, K. Toyota, R. Fukuda, 
 J. Hasegawa, M. Ishida, T. Nakajima, Y. Honda, O. Kitao, H. Nakai, 
 T. Vreven, K. Throssell, J. A. Montgomery, Jr., J. E. Peralta, 
 F. Ogliaro, M. J. Bearpark, J. J. Heyd, E. N. Brothers, K. N. Kudin, 
 V. N. Staroverov, T. A. Keith, R. Kobayashi, J. Normand, 
 K. Raghavachari, A. P. Rendell, J. C. Burant, S. S. Iyengar, 
 J. Tomasi, M. Cossi, J. M. Millam, M. Klene, C. Adamo, R. Cammi, 
 J. W. Ochterski, R. L. Martin, K. Morokuma, O. Farkas, 
 J. B. Foresman, and D. J. Fox, Gaussian, Inc., Wallingford CT, 2016.
 
 ******************************************
 Gaussian 16:  ES64L-G16RevA.03 25-Dec-2016
                20-Feb-2023 
 ******************************************
 %nproc=24
 Will use up to   24 processors via shared memory.
 %mem=50GB
 ---------------------------------------------------
 #p M062X/6-311+G(2d,p) nosymm em=GD3 counterpoise=2
 ---------------------------------------------------
 1/38=1,62=2,172=1/1;
 2/12=2,15=1,17=6,18=5,40=1/2;
 1/38=1,53=2,62=2,63=1/22;
 3/5=4,6=6,7=112,11=2,25=1,30=1,74=-55,124=31/1,2,3;
 4//1;
 5/5=2,38=5/2;
 6/7=2,8=2,9=2,10=2,28=1/1;
 1/53=2,62=2,63=1/22;
 3/5=7,6=11,7=112,11=2,25=1,30=1,74=-55,82=7,124=31/1,2,3;
 4//1;
 5/5=2,38=5/2;
 6/7=2,8=2,9=2,10=2,28=1/1;
 1/53=2,62=2,63=1/22(-4);
 99/5=1,9=1/99;
 Leave Link    1 at Mon Feb 20 01:37:14 2023, MaxMem=  6710886400 cpu:               0.6 elap:               0.0
 (Enter /data0/home/software/g16/l101.exe)
 -------------------
 Title Card Required
 -------------------
 Symbolic Z-matrix:
 Charge =  0 Multiplicity = 1 in supermolecule
 Charge =  0 Multiplicity = 1 in fragment      1.
 Charge =  0 Multiplicity = 1 in fragment      2.
 C                     10.42001   7.42753   9.44901    
 C                     9.9989    8.13549   8.32773    
 C                     11.27753   9.50146   9.58143    
 N                     11.21487   8.28745   10.20434    
 H                     10.17252   6.43013   9.77018    
 H                     9.36791   7.82961   7.51612    
 H                     11.81505   10.39526   9.93726    
 C                     11.75075   7.99992   11.52338    
 H                     12.78061   8.40056   11.63662    
 H                     11.11779   8.49336   12.3044    
 H                     11.75106   6.91749   11.72718    
 N                     10.54525   9.4159    8.42339    
 C                     10.17259   10.57184   7.60999    
 H                     10.391    10.35236   6.54125    
 H                     10.81483   11.44433   7.91221    
 C                     8.68716   10.96105   7.78878    
 H                     8.5984    12.04551   7.54909    
 H                     8.06186   10.42235   7.05343    
 C                     8.13537   10.72778   9.19328    
 H                     7.92435   9.65583   9.37186    
 H                     7.16478   11.24548   9.32004    
 C                     9.07824   11.24872   10.28241    
 O                     9.83723   12.18661   10.00589    
 O                     9.044     10.63294   11.3756    
 P                     12.12207   11.77319   12.59115    
 O                     12.89878   10.8588   11.74369    
 O                     10.87723   11.10026   13.31189    
 H                     10.10269   10.96889   12.59183    
 O                     13.01179   12.3066   13.80041    
 H                     12.41033   12.93104   14.36371    
 O                     11.58921   13.09374   11.89802    
 H                     10.88141   12.80809   11.15036    
 
 ITRead=  0  0  0  0  0  0  0  0  0  0  0  0  0  0  0  0  0  0  0  0
 ITRead=  0  0  0  0  0  0  0  0  0  0  0  0
 MicOpt= -1 -1 -1 -1 -1 -1 -1 -1 -1 -1 -1 -1 -1 -1 -1 -1 -1 -1 -1 -1
 MicOpt= -1 -1 -1 -1 -1 -1 -1 -1 -1 -1 -1 -1
 NAtoms=     32 NQM=       32 NQMF=       0 NMMI=      0 NMMIF=      0
                NMic=       0 NMicF=      0.
                    Isotopes and Nuclear Properties:
 (Nuclear quadrupole moments (NQMom) in fm**2, nuclear magnetic moments (NMagM)
  in nuclear magnetons)

  Atom         1           2           3           4           5           6           7           8           9          10
 IAtWgt=          12          12          12          14           1           1           1          12           1           1
 AtmWgt=  12.0000000  12.0000000  12.0000000  14.0030740   1.0078250   1.0078250   1.0078250  12.0000000   1.0078250   1.0078250
 NucSpn=           0           0           0           2           1           1           1           0           1           1
 AtZEff=  -0.0000000  -0.0000000  -0.0000000  -0.0000000  -0.0000000  -0.0000000  -0.0000000  -0.0000000  -0.0000000  -0.0000000
 NQMom=    0.0000000   0.0000000   0.0000000   2.0440000   0.0000000   0.0000000   0.0000000   0.0000000   0.0000000   0.0000000
 NMagM=    0.0000000   0.0000000   0.0000000   0.4037610   2.7928460   2.7928460   2.7928460   0.0000000   2.7928460   2.7928460
 AtZNuc=   6.0000000   6.0000000   6.0000000   7.0000000   1.0000000   1.0000000   1.0000000   6.0000000   1.0000000   1.0000000

  Atom        11          12          13          14          15          16          17          18          19          20
 IAtWgt=           1          14          12           1           1          12           1           1          12           1
 AtmWgt=   1.0078250  14.0030740  12.0000000   1.0078250   1.0078250  12.0000000   1.0078250   1.0078250  12.0000000   1.0078250
 NucSpn=           1           2           0           1           1           0           1           1           0           1
 AtZEff=  -0.0000000  -0.0000000  -0.0000000  -0.0000000  -0.0000000  -0.0000000  -0.0000000  -0.0000000  -0.0000000  -0.0000000
 NQMom=    0.0000000   2.0440000   0.0000000   0.0000000   0.0000000   0.0000000   0.0000000   0.0000000   0.0000000   0.0000000
 NMagM=    2.7928460   0.4037610   0.0000000   2.7928460   2.7928460   0.0000000   2.7928460   2.7928460   0.0000000   2.7928460
 AtZNuc=   1.0000000   7.0000000   6.0000000   1.0000000   1.0000000   6.0000000   1.0000000   1.0000000   6.0000000   1.0000000

  Atom        21          22          23          24          25          26          27          28          29          30
 IAtWgt=           1          12          16          16          31          16          16           1          16           1
 AtmWgt=   1.0078250  12.0000000  15.9949146  15.9949146  30.9737634  15.9949146  15.9949146   1.0078250  15.9949146   1.0078250
 NucSpn=           1           0           0           0           1           0           0           1           0           1
 AtZEff=  -0.0000000  -0.0000000  -0.0000000  -0.0000000  -0.0000000  -0.0000000  -0.0000000  -0.0000000  -0.0000000  -0.0000000
 NQMom=    0.0000000   0.0000000   0.0000000   0.0000000   0.0000000   0.0000000   0.0000000   0.0000000   0.0000000   0.0000000
 NMagM=    2.7928460   0.0000000   0.0000000   0.0000000   1.1316000   0.0000000   0.0000000   2.7928460   0.0000000   2.7928460
 AtZNuc=   1.0000000   6.0000000   8.0000000   8.0000000  15.0000000   8.0000000   8.0000000   1.0000000   8.0000000   1.0000000

  Atom        31          32
 IAtWgt=          16           1
 AtmWgt=  15.9949146   1.0078250
 NucSpn=           0           1
 AtZEff=  -0.0000000  -0.0000000
 NQMom=    0.0000000   0.0000000
 NMagM=    0.0000000   2.7928460
 AtZNuc=   8.0000000   1.0000000
 Leave Link  101 at Mon Feb 20 01:37:14 2023, MaxMem=  6710886400 cpu:               2.2 elap:               0.1
 (Enter /data0/home/software/g16/l202.exe)
                          Input orientation:                          
 ---------------------------------------------------------------------
 Center     Atomic      Atomic             Coordinates (Angstroms)
 Number     Number       Type             X           Y           Z
 ---------------------------------------------------------------------
      1          6           0       10.420007    7.427526    9.449007
      2          6           0        9.998900    8.135490    8.327733
      3          6           0       11.277531    9.501461    9.581434
      4          7           0       11.214866    8.287449   10.204341
      5          1           0       10.172522    6.430129    9.770182
      6          1           0        9.367915    7.829614    7.516122
      7          1           0       11.815050   10.395258    9.937262
      8          6           0       11.750746    7.999922   11.523383
      9          1           0       12.780605    8.400561   11.636618
     10          1           0       11.117794    8.493362   12.304396
     11          1           0       11.751058    6.917488   11.727180
     12          7           0       10.545249    9.415895    8.423394
     13          6           0       10.172595   10.571844    7.609990
     14          1           0       10.391000   10.352363    6.541253
     15          1           0       10.814826   11.444333    7.912210
     16          6           0        8.687159   10.961048    7.788775
     17          1           0        8.598402   12.045515    7.549086
     18          1           0        8.061859   10.422347    7.053427
     19          6           0        8.135373   10.727780    9.193278
     20          1           0        7.924352    9.655826    9.371864
     21          1           0        7.164781   11.245484    9.320042
     22          6           0        9.078240   11.248717   10.282411
     23          8           0        9.837228   12.186608   10.005893
     24          8           0        9.044004   10.632938   11.375604
     25         15           0       12.122073   11.773186   12.591147
     26          8           0       12.898783   10.858797   11.743689
     27          8           0       10.877229   11.100256   13.311885
     28          1           0       10.102689   10.968894   12.591828
     29          8           0       13.011792   12.306599   13.800412
     30          1           0       12.410330   12.931036   14.363714
     31          8           0       11.589215   13.093741   11.898022
     32          1           0       10.881412   12.808092   11.150360
 ---------------------------------------------------------------------
                    Distance matrix (angstroms):
                    1          2          3          4          5
     1  C    0.000000
     2  C    1.391330   0.000000
     3  C    2.248130   2.252230   0.000000
     4  N    1.393484   2.241277   1.365930   0.000000
     5  H    1.076663   2.240326   3.269518   2.173617   0.000000
     6  H    2.237100   1.072574   3.272189   3.293533   2.772497
     7  H    3.315414   3.315952   1.102004   2.207807   4.295121
     8  C    2.530126   3.646851   2.499944   1.452484   2.833506
     9  H    3.362270   4.330920   2.773985   2.125029   3.764078
    10  H    3.126685   4.146546   2.907972   2.112357   3.401869
    11  H    2.687361   4.013705   3.391957   2.117388   2.561081
    12  N    2.240799   1.395380   1.372813   2.212137   3.296599
    13  C    3.651018   2.545809   2.500639   3.610463   4.671213
    14  H    4.124384   2.873983   3.279127   4.284955   5.085040
    15  H    4.318838   3.433196   2.602913   3.921710   5.385801
    16  C    4.271406   3.161474   3.471894   4.401408   5.163478
    17  H    5.315427   4.225634   4.216679   5.293328   6.240487
    18  H    4.502068   3.256639   4.192779   4.942419   5.270053
    19  C    4.022018   3.307850   3.395244   4.057184   4.790887
    20  H    3.346575   2.775857   3.363266   3.659639   3.951967
    21  H    5.018957   4.323074   4.474892   5.092656   5.695329
    22  C    4.134780   3.789533   2.895022   3.652448   4.967758
    23  O    4.826864   4.387928   3.076468   4.140134   5.771051
    24  O    3.984950   4.054453   3.080248   3.403795   4.638376
    25  P    5.626263   5.993112   3.864241   4.320906   6.348768
    26  O    4.814926   5.243518   3.024263   3.437586   5.562403
    27  O    5.349750   5.865413   4.078315   4.205082   5.903419
    28  H    4.745451   5.120689   3.549096   3.758614   5.344806
    29  O    7.032598   7.511716   5.355020   5.684561   7.670535
    30  H    7.642274   8.077458   5.992948   6.347631   8.268622
    31  O    6.282572   6.313503   4.285814   5.109710   7.137118
    32  H    5.661977   5.529852   3.681338   4.630589   6.563980
                    6          7          8          9         10
     6  H    0.000000
     7  H    4.293357   0.000000
     8  C    4.665301   2.873595   0.000000
     9  H    5.380606   2.792655   1.110830   0.000000
    10  H    5.141032   3.115557   1.119863   1.794291   0.000000
    11  H    4.923856   3.911878   1.101452   1.807671   1.793762
    12  N    2.173832   2.205299   3.614987   4.043826   4.030019
    13  C    2.859396   2.853951   4.941658   5.265921   5.220243
    14  H    2.891597   3.682748   5.674902   5.956718   6.099011
    15  H    3.913647   2.490350   5.077449   5.196157   5.300124
    16  C    3.216154   3.836641   5.665786   6.174001   5.691071
    17  H    4.285681   4.332846   6.488384   6.890895   6.448108
    18  H    2.939751   4.733253   6.281444   6.881847   6.374355
    19  C    3.568106   3.768833   5.093282   5.741432   4.854535
    20  H    2.977029   4.000496   4.691731   5.503453   4.488779
    21  H    4.447032   4.767478   6.034854   6.708024   5.666291
    22  C    4.407554   2.887499   4.385997   4.863474   3.979973
    23  O    5.040100   2.669349   4.846923   5.065262   4.534648
    24  O    4.781124   3.131136   3.779030   4.360484   3.121065
    25  P    6.992355   3.006003   3.938975   3.566425   3.442099
    26  O    6.286120   2.156971   3.088639   2.463403   3.013569
    27  O    6.823928   3.572760   3.684270   3.703743   2.805138
    28  H    6.013133   3.210601   3.559840   3.831448   2.690969
    29  O    8.533085   4.473180   5.032153   4.471307   4.512878
    30  H    9.064784   5.135952   5.728736   5.300883   5.060078
    31  O    7.200434   3.343261   5.110131   4.849091   4.642291
    32  H    6.346936   2.857456   4.900346   4.823869   4.472647
                   11         12         13         14         15
    11  H    0.000000
    12  N    4.314049   0.000000
    13  C    5.726877   1.461751   0.000000
    14  H    6.367257   2.107895   1.112687   0.000000
    15  H    5.993568   2.109157   1.124738   1.803205   0.000000
    16  C    6.422530   2.498547   1.545951   2.197699   2.185353
    17  H    7.327508   3.386669   2.157197   2.663813   2.325041
    18  H    6.909283   3.009482   2.187994   2.385816   3.059541
    19  C    5.831995   2.849783   2.584839   3.501718   3.055168
    20  H    5.262099   2.797546   2.999648   3.818622   3.699214
    21  H    6.749800   3.947016   3.524913   4.350612   3.917188
    22  C    5.290639   2.994544   2.966076   4.064856   2.944800
    23  O    5.864231   3.268401   2.908657   3.959147   2.426969
    24  O    4.610457   3.528523   3.931577   5.026338   3.973571
    25  P    4.945897   5.041167   5.482300   6.451091   4.869239
    26  O    4.105053   4.318037   4.960031   5.797481   4.400677
    27  O    4.557457   5.181180   5.769518   6.829145   5.410986
    28  H    4.458545   4.470292   4.998124   6.088735   4.757311
    29  O    5.910183   6.584248   7.027926   7.961343   6.343586
    30  H    6.599145   7.149975   7.495734   8.480457   6.810126
    31  O    6.180735   5.166184   5.172426   6.135621   4.382570
    32  H    5.982326   4.365358   4.247051   5.245472   3.514241
                   16         17         18         19         20
    16  C    0.000000
    17  H    1.114180   0.000000
    18  H    1.105412   1.779952   0.000000
    19  C    1.526928   2.157357   2.162789   0.000000
    20  H    2.188984   3.080175   2.445734   1.107027   0.000000
    21  H    2.177916   2.414871   2.572906   1.107310   1.762568
    22  C    2.540456   2.887247   3.484574   1.531856   2.167454
    23  O    2.782134   2.755086   3.870608   2.384289   3.235111
    24  O    3.619439   4.103191   4.437361   2.365830   2.494663
    25  P    5.959948   6.157337   6.998317   5.341551   5.698057
    26  O    5.778371   6.123420   6.751658   5.404798   5.640714
    27  O    5.943108   6.268686   6.895953   4.961798   5.131240
    28  H    5.007305   5.371335   5.927697   3.934287   4.103348
    29  O    7.526801   7.656713   8.577532   6.891866   7.247115
    30  H    7.808500   7.858378   8.868090   7.061374   7.467902
    31  O    5.464084   5.381169   6.561150   4.984219   5.624229
    32  H    4.418888   4.331609   5.516024   3.962146   4.673760
                   21         22         23         24         25
    21  H    0.000000
    22  C    2.141843   0.000000
    23  O    2.915146   1.237806   0.000000
    24  O    2.851671   1.255160   2.217928   0.000000
    25  P    5.962662   3.856196   3.474906   3.500317   0.000000
    26  O    6.237176   4.109005   3.762464   3.878894   1.468867
    27  O    5.453272   3.526488   3.631989   2.707080   1.588060
    28  H    4.405949   2.541890   2.870602   1.647083   2.173660
    29  O    7.442259   5.382219   4.948801   4.942082   1.593252
    30  H    7.469638   5.530828   5.115235   5.053930   2.136750
    31  O    5.444047   3.509887   2.733588   3.578627   1.583738
    32  H    4.427771   2.537009   1.669242   2.856238   2.164749
                   26         27         28         29         30
    26  O    0.000000
    27  O    2.569868   0.000000
    28  H    2.923970   1.065669   0.000000
    29  O    2.517739   2.500056   3.422428   0.000000
    30  H    3.375988   2.609310   3.509243   1.033918   0.000000
    31  O    2.594949   2.545568   2.684418   2.502480   2.603909
    32  H    2.867329   2.754798   2.463106   3.436974   3.560667
                   31         32
    31  O    0.000000
    32  H    1.068447   0.000000
 Symmetry turned off by external request.
 Stoichiometry    C8H15N2O6P
 Framework group  C1[X(C8H15N2O6P)]
 Deg. of freedom    90
 Full point group                 C1      NOp   1
 Rotational constants (GHZ):           0.6795644           0.3143493           0.2565211
 Leave Link  202 at Mon Feb 20 01:37:14 2023, MaxMem=  6710886400 cpu:               0.1 elap:               0.0
 (Enter /data0/home/software/g16/l122.exe)
 Counterpoise: doing full-system calculation.
 Leave Link  122 at Mon Feb 20 01:37:14 2023, MaxMem=  6710886400 cpu:               0.0 elap:               0.0
 (Enter /data0/home/software/g16/l301.exe)
 Standard basis: 6-311+G(2d,p) (5D, 7F)
 Ernie: Thresh=  0.10000D-02 Tol=  0.10000D-05 Strict=F.
   557 basis functions,   848 primitive gaussians,   591 cartesian basis functions
    70 alpha electrons       70 beta electrons
       nuclear repulsion energy      1545.6064878132 Hartrees.
 IExCor= 4336 DFT=T Ex+Corr=M062X ExCW=0 ScaHFX=  0.540000
 ScaDFX=  1.000000  1.000000  1.000000  1.000000 ScalE2=  1.000000  1.000000
 IRadAn=      5 IRanWt=     -1 IRanGd=            0 ICorTp=0 IEmpDi=131
 NAtoms=   32 NActive=   32 NUniq=   32 SFac= 1.00D+00 NAtFMM=   60 NAOKFM=F Big=F
 Integral buffers will be    131072 words long.
 Raffenetti 2 integral format.
 Two-electron integral symmetry is turned off.
 R6Disp:  Grimme-D3 Dispersion energy=       -0.0021048376 Hartrees.
 Nuclear repulsion after empirical dispersion term =     1545.6043829756 Hartrees.
 Leave Link  301 at Mon Feb 20 01:37:14 2023, MaxMem=  6710886400 cpu:               1.2 elap:               0.1
 (Enter /data0/home/software/g16/l302.exe)
 NPDir=0 NMtPBC=     1 NCelOv=     1 NCel=       1 NClECP=     1 NCelD=      1
         NCelK=      1 NCelE2=     1 NClLst=     1 CellRange=     0.0.
 One-electron integrals computed using PRISM.
 NBasis=   557 RedAO= T EigKep=  1.00D-05  NBF=   557
 NBsUse=   557 1.00D-06 EigRej= -1.00D+00 NBFU=   557
 Precomputing XC quadrature grid using
 IXCGrd= 4 IRadAn=           5 IRanWt=          -1 IRanGd=           0 AccXCQ= 0.00D+00.
 Generated NRdTot=       0 NPtTot=           0 NUsed=           0 NTot=          32
 NSgBfM=   591   591   591   591   591 MxSgAt=    32 MxSgA2=    32.
 Leave Link  302 at Mon Feb 20 01:37:15 2023, MaxMem=  6710886400 cpu:              14.0 elap:               0.6
 (Enter /data0/home/software/g16/l303.exe)
 DipDrv:  MaxL=1.
 Leave Link  303 at Mon Feb 20 01:37:15 2023, MaxMem=  6710886400 cpu:               1.4 elap:               0.1
 (Enter /data0/home/software/g16/l401.exe)
 ExpMin= 3.48D-02 ExpMax= 7.75D+04 ExpMxC= 2.65D+03 IAcc=3 IRadAn=         5 AccDes= 0.00D+00
 Harris functional with IExCor= 1009 and IRadAn=       5 diagonalized for initial guess.
 HarFok:  IExCor= 1009 AccDes= 0.00D+00 IRadAn=         5 IDoV= 1 UseB2=F ITyADJ=14
 ICtDFT=  3500011 ScaDFX=  1.000000  1.000000  1.000000  1.000000
 FoFCou: FMM=F IPFlag=           0 FMFlag=      100000 FMFlg1=           0
         NFxFlg=           0 DoJE=T BraDBF=F KetDBF=T FulRan=T
         wScrn=  0.000000 ICntrl=       500 IOpCl=  0 I1Cent=   200000004 NGrid=           0
         NMat0=    1 NMatS0=      1 NMatT0=    0 NMatD0=    1 NMtDS0=    0 NMtDT0=    0
 Symmetry not used in FoFCou.
 Harris En= -1215.64436717884    
 JPrj=0 DoOrth=F DoCkMO=F.
 Leave Link  401 at Mon Feb 20 01:37:17 2023, MaxMem=  6710886400 cpu:              54.0 elap:               2.3
 (Enter /data0/home/software/g16/l502.exe)
 Two-electron integral symmetry not used.
 Closed shell SCF:
 Using DIIS extrapolation, IDIIS=  1040.
 NGot=  6710886400 LenX=  6710169535 LenY=  6709819663
 Requested convergence on RMS density matrix=1.00D-08 within 128 cycles.
 Requested convergence on MAX density matrix=1.00D-06.
 Requested convergence on             energy=1.00D-06.
 No special actions if energy rises.
 Fock matrices will be formed incrementally for  20 cycles.

 Cycle   1  Pass 1  IDiag  1:
 FoFJK:  IHMeth= 1 ICntrl=       0 DoSepK=F KAlg= 0 I1Cent=           0 FoldK=F
 IRaf= 860000000 NMat=       1 IRICut=       1 DoRegI=T DoRafI=F ISym2E= 0 IDoP0=0 IntGTp=1.
 FoFCou: FMM=F IPFlag=           0 FMFlag=      100000 FMFlg1=           0
         NFxFlg=           0 DoJE=F BraDBF=F KetDBF=F FulRan=T
         wScrn=  0.000000 ICntrl=         0 IOpCl=  0 I1Cent=           0 NGrid=           0
         NMat0=    1 NMatS0=      1 NMatT0=    0 NMatD0=    1 NMtDS0=    0 NMtDT0=    0
 Symmetry not used in FoFCou.
 E= -1215.60696964121    
 DIIS: error= 2.66D-02 at cycle   1 NSaved=   1.
 NSaved= 1 IEnMin= 1 EnMin= -1215.60696964121     IErMin= 1 ErrMin= 2.66D-02
 ErrMax= 2.66D-02  0.00D+00 EMaxC= 1.00D-01 BMatC= 9.15D-01 BMatP= 9.15D-01
 IDIUse=3 WtCom= 7.34D-01 WtEn= 2.66D-01
 Coeff-Com:  0.100D+01
 Coeff-En:   0.100D+01
 Coeff:      0.100D+01
 Gap=     0.309 Goal=   None    Shift=    0.000
 GapD=    0.309 DampG=1.000 DampE=0.500 DampFc=0.5000 IDamp=-1.
 Damping current iteration by 5.00D-01
 RMSDP=4.95D-03 MaxDP=6.03D-01              OVMax= 2.23D-01

 Cycle   2  Pass 1  IDiag  1:
 RMSU=  2.48D-03    CP:  9.92D-01
 E= -1215.86496150966     Delta-E=       -0.257991868452 Rises=F Damp=T
 DIIS: error= 5.10D-03 at cycle   2 NSaved=   2.
 NSaved= 2 IEnMin= 2 EnMin= -1215.86496150966     IErMin= 2 ErrMin= 5.10D-03
 ErrMax= 5.10D-03  0.00D+00 EMaxC= 1.00D-01 BMatC= 5.78D-02 BMatP= 9.15D-01
 IDIUse=3 WtCom= 9.49D-01 WtEn= 5.10D-02
 Coeff-Com: -0.155D-02 0.100D+01
 Coeff-En:   0.521D-01 0.948D+00
 Coeff:      0.119D-02 0.999D+00
 Gap=     0.330 Goal=   None    Shift=    0.000
 RMSDP=2.11D-03 MaxDP=4.63D-01 DE=-2.58D-01 OVMax= 1.34D-01

 Cycle   3  Pass 1  IDiag  1:
 RMSU=  1.70D-03    CP:  8.87D-01  8.30D-01
 E= -1216.15145499178     Delta-E=       -0.286493482112 Rises=F Damp=F
 DIIS: error= 5.44D-03 at cycle   3 NSaved=   3.
 NSaved= 3 IEnMin= 3 EnMin= -1216.15145499178     IErMin= 2 ErrMin= 5.10D-03
 ErrMax= 5.44D-03  0.00D+00 EMaxC= 1.00D-01 BMatC= 1.91D-02 BMatP= 5.78D-02
 IDIUse=3 WtCom= 9.46D-01 WtEn= 5.44D-02
 Coeff-Com: -0.627D-01 0.335D+00 0.727D+00
 Coeff-En:   0.000D+00 0.000D+00 0.100D+01
 Coeff:     -0.593D-01 0.317D+00 0.742D+00
 Gap=     0.308 Goal=   None    Shift=    0.000
 RMSDP=4.58D-04 MaxDP=2.69D-02 DE=-2.86D-01 OVMax= 4.17D-02

 Cycle   4  Pass 1  IDiag  1:
 RMSU=  4.19D-04    CP:  8.82D-01  8.98D-01  9.70D-01
 E= -1216.16094393821     Delta-E=       -0.009488946430 Rises=F Damp=F
 DIIS: error= 2.30D-03 at cycle   4 NSaved=   4.
 NSaved= 4 IEnMin= 4 EnMin= -1216.16094393821     IErMin= 4 ErrMin= 2.30D-03
 ErrMax= 2.30D-03  0.00D+00 EMaxC= 1.00D-01 BMatC= 5.69D-03 BMatP= 1.91D-02
 IDIUse=3 WtCom= 9.77D-01 WtEn= 2.30D-02
 Coeff-Com: -0.316D-01 0.849D-01 0.403D+00 0.544D+00
 Coeff-En:   0.000D+00 0.000D+00 0.215D+00 0.785D+00
 Coeff:     -0.308D-01 0.829D-01 0.399D+00 0.549D+00
 Gap=     0.308 Goal=   None    Shift=    0.000
 RMSDP=1.84D-04 MaxDP=1.38D-02 DE=-9.49D-03 OVMax= 1.57D-02

 Cycle   5  Pass 1  IDiag  1:
 RMSU=  1.19D-04    CP:  8.80D-01  8.87D-01  9.89D-01  6.82D-01
 E= -1216.16490950117     Delta-E=       -0.003965562968 Rises=F Damp=F
 DIIS: error= 3.21D-04 at cycle   5 NSaved=   5.
 NSaved= 5 IEnMin= 5 EnMin= -1216.16490950117     IErMin= 5 ErrMin= 3.21D-04
 ErrMax= 3.21D-04  0.00D+00 EMaxC= 1.00D-01 BMatC= 1.52D-04 BMatP= 5.69D-03
 IDIUse=3 WtCom= 9.97D-01 WtEn= 3.21D-03
 Coeff-Com: -0.885D-02 0.166D-01 0.122D+00 0.227D+00 0.643D+00
 Coeff-En:   0.000D+00 0.000D+00 0.000D+00 0.000D+00 0.100D+01
 Coeff:     -0.882D-02 0.165D-01 0.122D+00 0.227D+00 0.644D+00
 Gap=     0.300 Goal=   None    Shift=    0.000
 RMSDP=3.67D-05 MaxDP=2.70D-03 DE=-3.97D-03 OVMax= 2.04D-03

 Cycle   6  Pass 1  IDiag  1:
 RMSU=  2.91D-05    CP:  8.80D-01  8.85D-01  9.91D-01  7.11D-01  8.52D-01
 E= -1216.16501549620     Delta-E=       -0.000105995028 Rises=F Damp=F
 DIIS: error= 8.30D-05 at cycle   6 NSaved=   6.
 NSaved= 6 IEnMin= 6 EnMin= -1216.16501549620     IErMin= 6 ErrMin= 8.30D-05
 ErrMax= 8.30D-05  0.00D+00 EMaxC= 1.00D-01 BMatC= 1.15D-05 BMatP= 1.52D-04
 IDIUse=1 WtCom= 1.00D+00 WtEn= 0.00D+00
 Coeff-Com: -0.154D-02 0.140D-02 0.226D-01 0.559D-01 0.271D+00 0.650D+00
 Coeff:     -0.154D-02 0.140D-02 0.226D-01 0.559D-01 0.271D+00 0.650D+00
 Gap=     0.300 Goal=   None    Shift=    0.000
 RMSDP=1.32D-05 MaxDP=1.56D-03 DE=-1.06D-04 OVMax= 7.39D-04

 Cycle   7  Pass 1  IDiag  1:
 RMSU=  1.17D-05    CP:  8.80D-01  8.84D-01  9.92D-01  7.18D-01  8.81D-01
                    CP:  9.63D-01
 E= -1216.16502504095     Delta-E=       -0.000009544745 Rises=F Damp=F
 DIIS: error= 3.55D-05 at cycle   7 NSaved=   7.
 NSaved= 7 IEnMin= 7 EnMin= -1216.16502504095     IErMin= 7 ErrMin= 3.55D-05
 ErrMax= 3.55D-05  0.00D+00 EMaxC= 1.00D-01 BMatC= 1.36D-06 BMatP= 1.15D-05
 IDIUse=1 WtCom= 1.00D+00 WtEn= 0.00D+00
 Coeff-Com:  0.428D-03-0.142D-02-0.534D-02-0.382D-02 0.404D-01 0.267D+00
 Coeff-Com:  0.702D+00
 Coeff:      0.428D-03-0.142D-02-0.534D-02-0.382D-02 0.404D-01 0.267D+00
 Coeff:      0.702D+00
 Gap=     0.300 Goal=   None    Shift=    0.000
 RMSDP=4.45D-06 MaxDP=2.15D-04 DE=-9.54D-06 OVMax= 4.48D-04

 Cycle   8  Pass 1  IDiag  1:
 RMSU=  3.52D-06    CP:  8.80D-01  8.83D-01  9.92D-01  7.19D-01  8.95D-01
                    CP:  1.02D+00  9.24D-01
 E= -1216.16502614501     Delta-E=       -0.000001104061 Rises=F Damp=F
 DIIS: error= 2.09D-05 at cycle   8 NSaved=   8.
 NSaved= 8 IEnMin= 8 EnMin= -1216.16502614501     IErMin= 8 ErrMin= 2.09D-05
 ErrMax= 2.09D-05  0.00D+00 EMaxC= 1.00D-01 BMatC= 3.30D-07 BMatP= 1.36D-06
 IDIUse=1 WtCom= 1.00D+00 WtEn= 0.00D+00
 Coeff-Com:  0.463D-03-0.961D-03-0.635D-02-0.108D-01-0.208D-01 0.347D-01
 Coeff-Com:  0.369D+00 0.635D+00
 Coeff:      0.463D-03-0.961D-03-0.635D-02-0.108D-01-0.208D-01 0.347D-01
 Coeff:      0.369D+00 0.635D+00
 Gap=     0.300 Goal=   None    Shift=    0.000
 RMSDP=1.69D-06 MaxDP=1.46D-04 DE=-1.10D-06 OVMax= 1.67D-04

 Cycle   9  Pass 1  IDiag  1:
 RMSU=  1.40D-06    CP:  8.80D-01  8.83D-01  9.92D-01  7.20D-01  9.00D-01
                    CP:  1.03D+00  9.47D-01  9.64D-01
 E= -1216.16502642560     Delta-E=       -0.000000280594 Rises=F Damp=F
 DIIS: error= 4.95D-06 at cycle   9 NSaved=   9.
 NSaved= 9 IEnMin= 9 EnMin= -1216.16502642560     IErMin= 9 ErrMin= 4.95D-06
 ErrMax= 4.95D-06  0.00D+00 EMaxC= 1.00D-01 BMatC= 2.79D-08 BMatP= 3.30D-07
 IDIUse=1 WtCom= 1.00D+00 WtEn= 0.00D+00
 Coeff-Com:  0.149D-03-0.262D-03-0.219D-02-0.424D-02-0.126D-01-0.949D-02
 Coeff-Com:  0.940D-01 0.282D+00 0.653D+00
 Coeff:      0.149D-03-0.262D-03-0.219D-02-0.424D-02-0.126D-01-0.949D-02
 Coeff:      0.940D-01 0.282D+00 0.653D+00
 Gap=     0.300 Goal=   None    Shift=    0.000
 RMSDP=5.54D-07 MaxDP=5.10D-05 DE=-2.81D-07 OVMax= 4.09D-05

 Cycle  10  Pass 1  IDiag  1:
 RMSU=  4.22D-07    CP:  8.80D-01  8.83D-01  9.92D-01  7.20D-01  9.00D-01
                    CP:  1.03D+00  9.71D-01  1.01D+00  9.07D-01
 E= -1216.16502645176     Delta-E=       -0.000000026161 Rises=F Damp=F
 DIIS: error= 2.49D-06 at cycle  10 NSaved=  10.
 NSaved=10 IEnMin=10 EnMin= -1216.16502645176     IErMin=10 ErrMin= 2.49D-06
 ErrMax= 2.49D-06  0.00D+00 EMaxC= 1.00D-01 BMatC= 3.17D-09 BMatP= 2.79D-08
 IDIUse=1 WtCom= 1.00D+00 WtEn= 0.00D+00
 Coeff-Com: -0.505D-05 0.222D-04 0.134D-04-0.179D-03-0.221D-02-0.849D-02
 Coeff-Com: -0.149D-01 0.168D-01 0.255D+00 0.754D+00
 Coeff:     -0.505D-05 0.222D-04 0.134D-04-0.179D-03-0.221D-02-0.849D-02
 Coeff:     -0.149D-01 0.168D-01 0.255D+00 0.754D+00
 Gap=     0.300 Goal=   None    Shift=    0.000
 RMSDP=2.37D-07 MaxDP=1.37D-05 DE=-2.62D-08 OVMax= 3.50D-05

 Cycle  11  Pass 1  IDiag  1:
 RMSU=  1.58D-07    CP:  8.80D-01  8.83D-01  9.92D-01  7.20D-01  9.00D-01
                    CP:  1.03D+00  9.69D-01  1.03D+00  1.01D+00  1.04D+00
 E= -1216.16502645505     Delta-E=       -0.000000003289 Rises=F Damp=F
 DIIS: error= 9.08D-07 at cycle  11 NSaved=  11.
 NSaved=11 IEnMin=11 EnMin= -1216.16502645505     IErMin=11 ErrMin= 9.08D-07
 ErrMax= 9.08D-07  0.00D+00 EMaxC= 1.00D-01 BMatC= 5.77D-10 BMatP= 3.17D-09
 IDIUse=1 WtCom= 1.00D+00 WtEn= 0.00D+00
 Coeff-Com: -0.220D-04 0.458D-04 0.302D-03 0.480D-03 0.611D-03-0.259D-02
 Coeff-Com: -0.200D-01-0.330D-01 0.263D-01 0.353D+00 0.675D+00
 Coeff:     -0.220D-04 0.458D-04 0.302D-03 0.480D-03 0.611D-03-0.259D-02
 Coeff:     -0.200D-01-0.330D-01 0.263D-01 0.353D+00 0.675D+00
 Gap=     0.300 Goal=   None    Shift=    0.000
 RMSDP=9.63D-08 MaxDP=8.67D-06 DE=-3.29D-09 OVMax= 7.59D-06

 Cycle  12  Pass 1  IDiag  1:
 RMSU=  6.11D-08    CP:  8.80D-01  8.83D-01  9.92D-01  7.20D-01  9.00D-01
                    CP:  1.03D+00  9.67D-01  1.04D+00  1.04D+00  1.11D+00
                    CP:  8.90D-01
 E= -1216.16502645568     Delta-E=       -0.000000000633 Rises=F Damp=F
 DIIS: error= 2.57D-07 at cycle  12 NSaved=  12.
 NSaved=12 IEnMin=12 EnMin= -1216.16502645568     IErMin=12 ErrMin= 2.57D-07
 ErrMax= 2.57D-07  0.00D+00 EMaxC= 1.00D-01 BMatC= 3.83D-11 BMatP= 5.77D-10
 IDIUse=1 WtCom= 1.00D+00 WtEn= 0.00D+00
 Coeff-Com: -0.594D-05 0.116D-04 0.947D-04 0.166D-03 0.398D-03 0.265D-04
 Coeff-Com: -0.468D-02-0.123D-01-0.173D-01 0.387D-01 0.228D+00 0.767D+00
 Coeff:     -0.594D-05 0.116D-04 0.947D-04 0.166D-03 0.398D-03 0.265D-04
 Coeff:     -0.468D-02-0.123D-01-0.173D-01 0.387D-01 0.228D+00 0.767D+00
 Gap=     0.300 Goal=   None    Shift=    0.000
 RMSDP=2.62D-08 MaxDP=2.04D-06 DE=-6.33D-10 OVMax= 3.78D-06

 Cycle  13  Pass 1  IDiag  1:
 RMSU=  1.93D-08    CP:  8.80D-01  8.83D-01  9.92D-01  7.20D-01  9.00D-01
                    CP:  1.03D+00  9.67D-01  1.04D+00  1.05D+00  1.13D+00
                    CP:  9.69D-01  9.82D-01
 E= -1216.16502645572     Delta-E=       -0.000000000040 Rises=F Damp=F
 DIIS: error= 1.02D-07 at cycle  13 NSaved=  13.
 NSaved=13 IEnMin=13 EnMin= -1216.16502645572     IErMin=13 ErrMin= 1.02D-07
 ErrMax= 1.02D-07  0.00D+00 EMaxC= 1.00D-01 BMatC= 1.05D-11 BMatP= 3.83D-11
 IDIUse=1 WtCom= 1.00D+00 WtEn= 0.00D+00
 Coeff-Com: -0.253D-06 0.194D-06 0.130D-04 0.271D-04 0.130D-03 0.297D-03
 Coeff-Com:  0.252D-04-0.237D-02-0.116D-01-0.228D-01 0.308D-01 0.389D+00
 Coeff-Com:  0.617D+00
 Coeff:     -0.253D-06 0.194D-06 0.130D-04 0.271D-04 0.130D-03 0.297D-03
 Coeff:      0.252D-04-0.237D-02-0.116D-01-0.228D-01 0.308D-01 0.389D+00
 Coeff:      0.617D+00
 Gap=     0.300 Goal=   None    Shift=    0.000
 RMSDP=1.03D-08 MaxDP=8.05D-07 DE=-4.00D-11 OVMax= 1.20D-06

 Cycle  14  Pass 1  IDiag  1:
 RMSU=  8.43D-09    CP:  8.80D-01  8.83D-01  9.92D-01  7.20D-01  9.00D-01
                    CP:  1.03D+00  9.67D-01  1.04D+00  1.05D+00  1.13D+00
                    CP:  9.80D-01  1.05D+00  9.46D-01
 E= -1216.16502645573     Delta-E=       -0.000000000006 Rises=F Damp=F
 DIIS: error= 3.39D-08 at cycle  14 NSaved=  14.
 NSaved=14 IEnMin=14 EnMin= -1216.16502645573     IErMin=14 ErrMin= 3.39D-08
 ErrMax= 3.39D-08  0.00D+00 EMaxC= 1.00D-01 BMatC= 1.38D-12 BMatP= 1.05D-11
 IDIUse=1 WtCom= 1.00D+00 WtEn= 0.00D+00
 Coeff-Com:  0.965D-06-0.200D-05-0.971D-05-0.152D-04-0.187D-05 0.144D-03
 Coeff-Com:  0.869D-03 0.946D-03-0.312D-02-0.196D-01-0.272D-01 0.673D-01
 Coeff-Com:  0.300D+00 0.680D+00
 Coeff:      0.965D-06-0.200D-05-0.971D-05-0.152D-04-0.187D-05 0.144D-03
 Coeff:      0.869D-03 0.946D-03-0.312D-02-0.196D-01-0.272D-01 0.673D-01
 Coeff:      0.300D+00 0.680D+00
 Gap=     0.300 Goal=   None    Shift=    0.000
 RMSDP=5.37D-09 MaxDP=1.12D-06 DE=-6.37D-12 OVMax= 3.60D-07

 Cycle  15  Pass 1  IDiag  1:
 RMSU=  3.57D-09    CP:  8.80D-01  8.83D-01  9.92D-01  7.20D-01  9.00D-01
                    CP:  1.03D+00  9.67D-01  1.04D+00  1.05D+00  1.13D+00
                    CP:  9.85D-01  1.08D+00  1.06D+00  1.01D+00
 E= -1216.16502645574     Delta-E=       -0.000000000005 Rises=F Damp=F
 DIIS: error= 8.19D-09 at cycle  15 NSaved=  15.
 NSaved=15 IEnMin=15 EnMin= -1216.16502645574     IErMin=15 ErrMin= 8.19D-09
 ErrMax= 8.19D-09  0.00D+00 EMaxC= 1.00D-01 BMatC= 8.45D-14 BMatP= 1.38D-12
 IDIUse=1 WtCom= 1.00D+00 WtEn= 0.00D+00
 Coeff-Com:  0.346D-06-0.697D-06-0.452D-05-0.766D-05-0.132D-04 0.187D-04
 Coeff-Com:  0.306D-03 0.566D-03 0.221D-03-0.391D-02-0.123D-01-0.164D-01
 Coeff-Com:  0.329D-01 0.229D+00 0.769D+00
 Coeff:      0.346D-06-0.697D-06-0.452D-05-0.766D-05-0.132D-04 0.187D-04
 Coeff:      0.306D-03 0.566D-03 0.221D-03-0.391D-02-0.123D-01-0.164D-01
 Coeff:      0.329D-01 0.229D+00 0.769D+00
 Gap=     0.300 Goal=   None    Shift=    0.000
 RMSDP=1.29D-09 MaxDP=1.23D-07 DE=-5.46D-12 OVMax= 1.45D-07

 SCF Done:  E(RM062X) =  -1216.16502646     A.U. after   15 cycles
            NFock= 15  Conv=0.13D-08     -V/T= 2.0036
 KE= 1.211771940490D+03 PE=-5.953638684201D+03 EE= 1.980097334280D+03
 Leave Link  502 at Mon Feb 20 01:39:27 2023, MaxMem=  6710886400 cpu:            3099.8 elap:             129.6
 (Enter /data0/home/software/g16/l601.exe)
 Copying SCF densities to generalized density rwf, IOpCl= 0 IROHF=0.

 **********************************************************************

            Population analysis using the SCF density.

 **********************************************************************

 Alpha  occ. eigenvalues --  -78.12287 -19.63834 -19.61086 -19.60737 -19.58242
 Alpha  occ. eigenvalues --  -19.57479 -19.55750 -14.87742 -14.87546 -10.67589
 Alpha  occ. eigenvalues --  -10.63828 -10.63695 -10.63633 -10.62121 -10.60585
 Alpha  occ. eigenvalues --  -10.56598 -10.54591  -6.93009  -5.04950  -5.04867
 Alpha  occ. eigenvalues --   -5.04732  -1.20495  -1.18833  -1.17439  -1.11352
 Alpha  occ. eigenvalues --   -1.09812  -1.09181  -1.07214  -1.06003  -0.93349
 Alpha  occ. eigenvalues --   -0.90593  -0.86283  -0.81752  -0.75924  -0.72981
 Alpha  occ. eigenvalues --   -0.71170  -0.67256  -0.65260  -0.61236  -0.60735
 Alpha  occ. eigenvalues --   -0.59745  -0.58943  -0.58204  -0.56963  -0.56625
 Alpha  occ. eigenvalues --   -0.55888  -0.54612  -0.54142  -0.52802  -0.50995
 Alpha  occ. eigenvalues --   -0.50829  -0.50365  -0.49252  -0.47719  -0.47454
 Alpha  occ. eigenvalues --   -0.45962  -0.45007  -0.44327  -0.43471  -0.41938
 Alpha  occ. eigenvalues --   -0.41576  -0.40830  -0.38876  -0.38582  -0.35797
 Alpha  occ. eigenvalues --   -0.34814  -0.33905  -0.33310  -0.33058  -0.32332
 Alpha virt. eigenvalues --   -0.02314  -0.01226  -0.00531   0.00267   0.01036
 Alpha virt. eigenvalues --    0.01916   0.02547   0.02879   0.02975   0.04097
 Alpha virt. eigenvalues --    0.04540   0.05083   0.05641   0.06249   0.06854
 Alpha virt. eigenvalues --    0.07241   0.07820   0.08190   0.08516   0.08642
 Alpha virt. eigenvalues --    0.09401   0.10303   0.10681   0.10918   0.11701
 Alpha virt. eigenvalues --    0.12018   0.12324   0.13211   0.13476   0.14156
 Alpha virt. eigenvalues --    0.14339   0.14728   0.15364   0.15787   0.16200
 Alpha virt. eigenvalues --    0.16405   0.16867   0.17315   0.17516   0.17988
 Alpha virt. eigenvalues --    0.18511   0.18653   0.19271   0.19436   0.20001
 Alpha virt. eigenvalues --    0.20178   0.20686   0.21004   0.21400   0.21778
 Alpha virt. eigenvalues --    0.22010   0.22680   0.23159   0.23619   0.24017
 Alpha virt. eigenvalues --    0.24268   0.24745   0.25310   0.25735   0.26458
 Alpha virt. eigenvalues --    0.26939   0.27183   0.27707   0.28066   0.28165
 Alpha virt. eigenvalues --    0.28611   0.29050   0.29578   0.29999   0.30388
 Alpha virt. eigenvalues --    0.30674   0.31228   0.31934   0.32237   0.32833
 Alpha virt. eigenvalues --    0.32968   0.33271   0.33599   0.34151   0.34372
 Alpha virt. eigenvalues --    0.34859   0.35692   0.36242   0.36583   0.37126
 Alpha virt. eigenvalues --    0.37978   0.38355   0.39003   0.39723   0.40338
 Alpha virt. eigenvalues --    0.40757   0.41186   0.41812   0.43050   0.43471
 Alpha virt. eigenvalues --    0.44049   0.44491   0.45175   0.45292   0.46352
 Alpha virt. eigenvalues --    0.46801   0.48084   0.49164   0.49617   0.50539
 Alpha virt. eigenvalues --    0.50597   0.51878   0.52561   0.53940   0.55017
 Alpha virt. eigenvalues --    0.55377   0.56101   0.56518   0.57338   0.57960
 Alpha virt. eigenvalues --    0.58975   0.58993   0.59988   0.60697   0.61595
 Alpha virt. eigenvalues --    0.62004   0.62612   0.62791   0.64330   0.65043
 Alpha virt. eigenvalues --    0.65610   0.66643   0.66806   0.67206   0.67883
 Alpha virt. eigenvalues --    0.68267   0.68712   0.69483   0.69962   0.70412
 Alpha virt. eigenvalues --    0.70800   0.72193   0.73288   0.74013   0.74206
 Alpha virt. eigenvalues --    0.74989   0.75862   0.77061   0.77396   0.78570
 Alpha virt. eigenvalues --    0.79343   0.80109   0.80820   0.81724   0.83065
 Alpha virt. eigenvalues --    0.84379   0.85126   0.85279   0.85839   0.86886
 Alpha virt. eigenvalues --    0.88316   0.89437   0.90242   0.91494   0.92050
 Alpha virt. eigenvalues --    0.92772   0.94785   0.95619   0.96800   0.99561
 Alpha virt. eigenvalues --    1.00537   1.01214   1.01713   1.03716   1.04623
 Alpha virt. eigenvalues --    1.06987   1.07730   1.09376   1.10081   1.10920
 Alpha virt. eigenvalues --    1.11368   1.12145   1.13231   1.13943   1.14627
 Alpha virt. eigenvalues --    1.15430   1.16206   1.16456   1.17877   1.18433
 Alpha virt. eigenvalues --    1.19160   1.20580   1.21643   1.21789   1.22105
 Alpha virt. eigenvalues --    1.23855   1.24388   1.24925   1.25271   1.25931
 Alpha virt. eigenvalues --    1.26258   1.26882   1.28258   1.28815   1.29409
 Alpha virt. eigenvalues --    1.29649   1.30853   1.31346   1.32252   1.32787
 Alpha virt. eigenvalues --    1.33357   1.34564   1.35438   1.36105   1.37547
 Alpha virt. eigenvalues --    1.38028   1.39240   1.39998   1.40689   1.41555
 Alpha virt. eigenvalues --    1.42042   1.43211   1.43379   1.44230   1.45286
 Alpha virt. eigenvalues --    1.46084   1.46602   1.47313   1.47893   1.48925
 Alpha virt. eigenvalues --    1.50049   1.50864   1.52246   1.53297   1.54743
 Alpha virt. eigenvalues --    1.56430   1.58870   1.59091   1.60918   1.61332
 Alpha virt. eigenvalues --    1.62292   1.63905   1.64484   1.67894   1.68922
 Alpha virt. eigenvalues --    1.69723   1.70475   1.72231   1.74089   1.75400
 Alpha virt. eigenvalues --    1.76424   1.76852   1.77166   1.77430   1.78631
 Alpha virt. eigenvalues --    1.80123   1.80682   1.81589   1.82477   1.83941
 Alpha virt. eigenvalues --    1.84973   1.85868   1.87438   1.89714   1.90113
 Alpha virt. eigenvalues --    1.91208   1.92234   1.92809   1.93923   1.94397
 Alpha virt. eigenvalues --    1.95374   1.97481   1.99774   1.99943   2.00461
 Alpha virt. eigenvalues --    2.01747   2.05105   2.05430   2.05948   2.06877
 Alpha virt. eigenvalues --    2.08765   2.10763   2.12287   2.13273   2.16027
 Alpha virt. eigenvalues --    2.16702   2.17998   2.18497   2.21485   2.23132
 Alpha virt. eigenvalues --    2.24318   2.25114   2.25443   2.27902   2.29125
 Alpha virt. eigenvalues --    2.29990   2.30899   2.31254   2.32170   2.33748
 Alpha virt. eigenvalues --    2.33838   2.34481   2.36273   2.36872   2.38019
 Alpha virt. eigenvalues --    2.41028   2.41967   2.42617   2.45767   2.45966
 Alpha virt. eigenvalues --    2.46797   2.50324   2.51945   2.53401   2.58880
 Alpha virt. eigenvalues --    2.60262   2.61230   2.64236   2.67343   2.68690
 Alpha virt. eigenvalues --    2.69275   2.71393   2.73433   2.76098   2.77993
 Alpha virt. eigenvalues --    2.79161   2.79903   2.80824   2.83739   2.85510
 Alpha virt. eigenvalues --    2.86245   2.87015   2.88234   2.89380   2.89776
 Alpha virt. eigenvalues --    2.92173   2.92631   2.93962   2.96094   2.98395
 Alpha virt. eigenvalues --    3.00227   3.02204   3.04663   3.05405   3.09422
 Alpha virt. eigenvalues --    3.10011   3.10900   3.12846   3.14537   3.18278
 Alpha virt. eigenvalues --    3.20976   3.24326   3.27009   3.27321   3.28622
 Alpha virt. eigenvalues --    3.30844   3.32216   3.34443   3.35645   3.36574
 Alpha virt. eigenvalues --    3.39321   3.39950   3.43303   3.43900   3.45512
 Alpha virt. eigenvalues --    3.46361   3.47678   3.48711   3.49168   3.52265
 Alpha virt. eigenvalues --    3.54102   3.55475   3.57678   3.57839   3.59303
 Alpha virt. eigenvalues --    3.60704   3.61473   3.63409   3.63949   3.65678
 Alpha virt. eigenvalues --    3.66005   3.67642   3.69153   3.70770   3.72779
 Alpha virt. eigenvalues --    3.75773   3.76402   3.77649   3.79946   3.85366
 Alpha virt. eigenvalues --    3.87065   3.89081   3.90648   3.94939   3.96397
 Alpha virt. eigenvalues --    3.99549   4.02110   4.03700   4.06829   4.11593
 Alpha virt. eigenvalues --    4.16231   4.20169   4.21737   4.25695   4.27817
 Alpha virt. eigenvalues --    4.36017   4.42086   4.51481   4.54012   4.96066
 Alpha virt. eigenvalues --    5.00543   5.02603   5.04721   5.06306   5.11697
 Alpha virt. eigenvalues --    5.11873   5.12748   5.14316   5.16173   5.18515
 Alpha virt. eigenvalues --    5.19194   5.22509   5.24190   5.30193   5.32596
 Alpha virt. eigenvalues --    5.32999   5.34785   5.36506   5.42557   5.44290
 Alpha virt. eigenvalues --    5.46384   5.47519   5.53445   5.56158   5.57274
 Alpha virt. eigenvalues --    5.61616   5.63970   5.67929   5.81051   5.98904
 Alpha virt. eigenvalues --    6.24383   6.78278   6.79416   6.82143   6.82998
 Alpha virt. eigenvalues --    6.83638   6.85837   6.86456   6.89060   6.91286
 Alpha virt. eigenvalues --    6.92828   6.97314   6.97343   7.01326   7.02648
 Alpha virt. eigenvalues --    7.05546   7.06290   7.07592   7.07944   7.09135
 Alpha virt. eigenvalues --    7.13890   7.23234   7.24112   7.30252   7.32007
 Alpha virt. eigenvalues --    7.32856   7.34620   7.39746   7.40484   7.44591
 Alpha virt. eigenvalues --    7.47133   7.73330  14.29869  14.33203  14.43108
 Alpha virt. eigenvalues --   23.90683  23.96077  24.01956  24.03937  24.08489
 Alpha virt. eigenvalues --   24.11340  24.14976  24.27892  35.60958  35.67393
 Alpha virt. eigenvalues --   50.06208  50.10972  50.12106  50.15694  50.19774
 Alpha virt. eigenvalues --   50.20802 163.98117
          Condensed to atoms (all electrons):
               1          2          3          4          5          6
     1  C    5.898773   0.080842  -0.899349   0.510501   0.396650  -0.028874
     2  C    0.080842   5.774313  -0.214227  -0.030446  -0.013428   0.408859
     3  C   -0.899349  -0.214227   9.295322  -0.499355   0.012180   0.000858
     4  N    0.510501  -0.030446  -0.499355   6.367955  -0.041798   0.010918
     5  H    0.396650  -0.013428   0.012180  -0.041798   0.474421  -0.001063
     6  H   -0.028874   0.408859   0.000858   0.010918  -0.001063   0.469854
     7  H    0.020376   0.003220   0.256825   0.010943  -0.000020   0.000006
     8  C   -0.074526   0.038240  -0.386205   0.297229  -0.000599  -0.000033
     9  H    0.004172  -0.000872  -0.036393  -0.028748   0.000055   0.000009
    10  H   -0.004605  -0.000900  -0.014194  -0.014415   0.000177   0.000009
    11  H   -0.024442   0.024279   0.054485  -0.077215   0.001892  -0.000024
    12  N    0.108696   0.217699  -0.279109   0.045888   0.008399  -0.034690
    13  C   -0.027082  -0.190792  -0.109130  -0.052153   0.002285   0.005681
    14  H    0.006346  -0.014851   0.004881  -0.001907  -0.000014   0.000261
    15  H    0.000383  -0.002249  -0.001939   0.005358   0.000007   0.000011
    16  C    0.053608   0.114562  -0.180441  -0.005066  -0.001077   0.007795
    17  H    0.001201  -0.005242   0.003653  -0.000719  -0.000001  -0.000127
    18  H   -0.001910  -0.004100   0.009395   0.000189   0.000011  -0.000714
    19  C    0.015286  -0.088106  -0.044914  -0.020466   0.000031  -0.004906
    20  H    0.005460   0.001838  -0.022658  -0.003225  -0.000110  -0.001060
    21  H    0.001407  -0.001349   0.010557  -0.000268   0.000002   0.000032
    22  C   -0.008651   0.049187  -0.225897   0.090250   0.000151  -0.000604
    23  O    0.010766   0.004684  -0.079594   0.006862  -0.000022  -0.000091
    24  O    0.005558   0.010213  -0.055052   0.012296   0.000065   0.000153
    25  P    0.008516  -0.013012  -0.043173   0.002209   0.000085   0.000009
    26  O   -0.000271   0.002832   0.096171  -0.040196  -0.000012   0.000002
    27  O   -0.000753   0.001675   0.007782  -0.008071   0.000005  -0.000002
    28  H   -0.003247   0.001814   0.005724   0.002043  -0.000003   0.000001
    29  O    0.000812  -0.000524   0.005930  -0.000397   0.000000   0.000000
    30  H   -0.000003   0.000039  -0.003367   0.000162  -0.000000  -0.000000
    31  O   -0.001100   0.000353  -0.016320   0.000829  -0.000002   0.000000
    32  H   -0.001133   0.001221  -0.002096  -0.000243   0.000001  -0.000001
               7          8          9         10         11         12
     1  C    0.020376  -0.074526   0.004172  -0.004605  -0.024442   0.108696
     2  C    0.003220   0.038240  -0.000872  -0.000900   0.024279   0.217699
     3  C    0.256825  -0.386205  -0.036393  -0.014194   0.054485  -0.279109
     4  N    0.010943   0.297229  -0.028748  -0.014415  -0.077215   0.045888
     5  H   -0.000020  -0.000599   0.000055   0.000177   0.001892   0.008399
     6  H    0.000006  -0.000033   0.000009   0.000009  -0.000024  -0.034690
     7  H    0.375065   0.011336   0.001713   0.000266  -0.000433  -0.023029
     8  C    0.011336   5.410841   0.430218   0.409843   0.378881  -0.020163
     9  H    0.001713   0.430218   0.426837  -0.021985  -0.012664   0.001597
    10  H    0.000266   0.409843  -0.021985   0.427868  -0.022346   0.001693
    11  H   -0.000433   0.378881  -0.012664  -0.022346   0.512689  -0.004395
    12  N   -0.023029  -0.020163   0.001597   0.001693  -0.004395   6.556573
    13  C    0.001929  -0.005074   0.000710  -0.001705   0.000892   0.107037
    14  H    0.000146  -0.000343  -0.000006   0.000002  -0.000003  -0.050233
    15  H    0.002095   0.001209  -0.000009   0.000014  -0.000002  -0.061124
    16  C    0.004459  -0.016005  -0.000129   0.001290   0.000029   0.055444
    17  H   -0.000012   0.000014  -0.000000  -0.000000  -0.000000   0.005827
    18  H   -0.000025   0.000060  -0.000000  -0.000000   0.000000   0.000370
    19  C   -0.004064  -0.000077   0.000132  -0.001119  -0.000268   0.040733
    20  H    0.000021   0.000119   0.000002  -0.000036  -0.000017   0.027666
    21  H   -0.000034  -0.000013   0.000000   0.000002  -0.000000  -0.004301
    22  C    0.013287   0.003517   0.001672  -0.001049  -0.000806  -0.018179
    23  O    0.017396   0.006901   0.000185   0.000099  -0.000036  -0.025251
    24  O   -0.005841   0.001719  -0.000349   0.002185   0.000117   0.010358
    25  P    0.005447   0.024154   0.000445  -0.000436   0.000660  -0.005021
    26  O    0.018466  -0.063207   0.000928  -0.004561   0.001781   0.010150
    27  O   -0.002394  -0.005050  -0.001075   0.006731   0.000360   0.001876
    28  H    0.000566  -0.001927   0.000258  -0.000150  -0.000076  -0.003013
    29  O    0.000392  -0.003836  -0.000095   0.000034  -0.000017   0.000246
    30  H   -0.000031   0.001651   0.000013   0.000035  -0.000000   0.000010
    31  O    0.001544   0.004105   0.000344   0.000220   0.000003  -0.001543
    32  H   -0.002329  -0.000725  -0.000015  -0.000098   0.000001   0.002942
              13         14         15         16         17         18
     1  C   -0.027082   0.006346   0.000383   0.053608   0.001201  -0.001910
     2  C   -0.190792  -0.014851  -0.002249   0.114562  -0.005242  -0.004100
     3  C   -0.109130   0.004881  -0.001939  -0.180441   0.003653   0.009395
     4  N   -0.052153  -0.001907   0.005358  -0.005066  -0.000719   0.000189
     5  H    0.002285  -0.000014   0.000007  -0.001077  -0.000001   0.000011
     6  H    0.005681   0.000261   0.000011   0.007795  -0.000127  -0.000714
     7  H    0.001929   0.000146   0.002095   0.004459  -0.000012  -0.000025
     8  C   -0.005074  -0.000343   0.001209  -0.016005   0.000014   0.000060
     9  H    0.000710  -0.000006  -0.000009  -0.000129  -0.000000  -0.000000
    10  H   -0.001705   0.000002   0.000014   0.001290  -0.000000  -0.000000
    11  H    0.000892  -0.000003  -0.000002   0.000029  -0.000000   0.000000
    12  N    0.107037  -0.050233  -0.061124   0.055444   0.005827   0.000370
    13  C    6.218505   0.433315   0.470238  -0.543423  -0.047121  -0.033288
    14  H    0.433315   0.500023  -0.020387  -0.041918   0.000925  -0.009864
    15  H    0.470238  -0.020387   0.436817  -0.047761  -0.008459   0.004091
    16  C   -0.543423  -0.041918  -0.047761   6.549322   0.434726   0.450645
    17  H   -0.047121   0.000925  -0.008459   0.434726   0.486310  -0.029754
    18  H   -0.033288  -0.009864   0.004091   0.450645  -0.029754   0.516345
    19  C    0.311494  -0.004812   0.013586  -0.402745  -0.054011  -0.062844
    20  H    0.001070  -0.000030  -0.000575  -0.077283   0.005460  -0.008105
    21  H    0.005578  -0.000013  -0.000095  -0.011643  -0.007994  -0.002753
    22  C   -0.176835   0.007991  -0.014013   0.034569   0.023056  -0.000073
    23  O   -0.025586   0.002480  -0.004447   0.029234  -0.004224   0.000326
    24  O    0.008198  -0.000188   0.000591   0.016161  -0.000476  -0.000948
    25  P    0.009453  -0.000021   0.000169  -0.005790   0.000158   0.000112
    26  O    0.009948  -0.000006  -0.000323   0.004400  -0.000009  -0.000002
    27  O   -0.000561  -0.000000  -0.000004  -0.004829   0.000016   0.000000
    28  H   -0.002670   0.000004   0.000006   0.003547  -0.000016  -0.000003
    29  O    0.000776  -0.000000   0.000003   0.000391  -0.000000  -0.000000
    30  H   -0.000066   0.000000   0.000000  -0.000078   0.000000   0.000000
    31  O    0.008452   0.000013  -0.000907  -0.012033   0.000097  -0.000012
    32  H   -0.005561  -0.000017   0.000502   0.003159  -0.000093   0.000030
              19         20         21         22         23         24
     1  C    0.015286   0.005460   0.001407  -0.008651   0.010766   0.005558
     2  C   -0.088106   0.001838  -0.001349   0.049187   0.004684   0.010213
     3  C   -0.044914  -0.022658   0.010557  -0.225897  -0.079594  -0.055052
     4  N   -0.020466  -0.003225  -0.000268   0.090250   0.006862   0.012296
     5  H    0.000031  -0.000110   0.000002   0.000151  -0.000022   0.000065
     6  H   -0.004906  -0.001060   0.000032  -0.000604  -0.000091   0.000153
     7  H   -0.004064   0.000021  -0.000034   0.013287   0.017396  -0.005841
     8  C   -0.000077   0.000119  -0.000013   0.003517   0.006901   0.001719
     9  H    0.000132   0.000002   0.000000   0.001672   0.000185  -0.000349
    10  H   -0.001119  -0.000036   0.000002  -0.001049   0.000099   0.002185
    11  H   -0.000268  -0.000017  -0.000000  -0.000806  -0.000036   0.000117
    12  N    0.040733   0.027666  -0.004301  -0.018179  -0.025251   0.010358
    13  C    0.311494   0.001070   0.005578  -0.176835  -0.025586   0.008198
    14  H   -0.004812  -0.000030  -0.000013   0.007991   0.002480  -0.000188
    15  H    0.013586  -0.000575  -0.000095  -0.014013  -0.004447   0.000591
    16  C   -0.402745  -0.077283  -0.011643   0.034569   0.029234   0.016161
    17  H   -0.054011   0.005460  -0.007994   0.023056  -0.004224  -0.000476
    18  H   -0.062844  -0.008105  -0.002753  -0.000073   0.000326  -0.000948
    19  C    6.052429   0.456219   0.450871  -0.088232  -0.132234  -0.093795
    20  H    0.456219   0.491998  -0.026846  -0.028823   0.005632  -0.016671
    21  H    0.450871  -0.026846   0.496609  -0.106240   0.002556   0.005745
    22  C   -0.088232  -0.028823  -0.106240   5.330267   0.354258   0.397241
    23  O   -0.132234   0.005632   0.002556   0.354258   8.413268  -0.058520
    24  O   -0.093795  -0.016671   0.005745   0.397241  -0.058520   8.236571
    25  P   -0.005089  -0.000081   0.000295  -0.042276   0.049704   0.056097
    26  O   -0.002586   0.000006  -0.000009  -0.001554  -0.009787  -0.019919
    27  O    0.008117   0.000118  -0.000047   0.008799  -0.025535  -0.029517
    28  H   -0.013525  -0.000173  -0.000042   0.015474   0.007521   0.076248
    29  O   -0.000647  -0.000000   0.000002  -0.008577   0.004855   0.006249
    30  H   -0.000213   0.000000  -0.000000  -0.000451   0.000269   0.000549
    31  O    0.013402  -0.000041   0.000025   0.001813  -0.020680  -0.018525
    32  H    0.005658   0.000139  -0.000217   0.017646   0.051958   0.006171
              25         26         27         28         29         30
     1  C    0.008516  -0.000271  -0.000753  -0.003247   0.000812  -0.000003
     2  C   -0.013012   0.002832   0.001675   0.001814  -0.000524   0.000039
     3  C   -0.043173   0.096171   0.007782   0.005724   0.005930  -0.003367
     4  N    0.002209  -0.040196  -0.008071   0.002043  -0.000397   0.000162
     5  H    0.000085  -0.000012   0.000005  -0.000003   0.000000  -0.000000
     6  H    0.000009   0.000002  -0.000002   0.000001   0.000000  -0.000000
     7  H    0.005447   0.018466  -0.002394   0.000566   0.000392  -0.000031
     8  C    0.024154  -0.063207  -0.005050  -0.001927  -0.003836   0.001651
     9  H    0.000445   0.000928  -0.001075   0.000258  -0.000095   0.000013
    10  H   -0.000436  -0.004561   0.006731  -0.000150   0.000034   0.000035
    11  H    0.000660   0.001781   0.000360  -0.000076  -0.000017  -0.000000
    12  N   -0.005021   0.010150   0.001876  -0.003013   0.000246   0.000010
    13  C    0.009453   0.009948  -0.000561  -0.002670   0.000776  -0.000066
    14  H   -0.000021  -0.000006  -0.000000   0.000004  -0.000000   0.000000
    15  H    0.000169  -0.000323  -0.000004   0.000006   0.000003   0.000000
    16  C   -0.005790   0.004400  -0.004829   0.003547   0.000391  -0.000078
    17  H    0.000158  -0.000009   0.000016  -0.000016  -0.000000   0.000000
    18  H    0.000112  -0.000002   0.000000  -0.000003  -0.000000   0.000000
    19  C   -0.005089  -0.002586   0.008117  -0.013525  -0.000647  -0.000213
    20  H   -0.000081   0.000006   0.000118  -0.000173  -0.000000   0.000000
    21  H    0.000295  -0.000009  -0.000047  -0.000042   0.000002  -0.000000
    22  C   -0.042276  -0.001554   0.008799   0.015474  -0.008577  -0.000451
    23  O    0.049704  -0.009787  -0.025535   0.007521   0.004855   0.000269
    24  O    0.056097  -0.019919  -0.029517   0.076248   0.006249   0.000549
    25  P   12.503865   0.441105   0.291280   0.012211   0.201608   0.010864
    26  O    0.441105   8.323902  -0.025415  -0.002310  -0.013696  -0.010239
    27  O    0.291280  -0.025415   8.209762   0.224377  -0.004749  -0.004988
    28  H    0.012211  -0.002310   0.224377   0.239542  -0.004047  -0.000045
    29  O    0.201608  -0.013696  -0.004749  -0.004047   8.071176   0.233888
    30  H    0.010864  -0.010239  -0.004988  -0.000045   0.233888   0.466313
    31  O    0.270049  -0.023146   0.018906  -0.005024  -0.020182  -0.000961
    32  H    0.007125   0.000133  -0.005221   0.000578  -0.001262  -0.000095
              31         32
     1  C   -0.001100  -0.001133
     2  C    0.000353   0.001221
     3  C   -0.016320  -0.002096
     4  N    0.000829  -0.000243
     5  H   -0.000002   0.000001
     6  H    0.000000  -0.000001
     7  H    0.001544  -0.002329
     8  C    0.004105  -0.000725
     9  H    0.000344  -0.000015
    10  H    0.000220  -0.000098
    11  H    0.000003   0.000001
    12  N   -0.001543   0.002942
    13  C    0.008452  -0.005561
    14  H    0.000013  -0.000017
    15  H   -0.000907   0.000502
    16  C   -0.012033   0.003159
    17  H    0.000097  -0.000093
    18  H   -0.000012   0.000030
    19  C    0.013402   0.005658
    20  H   -0.000041   0.000139
    21  H    0.000025  -0.000217
    22  C    0.001813   0.017646
    23  O   -0.020680   0.051958
    24  O   -0.018525   0.006171
    25  P    0.270049   0.007125
    26  O   -0.023146   0.000133
    27  O    0.018906  -0.005221
    28  H   -0.005024   0.000578
    29  O   -0.020182  -0.001262
    30  H   -0.000961  -0.000095
    31  O    8.211186   0.212571
    32  H    0.212571   0.250649
 Mulliken charges:
               1
     1  C   -0.053405
     2  C   -0.155773
     3  C   -0.650347
     4  N    0.461058
     5  H    0.161730
     6  H    0.167733
     7  H    0.292714
     8  C   -0.442253
     9  H    0.233051
    10  H    0.237133
    11  H    0.166674
    12  N    0.326850
    13  C   -0.374514
    14  H    0.188227
    15  H    0.227213
    16  C   -0.413122
    17  H    0.196814
    18  H    0.172822
    19  C   -0.343304
    20  H    0.189990
    21  H    0.188186
    22  C    0.373082
    23  O   -0.582946
    24  O   -0.552683
    25  P    1.219278
    26  O   -0.692576
    27  O   -0.661592
    28  H    0.446358
    29  O   -0.468333
    30  H    0.306746
    31  O   -0.623433
    32  H    0.458623
 Sum of Mulliken charges =  -0.00000
 Mulliken charges with hydrogens summed into heavy atoms:
               1
     1  C    0.108326
     2  C    0.011960
     3  C   -0.357633
     4  N    0.461058
     8  C    0.194606
    12  N    0.326850
    13  C    0.040926
    16  C   -0.043486
    19  C    0.034872
    22  C    0.373082
    23  O   -0.582946
    24  O   -0.552683
    25  P    1.219278
    26  O   -0.692576
    27  O   -0.215234
    29  O   -0.161588
    31  O   -0.164810
         Mulliken charges condensed to fragments:
      1      0.014930
      2     -0.014930
 Electronic spatial extent (au):  <R**2>=         173966.0816
 Charge=             -0.0000 electrons
 Dipole moment (field-independent basis, Debye):
    X=             -2.6261    Y=             -7.0735    Z=             -6.6676  Tot=             10.0691
 Quadrupole moment (field-independent basis, Debye-Ang):
   XX=           -174.4408   YY=           -242.4141   ZZ=           -236.5793
   XY=           -105.2724   XZ=            -95.3982   YZ=           -139.7701
 Traceless Quadrupole moment (field-independent basis, Debye-Ang):
   XX=             43.3706   YY=            -24.6027   ZZ=            -18.7679
   XY=           -105.2724   XZ=            -95.3982   YZ=           -139.7701
 Octapole moment (field-independent basis, Debye-Ang**2):
  XXX=          -4735.1285  YYY=          -5355.7050  ZZZ=          -5289.2402  XYY=          -2930.6749
  XXY=          -2688.3190  XXZ=          -2557.2033  XZZ=          -2762.2081  YZZ=          -3151.9206
  YYZ=          -3178.1770  XYZ=          -1781.2288
 Hexadecapole moment (field-independent basis, Debye-Ang**3):
 XXXX=         -97191.3481 YYYY=         -98963.0682 ZZZZ=         -98761.9226 XXXY=         -59336.2307
 XXXZ=         -58492.0658 YYYX=         -61232.0292 YYYZ=         -62590.9634 ZZZX=         -59463.8554
 ZZZY=         -61954.6828 XXYY=         -48614.7061 XXZZ=         -46524.1953 YYZZ=         -50888.7615
 XXYZ=         -35739.2974 YYXZ=         -37544.2944 ZZXY=         -36605.7562
 N-N= 1.545604382976D+03 E-N=-5.953638684694D+03  KE= 1.211771940490D+03
 No NMR shielding tensors so no spin-rotation constants.
 Leave Link  601 at Mon Feb 20 01:39:27 2023, MaxMem=  6710886400 cpu:               3.9 elap:               0.2
 (Enter /data0/home/software/g16/l122.exe)
 CPIOFr:  IOpCl= 0 IRwI=-1 IRwCP=  731 ICalc= -1 LCPTot=      476096 Len1MO=     1252357 IndFrg=      476096
 CPIOFr:  IOpCl= 0 IRwI=-1 IRwCP=  731 ICalc=  0 LCPTot=      476096 Len1MO=     1252357 IndFrg=     1728453
 Counterpoise: doing calculation for fragment   1 using the basis set of the full-system, NewBq=T
 Leave Link  122 at Mon Feb 20 01:39:27 2023, MaxMem=  6710886400 cpu:               0.5 elap:               0.0
 (Enter /data0/home/software/g16/l301.exe)
 Basis read from rwf:  (5D, 7F)
 No pseudopotential information found on rwf file.
   557 basis functions,   848 primitive gaussians,   591 cartesian basis functions
    45 alpha electrons       45 beta electrons
       nuclear repulsion energy       745.3039137808 Hartrees.
 IExCor= 4336 DFT=T Ex+Corr=M062X ExCW=0 ScaHFX=  0.540000
 ScaDFX=  1.000000  1.000000  1.000000  1.000000 ScalE2=  1.000000  1.000000
 IRadAn=      5 IRanWt=     -1 IRanGd=            0 ICorTp=0 IEmpDi=131
 NAtoms=   32 NActive=   32 NUniq=   32 SFac= 1.00D+00 NAtFMM=   60 NAOKFM=F Big=F
 Integral buffers will be    131072 words long.
 Raffenetti 2 integral format.
 Two-electron integral symmetry is turned off.
 R6Disp:  Grimme-D3 Dispersion energy=       -0.0009937145 Hartrees.
 Nuclear repulsion after empirical dispersion term =      745.3029200663 Hartrees.
 No density basis found on file   718.
 Leave Link  301 at Mon Feb 20 01:39:27 2023, MaxMem=  6710886400 cpu:               1.3 elap:               0.1
 (Enter /data0/home/software/g16/l302.exe)
 NPDir=0 NMtPBC=     1 NCelOv=     1 NCel=       1 NClECP=     1 NCelD=      1
         NCelK=      1 NCelE2=     1 NClLst=     1 CellRange=     0.0.
 One-electron integrals computed using PRISM.
 NBasis=   557 RedAO= T EigKep=  1.00D-05  NBF=   557
 NBsUse=   557 1.00D-06 EigRej= -1.00D+00 NBFU=   557
 Precomputing XC quadrature grid using
 IXCGrd= 4 IRadAn=           5 IRanWt=          -1 IRanGd=           0 AccXCQ= 0.00D+00.
 Generated NRdTot=       0 NPtTot=           0 NUsed=           0 NTot=          32
 NSgBfM=   591   591   591   591   591 MxSgAt=    32 MxSgA2=    32.
 Leave Link  302 at Mon Feb 20 01:39:28 2023, MaxMem=  6710886400 cpu:              14.0 elap:               0.6
 (Enter /data0/home/software/g16/l303.exe)
 DipDrv:  MaxL=1.
 Leave Link  303 at Mon Feb 20 01:39:28 2023, MaxMem=  6710886400 cpu:               1.4 elap:               0.1
 (Enter /data0/home/software/g16/l401.exe)
 ExpMin= 3.48D-02 ExpMax= 7.75D+04 ExpMxC= 2.65D+03 IAcc=3 IRadAn=         5 AccDes= 0.00D+00
 Harris functional with IExCor= 1009 and IRadAn=       5 diagonalized for initial guess.
 HarFok:  IExCor= 1009 AccDes= 0.00D+00 IRadAn=         5 IDoV= 1 UseB2=F ITyADJ=14
 ICtDFT=  3500011 ScaDFX=  1.000000  1.000000  1.000000  1.000000
 FoFCou: FMM=F IPFlag=           0 FMFlag=      100000 FMFlg1=           0
         NFxFlg=           0 DoJE=T BraDBF=F KetDBF=T FulRan=T
         wScrn=  0.000000 ICntrl=       500 IOpCl=  0 I1Cent=   200000004 NGrid=           0
         NMat0=    1 NMatS0=      1 NMatT0=    0 NMatD0=    1 NMtDS0=    0 NMtDT0=    0
 Symmetry not used in FoFCou.
 Harris En= -571.691026017728    
 JPrj=0 DoOrth=F DoCkMO=F.
 Leave Link  401 at Mon Feb 20 01:39:30 2023, MaxMem=  6710886400 cpu:              53.2 elap:               2.2
 (Enter /data0/home/software/g16/l502.exe)
 Two-electron integral symmetry not used.
 Closed shell SCF:
 Using DIIS extrapolation, IDIIS=  1040.
 NGot=  6710886400 LenX=  6710169535 LenY=  6709819663
 Requested convergence on RMS density matrix=1.00D-08 within 128 cycles.
 Requested convergence on MAX density matrix=1.00D-06.
 Requested convergence on             energy=1.00D-06.
 No special actions if energy rises.
 Fock matrices will be formed incrementally for  20 cycles.

 Cycle   1  Pass 1  IDiag  1:
 FoFJK:  IHMeth= 1 ICntrl=       0 DoSepK=F KAlg= 0 I1Cent=           0 FoldK=F
 IRaf= 860000000 NMat=       1 IRICut=       1 DoRegI=T DoRafI=F ISym2E= 0 IDoP0=0 IntGTp=1.
 FoFCou: FMM=F IPFlag=           0 FMFlag=      100000 FMFlg1=           0
         NFxFlg=           0 DoJE=F BraDBF=F KetDBF=F FulRan=T
         wScrn=  0.000000 ICntrl=         0 IOpCl=  0 I1Cent=           0 NGrid=           0
         NMat0=    1 NMatS0=      1 NMatT0=    0 NMatD0=    1 NMtDS0=    0 NMtDT0=    0
 Symmetry not used in FoFCou.
 E= -571.590244532918    
 DIIS: error= 2.60D-02 at cycle   1 NSaved=   1.
 NSaved= 1 IEnMin= 1 EnMin= -571.590244532918     IErMin= 1 ErrMin= 2.60D-02
 ErrMax= 2.60D-02  0.00D+00 EMaxC= 1.00D-01 BMatC= 4.66D-01 BMatP= 4.66D-01
 IDIUse=3 WtCom= 7.40D-01 WtEn= 2.60D-01
 Coeff-Com:  0.100D+01
 Coeff-En:   0.100D+01
 Coeff:      0.100D+01
 Gap=     0.306 Goal=   None    Shift=    0.000
 GapD=    0.306 DampG=1.000 DampE=0.500 DampFc=0.5000 IDamp=-1.
 Damping current iteration by 5.00D-01
 RMSDP=7.18D-03 MaxDP=8.36D-01              OVMax= 2.41D-01

 Cycle   2  Pass 1  IDiag  1:
 RMSU=  3.59D-03    CP:  9.94D-01
 E= -571.739983418869     Delta-E=       -0.149738885951 Rises=F Damp=T
 DIIS: error= 4.13D-03 at cycle   2 NSaved=   2.
 NSaved= 2 IEnMin= 2 EnMin= -571.739983418869     IErMin= 2 ErrMin= 4.13D-03
 ErrMax= 4.13D-03  0.00D+00 EMaxC= 1.00D-01 BMatC= 3.91D-02 BMatP= 4.66D-01
 IDIUse=3 WtCom= 9.59D-01 WtEn= 4.13D-02
 Coeff-Com: -0.286D-02 0.100D+01
 Coeff-En:   0.499D-01 0.950D+00
 Coeff:     -0.678D-03 0.100D+01
 Gap=     0.243 Goal=   None    Shift=    0.000
 RMSDP=3.39D-03 MaxDP=5.74D-01 DE=-1.50D-01 OVMax= 1.72D-01

 Cycle   3  Pass 1  IDiag  1:
 RMSU=  2.12D-03    CP:  8.46D-01  3.53D-01
 E= -571.916876769909     Delta-E=       -0.176893351039 Rises=F Damp=F
 DIIS: error= 6.14D-03 at cycle   3 NSaved=   3.
 NSaved= 3 IEnMin= 3 EnMin= -571.916876769909     IErMin= 2 ErrMin= 4.13D-03
 ErrMax= 6.14D-03  0.00D+00 EMaxC= 1.00D-01 BMatC= 1.58D-02 BMatP= 3.91D-02
 IDIUse=3 WtCom= 9.39D-01 WtEn= 6.14D-02
 Coeff-Com: -0.874D-01 0.380D+00 0.707D+00
 Coeff-En:   0.000D+00 0.000D+00 0.100D+01
 Coeff:     -0.820D-01 0.357D+00 0.725D+00
 Gap=     0.228 Goal=   None    Shift=    0.000
 RMSDP=4.56D-04 MaxDP=5.54D-02 DE=-1.77D-01 OVMax= 2.76D-02

 Cycle   4  Pass 1  IDiag  1:
 RMSU=  4.12D-04    CP:  8.36D-01  3.98D-01  1.03D+00
 E= -571.926125351474     Delta-E=       -0.009248581565 Rises=F Damp=F
 DIIS: error= 1.61D-03 at cycle   4 NSaved=   4.
 NSaved= 4 IEnMin= 4 EnMin= -571.926125351474     IErMin= 4 ErrMin= 1.61D-03
 ErrMax= 1.61D-03  0.00D+00 EMaxC= 1.00D-01 BMatC= 2.52D-03 BMatP= 1.58D-02
 IDIUse=3 WtCom= 9.84D-01 WtEn= 1.61D-02
 Coeff-Com: -0.404D-01 0.103D+00 0.353D+00 0.585D+00
 Coeff-En:   0.000D+00 0.000D+00 0.742D-01 0.926D+00
 Coeff:     -0.397D-01 0.101D+00 0.349D+00 0.590D+00
 Gap=     0.221 Goal=   None    Shift=    0.000
 RMSDP=1.44D-04 MaxDP=1.67D-02 DE=-9.25D-03 OVMax= 9.43D-03

 Cycle   5  Pass 1  IDiag  1:
 RMSU=  1.22D-04    CP:  8.35D-01  3.87D-01  1.04D+00  8.47D-01
 E= -571.928181758630     Delta-E=       -0.002056407156 Rises=F Damp=F
 DIIS: error= 5.16D-04 at cycle   5 NSaved=   5.
 NSaved= 5 IEnMin= 5 EnMin= -571.928181758630     IErMin= 5 ErrMin= 5.16D-04
 ErrMax= 5.16D-04  0.00D+00 EMaxC= 1.00D-01 BMatC= 1.45D-04 BMatP= 2.52D-03
 IDIUse=3 WtCom= 9.95D-01 WtEn= 5.16D-03
 Coeff-Com: -0.135D-01 0.249D-01 0.108D+00 0.263D+00 0.618D+00
 Coeff-En:   0.000D+00 0.000D+00 0.000D+00 0.000D+00 0.100D+01
 Coeff:     -0.134D-01 0.248D-01 0.107D+00 0.262D+00 0.620D+00
 Gap=     0.221 Goal=   None    Shift=    0.000
 RMSDP=5.02D-05 MaxDP=4.79D-03 DE=-2.06D-03 OVMax= 4.43D-03

 Cycle   6  Pass 1  IDiag  1:
 RMSU=  4.12D-05    CP:  8.36D-01  3.82D-01  1.04D+00  8.90D-01  9.52D-01
 E= -571.928290735377     Delta-E=       -0.000108976747 Rises=F Damp=F
 DIIS: error= 1.68D-04 at cycle   6 NSaved=   6.
 NSaved= 6 IEnMin= 6 EnMin= -571.928290735377     IErMin= 6 ErrMin= 1.68D-04
 ErrMax= 1.68D-04  0.00D+00 EMaxC= 1.00D-01 BMatC= 2.38D-05 BMatP= 1.45D-04
 IDIUse=3 WtCom= 9.98D-01 WtEn= 1.68D-03
 Coeff-Com: -0.271D-02 0.244D-02 0.164D-01 0.715D-01 0.326D+00 0.587D+00
 Coeff-En:   0.000D+00 0.000D+00 0.000D+00 0.000D+00 0.000D+00 0.100D+01
 Coeff:     -0.271D-02 0.243D-02 0.164D-01 0.713D-01 0.325D+00 0.587D+00
 Gap=     0.222 Goal=   None    Shift=    0.000
 RMSDP=1.94D-05 MaxDP=1.47D-03 DE=-1.09D-04 OVMax= 1.81D-03

 Cycle   7  Pass 1  IDiag  1:
 RMSU=  1.58D-05    CP:  8.36D-01  3.80D-01  1.04D+00  9.07D-01  1.00D+00
                    CP:  1.10D+00
 E= -571.928310362359     Delta-E=       -0.000019626982 Rises=F Damp=F
 DIIS: error= 5.45D-05 at cycle   7 NSaved=   7.
 NSaved= 7 IEnMin= 7 EnMin= -571.928310362359     IErMin= 7 ErrMin= 5.45D-05
 ErrMax= 5.45D-05  0.00D+00 EMaxC= 1.00D-01 BMatC= 2.65D-06 BMatP= 2.38D-05
 IDIUse=1 WtCom= 1.00D+00 WtEn= 0.00D+00
 Coeff-Com:  0.189D-02-0.460D-02-0.167D-01-0.262D-01 0.125D-01 0.258D+00
 Coeff-Com:  0.775D+00
 Coeff:      0.189D-02-0.460D-02-0.167D-01-0.262D-01 0.125D-01 0.258D+00
 Coeff:      0.775D+00
 Gap=     0.221 Goal=   None    Shift=    0.000
 RMSDP=1.10D-05 MaxDP=8.80D-04 DE=-1.96D-05 OVMax= 1.01D-03

 Cycle   8  Pass 1  IDiag  1:
 RMSU=  6.71D-06    CP:  8.37D-01  3.79D-01  1.04D+00  9.09D-01  1.03D+00
                    CP:  1.21D+00  1.08D+00
 E= -571.928313532421     Delta-E=       -0.000003170062 Rises=F Damp=F
 DIIS: error= 1.10D-05 at cycle   8 NSaved=   8.
 NSaved= 8 IEnMin= 8 EnMin= -571.928313532421     IErMin= 8 ErrMin= 1.10D-05
 ErrMax= 1.10D-05  0.00D+00 EMaxC= 1.00D-01 BMatC= 1.46D-07 BMatP= 2.65D-06
 IDIUse=1 WtCom= 1.00D+00 WtEn= 0.00D+00
 Coeff-Com:  0.724D-03-0.140D-02-0.560D-02-0.133D-01-0.245D-01 0.249D-01
 Coeff-Com:  0.238D+00 0.781D+00
 Coeff:      0.724D-03-0.140D-02-0.560D-02-0.133D-01-0.245D-01 0.249D-01
 Coeff:      0.238D+00 0.781D+00
 Gap=     0.222 Goal=   None    Shift=    0.000
 RMSDP=3.28D-06 MaxDP=2.76D-04 DE=-3.17D-06 OVMax= 3.80D-04

 Cycle   9  Pass 1  IDiag  1:
 RMSU=  1.96D-06    CP:  8.37D-01  3.78D-01  1.04D+00  9.07D-01  1.03D+00
                    CP:  1.23D+00  1.15D+00  1.24D+00
 E= -571.928313785060     Delta-E=       -0.000000252639 Rises=F Damp=F
 DIIS: error= 5.06D-06 at cycle   9 NSaved=   9.
 NSaved= 9 IEnMin= 9 EnMin= -571.928313785060     IErMin= 9 ErrMin= 5.06D-06
 ErrMax= 5.06D-06  0.00D+00 EMaxC= 1.00D-01 BMatC= 1.33D-08 BMatP= 1.46D-07
 IDIUse=1 WtCom= 1.00D+00 WtEn= 0.00D+00
 Coeff-Com:  0.503D-04-0.378D-04-0.314D-03-0.178D-02-0.697D-02-0.117D-01
 Coeff-Com:  0.474D-02 0.210D+00 0.806D+00
 Coeff:      0.503D-04-0.378D-04-0.314D-03-0.178D-02-0.697D-02-0.117D-01
 Coeff:      0.474D-02 0.210D+00 0.806D+00
 Gap=     0.222 Goal=   None    Shift=    0.000
 RMSDP=1.18D-06 MaxDP=9.82D-05 DE=-2.53D-07 OVMax= 1.28D-04

 Cycle  10  Pass 1  IDiag  1:
 RMSU=  5.78D-07    CP:  8.37D-01  3.78D-01  1.04D+00  9.06D-01  1.03D+00
                    CP:  1.23D+00  1.18D+00  1.34D+00  1.24D+00
 E= -571.928313808926     Delta-E=       -0.000000023866 Rises=F Damp=F
 DIIS: error= 2.48D-06 at cycle  10 NSaved=  10.
 NSaved=10 IEnMin=10 EnMin= -571.928313808926     IErMin=10 ErrMin= 2.48D-06
 ErrMax= 2.48D-06  0.00D+00 EMaxC= 1.00D-01 BMatC= 3.75D-09 BMatP= 1.33D-08
 IDIUse=1 WtCom= 1.00D+00 WtEn= 0.00D+00
 Coeff-Com: -0.818D-04 0.171D-03 0.622D-03 0.104D-02 0.400D-03-0.938D-02
 Coeff-Com: -0.337D-01-0.129D-01 0.369D+00 0.685D+00
 Coeff:     -0.818D-04 0.171D-03 0.622D-03 0.104D-02 0.400D-03-0.938D-02
 Coeff:     -0.337D-01-0.129D-01 0.369D+00 0.685D+00
 Gap=     0.222 Goal=   None    Shift=    0.000
 RMSDP=4.93D-07 MaxDP=3.11D-05 DE=-2.39D-08 OVMax= 5.28D-05

 Cycle  11  Pass 1  IDiag  1:
 RMSU=  1.85D-07    CP:  8.37D-01  3.78D-01  1.04D+00  9.06D-01  1.03D+00
                    CP:  1.23D+00  1.18D+00  1.39D+00  1.35D+00  1.09D+00
 E= -571.928313814185     Delta-E=       -0.000000005258 Rises=F Damp=F
 DIIS: error= 6.13D-07 at cycle  11 NSaved=  11.
 NSaved=11 IEnMin=11 EnMin= -571.928313814185     IErMin=11 ErrMin= 6.13D-07
 ErrMax= 6.13D-07  0.00D+00 EMaxC= 1.00D-01 BMatC= 2.81D-10 BMatP= 3.75D-09
 IDIUse=1 WtCom= 1.00D+00 WtEn= 0.00D+00
 Coeff-Com: -0.356D-04 0.723D-04 0.247D-03 0.521D-03 0.855D-03-0.228D-02
 Coeff-Com: -0.123D-01-0.248D-01 0.401D-01 0.236D+00 0.761D+00
 Coeff:     -0.356D-04 0.723D-04 0.247D-03 0.521D-03 0.855D-03-0.228D-02
 Coeff:     -0.123D-01-0.248D-01 0.401D-01 0.236D+00 0.761D+00
 Gap=     0.222 Goal=   None    Shift=    0.000
 RMSDP=1.47D-07 MaxDP=9.59D-06 DE=-5.26D-09 OVMax= 1.84D-05

 Cycle  12  Pass 1  IDiag  1:
 RMSU=  6.12D-08    CP:  8.37D-01  3.78D-01  1.04D+00  9.06D-01  1.03D+00
                    CP:  1.23D+00  1.19D+00  1.40D+00  1.38D+00  1.17D+00
                    CP:  1.15D+00
 E= -571.928313814705     Delta-E=       -0.000000000520 Rises=F Damp=F
 DIIS: error= 2.09D-07 at cycle  12 NSaved=  12.
 NSaved=12 IEnMin=12 EnMin= -571.928313814705     IErMin=12 ErrMin= 2.09D-07
 ErrMax= 2.09D-07  0.00D+00 EMaxC= 1.00D-01 BMatC= 2.51D-11 BMatP= 2.81D-10
 IDIUse=1 WtCom= 1.00D+00 WtEn= 0.00D+00
 Coeff-Com:  0.535D-06-0.115D-05-0.517D-05 0.886D-05 0.181D-03 0.260D-03
 Coeff-Com:  0.504D-03-0.454D-02-0.293D-01-0.152D-01 0.195D+00 0.853D+00
 Coeff:      0.535D-06-0.115D-05-0.517D-05 0.886D-05 0.181D-03 0.260D-03
 Coeff:      0.504D-03-0.454D-02-0.293D-01-0.152D-01 0.195D+00 0.853D+00
 Gap=     0.222 Goal=   None    Shift=    0.000
 RMSDP=4.02D-08 MaxDP=2.66D-06 DE=-5.20D-10 OVMax= 6.87D-06

 Cycle  13  Pass 1  IDiag  1:
 RMSU=  2.25D-08    CP:  8.37D-01  3.78D-01  1.04D+00  9.06D-01  1.03D+00
                    CP:  1.23D+00  1.19D+00  1.40D+00  1.39D+00  1.20D+00
                    CP:  1.23D+00  1.18D+00
 E= -571.928313814772     Delta-E=       -0.000000000068 Rises=F Damp=F
 DIIS: error= 5.80D-08 at cycle  13 NSaved=  13.
 NSaved=13 IEnMin=13 EnMin= -571.928313814772     IErMin=13 ErrMin= 5.80D-08
 ErrMax= 5.80D-08  0.00D+00 EMaxC= 1.00D-01 BMatC= 4.40D-12 BMatP= 2.51D-11
 IDIUse=1 WtCom= 1.00D+00 WtEn= 0.00D+00
 Coeff-Com:  0.364D-05-0.745D-05-0.218D-04-0.431D-04-0.148D-04 0.265D-03
 Coeff-Com:  0.134D-02 0.516D-03-0.143D-01-0.294D-01-0.164D-01 0.309D+00
 Coeff-Com:  0.749D+00
 Coeff:      0.364D-05-0.745D-05-0.218D-04-0.431D-04-0.148D-04 0.265D-03
 Coeff:      0.134D-02 0.516D-03-0.143D-01-0.294D-01-0.164D-01 0.309D+00
 Coeff:      0.749D+00
 Gap=     0.222 Goal=   None    Shift=    0.000
 RMSDP=1.30D-08 MaxDP=9.69D-07 DE=-6.78D-11 OVMax= 1.97D-06

 Cycle  14  Pass 1  IDiag  1:
 RMSU=  6.33D-09    CP:  8.37D-01  3.78D-01  1.04D+00  9.06D-01  1.03D+00
                    CP:  1.23D+00  1.19D+00  1.40D+00  1.39D+00  1.20D+00
                    CP:  1.26D+00  1.30D+00  1.13D+00
 E= -571.928313814815     Delta-E=       -0.000000000043 Rises=F Damp=F
 DIIS: error= 3.44D-08 at cycle  14 NSaved=  14.
 NSaved=14 IEnMin=14 EnMin= -571.928313814815     IErMin=14 ErrMin= 3.44D-08
 ErrMax= 3.44D-08  0.00D+00 EMaxC= 1.00D-01 BMatC= 7.46D-13 BMatP= 4.40D-12
 IDIUse=1 WtCom= 1.00D+00 WtEn= 0.00D+00
 Coeff-Com:  0.148D-05-0.295D-05-0.809D-05-0.182D-04-0.186D-04 0.909D-04
 Coeff-Com:  0.574D-03 0.674D-03-0.224D-02-0.993D-02-0.301D-01 0.304D-01
 Coeff-Com:  0.319D+00 0.691D+00
 Coeff:      0.148D-05-0.295D-05-0.809D-05-0.182D-04-0.186D-04 0.909D-04
 Coeff:      0.574D-03 0.674D-03-0.224D-02-0.993D-02-0.301D-01 0.304D-01
 Coeff:      0.319D+00 0.691D+00
 Gap=     0.222 Goal=   None    Shift=    0.000
 RMSDP=4.79D-09 MaxDP=5.02D-07 DE=-4.27D-11 OVMax= 4.11D-07

 SCF Done:  E(RM062X) =  -571.928313815     A.U. after   14 cycles
            NFock= 14  Conv=0.48D-08     -V/T= 2.0049
 KE= 5.691357785220D+02 PE=-2.824797209834D+03 EE= 9.384301974306D+02
 Leave Link  502 at Mon Feb 20 01:41:29 2023, MaxMem=  6710886400 cpu:            2846.2 elap:             119.0
 (Enter /data0/home/software/g16/l601.exe)
 Copying SCF densities to generalized density rwf, IOpCl= 0 IROHF=0.

 **********************************************************************

            Population analysis using the SCF density.

 **********************************************************************

 Alpha  occ. eigenvalues --  -19.50615 -19.49814 -14.88034 -14.87291 -10.68296
 Alpha  occ. eigenvalues --  -10.63727 -10.63494 -10.62528 -10.60578 -10.56685
 Alpha  occ. eigenvalues --  -10.54082 -10.50550  -1.20455  -1.09916  -1.09035
 Alpha  occ. eigenvalues --   -0.99624  -0.92868  -0.89673  -0.85617  -0.80232
 Alpha  occ. eigenvalues --   -0.75164  -0.72733  -0.69582  -0.64649  -0.60667
 Alpha  occ. eigenvalues --   -0.58726  -0.57384  -0.56479  -0.55586  -0.54744
 Alpha  occ. eigenvalues --   -0.52461  -0.51625  -0.50608  -0.48599  -0.45736
[...]
 NBasis=   161 RedAO= T EigKep=  6.08D-04  NBF=   161
 NBsUse=   161 1.00D-06 EigRej= -1.00D+00 NBFU=   161
 Precomputing XC quadrature grid using
 IXCGrd= 4 IRadAn=           5 IRanWt=          -1 IRanGd=           0 AccXCQ= 0.00D+00.
 Generated NRdTot=       0 NPtTot=           0 NUsed=           0 NTot=          32
 NSgBfM=   171   171   171   171   171 MxSgAt=     8 MxSgA2=     8.
 Leave Link  302 at Mon Feb 20 01:44:08 2023, MaxMem=  6710886400 cpu:               2.9 elap:               0.1
 (Enter /data0/home/software/g16/l303.exe)
 DipDrv:  MaxL=1.
 Leave Link  303 at Mon Feb 20 01:44:08 2023, MaxMem=  6710886400 cpu:               0.5 elap:               0.0
 (Enter /data0/home/software/g16/l401.exe)
 ExpMin= 3.48D-02 ExpMax= 7.75D+04 ExpMxC= 2.65D+03 IAcc=3 IRadAn=         5 AccDes= 0.00D+00
 Harris functional with IExCor= 1009 and IRadAn=       5 diagonalized for initial guess.
 HarFok:  IExCor= 1009 AccDes= 0.00D+00 IRadAn=         5 IDoV= 1 UseB2=F ITyADJ=14
 ICtDFT=  3500011 ScaDFX=  1.000000  1.000000  1.000000  1.000000
 FoFCou: FMM=F IPFlag=           0 FMFlag=      100000 FMFlg1=           0
         NFxFlg=           0 DoJE=T BraDBF=F KetDBF=T FulRan=T
         wScrn=  0.000000 ICntrl=       500 IOpCl=  0 I1Cent=   200000004 NGrid=           0
         NMat0=    1 NMatS0=      1 NMatT0=    0 NMatD0=    1 NMtDS0=    0 NMtDT0=    0
 Symmetry not used in FoFCou.
 Harris En= -643.937506177608    
 JPrj=0 DoOrth=F DoCkMO=F.
 Leave Link  401 at Mon Feb 20 01:44:08 2023, MaxMem=  6710886400 cpu:               5.9 elap:               0.3
 (Enter /data0/home/software/g16/l502.exe)
 Keep R1 ints in memory in canonical form, NReq=108965948.
 FoFCou: FMM=F IPFlag=           0 FMFlag=           0 FMFlg1=           0
         NFxFlg=           0 DoJE=F BraDBF=F KetDBF=F FulRan=T
         wScrn=  0.000000 ICntrl=       600 IOpCl=  0 I1Cent=           0 NGrid=           0
         NMat0=    1 NMatS0=  13041 NMatT0=    0 NMatD0=    1 NMtDS0=    0 NMtDT0=    0
 Symmetry not used in FoFCou.
 Two-electron integral symmetry not used.
 Closed shell SCF:
 Using DIIS extrapolation, IDIIS=  1040.
 NGot=  6710886400 LenX=  6625781434 LenY=  6625751752
 Requested convergence on RMS density matrix=1.00D-08 within 128 cycles.
 Requested convergence on MAX density matrix=1.00D-06.
 Requested convergence on             energy=1.00D-06.
 No special actions if energy rises.

 Cycle   1  Pass 1  IDiag  1:
 E= -643.841137198740    
 DIIS: error= 4.96D-02 at cycle   1 NSaved=   1.
 NSaved= 1 IEnMin= 1 EnMin= -643.841137198740     IErMin= 1 ErrMin= 4.96D-02
 ErrMax= 4.96D-02  0.00D+00 EMaxC= 1.00D-01 BMatC= 5.11D-01 BMatP= 5.11D-01
 IDIUse=3 WtCom= 5.04D-01 WtEn= 4.96D-01
 Coeff-Com:  0.100D+01
 Coeff-En:   0.100D+01
 Coeff:      0.100D+01
 Gap=     0.229 Goal=   None    Shift=    0.000
 GapD=    0.229 DampG=1.000 DampE=0.500 DampFc=0.5000 IDamp=-1.
 Damping current iteration by 5.00D-01
 RMSDP=8.11D-03 MaxDP=2.10D-01              OVMax= 2.78D-01

 Cycle   2  Pass 1  IDiag  1:
 E= -643.957645036649     Delta-E=       -0.116507837909 Rises=F Damp=T
 DIIS: error= 1.07D-02 at cycle   2 NSaved=   2.
 NSaved= 2 IEnMin= 2 EnMin= -643.957645036649     IErMin= 2 ErrMin= 1.07D-02
 ErrMax= 1.07D-02  0.00D+00 EMaxC= 1.00D-01 BMatC= 2.83D-02 BMatP= 5.11D-01
 IDIUse=3 WtCom= 8.93D-01 WtEn= 1.07D-01
 Coeff-Com:  0.791D-01 0.921D+00
 Coeff-En:   0.215D+00 0.785D+00
 Coeff:      0.936D-01 0.906D+00
 Gap=     0.333 Goal=   None    Shift=    0.000
 RMSDP=1.97D-03 MaxDP=7.35D-02 DE=-1.17D-01 OVMax= 1.84D-01

 Cycle   3  Pass 1  IDiag  1:
 E= -644.129056172972     Delta-E=       -0.171411136323 Rises=F Damp=F
 DIIS: error= 7.09D-03 at cycle   3 NSaved=   3.
 NSaved= 3 IEnMin= 3 EnMin= -644.129056172972     IErMin= 3 ErrMin= 7.09D-03
 ErrMax= 7.09D-03  0.00D+00 EMaxC= 1.00D-01 BMatC= 1.05D-02 BMatP= 2.83D-02
 IDIUse=3 WtCom= 9.29D-01 WtEn= 7.09D-02
 Coeff-Com: -0.114D-01 0.338D+00 0.673D+00
 Coeff-En:   0.000D+00 0.000D+00 0.100D+01
 Coeff:     -0.106D-01 0.315D+00 0.696D+00
 Gap=     0.323 Goal=   None    Shift=    0.000
 RMSDP=6.88D-04 MaxDP=1.52D-02 DE=-1.71D-01 OVMax= 3.58D-02

 Cycle   4  Pass 1  IDiag  1:
 E= -644.133744842995     Delta-E=       -0.004688670023 Rises=F Damp=F
 DIIS: error= 4.42D-03 at cycle   4 NSaved=   4.
 NSaved= 4 IEnMin= 4 EnMin= -644.133744842995     IErMin= 4 ErrMin= 4.42D-03
 ErrMax= 4.42D-03  0.00D+00 EMaxC= 1.00D-01 BMatC= 4.08D-03 BMatP= 1.05D-02
 IDIUse=3 WtCom= 9.56D-01 WtEn= 4.42D-02
 Coeff-Com: -0.206D-01 0.467D-01 0.404D+00 0.570D+00
 Coeff-En:   0.000D+00 0.000D+00 0.280D+00 0.720D+00
 Coeff:     -0.197D-01 0.446D-01 0.399D+00 0.576D+00
 Gap=     0.329 Goal=   None    Shift=    0.000
 RMSDP=2.73D-04 MaxDP=6.32D-03 DE=-4.69D-03 OVMax= 1.16D-02

 Cycle   5  Pass 1  IDiag  1:
 E= -644.136448432534     Delta-E=       -0.002703589540 Rises=F Damp=F
 DIIS: error= 2.44D-04 at cycle   5 NSaved=   5.
 NSaved= 5 IEnMin= 5 EnMin= -644.136448432534     IErMin= 5 ErrMin= 2.44D-04
 ErrMax= 2.44D-04  0.00D+00 EMaxC= 1.00D-01 BMatC= 1.73D-05 BMatP= 4.08D-03
 IDIUse=3 WtCom= 9.98D-01 WtEn= 2.44D-03
 Coeff-Com: -0.221D-02-0.475D-03 0.568D-01 0.118D+00 0.828D+00
 Coeff-En:   0.000D+00 0.000D+00 0.000D+00 0.000D+00 0.100D+01
 Coeff:     -0.220D-02-0.474D-03 0.566D-01 0.117D+00 0.829D+00
 Gap=     0.328 Goal=   None    Shift=    0.000
 RMSDP=2.95D-05 MaxDP=7.48D-04 DE=-2.70D-03 OVMax= 8.11D-04

 Cycle   6  Pass 1  IDiag  1:
 E= -644.136459864080     Delta-E=       -0.000011431546 Rises=F Damp=F
 DIIS: error= 8.49D-05 at cycle   6 NSaved=   6.
 NSaved= 6 IEnMin= 6 EnMin= -644.136459864080     IErMin= 6 ErrMin= 8.49D-05
 ErrMax= 8.49D-05  0.00D+00 EMaxC= 1.00D-01 BMatC= 1.68D-06 BMatP= 1.73D-05
 IDIUse=1 WtCom= 1.00D+00 WtEn= 0.00D+00
 Coeff-Com:  0.132D-05-0.177D-02 0.331D-02 0.153D-01 0.261D+00 0.722D+00
 Coeff:      0.132D-05-0.177D-02 0.331D-02 0.153D-01 0.261D+00 0.722D+00
 Gap=     0.329 Goal=   None    Shift=    0.000
 RMSDP=1.11D-05 MaxDP=2.14D-04 DE=-1.14D-05 OVMax= 2.92D-04

 Cycle   7  Pass 1  IDiag  1:
 E= -644.136460967222     Delta-E=       -0.000001103142 Rises=F Damp=F
 DIIS: error= 4.61D-05 at cycle   7 NSaved=   7.
 NSaved= 7 IEnMin= 7 EnMin= -644.136460967222     IErMin= 7 ErrMin= 4.61D-05
 ErrMax= 4.61D-05  0.00D+00 EMaxC= 1.00D-01 BMatC= 3.90D-07 BMatP= 1.68D-06
 IDIUse=1 WtCom= 1.00D+00 WtEn= 0.00D+00
 Coeff-Com:  0.380D-03-0.652D-03-0.901D-02-0.144D-01-0.229D-01 0.323D+00
 Coeff-Com:  0.724D+00
 Coeff:      0.380D-03-0.652D-03-0.901D-02-0.144D-01-0.229D-01 0.323D+00
 Coeff:      0.724D+00
 Gap=     0.329 Goal=   None    Shift=    0.000
 RMSDP=4.71D-06 MaxDP=1.00D-04 DE=-1.10D-06 OVMax= 1.35D-04

 Cycle   8  Pass 1  IDiag  1:
 E= -644.136461237568     Delta-E=       -0.000000270347 Rises=F Damp=F
 DIIS: error= 1.01D-05 at cycle   8 NSaved=   8.
 NSaved= 8 IEnMin= 8 EnMin= -644.136461237568     IErMin= 8 ErrMin= 1.01D-05
 ErrMax= 1.01D-05  0.00D+00 EMaxC= 1.00D-01 BMatC= 3.05D-08 BMatP= 3.90D-07
 IDIUse=1 WtCom= 1.00D+00 WtEn= 0.00D+00
 Coeff-Com:  0.138D-03-0.165D-03-0.379D-02-0.610D-02-0.174D-01 0.910D-01
 Coeff-Com:  0.303D+00 0.634D+00
 Coeff:      0.138D-03-0.165D-03-0.379D-02-0.610D-02-0.174D-01 0.910D-01
 Coeff:      0.303D+00 0.634D+00
 Gap=     0.329 Goal=   None    Shift=    0.000
 RMSDP=8.91D-07 MaxDP=2.69D-05 DE=-2.70D-07 OVMax= 3.63D-05

 Cycle   9  Pass 1  IDiag  1:
 E= -644.136461261222     Delta-E=       -0.000000023653 Rises=F Damp=F
 DIIS: error= 1.83D-06 at cycle   9 NSaved=   9.
 NSaved= 9 IEnMin= 9 EnMin= -644.136461261222     IErMin= 9 ErrMin= 1.83D-06
 ErrMax= 1.83D-06  0.00D+00 EMaxC= 1.00D-01 BMatC= 9.35D-10 BMatP= 3.05D-08
 IDIUse=1 WtCom= 1.00D+00 WtEn= 0.00D+00
 Coeff-Com: -0.271D-04 0.538D-04 0.267D-03 0.585D-03-0.793D-03-0.193D-01
 Coeff-Com: -0.293D-01 0.741D-01 0.974D+00
 Coeff:     -0.271D-04 0.538D-04 0.267D-03 0.585D-03-0.793D-03-0.193D-01
 Coeff:     -0.293D-01 0.741D-01 0.974D+00
 Gap=     0.329 Goal=   None    Shift=    0.000
 RMSDP=3.82D-07 MaxDP=9.68D-06 DE=-2.37D-08 OVMax= 1.36D-05

 Cycle  10  Pass 1  IDiag  1:
 E= -644.136461262423     Delta-E=       -0.000000001201 Rises=F Damp=F
 DIIS: error= 3.22D-07 at cycle  10 NSaved=  10.
 NSaved=10 IEnMin=10 EnMin= -644.136461262423     IErMin=10 ErrMin= 3.22D-07
 ErrMax= 3.22D-07  0.00D+00 EMaxC= 1.00D-01 BMatC= 1.91D-11 BMatP= 9.35D-10
 IDIUse=1 WtCom= 1.00D+00 WtEn= 0.00D+00
 Coeff-Com: -0.290D-05 0.459D-05 0.107D-03 0.172D-03 0.504D-03-0.357D-02
 Coeff-Com: -0.119D-01-0.182D-01 0.213D-01 0.101D+01
 Coeff:     -0.290D-05 0.459D-05 0.107D-03 0.172D-03 0.504D-03-0.357D-02
 Coeff:     -0.119D-01-0.182D-01 0.213D-01 0.101D+01
 Gap=     0.329 Goal=   None    Shift=    0.000
 RMSDP=7.74D-08 MaxDP=1.08D-06 DE=-1.20D-09 OVMax= 3.56D-06

 Cycle  11  Pass 1  IDiag  1:
 E= -644.136461262451     Delta-E=       -0.000000000028 Rises=F Damp=F
 DIIS: error= 2.22D-07 at cycle  11 NSaved=  11.
 NSaved=11 IEnMin=11 EnMin= -644.136461262451     IErMin=11 ErrMin= 2.22D-07
 ErrMax= 2.22D-07  0.00D+00 EMaxC= 1.00D-01 BMatC= 7.89D-12 BMatP= 1.91D-11
 IDIUse=1 WtCom= 1.00D+00 WtEn= 0.00D+00
 Coeff-Com:  0.448D-06-0.125D-05 0.318D-04 0.422D-04 0.258D-03-0.538D-03
 Coeff-Com: -0.349D-02-0.115D-01-0.461D-01 0.453D+00 0.609D+00
 Coeff:      0.448D-06-0.125D-05 0.318D-04 0.422D-04 0.258D-03-0.538D-03
 Coeff:     -0.349D-02-0.115D-01-0.461D-01 0.453D+00 0.609D+00
 Gap=     0.329 Goal=   None    Shift=    0.000
 RMSDP=1.81D-08 MaxDP=4.50D-07 DE=-2.81D-11 OVMax= 6.41D-07

 Cycle  12  Pass 1  IDiag  1:
 E= -644.136461262453     Delta-E=       -0.000000000002 Rises=F Damp=F
 DIIS: error= 7.41D-08 at cycle  12 NSaved=  12.
 NSaved=12 IEnMin=12 EnMin= -644.136461262453     IErMin=12 ErrMin= 7.41D-08
 ErrMax= 7.41D-08  0.00D+00 EMaxC= 1.00D-01 BMatC= 9.40D-13 BMatP= 7.89D-12
 IDIUse=1 WtCom= 1.00D+00 WtEn= 0.00D+00
 Coeff-Com:  0.732D-06-0.138D-05-0.601D-05-0.128D-04 0.106D-04 0.424D-03
 Coeff-Com:  0.889D-03-0.990D-03-0.233D-01-0.300D-02 0.254D+00 0.772D+00
 Coeff:      0.732D-06-0.138D-05-0.601D-05-0.128D-04 0.106D-04 0.424D-03
 Coeff:      0.889D-03-0.990D-03-0.233D-01-0.300D-02 0.254D+00 0.772D+00
 Gap=     0.329 Goal=   None    Shift=    0.000
 RMSDP=8.43D-09 MaxDP=1.35D-07 DE=-2.16D-12 OVMax= 3.54D-07

 SCF Done:  E(RM062X) =  -644.136461262     A.U. after   12 cycles
            NFock= 12  Conv=0.84D-08     -V/T= 2.0026
 KE= 6.424928531918D+02 PE=-2.087241859165D+03 EE= 5.207904372154D+02
 Leave Link  502 at Mon Feb 20 01:44:14 2023, MaxMem=  6710886400 cpu:              99.5 elap:               5.7
 (Enter /data0/home/software/g16/l601.exe)
 Copying SCF densities to generalized density rwf, IOpCl= 0 IROHF=0.

 **********************************************************************

            Population analysis using the SCF density.

 **********************************************************************

 Alpha  occ. eigenvalues --  -78.16856 -19.69612 -19.69103 -19.68227 -19.58013
 Alpha  occ. eigenvalues --   -6.97649  -5.09566  -5.09551  -5.09304  -1.24634
 Alpha  occ. eigenvalues --   -1.17346  -1.16845  -1.08326  -0.72700  -0.65652
 Alpha  occ. eigenvalues --   -0.63869  -0.59000  -0.53245  -0.51988  -0.50149
 Alpha  occ. eigenvalues --   -0.46397  -0.45265  -0.45125  -0.37909  -0.36859
 Alpha virt. eigenvalues --   -0.03977   0.00884   0.02854   0.04637   0.08214
 Alpha virt. eigenvalues --    0.09047   0.10549   0.12896   0.15850   0.17155
 Alpha virt. eigenvalues --    0.17584   0.18382   0.19483   0.19870   0.21153
 Alpha virt. eigenvalues --    0.22432   0.24169   0.25703   0.25897   0.27506
 Alpha virt. eigenvalues --    0.27919   0.28832   0.30152   0.31913   0.33301
 Alpha virt. eigenvalues --    0.34244   0.36514   0.38278   0.40338   0.42783
 Alpha virt. eigenvalues --    0.44267   0.44999   0.52059   0.55914   0.57193
 Alpha virt. eigenvalues --    0.73521   0.76195   0.76382   0.85842   0.97741
 Alpha virt. eigenvalues --    0.99799   1.00365   1.05283   1.05804   1.11792
 Alpha virt. eigenvalues --    1.14050   1.14860   1.18644   1.19502   1.20103
 Alpha virt. eigenvalues --    1.21458   1.22945   1.26115   1.26565   1.32411
 Alpha virt. eigenvalues --    1.32932   1.41912   1.43087   1.49940   1.51822
 Alpha virt. eigenvalues --    1.52683   1.55068   1.57831   1.59628   1.64088
 Alpha virt. eigenvalues --    1.66203   1.67161   1.70396   1.72863   1.82749
 Alpha virt. eigenvalues --    1.83276   1.84508   1.86930   1.89779   1.96920
 Alpha virt. eigenvalues --    1.99451   2.04063   2.09601   2.11905   2.13601
 Alpha virt. eigenvalues --    2.18039   2.21836   2.25460   2.36781   2.43313
 Alpha virt. eigenvalues --    2.44684   2.56417   2.61711   2.62064   2.70640
 Alpha virt. eigenvalues --    2.72889   2.80623   2.86267   2.90030   2.94342
 Alpha virt. eigenvalues --    5.01081   5.03383   5.05955   5.06430   5.10568
 Alpha virt. eigenvalues --    5.13536   5.17337   5.23493   5.34951   5.43521
 Alpha virt. eigenvalues --    5.44995   5.51412   6.71688   6.73876   6.75261
 Alpha virt. eigenvalues --    6.76749   6.79094   6.80426   6.82577   6.85183
 Alpha virt. eigenvalues --    6.91476   6.92759   6.94092   6.98112   6.99448
 Alpha virt. eigenvalues --    7.01212   7.10796   7.24618   7.25638   7.27950
 Alpha virt. eigenvalues --    7.31534   7.40190   7.64153  14.23453  14.23644
 Alpha virt. eigenvalues --   14.33841  49.97540  49.99056  50.00418  50.10374
 Alpha virt. eigenvalues --  163.85511
          Condensed to atoms (all electrons):
              25         26         27         28         29         30
    25  P   12.480304   0.553584   0.232100   0.003649   0.175798   0.043669
    26  O    0.553584   8.142224  -0.006421  -0.015134  -0.034129   0.001965
    27  O    0.232100  -0.006421   8.047069   0.252475   0.006213  -0.013210
    28  H    0.003649  -0.015134   0.252475   0.456360  -0.000282   0.001905
    29  O    0.175798  -0.034129   0.006213  -0.000282   8.108176   0.222234
    30  H    0.043669   0.001965  -0.013210   0.001905   0.222234   0.450583
    31  O    0.229441  -0.008778   0.036500  -0.002751   0.004634  -0.012892
    32  H   -0.001357  -0.015627  -0.003651  -0.003753   0.000325   0.001511
              31         32
    25  P    0.229441  -0.001357
    26  O   -0.008778  -0.015627
    27  O    0.036500  -0.003651
    28  H   -0.002751  -0.003753
    29  O    0.004634   0.000325
    30  H   -0.012892   0.001511
    31  O    8.054946   0.258198
    32  H    0.258198   0.447907
 Mulliken charges:
               1
     1  C    0.000000
     2  C    0.000000
     3  C    0.000000
     4  N    0.000000
     5  H    0.000000
     6  H    0.000000
     7  H    0.000000
     8  C    0.000000
     9  H    0.000000
    10  H    0.000000
    11  H    0.000000
    12  N    0.000000
    13  C    0.000000
    14  H    0.000000
    15  H    0.000000
    16  C    0.000000
    17  H    0.000000
    18  H    0.000000
    19  C    0.000000
    20  H    0.000000
    21  H    0.000000
    22  C    0.000000
    23  O    0.000000
    24  O    0.000000
    25  P    1.282812
    26  O   -0.617684
    27  O   -0.551074
    28  H    0.307531
    29  O   -0.482969
    30  H    0.304236
    31  O   -0.559299
    32  H    0.316447
 Sum of Mulliken charges =  -0.00000
 Mulliken charges with hydrogens summed into heavy atoms:
               1
     1  C    0.000000
     2  C    0.000000
     3  C    0.000000
     4  N    0.000000
     8  C    0.000000
    12  N    0.000000
    13  C    0.000000
    16  C    0.000000
    19  C    0.000000
    22  C    0.000000
    23  O    0.000000
    24  O    0.000000
    25  P    1.282812
    26  O   -0.617684
    27  O   -0.243543
    29  O   -0.178732
    31  O   -0.242852
         Mulliken charges condensed to fragments:
      1      0.000000
      2     -0.000000
 Electronic spatial extent (au):  <R**2>=          80014.6773
 Charge=             -0.0000 electrons
 Dipole moment (field-independent basis, Debye):
    X=             -5.0672    Y=              2.3429    Z=              0.2866  Tot=              5.5900
 Quadrupole moment (field-independent basis, Debye-Ang):
   XX=           -154.9568   YY=             17.2809   ZZ=            -25.6922
   XY=            -29.2962   XZ=            -54.7513   YZ=             33.6881
 Traceless Quadrupole moment (field-independent basis, Debye-Ang):
   XX=           -100.5008   YY=             71.7370   ZZ=             28.7638
   XY=            -29.2962   XZ=            -54.7513   YZ=             33.6881
 Octapole moment (field-independent basis, Debye-Ang**2):
  XXX=          -3412.8905  YYY=           -368.5834  ZZZ=          -1110.3182  XYY=           -447.2686
  XXY=          -1436.3957  XXZ=          -1784.5887  XZZ=           -978.7427  YZZ=             98.7336
  YYZ=            279.8896  XYZ=           -253.4158
 Hexadecapole moment (field-independent basis, Debye-Ang**3):
 XXXX=         -65100.2243 YYYY=         -16600.0941 ZZZZ=         -29331.1127 XXXY=         -35273.9954
 XXXZ=         -40387.1778 YYYX=         -11936.4633 YYYZ=          -3710.7331 ZZZX=         -21078.3313
 ZZZY=          -7653.9068 XXYY=         -17974.0973 XXZZ=         -25368.5664 YYZZ=            -78.9583
 XXYZ=         -16034.7006 YYXZ=          -4121.3274 ZZXY=          -6377.4162
 N-N= 2.798221074950D+02 E-N=-2.087241862822D+03  KE= 6.424928531918D+02
 No NMR shielding tensors so no spin-rotation constants.
 Leave Link  601 at Mon Feb 20 01:44:14 2023, MaxMem=  6710886400 cpu:               2.0 elap:               0.1
 (Enter /data0/home/software/g16/l122.exe)
 CPIOFr:  IOpCl= 0 IRwI=-1 IRwCP=  731 ICalc=  4 LCPTot=      476096 Len1MO=     1252357 IndFrg=     6737881
 Restoring MOs from calculation   1 to rwf.
 CPIOFr:  IOpCl= 0 IRwI=-2 IRwCP=  731 ICalc=  0 LCPTot=      476096 Len1MO=     1252357 IndFrg=     1728453
 Counterpoise corrected energy =   -1216.162501572242
                   BSSE energy =       0.002524883494
              sum of fragments =   -1216.063958419773
           complexation energy =     -63.42 kcal/mole (raw)
           complexation energy =     -61.84 kcal/mole (corrected)
 Leave Link  122 at Mon Feb 20 01:44:14 2023, MaxMem=  6710886400 cpu:               0.4 elap:               0.0
 (Enter /data0/home/software/g16/l9999.exe)
 1\1\GINC-LOCALHOST\SP\RM062X\6-311+G(2d,p)\C8H15N2O6P1\WUHANYU\20-Feb-
 2023\0\\#p M062X/6-311+G(2d,p) nosymm em=GD3 counterpoise=2\\Title Car
 d Required\\0,1\C,0,10.420007,7.427526,9.449007\C,0,9.9989,8.13549,8.3
 27733\C,0,11.277531,9.501461,9.581434\N,0,11.214866,8.287449,10.204341
 \H,0,10.172522,6.430129,9.770182\H,0,9.367915,7.829614,7.516122\H,0,11
 .81505,10.395258,9.937262\C,0,11.750746,7.999922,11.523383\H,0,12.7806
 05,8.400561,11.636618\H,0,11.117794,8.493362,12.304396\H,0,11.751058,6
 .917488,11.72718\N,0,10.545249,9.415895,8.423394\C,0,10.172595,10.5718
 44,7.60999\H,0,10.391,10.352363,6.541253\H,0,10.814826,11.444333,7.912
 21\C,0,8.687159,10.961048,7.788775\H,0,8.598402,12.045515,7.549086\H,0
 ,8.061859,10.422347,7.053427\C,0,8.135373,10.72778,9.193278\H,0,7.9243
 52,9.655826,9.371864\H,0,7.164781,11.245484,9.320042\C,0,9.07824,11.24
 8717,10.282411\O,0,9.837228,12.186608,10.005893\O,0,9.044004,10.632938
 ,11.375604\P,0,12.122073,11.773186,12.591147\O,0,12.898783,10.858797,1
 1.743689\O,0,10.877229,11.100256,13.311885\H,0,10.102689,10.968894,12.
 591828\O,0,13.011792,12.306599,13.800412\H,0,12.41033,12.931036,14.363
 714\O,0,11.589215,13.093741,11.898022\H,0,10.881412,12.808092,11.15036
 \\Version=ES64L-G16RevA.03\HF=-644.1364613\RMSD=8.432e-09\Dipole=-1.04
 67576,-2.7965053,-2.6502997\Quadrupole=32.4462016,-18.104225,-14.34197
 66,-78.8456353,-71.7576211,-104.7714127\PG=C01 [X(C8H15N2O6P1)]\\@


 ONE BIG VICE IN A MAN IS APT TO KEEP OUT MANY SMALLER ONES.

                           -- BRET HARTE
 Job cpu time:       0 days  2 hours 46 minutes 28.8 seconds.
 Elapsed time:       0 days  0 hours  6 minutes 59.8 seconds.
 File lengths (MBytes):  RWF=    234 Int=      0 D2E=      0 Chk=     70 Scr=      1
 Normal termination of Gaussian 16 at Mon Feb 20 01:44:14 2023.
