          20
 Energy =     -0.39988000 a.u.  #Cluster:    1
C          12.72296000     11.80488700      2.80464900
C          14.08473400     11.50631700      2.84898600
C          13.35501400     11.44755300      4.92445600
N          12.26605100     11.75465200      4.12106600
H          11.35608800     12.07896800      4.44703400
H          12.08350100     12.03666800      1.98178000
H          14.79836900     11.43597500      2.05400000
H          13.30590200     11.36382100      5.99823800
N          14.46464300     11.29606300      4.16902300
P          14.81209200     14.65239100      5.02200300
O          13.80626200     14.26307200      6.00715500
O          16.01059400     13.65463500      4.74514600
H          15.64340900     12.66543600      4.66485200
O          14.11419400     14.96188600      3.62554300
H          14.82593400     15.28685500      2.96060100
O          15.60501400     16.01121000      5.29542700
H          16.30406400     15.82525900      6.02689300
O          10.95517700     13.56236400      5.40609700
H          10.63765700     14.34478700      4.95607000
H          11.84835900     13.80721300      5.70098400
          20
 Energy =     -0.39843700 a.u.  #Cluster:    2
C          12.94986100     12.03284600      2.37957200
C          14.27277200     11.72924100      2.70215100
C          13.10444400     11.51764600      4.55559200
N          12.21552300     11.88413900      3.55550600
H          11.25180600     12.16952400      3.70176100
H          12.50507900     12.32724500      1.45505900
H          15.14765100     11.72966800      2.08366000
H          12.82009400     11.35684100      5.58299100
N          14.35410600     11.41623600      4.05298800
P          14.80416000     14.64087400      5.17976800
O          13.46479800     14.51707600      5.75019500
O          15.82075200     13.46325100      5.44167900
H          15.45853200     12.58463300      4.95562100
O          14.84531500     14.82164400      3.59363100
H          14.60937200     15.79823100      3.37934500
O          15.61545400     15.92715000      5.67646000
H          15.90152800     15.76547400      6.64858000
O          10.79372000     13.37495700      5.00120800
H          10.16735300     14.07892800      5.14076100
H          11.65769800     13.74440700      5.24347300
