          20
 G =       -0.399829 Gcorr = 0.087434 a.u. Nimag =   0 Frame:     1 Step:     1 Geom:     1
C          12.32279900     12.02146400      2.98626600
C          13.64459900     11.61377800      2.80723100
C          13.24566300     11.53895900      4.97030700
N          12.07449900     11.96064200      4.35704000
H          11.25646500     12.34413300      4.83002600
H          11.58451000     12.33300800      2.28086200
H          14.21685300     11.51529700      1.90776900
H          13.35794300     11.42100300      6.03609400
N          14.20685100     11.32657000      4.04518700
P          14.96161200     14.61446200      4.90370400
O          14.08730000     14.27150600      6.02261200
O          16.01567100     13.53481900      4.42263400
H          15.55792400     12.58200300      4.37571700
O          14.08974100     15.02918000      3.63850100
H          14.71835500     15.32051600      2.88035700
O          15.89893600     15.89490100      5.08278900
H          16.67015100     15.63398600      5.71158500
O          11.12916800     13.82829400      5.86027500
H          10.81599600     14.64579700      5.47404100
H          12.07497600     13.98969300      6.01700300
          20
 G =       -0.399798 Gcorr = 0.087463 a.u. Nimag =   0 Frame:     2 Step:     2 Geom:     2
C          12.38247500     12.03149700      2.90005700
C          13.69721200     11.58025200      2.78504000
C          13.19946500     11.54306400      4.92854000
N          12.07111400     11.99422200      4.25880500
H          11.24551500     12.40905800      4.69035600
H          11.68683200     12.35783200      2.15891100
H          14.30607800     11.45389400      1.91351000
H          13.26026100     11.43405200      5.99949200
N          14.19378000     11.28961900      4.04995900
P          15.02799100     14.55199900      4.90497300
O          14.09013900     14.25198900      5.98409800
O          16.06437200     13.43108500      4.48415700
H          15.57677100     12.49340400      4.42957000
O          14.23271900     14.98323800      3.59541600
H          14.90741800     15.24255000      2.86575900
O          16.00043100     15.80100400      5.11576600
H          16.72581000     15.52356500      5.79051100
O          11.12850200     13.91165700      5.69601700
H          10.86116700     14.73459000      5.28787300
H          12.07195600     14.04144000      5.89119100
          20
 G =       -0.399866 Gcorr = 0.087397 a.u. Nimag =   0 Frame:     3 Step:     3 Geom:     3
C          12.41543900     12.10384300      2.77689100
C          13.74113900     11.68937900      2.64972400
C          13.22693200     11.52315300      4.78314500
N          12.09395300     11.98503000      4.12850200
H          11.25559600     12.35660000      4.57453400
H          11.71875000     12.45509000      2.04821100
H          14.35944600     11.62426100      1.77814400
H          13.28114000     11.35663300      5.84699900
N          14.23403000     11.34108000      3.90145900
P          14.97478100     14.57673000      4.94477100
O          14.03763100     14.19902600      5.99971100
O          16.04341600     13.50536900      4.47752100
H          15.57861100     12.56180000      4.36057100
O          14.17646100     15.05270600      3.65291200
H          14.84733700     15.36970800      2.94294900
O          15.91273200     15.83781500      5.22804000
H          16.65666700     15.53777600      5.87190400
O          11.08862800     13.79380200      5.66459700
H          10.80077100     14.63179500      5.30357300
H          12.02655100     13.93842300      5.87584300
          20
 G =       -0.399815 Gcorr = 0.087448 a.u. Nimag =   0 Frame:     4 Step:     5 Geom:     5
C          12.44945200     11.94520300      2.82718400
C          13.78398300     11.55339100      2.72253500
C          13.25494400     11.43807200      4.85571400
N          12.11886200     11.85877000      4.17908700
H          11.26962600     12.22639200      4.60762200
H          11.75212500     12.26142300      2.08323300
H          14.41100200     11.47590100      1.85819300
H          13.30337700     11.30323800      5.92431000
N          14.27287100     11.25071800      3.98763800
P          14.94083200     14.53004800      4.94411400
O          14.00282700     14.16147300      6.00158300
O          16.03319400     13.46752600      4.51255200
H          15.58839600     12.51160800      4.42228400
O          14.14395300     14.95668300      3.63422300
H          14.81464200     15.26522700      2.92038500
O          15.85269300     15.81573100      5.20003100
H          16.59004400     15.55011400      5.86643500
O          11.06454300     13.68951900      5.65533300
H          10.76510900     14.51123000      5.26691900
H          11.99753500     13.85774100      5.87063000
          20
 G =       -0.399843 Gcorr = 0.087420 a.u. Nimag =   0 Frame:     5 Step:     6 Geom:     6
C          12.77936800     11.95972200      2.62189400
C          14.15212300     11.71462300      2.65203000
C          13.40577400     11.39337400      4.69735700
N          12.31249500     11.74343000      3.91786700
H          11.38558600     11.99013400      4.26425800
H          12.13848800     12.25593200      1.82111700
H          14.87563900     11.76342000      1.86439900
H          13.35000700     11.18791300      5.75428100
N          14.52803200     11.37358500      3.94563700
P          14.71959700     14.62686200      5.16775500
O          13.71625000     14.09007500      6.08373800
O          15.96419800     13.71589900      4.80833800
H          15.64024700     12.72877000      4.60716200
O          14.03145600     15.05951800      3.79943300
H          14.73938800     15.48478800      3.18902800
O          15.44862800     15.97908300      5.60377700
H          16.13217100     15.74520900      6.33607900
O          10.90487400     13.34608700      5.36467500
H          10.56221600     14.15801000      4.99189100
H          11.78347200     13.59358200      5.69928800
          20
 G =       -0.399812 Gcorr = 0.087451 a.u. Nimag =   0 Frame:     6 Step:     7 Geom:     7
C          12.87203700     12.05687300      2.51623300
C          14.25236800     11.85751700      2.53508000
C          13.51185800     11.35512700      4.54580200
N          12.40927100     11.72599200      3.78937600
H          11.47343400     11.91377800      4.14848300
H          12.22336400     12.39125700      1.73705400
H          14.97613500     11.99134200      1.75758000
H          13.46035600     11.06761400      5.58366800
N          14.63620800     11.43148700      3.80093700
P          14.71209500     14.58724500      5.26750200
O          13.72570100     13.94592100      6.13328800
O          15.98798500     13.75054400      4.84285500
H          15.69963300     12.77041400      4.56774400
O          14.01267500     15.10341300      3.93431500
H          14.70710200     15.59941700      3.36292900
O          15.39367200     15.92456000      5.81272800
H          16.08447200     15.65651900      6.52634600
O          10.94298600     13.16857600      5.34213400
H          10.57693500     13.99414600      5.02588800
H          11.81172500     13.41827300      5.70005800
          20
 G =       -0.399822 Gcorr = 0.087440 a.u. Nimag =   0 Frame:     7 Step:    10 Geom:    10
C          12.84119800     11.99705300      2.63405600
C          14.20689000     11.72540500      2.71517600
C          13.37611100     11.40458800      4.72777600
N          12.32054300     11.78076400      3.90938900
H          11.38618900     12.04394100      4.22196100
H          12.23745200     12.31078700      1.81138400
H          14.96111400     11.76582900      1.95641700
H          13.27569900     11.19293700      5.78017300
N          14.52594200     11.36830000      4.01968500
P          14.73764100     14.60706800      5.27290100
O          13.68891800     14.08466500      6.14535700
O          15.97614900     13.67318600      4.95324500
H          15.64029300     12.69402300      4.73316800
O          14.11135600     15.06457000      3.88311700
H          14.85063300     15.47935500      3.30353300
O          15.47720800     15.94024200      5.74801900
H          16.12903200     15.68595800      6.50220100
O          10.89254200     13.40458500      5.31098000
H          10.58245400     14.22593400      4.93043300
H          11.76264900     13.63082400      5.68103100
          20
 G =       -0.399827 Gcorr = 0.087436 a.u. Nimag =   0 Frame:     8 Step:    11 Geom:    11
C          12.68695200     11.83146300      2.76317900
C          14.04362900     11.51321800      2.82331900
C          13.28688500     11.45582700      4.88916900
N          12.21274400     11.78202700      4.07353200
H          11.30288800     12.11747500      4.38910800
H          12.06131500     12.07616000      1.93346700
H          14.76622800     11.43628100      2.03709000
H          13.22302800     11.36818300      5.96186700
N          14.40369100     11.29167400      4.14709000
P          14.79072500     14.63950900      5.01387600
O          13.76202700     14.26279800      5.98013100
O          15.97766900     13.62383000      4.75340500
H          15.59619500     12.64115100      4.66072500
O          14.12207300     14.96591200      3.60701600
H          14.85027200     15.28322500      2.95615300
O          15.60072000     15.98428800      5.30638500
H          16.28112800     15.78533000      6.05189000
O          10.90944400     13.60785900      5.34046800
H          10.60909000     14.39497500      4.88684000
H          11.80330600     13.83882100      5.64529100
          20
 G =       -0.399848 Gcorr = 0.087415 a.u. Nimag =   0 Frame:     9 Step:    12 Geom:    12
C          12.71776300     11.87878000      2.71740700
C          14.07899800     11.57696000      2.75483200
C          13.35075500     11.47910700      4.82942000
N          12.26185600     11.80395200      4.03305800
H          11.35218300     12.12296700      4.36553900
H          12.07809800     12.12800400      1.89983500
H          14.79190800     11.52082400      1.95805400
H          13.30242800     11.37475100      5.90142800
N          14.45946200     11.34020200      4.07020700
P          14.81882700     14.67798200      4.98396500
O          13.80609600     14.27462700      5.95634300
O          16.01439700     13.68046200      4.69432100
H          15.64320900     12.69496200      4.59111700
O          14.13033300     15.01778700      3.58990700
H          14.84749700     15.35384800      2.93603600
O          15.61671700     16.02767300      5.28728900
H          16.30157700     15.82796700      6.02838400
O          10.95265500     13.59404300      5.34426900
H          10.63760000     14.38471500      4.90716400
H          11.84765100     13.83039900      5.64142500
          20
 G =       -0.399880 Gcorr = 0.087382 a.u. Nimag =   0 Frame:    10 Step:    13 Geom:    13
C          12.72296000     11.80488700      2.80464900
C          14.08473400     11.50631700      2.84898600
C          13.35501400     11.44755300      4.92445600
N          12.26605100     11.75465200      4.12106600
H          11.35608800     12.07896800      4.44703400
H          12.08350100     12.03666800      1.98178000
H          14.79836900     11.43597500      2.05400000
H          13.30590200     11.36382100      5.99823800
N          14.46464300     11.29606300      4.16902300
P          14.81209200     14.65239100      5.02200300
O          13.80626200     14.26307200      6.00715500
O          16.01059400     13.65463500      4.74514600
H          15.64340900     12.66543600      4.66485200
O          14.11419400     14.96188600      3.62554300
H          14.82593400     15.28685500      2.96060100
O          15.60501400     16.01121000      5.29542700
H          16.30406400     15.82525900      6.02689300
O          10.95517700     13.56236400      5.40609700
H          10.63765700     14.34478700      4.95607000
H          11.84835900     13.80721300      5.70098400
          20
 G =       -0.399804 Gcorr = 0.087458 a.u. Nimag =   0 Frame:    11 Step:    15 Geom:    15
C          12.78203100     11.79664100      2.65396900
C          14.13386000     11.47326600      2.76971600
C          13.29191600     11.41536600      4.80235800
N          12.25372000     11.74699500      3.94350400
H          11.33285400     12.08548400      4.22157000
H          12.19209900     12.04476400      1.79949300
H          14.88827000     11.39491700      2.01412500
H          13.18329600     11.32640900      5.87135900
N          14.43793700     11.24830100      4.10692000
P          14.79934200     14.59158400      4.99720000
O          13.72856100     14.21685800      5.91750800
O          15.99363700     13.57266900      4.78844200
H          15.61300200     12.59162500      4.67504400
O          14.19391100     14.92094900      3.56259700
H          14.95092100     15.23667500      2.94469800
O          15.59961700     15.93402600      5.32529300
H          16.23782100     15.73613200      6.10736900
O          10.90359300     13.57769300      5.15423300
H          10.62962800     14.36564200      4.68538900
H          11.78400000     13.80401200      5.49921200
          20
 G =       -0.399814 Gcorr = 0.087449 a.u. Nimag =   0 Frame:    12 Step:    16 Geom:    16
C          12.74402200     11.97677000      2.65435300
C          14.11096600     11.70072900      2.68120200
C          13.36695600     11.41886900      4.73316300
N          12.27829900     11.78525200      3.95463800
H          11.35905400     12.05733500      4.30243000
H          12.10633400     12.27870200      1.85317100
H          14.83179400     11.72455300      1.88997000
H          13.31142900     11.22627300      5.79251500
N          14.48496300     11.36521200      3.97682200
P          14.75786200     14.62634500      5.16119100
O          13.74728400     14.12110900      6.08713900
O          15.97907300     13.68357800      4.80334600
H          15.63193400     12.70160700      4.61648600
O          14.07260400     15.06271300      3.79261800
H          14.78673700     15.46665000      3.17497500
O          15.52062300     15.96500800      5.58100400
H          16.20110300     15.72220800      6.31334300
O          10.91560800     13.43729400      5.38858400
H          10.59206700     14.25255400      5.00603900
H          11.80130000     13.66725500      5.71701000
          20
 G =       -0.399823 Gcorr = 0.087440 a.u. Nimag =   0 Frame:    13 Step:    17 Geom:    17
C          12.68612200     12.03278300      2.72646600
C          14.04365500     11.71747800      2.67063300
C          13.39705300     11.37016300      4.74546100
N          12.28170900     11.79966000      4.04040000
H          11.39022600     12.08281900      4.44665600
H          12.01772000     12.38588800      1.97260600
H          14.72367300     11.75449900      1.84455700
H          13.38973600     11.13454400      5.79754100
N          14.47288800     11.31715300      3.93026200
P          14.90484100     14.51579900      5.23118600
O          13.92883400     14.00279100      6.18937100
O          16.07688100     13.55427900      4.77305500
H          15.69099400     12.59131800      4.56449800
O          14.16275600     15.02580800      3.91887900
H          14.85572000     15.43321700      3.27974800
O          15.72859800     15.81444600      5.66145700
H          16.44090900     15.52264100      6.34384700
O          11.04619300     13.42791700      5.60998900
H          10.72722100     14.26875300      5.28295400
H          11.95428600     13.61805400      5.90043400
          20
 G =       -0.398437 Gcorr = 0.085861 a.u. Nimag =   1 Frame:    14 Step:    19 Geom:    19
C          12.94986100     12.03284600      2.37957200
C          14.27277200     11.72924100      2.70215100
C          13.10444400     11.51764600      4.55559200
N          12.21552300     11.88413900      3.55550600
H          11.25180600     12.16952400      3.70176100
H          12.50507900     12.32724500      1.45505900
H          15.14765100     11.72966800      2.08366000
H          12.82009400     11.35684100      5.58299100
N          14.35410600     11.41623600      4.05298800
P          14.80416000     14.64087400      5.17976800
O          13.46479800     14.51707600      5.75019500
O          15.82075200     13.46325100      5.44167900
H          15.45853200     12.58463300      4.95562100
O          14.84531500     14.82164400      3.59363100
H          14.60937200     15.79823100      3.37934500
O          15.61545400     15.92715000      5.67646000
H          15.90152800     15.76547400      6.64858000
O          10.79372000     13.37495700      5.00120800
H          10.16735300     14.07892800      5.14076100
H          11.65769800     13.74440700      5.24347300
