 Entering Gaussian System, Link 0=g16
 Initial command:
 /data0/home/software/g16/l1.exe "/data0/home/software/g16/scratch/Gau-406225.inp" -scrdir="/data0/home/software/g16/scratch/"
 Default is to use a total of  22 processors:
                               22 via shared-memory
                                1 via Linda
 Entering Link 1 = /data0/home/software/g16/l1.exe PID=    406226.
  
 Copyright (c) 1988,1990,1992,1993,1995,1998,2003,2009,2016,
            Gaussian, Inc.  All Rights Reserved.
  
 This is part of the Gaussian(R) 16 program.  It is based on
 the Gaussian(R) 09 system (copyright 2009, Gaussian, Inc.),
 the Gaussian(R) 03 system (copyright 2003, Gaussian, Inc.),
 the Gaussian(R) 98 system (copyright 1998, Gaussian, Inc.),
 the Gaussian(R) 94 system (copyright 1995, Gaussian, Inc.),
 the Gaussian 92(TM) system (copyright 1992, Gaussian, Inc.),
 the Gaussian 90(TM) system (copyright 1990, Gaussian, Inc.),
 the Gaussian 88(TM) system (copyright 1988, Gaussian, Inc.),
 the Gaussian 86(TM) system (copyright 1986, Carnegie Mellon
 University), and the Gaussian 82(TM) system (copyright 1983,
 Carnegie Mellon University). Gaussian is a federally registered
 trademark of Gaussian, Inc.
  
 This software contains proprietary and confidential information,
 including trade secrets, belonging to Gaussian, Inc.
  
 This software is provided under written license and may be
 used, copied, transmitted, or stored only in accord with that
 written license.
  
 The following legend is applicable only to US Government
 contracts under FAR:
  
                    RESTRICTED RIGHTS LEGEND
  
 Use, reproduction and disclosure by the US Government is
 subject to restrictions as set forth in subparagraphs (a)
 and (c) of the Commercial Computer Software - Restricted
 Rights clause in FAR 52.227-19.
  
 Gaussian, Inc.
 340 Quinnipiac St., Bldg. 40, Wallingford CT 06492
  
  
 ---------------------------------------------------------------
 Warning -- This program may not be used in any manner that
 competes with the business of Gaussian, Inc. or will provide
 assistance to any competitor of Gaussian, Inc.  The licensee
 of this program is prohibited from giving any competitor of
 Gaussian, Inc. access to this program.  By using this program,
 the user acknowledges that Gaussian, Inc. is engaged in the
 business of creating and licensing software in the field of
 computational chemistry and represents and warrants to the
 licensee that it is not a competitor of Gaussian, Inc. and that
 it will not use this program in any manner prohibited above.
 ---------------------------------------------------------------
  

 Cite this work as:
 Gaussian 16, Revision A.03,
 M. J. Frisch, G. W. Trucks, H. B. Schlegel, G. E. Scuseria, 
 M. A. Robb, J. R. Cheeseman, G. Scalmani, V. Barone, 
 G. A. Petersson, H. Nakatsuji, X. Li, M. Caricato, A. V. Marenich, 
 J. Bloino, B. G. Janesko, R. Gomperts, B. Mennucci, H. P. Hratchian, 
 J. V. Ortiz, A. F. Izmaylov, J. L. Sonnenberg, D. Williams-Young, 
 F. Ding, F. Lipparini, F. Egidi, J. Goings, B. Peng, A. Petrone, 
 T. Henderson, D. Ranasinghe, V. G. Zakrzewski, J. Gao, N. Rega, 
 G. Zheng, W. Liang, M. Hada, M. Ehara, K. Toyota, R. Fukuda, 
 J. Hasegawa, M. Ishida, T. Nakajima, Y. Honda, O. Kitao, H. Nakai, 
 T. Vreven, K. Throssell, J. A. Montgomery, Jr., J. E. Peralta, 
 F. Ogliaro, M. J. Bearpark, J. J. Heyd, E. N. Brothers, K. N. Kudin, 
 V. N. Staroverov, T. A. Keith, R. Kobayashi, J. Normand, 
 K. Raghavachari, A. P. Rendell, J. C. Burant, S. S. Iyengar, 
 J. Tomasi, M. Cossi, J. M. Millam, M. Klene, C. Adamo, R. Cammi, 
 J. W. Ochterski, R. L. Martin, K. Morokuma, O. Farkas, 
 J. B. Foresman, and D. J. Fox, Gaussian, Inc., Wallingford CT, 2016.
 
 ******************************************
 Gaussian 16:  ES64L-G16RevA.03 25-Dec-2016
                20-Feb-2023 
 ******************************************
 %nproc=24
 Will use up to   24 processors via shared memory.
 %mem=50GB
 ---------------------------------------------------
 #p M062X/6-311+G(2d,p) nosymm em=GD3 counterpoise=5
 ---------------------------------------------------
 1/38=1,62=5,172=1/1;
 2/12=2,15=1,17=6,18=5,40=1/2;
 1/38=1,53=2,62=5,63=1/22;
 3/5=4,6=6,7=112,11=2,25=1,30=1,74=-55,124=31/1,2,3;
 4//1;
 5/5=2,38=5/2;
 6/7=2,8=2,9=2,10=2,28=1/1;
 1/53=2,62=5,63=1/22;
 3/5=7,6=11,7=112,11=2,25=1,30=1,74=-55,82=7,124=31/1,2,3;
 4//1;
 5/5=2,38=5/2;
 6/7=2,8=2,9=2,10=2,28=1/1;
 1/53=2,62=5,63=1/22(-4);
 99/5=1,9=1/99;
 Leave Link    1 at Mon Feb 20 10:36:25 2023, MaxMem=  6710886400 cpu:               0.7 elap:               0.0
 (Enter /data0/home/software/g16/l101.exe)
 -------------------
 Title Card Required
 -------------------
 Symbolic Z-matrix:
 Charge =  0 Multiplicity = 1 in supermolecule
 Charge =  0 Multiplicity = 1 in fragment      1.
 Charge =  0 Multiplicity = 1 in fragment      2.
 Charge =  0 Multiplicity = 1 in fragment      3.
 Charge =  0 Multiplicity = 1 in fragment      4.
 Charge =  0 Multiplicity = 1 in fragment      5.
 P                     13.29395   6.64332   10.56513    
 O                     13.72668   7.61448   11.58271    
 O                     11.81458   6.15798   10.81171    
 H                     11.70202   5.19721   10.37598    
 O                     13.32466   7.34571   9.13664    
 H                     13.60103   6.68426   8.37404    
 O                     14.13415   5.29788   10.52713    
 H                     14.85602   5.2915    9.74155    
 O                     12.63055   3.77485   7.16328    
 H                     13.35526   4.43896   7.22028    
 H                     12.00927   4.16888   6.55667    
 O                     13.97204   10.46303   10.99969    
 H                     13.86899   9.52369   11.24226    
 H                     13.07829   10.7545   10.82049    
 O                     11.64174   3.56316   9.73458    
 H                     12.40924   3.18788   10.17332    
 H                     11.92196   3.61871   8.79544    
 O                     15.20243   9.61979   8.58331    
 H                     14.61544   8.8591    8.4982     
 H                     14.82948   10.07934   9.35231    
 
 ITRead=  0  0  0  0  0  0  0  0  0  0  0  0  0  0  0  0  0  0  0  0
 MicOpt= -1 -1 -1 -1 -1 -1 -1 -1 -1 -1 -1 -1 -1 -1 -1 -1 -1 -1 -1 -1
 NAtoms=     20 NQM=       20 NQMF=       0 NMMI=      0 NMMIF=      0
                NMic=       0 NMicF=      0.
                    Isotopes and Nuclear Properties:
 (Nuclear quadrupole moments (NQMom) in fm**2, nuclear magnetic moments (NMagM)
  in nuclear magnetons)

  Atom         1           2           3           4           5           6           7           8           9          10
 IAtWgt=          31          16          16           1          16           1          16           1          16           1
 AtmWgt=  30.9737634  15.9949146  15.9949146   1.0078250  15.9949146   1.0078250  15.9949146   1.0078250  15.9949146   1.0078250
 NucSpn=           1           0           0           1           0           1           0           1           0           1
 AtZEff=  -0.0000000  -0.0000000  -0.0000000  -0.0000000  -0.0000000  -0.0000000  -0.0000000  -0.0000000  -0.0000000  -0.0000000
 NQMom=    0.0000000   0.0000000   0.0000000   0.0000000   0.0000000   0.0000000   0.0000000   0.0000000   0.0000000   0.0000000
 NMagM=    1.1316000   0.0000000   0.0000000   2.7928460   0.0000000   2.7928460   0.0000000   2.7928460   0.0000000   2.7928460
 AtZNuc=  15.0000000   8.0000000   8.0000000   1.0000000   8.0000000   1.0000000   8.0000000   1.0000000   8.0000000   1.0000000

  Atom        11          12          13          14          15          16          17          18          19          20
 IAtWgt=           1          16           1           1          16           1           1          16           1           1
 AtmWgt=   1.0078250  15.9949146   1.0078250   1.0078250  15.9949146   1.0078250   1.0078250  15.9949146   1.0078250   1.0078250
 NucSpn=           1           0           1           1           0           1           1           0           1           1
 AtZEff=  -0.0000000  -0.0000000  -0.0000000  -0.0000000  -0.0000000  -0.0000000  -0.0000000  -0.0000000  -0.0000000  -0.0000000
 NQMom=    0.0000000   0.0000000   0.0000000   0.0000000   0.0000000   0.0000000   0.0000000   0.0000000   0.0000000   0.0000000
 NMagM=    2.7928460   0.0000000   2.7928460   2.7928460   0.0000000   2.7928460   2.7928460   0.0000000   2.7928460   2.7928460
 AtZNuc=   1.0000000   8.0000000   1.0000000   1.0000000   8.0000000   1.0000000   1.0000000   8.0000000   1.0000000   1.0000000
 Leave Link  101 at Mon Feb 20 10:36:25 2023, MaxMem=  6710886400 cpu:               2.1 elap:               0.1
 (Enter /data0/home/software/g16/l202.exe)
                          Input orientation:                          
 ---------------------------------------------------------------------
 Center     Atomic      Atomic             Coordinates (Angstroms)
 Number     Number       Type             X           Y           Z
 ---------------------------------------------------------------------
      1         15           0       13.293946    6.643324   10.565128
      2          8           0       13.726683    7.614477   11.582713
      3          8           0       11.814584    6.157975   10.811709
      4          1           0       11.702019    5.197208   10.375979
      5          8           0       13.324663    7.345708    9.136645
      6          1           0       13.601026    6.684258    8.374036
      7          8           0       14.134153    5.297877   10.527126
      8          1           0       14.856018    5.291503    9.741545
      9          8           0       12.630554    3.774847    7.163280
     10          1           0       13.355265    4.438959    7.220284
     11          1           0       12.009270    4.168882    6.556673
     12          8           0       13.972038   10.463029   10.999691
     13          1           0       13.868988    9.523690   11.242255
     14          1           0       13.078289   10.754501   10.820493
     15          8           0       11.641740    3.563158    9.734581
     16          1           0       12.409237    3.187881   10.173319
     17          1           0       11.921955    3.618708    8.795440
     18          8           0       15.202429    9.619788    8.583305
     19          1           0       14.615438    8.859100    8.498200
     20          1           0       14.829477   10.079340    9.352311
 ---------------------------------------------------------------------
                    Distance matrix (angstroms):
                    1          2          3          4          5
     1  P    0.000000
     2  O    1.471692   0.000000
     3  O    1.576350   2.524276   0.000000
     4  H    2.158995   3.376190   1.060945   0.000000
     5  O    1.592121   2.493412   2.548899   2.963946   0.000000
     6  H    2.212885   3.343158   3.067670   3.134537   1.046645
     7  O    1.586701   2.578164   2.490212   2.438905   2.604289
     8  H    2.223910   3.171988   3.338614   3.218557   2.632624
     9  O    4.498980   5.956143   4.433525   3.634106   4.138479
    10  H    4.006366   5.408572   4.269315   3.642331   3.481748
    11  H    4.882721   6.331091   4.701034   3.967235   4.298690
    12  O    3.903691   2.917938   4.819070   5.768091   3.688865
    13  H    3.014247   1.944545   3.966609   4.915754   3.077903
    14  H    4.124742   3.295625   4.767083   5.742405   3.809976
    15  O    3.592634   4.916886   2.814810   1.756458   4.182994
    16  H    3.588358   4.828748   3.095579   2.139772   4.381806
    17  H    3.763304   5.195393   3.244187   2.244580   3.996816
    18  O    4.053303   3.898147   5.331738   5.918257   3.000605
    19  H    3.305782   3.442847   4.526940   5.042174   2.089035
    20  H    3.954110   3.502342   5.157182   5.887623   3.127894
                    6          7          8          9         10
     6  H    0.000000
     7  O    2.615736   0.000000
     8  H    2.320528   1.066896   0.000000
     9  O    3.297335   3.986965   3.728322   0.000000
    10  H    2.536318   3.504228   3.055462   0.984632   0.000000
    11  H    3.487637   4.642656   4.416748   0.953535   1.524803
    12  O    4.616365   5.189258   5.395279   7.826200   7.138189
    13  H    4.044856   4.294091   4.597583   7.156881   6.503434
    14  H    4.777581   5.565578   5.845408   7.892480   7.274908
    15  O    3.928250   3.138391   3.649494   2.762997   3.166210
    16  H    4.108824   2.748199   3.255517   3.074711   3.343738
    17  H    3.520576   3.272944   3.507433   1.786180   2.282171
    18  O    3.350466   4.857836   4.493948   6.541739   5.666642
    19  H    2.402995   4.126801   3.785701   5.618844   4.770613
    20  H    3.740681   4.972530   4.803706   7.026646   6.207474
                   11         12         13         14         15
    11  H    0.000000
    12  O    7.950418   0.000000
    13  H    7.354400   0.975610   0.000000
    14  H    7.917913   0.957003   1.522493   0.000000
    15  O    3.255930   7.391821   6.539240   7.413386   0.000000
    16  H    3.768616   7.486856   6.589080   7.623661   0.960404
    17  H    2.307031   7.477051   6.681815   7.507163   0.981627
    18  O    6.634446   2.839690   2.976124   3.287028   7.119460
    19  H    5.706118   3.040396   2.920395   3.368741   6.198267
    20  H    7.120581   1.896386   2.191615   2.382868   7.264188
                   16         17         18         19         20
    16  H    0.000000
    17  H    1.523682   0.000000
    18  O    7.190236   6.842476   0.000000
    19  H    6.311582   5.899569   0.964597   0.000000
    20  H    7.350090   7.106585   0.970387   1.504760   0.000000
 Symmetry turned off by external request.
 Stoichiometry    H11O8P
 Framework group  C1[X(H11O8P)]
 Deg. of freedom    54
 Full point group                 C1      NOp   1
 Rotational constants (GHZ):           1.5288414           0.5092592           0.4263109
 Leave Link  202 at Mon Feb 20 10:36:25 2023, MaxMem=  6710886400 cpu:               0.1 elap:               0.0
 (Enter /data0/home/software/g16/l122.exe)
 Counterpoise: doing full-system calculation.
 Leave Link  122 at Mon Feb 20 10:36:25 2023, MaxMem=  6710886400 cpu:               0.0 elap:               0.0
 (Enter /data0/home/software/g16/l301.exe)
 Standard basis: 6-311+G(2d,p) (5D, 7F)
 Ernie: Thresh=  0.10000D-02 Tol=  0.10000D-05 Strict=F.
   317 basis functions,   480 primitive gaussians,   335 cartesian basis functions
    45 alpha electrons       45 beta electrons
       nuclear repulsion energy       653.5328384721 Hartrees.
 IExCor= 4336 DFT=T Ex+Corr=M062X ExCW=0 ScaHFX=  0.540000
 ScaDFX=  1.000000  1.000000  1.000000  1.000000 ScalE2=  1.000000  1.000000
 IRadAn=      5 IRanWt=     -1 IRanGd=            0 ICorTp=0 IEmpDi=131
 NAtoms=   20 NActive=   20 NUniq=   20 SFac= 1.00D+00 NAtFMM=   60 NAOKFM=F Big=F
 Integral buffers will be    131072 words long.
 Raffenetti 2 integral format.
 Two-electron integral symmetry is turned off.
 R6Disp:  Grimme-D3 Dispersion energy=       -0.0007363989 Hartrees.
 Nuclear repulsion after empirical dispersion term =      653.5321020732 Hartrees.
 Leave Link  301 at Mon Feb 20 10:36:25 2023, MaxMem=  6710886400 cpu:               1.1 elap:               0.1
 (Enter /data0/home/software/g16/l302.exe)
 NPDir=0 NMtPBC=     1 NCelOv=     1 NCel=       1 NClECP=     1 NCelD=      1
         NCelK=      1 NCelE2=     1 NClLst=     1 CellRange=     0.0.
 One-electron integrals computed using PRISM.
 NBasis=   317 RedAO= T EigKep=  3.04D-04  NBF=   317
 NBsUse=   317 1.00D-06 EigRej= -1.00D+00 NBFU=   317
 Precomputing XC quadrature grid using
 IXCGrd= 4 IRadAn=           5 IRanWt=          -1 IRanGd=           0 AccXCQ= 0.00D+00.
 Generated NRdTot=       0 NPtTot=           0 NUsed=           0 NTot=          32
 NSgBfM=   334   334   334   334   334 MxSgAt=    20 MxSgA2=    20.
 Leave Link  302 at Mon Feb 20 10:36:25 2023, MaxMem=  6710886400 cpu:               5.1 elap:               0.2
 (Enter /data0/home/software/g16/l303.exe)
 DipDrv:  MaxL=1.
 Leave Link  303 at Mon Feb 20 10:36:25 2023, MaxMem=  6710886400 cpu:               0.7 elap:               0.0
 (Enter /data0/home/software/g16/l401.exe)
 ExpMin= 3.48D-02 ExpMax= 7.75D+04 ExpMxC= 2.65D+03 IAcc=3 IRadAn=         5 AccDes= 0.00D+00
 Harris functional with IExCor= 1009 and IRadAn=       5 diagonalized for initial guess.
 HarFok:  IExCor= 1009 AccDes= 0.00D+00 IRadAn=         5 IDoV= 1 UseB2=F ITyADJ=14
 ICtDFT=  3500011 ScaDFX=  1.000000  1.000000  1.000000  1.000000
 FoFCou: FMM=F IPFlag=           0 FMFlag=      100000 FMFlg1=           0
         NFxFlg=           0 DoJE=T BraDBF=F KetDBF=T FulRan=T
         wScrn=  0.000000 ICntrl=       500 IOpCl=  0 I1Cent=   200000004 NGrid=           0
         NMat0=    1 NMatS0=      1 NMatT0=    0 NMatD0=    1 NMtDS0=    0 NMtDT0=    0
 Symmetry not used in FoFCou.
 Harris En= -949.613732195054    
 JPrj=0 DoOrth=F DoCkMO=F.
 Leave Link  401 at Mon Feb 20 10:36:26 2023, MaxMem=  6710886400 cpu:              16.1 elap:               0.7
 (Enter /data0/home/software/g16/l502.exe)
 Two-electron integral symmetry not used.
 Closed shell SCF:
 Using DIIS extrapolation, IDIIS=  1040.
 NGot=  6710886400 LenX=  6710651443 LenY=  6710538777
 Requested convergence on RMS density matrix=1.00D-08 within 128 cycles.
 Requested convergence on MAX density matrix=1.00D-06.
 Requested convergence on             energy=1.00D-06.
 No special actions if energy rises.
 Fock matrices will be formed incrementally for  20 cycles.

 Cycle   1  Pass 1  IDiag  1:
 FoFJK:  IHMeth= 1 ICntrl=       0 DoSepK=F KAlg= 0 I1Cent=           0 FoldK=F
 IRaf= 850000000 NMat=       1 IRICut=       1 DoRegI=T DoRafI=F ISym2E= 0 IDoP0=0 IntGTp=1.
 FoFCou: FMM=F IPFlag=           0 FMFlag=      100000 FMFlg1=           0
         NFxFlg=           0 DoJE=F BraDBF=F KetDBF=F FulRan=T
         wScrn=  0.000000 ICntrl=         0 IOpCl=  0 I1Cent=           0 NGrid=           0
         NMat0=    1 NMatS0=      1 NMatT0=    0 NMatD0=    1 NMtDS0=    0 NMtDT0=    0
 Symmetry not used in FoFCou.
 E= -949.314715433709    
 DIIS: error= 3.70D-02 at cycle   1 NSaved=   1.
 NSaved= 1 IEnMin= 1 EnMin= -949.314715433709     IErMin= 1 ErrMin= 3.70D-02
 ErrMax= 3.70D-02  0.00D+00 EMaxC= 1.00D-01 BMatC= 9.37D-01 BMatP= 9.37D-01
 IDIUse=3 WtCom= 6.30D-01 WtEn= 3.70D-01
 Coeff-Com:  0.100D+01
 Coeff-En:   0.100D+01
 Coeff:      0.100D+01
 Gap=     0.206 Goal=   None    Shift=    0.000
 GapD=    0.206 DampG=1.000 DampE=0.500 DampFc=0.5000 IDamp=-1.
 Damping current iteration by 5.00D-01
 RMSDP=6.64D-03 MaxDP=3.00D-01              OVMax= 2.42D-01

 Cycle   2  Pass 1  IDiag  1:
 RMSU=  3.32D-03    CP:  1.02D+00
 E= -949.546048280467     Delta-E=       -0.231332846758 Rises=F Damp=T
 DIIS: error= 8.96D-03 at cycle   2 NSaved=   2.
 NSaved= 2 IEnMin= 2 EnMin= -949.546048280467     IErMin= 2 ErrMin= 8.96D-03
 ErrMax= 8.96D-03  0.00D+00 EMaxC= 1.00D-01 BMatC= 4.25D-02 BMatP= 9.37D-01
 IDIUse=3 WtCom= 9.10D-01 WtEn= 8.96D-02
 Coeff-Com:  0.610D-01 0.939D+00
 Coeff-En:   0.174D+00 0.826D+00
 Coeff:      0.711D-01 0.929D+00
 Gap=     0.276 Goal=   None    Shift=    0.000
 RMSDP=1.37D-03 MaxDP=7.59D-02 DE=-2.31D-01 OVMax= 1.57D-01

 Cycle   3  Pass 1  IDiag  1:
 RMSU=  9.87D-04    CP:  1.00D+00  7.16D-01
 E= -949.857096689037     Delta-E=       -0.311048408570 Rises=F Damp=F
 DIIS: error= 3.98D-03 at cycle   3 NSaved=   3.
 NSaved= 3 IEnMin= 3 EnMin= -949.857096689037     IErMin= 3 ErrMin= 3.98D-03
 ErrMax= 3.98D-03  0.00D+00 EMaxC= 1.00D-01 BMatC= 1.15D-02 BMatP= 4.25D-02
 IDIUse=3 WtCom= 9.60D-01 WtEn= 3.98D-02
 Coeff-Com: -0.192D-01 0.278D+00 0.741D+00
 Coeff-En:   0.000D+00 0.000D+00 0.100D+01
 Coeff:     -0.184D-01 0.267D+00 0.752D+00
 Gap=     0.279 Goal=   None    Shift=    0.000
 RMSDP=4.21D-04 MaxDP=1.94D-02 DE=-3.11D-01 OVMax= 3.98D-02

 Cycle   4  Pass 1  IDiag  1:
 RMSU=  3.92D-04    CP:  1.01D+00  7.44D-01  8.75D-01
 E= -949.861070883171     Delta-E=       -0.003974194134 Rises=F Damp=F
 DIIS: error= 2.77D-03 at cycle   4 NSaved=   4.
 NSaved= 4 IEnMin= 4 EnMin= -949.861070883171     IErMin= 4 ErrMin= 2.77D-03
 ErrMax= 2.77D-03  0.00D+00 EMaxC= 1.00D-01 BMatC= 6.24D-03 BMatP= 1.15D-02
 IDIUse=3 WtCom= 9.72D-01 WtEn= 2.77D-02
 Coeff-Com: -0.208D-01 0.402D-01 0.448D+00 0.532D+00
 Coeff-En:   0.000D+00 0.000D+00 0.349D+00 0.651D+00
 Coeff:     -0.202D-01 0.391D-01 0.446D+00 0.535D+00
 Gap=     0.279 Goal=   None    Shift=    0.000
 RMSDP=1.90D-04 MaxDP=9.17D-03 DE=-3.97D-03 OVMax= 1.57D-02

 Cycle   5  Pass 1  IDiag  1:
 RMSU=  5.79D-05    CP:  1.00D+00  7.40D-01  9.64D-01  5.98D-01
 E= -949.865237249466     Delta-E=       -0.004166366295 Rises=F Damp=F
 DIIS: error= 2.09D-04 at cycle   5 NSaved=   5.
 NSaved= 5 IEnMin= 5 EnMin= -949.865237249466     IErMin= 5 ErrMin= 2.09D-04
 ErrMax= 2.09D-04  0.00D+00 EMaxC= 1.00D-01 BMatC= 2.11D-05 BMatP= 6.24D-03
 IDIUse=3 WtCom= 9.98D-01 WtEn= 2.09D-03
 Coeff-Com: -0.283D-02 0.123D-02 0.702D-01 0.109D+00 0.822D+00
 Coeff-En:   0.000D+00 0.000D+00 0.000D+00 0.000D+00 0.100D+01
 Coeff:     -0.282D-02 0.123D-02 0.700D-01 0.109D+00 0.823D+00
 Gap=     0.281 Goal=   None    Shift=    0.000
 RMSDP=2.05D-05 MaxDP=7.13D-04 DE=-4.17D-03 OVMax= 8.21D-04

 Cycle   6  Pass 1  IDiag  1:
 RMSU=  1.61D-05    CP:  1.00D+00  7.37D-01  9.65D-01  6.18D-01  1.08D+00
 E= -949.865251160598     Delta-E=       -0.000013911132 Rises=F Damp=F
 DIIS: error= 6.25D-05 at cycle   6 NSaved=   6.
 NSaved= 6 IEnMin= 6 EnMin= -949.865251160598     IErMin= 6 ErrMin= 6.25D-05
 ErrMax= 6.25D-05  0.00D+00 EMaxC= 1.00D-01 BMatC= 3.46D-06 BMatP= 2.11D-05
 IDIUse=1 WtCom= 1.00D+00 WtEn= 0.00D+00
 Coeff-Com:  0.120D-03-0.157D-02-0.352D-03 0.826D-02 0.288D+00 0.705D+00
 Coeff:      0.120D-03-0.157D-02-0.352D-03 0.826D-02 0.288D+00 0.705D+00
 Gap=     0.280 Goal=   None    Shift=    0.000
 RMSDP=9.56D-06 MaxDP=4.32D-04 DE=-1.39D-05 OVMax= 3.19D-04

 Cycle   7  Pass 1  IDiag  1:
 RMSU=  4.78D-06    CP:  1.00D+00  7.36D-01  9.66D-01  6.23D-01  1.15D+00
                    CP:  8.21D-01
 E= -949.865253616707     Delta-E=       -0.000002456110 Rises=F Damp=F
 DIIS: error= 4.09D-05 at cycle   7 NSaved=   7.
 NSaved= 7 IEnMin= 7 EnMin= -949.865253616707     IErMin= 7 ErrMin= 4.09D-05
 ErrMax= 4.09D-05  0.00D+00 EMaxC= 1.00D-01 BMatC= 6.01D-07 BMatP= 3.46D-06
 IDIUse=1 WtCom= 1.00D+00 WtEn= 0.00D+00
 Coeff-Com:  0.453D-03-0.747D-03-0.116D-01-0.142D-01-0.112D-01 0.291D+00
 Coeff-Com:  0.746D+00
 Coeff:      0.453D-03-0.747D-03-0.116D-01-0.142D-01-0.112D-01 0.291D+00
 Coeff:      0.746D+00
 Gap=     0.281 Goal=   None    Shift=    0.000
 RMSDP=3.45D-06 MaxDP=1.36D-04 DE=-2.46D-06 OVMax= 1.34D-04

 Cycle   8  Pass 1  IDiag  1:
 RMSU=  2.10D-06    CP:  1.00D+00  7.35D-01  9.66D-01  6.24D-01  1.18D+00
                    CP:  9.18D-01  8.57D-01
 E= -949.865254040916     Delta-E=       -0.000000424209 Rises=F Damp=F
 DIIS: error= 8.38D-06 at cycle   8 NSaved=   8.
 NSaved= 8 IEnMin= 8 EnMin= -949.865254040916     IErMin= 8 ErrMin= 8.38D-06
 ErrMax= 8.38D-06  0.00D+00 EMaxC= 1.00D-01 BMatC= 5.34D-08 BMatP= 6.01D-07
 IDIUse=1 WtCom= 1.00D+00 WtEn= 0.00D+00
 Coeff-Com:  0.168D-03-0.206D-03-0.483D-02-0.621D-02-0.175D-01 0.799D-01
 Coeff-Com:  0.314D+00 0.635D+00
 Coeff:      0.168D-03-0.206D-03-0.483D-02-0.621D-02-0.175D-01 0.799D-01
 Coeff:      0.314D+00 0.635D+00
 Gap=     0.281 Goal=   None    Shift=    0.000
 RMSDP=7.70D-07 MaxDP=3.41D-05 DE=-4.24D-07 OVMax= 4.26D-05

 Cycle   9  Pass 1  IDiag  1:
 RMSU=  5.11D-07    CP:  1.00D+00  7.35D-01  9.66D-01  6.25D-01  1.18D+00
                    CP:  9.35D-01  9.40D-01  8.78D-01
 E= -949.865254082412     Delta-E=       -0.000000041496 Rises=F Damp=F
 DIIS: error= 2.18D-06 at cycle   9 NSaved=   9.
 NSaved= 9 IEnMin= 9 EnMin= -949.865254082412     IErMin= 9 ErrMin= 2.18D-06
 ErrMax= 2.18D-06  0.00D+00 EMaxC= 1.00D-01 BMatC= 2.84D-09 BMatP= 5.34D-08
 IDIUse=1 WtCom= 1.00D+00 WtEn= 0.00D+00
 Coeff-Com: -0.185D-04 0.419D-04 0.110D-03 0.116D-03-0.273D-02-0.128D-01
 Coeff-Com: -0.873D-02 0.141D+00 0.883D+00
 Coeff:     -0.185D-04 0.419D-04 0.110D-03 0.116D-03-0.273D-02-0.128D-01
 Coeff:     -0.873D-02 0.141D+00 0.883D+00
 Gap=     0.281 Goal=   None    Shift=    0.000
 RMSDP=2.76D-07 MaxDP=7.77D-06 DE=-4.15D-08 OVMax= 1.22D-05

 Cycle  10  Pass 1  IDiag  1:
 RMSU=  1.69D-07    CP:  1.00D+00  7.35D-01  9.66D-01  6.25D-01  1.18D+00
                    CP:  9.37D-01  9.53D-01  9.62D-01  9.97D-01
 E= -949.865254084928     Delta-E=       -0.000000002516 Rises=F Damp=F
 DIIS: error= 1.28D-06 at cycle  10 NSaved=  10.
 NSaved=10 IEnMin=10 EnMin= -949.865254084928     IErMin=10 ErrMin= 1.28D-06
 ErrMax= 1.28D-06  0.00D+00 EMaxC= 1.00D-01 BMatC= 9.43D-10 BMatP= 2.84D-09
 IDIUse=1 WtCom= 1.00D+00 WtEn= 0.00D+00
 Coeff-Com: -0.265D-04 0.435D-04 0.541D-03 0.667D-03-0.974D-04-0.154D-01
 Coeff-Com: -0.372D-01 0.696D-02 0.453D+00 0.591D+00
 Coeff:     -0.265D-04 0.435D-04 0.541D-03 0.667D-03-0.974D-04-0.154D-01
 Coeff:     -0.372D-01 0.696D-02 0.453D+00 0.591D+00
 Gap=     0.281 Goal=   None    Shift=    0.000
 RMSDP=9.96D-08 MaxDP=4.27D-06 DE=-2.52D-09 OVMax= 4.20D-06

 Cycle  11  Pass 1  IDiag  1:
 RMSU=  5.07D-08    CP:  1.00D+00  7.35D-01  9.66D-01  6.25D-01  1.18D+00
                    CP:  9.37D-01  9.56D-01  9.80D-01  1.12D+00  8.83D-01
 E= -949.865254085598     Delta-E=       -0.000000000670 Rises=F Damp=F
 DIIS: error= 1.55D-07 at cycle  11 NSaved=  11.
 NSaved=11 IEnMin=11 EnMin= -949.865254085598     IErMin=11 ErrMin= 1.55D-07
 ErrMax= 1.55D-07  0.00D+00 EMaxC= 1.00D-01 BMatC= 1.72D-11 BMatP= 9.43D-10
 IDIUse=1 WtCom= 1.00D+00 WtEn= 0.00D+00
 Coeff-Com:  0.116D-05-0.207D-05 0.319D-04 0.351D-04 0.305D-03-0.117D-03
 Coeff-Com: -0.318D-02-0.131D-01-0.441D-01 0.534D-01 0.101D+01
 Coeff:      0.116D-05-0.207D-05 0.319D-04 0.351D-04 0.305D-03-0.117D-03
 Coeff:     -0.318D-02-0.131D-01-0.441D-01 0.534D-01 0.101D+01
 Gap=     0.281 Goal=   None    Shift=    0.000
 RMSDP=2.76D-08 MaxDP=8.63D-07 DE=-6.70D-10 OVMax= 1.77D-06

 Cycle  12  Pass 1  IDiag  1:
 RMSU=  1.54D-08    CP:  1.00D+00  7.35D-01  9.66D-01  6.25D-01  1.18D+00
                    CP:  9.38D-01  9.56D-01  9.84D-01  1.14D+00  9.84D-01
                    CP:  1.06D+00
 E= -949.865254085650     Delta-E=       -0.000000000052 Rises=F Damp=F
 DIIS: error= 5.97D-08 at cycle  12 NSaved=  12.
 NSaved=12 IEnMin=12 EnMin= -949.865254085650     IErMin=12 ErrMin= 5.97D-08
 ErrMax= 5.97D-08  0.00D+00 EMaxC= 1.00D-01 BMatC= 1.38D-12 BMatP= 1.72D-11
 IDIUse=1 WtCom= 1.00D+00 WtEn= 0.00D+00
 Coeff-Com:  0.121D-05-0.208D-05-0.636D-05-0.946D-05 0.922D-04 0.468D-03
 Coeff-Com:  0.357D-03-0.376D-02-0.279D-01-0.825D-02 0.288D+00 0.751D+00
 Coeff:      0.121D-05-0.208D-05-0.636D-05-0.946D-05 0.922D-04 0.468D-03
 Coeff:      0.357D-03-0.376D-02-0.279D-01-0.825D-02 0.288D+00 0.751D+00
 Gap=     0.281 Goal=   None    Shift=    0.000
 RMSDP=5.91D-09 MaxDP=1.56D-07 DE=-5.16D-11 OVMax= 2.53D-07

 SCF Done:  E(RM062X) =  -949.865254086     A.U. after   12 cycles
            NFock= 12  Conv=0.59D-08     -V/T= 2.0026
 KE= 9.473611916406D+02 PE=-3.556769771027D+03 EE= 1.006011223228D+03
 Leave Link  502 at Mon Feb 20 10:36:47 2023, MaxMem=  6710886400 cpu:             501.5 elap:              21.0
 (Enter /data0/home/software/g16/l601.exe)
 Copying SCF densities to generalized density rwf, IOpCl= 0 IROHF=0.

 **********************************************************************

            Population analysis using the SCF density.

 **********************************************************************

 Alpha  occ. eigenvalues --  -78.18543 -19.71951 -19.71677 -19.71150 -19.66766
 Alpha  occ. eigenvalues --  -19.66504 -19.60424 -19.59444 -19.57799  -6.99290
 Alpha  occ. eigenvalues --   -5.11277  -5.11155  -5.10933  -1.26262  -1.22003
 Alpha  occ. eigenvalues --   -1.19877  -1.17645  -1.16452  -1.11736  -1.09827
 Alpha  occ. eigenvalues --   -1.08795  -0.74384  -0.69286  -0.68949  -0.65193
 Alpha  occ. eigenvalues --   -0.64352  -0.60898  -0.59140  -0.57298  -0.56738
 Alpha  occ. eigenvalues --   -0.56114  -0.52391  -0.51302  -0.50663  -0.49871
 Alpha  occ. eigenvalues --   -0.47786  -0.46938  -0.46016  -0.45414  -0.43995
 Alpha  occ. eigenvalues --   -0.43525  -0.39169  -0.38716  -0.37694  -0.35771
 Alpha virt. eigenvalues --   -0.07701  -0.00247   0.01119   0.02288   0.04657
 Alpha virt. eigenvalues --    0.05996   0.06231   0.07939   0.08979   0.10279
 Alpha virt. eigenvalues --    0.11618   0.12250   0.13167   0.13503   0.13992
 Alpha virt. eigenvalues --    0.15219   0.15678   0.16429   0.16524   0.17214
 Alpha virt. eigenvalues --    0.17518   0.18119   0.19148   0.19657   0.20166
 Alpha virt. eigenvalues --    0.20843   0.21984   0.22159   0.23138   0.24363
 Alpha virt. eigenvalues --    0.24546   0.25133   0.25332   0.26807   0.27108
 Alpha virt. eigenvalues --    0.27705   0.28841   0.28917   0.29657   0.30648
 Alpha virt. eigenvalues --    0.31432   0.32887   0.33167   0.33295   0.35149
 Alpha virt. eigenvalues --    0.36385   0.36674   0.38399   0.39907   0.42108
 Alpha virt. eigenvalues --    0.44069   0.45030   0.45450   0.46114   0.47634
 Alpha virt. eigenvalues --    0.48523   0.49291   0.52549   0.54526   0.55513
 Alpha virt. eigenvalues --    0.58400   0.59435   0.60350   0.62725   0.63879
 Alpha virt. eigenvalues --    0.67770   0.68737   0.74658   0.75261   0.78204
 Alpha virt. eigenvalues --    0.85853   0.91455   0.94476   0.96429   0.98789
 Alpha virt. eigenvalues --    1.01204   1.01525   1.02461   1.03273   1.04820
 Alpha virt. eigenvalues --    1.05622   1.06787   1.07592   1.08727   1.09708
 Alpha virt. eigenvalues --    1.10578   1.10763   1.11220   1.13227   1.13878
 Alpha virt. eigenvalues --    1.15267   1.16001   1.17574   1.18496   1.19433
 Alpha virt. eigenvalues --    1.20804   1.21100   1.22418   1.22765   1.24279
 Alpha virt. eigenvalues --    1.24684   1.25798   1.26297   1.28873   1.29752
 Alpha virt. eigenvalues --    1.30605   1.32030   1.33557   1.34152   1.36170
 Alpha virt. eigenvalues --    1.37651   1.39700   1.40326   1.41371   1.45352
 Alpha virt. eigenvalues --    1.47089   1.48609   1.49219   1.53962   1.55587
 Alpha virt. eigenvalues --    1.56264   1.58478   1.59376   1.61026   1.62197
 Alpha virt. eigenvalues --    1.62447   1.65047   1.67804   1.69595   1.70003
 Alpha virt. eigenvalues --    1.73366   1.74195   1.74669   1.75413   1.76946
 Alpha virt. eigenvalues --    1.77456   1.80025   1.80734   1.83100   1.86116
 Alpha virt. eigenvalues --    1.90708   1.92660   1.93222   1.95668   1.97168
 Alpha virt. eigenvalues --    2.01507   2.02852   2.03960   2.04358   2.06577
 Alpha virt. eigenvalues --    2.07836   2.08660   2.09252   2.12539   2.13774
 Alpha virt. eigenvalues --    2.17002   2.18683   2.20032   2.22314   2.23115
 Alpha virt. eigenvalues --    2.26092   2.27603   2.28975   2.33398   2.37978
 Alpha virt. eigenvalues --    2.41854   2.42714   2.44627   2.46986   2.48840
 Alpha virt. eigenvalues --    2.51405   2.54228   2.55741   2.58043   2.59342
 Alpha virt. eigenvalues --    2.60410   2.62745   2.63958   2.65704   2.66416
 Alpha virt. eigenvalues --    2.68474   2.69436   2.76601   2.82199   2.82532
 Alpha virt. eigenvalues --    2.86763   2.90302   2.93892   2.94485   2.97150
 Alpha virt. eigenvalues --    2.98738   3.00540   3.09463   3.15432   3.19414
 Alpha virt. eigenvalues --    5.01371   5.04205   5.06675   5.07415   5.10908
 Alpha virt. eigenvalues --    5.12071   5.12731   5.13465   5.16674   5.18542
 Alpha virt. eigenvalues --    5.23120   5.25183   5.36672   5.41769   5.44583
 Alpha virt. eigenvalues --    5.47864   5.51737   5.56327   5.57176   5.57388
 Alpha virt. eigenvalues --    5.83620   5.89974   5.98147   5.99196   6.69513
 Alpha virt. eigenvalues --    6.72042   6.72909   6.73512   6.74224   6.76123
 Alpha virt. eigenvalues --    6.76963   6.78525   6.79569   6.80655   6.81719
 Alpha virt. eigenvalues --    6.82025   6.83423   6.83689   6.84381   6.85318
 Alpha virt. eigenvalues --    6.86092   6.88175   6.89594   6.90642   6.91178
 Alpha virt. eigenvalues --    6.92284   6.93969   6.95045   6.96816   6.97239
 Alpha virt. eigenvalues --    7.00175   7.01766   7.01823   7.03865   7.04882
 Alpha virt. eigenvalues --    7.08637   7.15200   7.16659   7.20669   7.23975
 Alpha virt. eigenvalues --    7.28646   7.29165   7.32135   7.40981   7.62889
 Alpha virt. eigenvalues --   14.21604  14.24968  14.34633  49.91282  49.96489
 Alpha virt. eigenvalues --   49.98243  49.99762  50.02527  50.05035  50.05609
 Alpha virt. eigenvalues --   50.09918 163.86382
          Condensed to atoms (all electrons):
               1          2          3          4          5          6
     1  P   12.746915   0.463466   0.190310   0.043586   0.176645   0.033505
     2  O    0.463466   8.344227  -0.078982  -0.002287  -0.115595   0.014364
     3  O    0.190310  -0.078982   8.221481   0.180976   0.012275  -0.015410
     4  H    0.043586  -0.002287   0.180976   0.381805   0.009927   0.003404
     5  O    0.176645  -0.115595   0.012275   0.009927   8.182489   0.188391
     6  H    0.033505   0.014364  -0.015410   0.003404   0.188391   0.540611
     7  O    0.198842  -0.028870  -0.021694  -0.019010   0.052058  -0.022724
     8  H    0.001139  -0.008275   0.006138   0.000937  -0.011622  -0.004616
     9  O    0.023055   0.001081  -0.002180  -0.002546  -0.019271   0.018506
    10  H   -0.004394  -0.000355  -0.000590   0.000526   0.003526  -0.001097
    11  H   -0.002540  -0.000084   0.000136   0.000009   0.002121  -0.001980
    12  O   -0.025254   0.002438  -0.003164   0.000067   0.004517   0.001158
    13  H    0.018948   0.032933   0.001730  -0.000259   0.000655  -0.000815
    14  H    0.006742  -0.003721   0.000068  -0.000011  -0.001471  -0.000058
    15  O    0.026244   0.010189   0.062771  -0.074669  -0.029941  -0.000557
    16  H   -0.004181  -0.001507  -0.013141   0.017176   0.002924  -0.000004
    17  H   -0.007413  -0.001489  -0.018275   0.022280   0.008664  -0.002970
    18  O   -0.008502   0.005124  -0.000162   0.000083   0.011481  -0.002070
    19  H   -0.007114   0.003027   0.000067  -0.000046   0.007530   0.005931
    20  H   -0.000151  -0.000365   0.000344  -0.000004   0.005794  -0.000111
               7          8          9         10         11         12
     1  P    0.198842   0.001139   0.023055  -0.004394  -0.002540  -0.025254
     2  O   -0.028870  -0.008275   0.001081  -0.000355  -0.000084   0.002438
     3  O   -0.021694   0.006138  -0.002180  -0.000590   0.000136  -0.003164
     4  H   -0.019010   0.000937  -0.002546   0.000526   0.000009   0.000067
     5  O    0.052058  -0.011622  -0.019271   0.003526   0.002121   0.004517
     6  H   -0.022724  -0.004616   0.018506  -0.001097  -0.001980   0.001158
     7  O    8.133927   0.257458  -0.011867   0.006071   0.001270  -0.000640
     8  H    0.257458   0.436692   0.000170  -0.000592   0.000032   0.000088
     9  O   -0.011867   0.000170   8.026686   0.292716   0.312691  -0.000003
    10  H    0.006071  -0.000592   0.292716   0.433133  -0.015857  -0.000001
    11  H    0.001270   0.000032   0.312691  -0.015857   0.386540   0.000000
    12  O   -0.000640   0.000088  -0.000003  -0.000001   0.000000   8.143858
    13  H    0.000965   0.000097   0.000002  -0.000000  -0.000000   0.254104
    14  H    0.000101  -0.000007   0.000000   0.000000  -0.000000   0.292499
    15  O   -0.019537  -0.001709   0.038647  -0.005249  -0.004627  -0.000025
    16  H    0.007279  -0.000389  -0.003749   0.000268   0.000928   0.000001
    17  H    0.015536  -0.000248  -0.082168   0.008116   0.010100   0.000001
    18  O   -0.000885  -0.000384  -0.000006  -0.000002   0.000000   0.020856
    19  H   -0.000755  -0.000030   0.000081  -0.000006  -0.000003   0.006283
    20  H   -0.000207  -0.000033   0.000000   0.000000  -0.000000  -0.036509
              13         14         15         16         17         18
     1  P    0.018948   0.006742   0.026244  -0.004181  -0.007413  -0.008502
     2  O    0.032933  -0.003721   0.010189  -0.001507  -0.001489   0.005124
     3  O    0.001730   0.000068   0.062771  -0.013141  -0.018275  -0.000162
     4  H   -0.000259  -0.000011  -0.074669   0.017176   0.022280   0.000083
     5  O    0.000655  -0.001471  -0.029941   0.002924   0.008664   0.011481
     6  H   -0.000815  -0.000058  -0.000557  -0.000004  -0.002970  -0.002070
     7  O    0.000965   0.000101  -0.019537   0.007279   0.015536  -0.000885
     8  H    0.000097  -0.000007  -0.001709  -0.000389  -0.000248  -0.000384
     9  O    0.000002   0.000000   0.038647  -0.003749  -0.082168  -0.000006
    10  H   -0.000000   0.000000  -0.005249   0.000268   0.008116  -0.000002
    11  H   -0.000000  -0.000000  -0.004627   0.000928   0.010100   0.000000
    12  O    0.254104   0.292499  -0.000025   0.000001   0.000001   0.020856
    13  H    0.352813  -0.011159   0.000057  -0.000003  -0.000004  -0.008129
    14  H   -0.011159   0.441992   0.000001  -0.000000   0.000000  -0.006951
    15  O    0.000057   0.000001   8.119423   0.289928   0.240452  -0.000027
    16  H   -0.000003  -0.000000   0.289928   0.413728   0.001011  -0.000000
    17  H   -0.000004   0.000000   0.240452   0.001011   0.388349   0.000005
    18  O   -0.008129  -0.006951  -0.000027  -0.000000   0.000005   8.021063
    19  H   -0.001987  -0.000939  -0.000012   0.000001  -0.000008   0.303629
    20  H    0.008862   0.003702   0.000004  -0.000000  -0.000000   0.324735
              19         20
     1  P   -0.007114  -0.000151
     2  O    0.003027  -0.000365
     3  O    0.000067   0.000344
     4  H   -0.000046  -0.000004
     5  O    0.007530   0.005794
     6  H    0.005931  -0.000111
     7  O   -0.000755  -0.000207
     8  H   -0.000030  -0.000033
     9  O    0.000081   0.000000
    10  H   -0.000006   0.000000
    11  H   -0.000003  -0.000000
    12  O    0.006283  -0.036509
    13  H   -0.001987   0.008862
    14  H   -0.000939   0.003702
    15  O   -0.000012   0.000004
    16  H    0.000001  -0.000000
    17  H   -0.000008  -0.000000
    18  O    0.303629   0.324735
    19  H    0.427441  -0.037125
    20  H   -0.037125   0.338467
 Mulliken charges:
               1
     1  P    1.130151
     2  O   -0.635318
     3  O   -0.522699
     4  H    0.438057
     5  O   -0.491100
     6  H    0.246542
     7  O   -0.547318
     8  H    0.325151
     9  O   -0.591844
    10  H    0.283788
    11  H    0.311265
    12  O   -0.660275
    13  H    0.351189
    14  H    0.279211
    15  O   -0.651364
    16  H    0.289730
    17  H    0.418060
    18  O   -0.659858
    19  H    0.294035
    20  H    0.392597
 Sum of Mulliken charges =  -0.00000
 Mulliken charges with hydrogens summed into heavy atoms:
               1
     1  P    1.130151
     2  O   -0.635318
     3  O   -0.084642
     5  O   -0.244557
     7  O   -0.222168
     9  O    0.003209
    12  O   -0.029875
    15  O    0.056426
    18  O    0.026774
         Mulliken charges condensed to fragments:
      1     -0.056534
      2      0.003209
      3     -0.029875
      4      0.056426
      5      0.026774
 Electronic spatial extent (au):  <R**2>=         105346.1127
 Charge=             -0.0000 electrons
 Dipole moment (field-independent basis, Debye):
    X=             -1.7036    Y=             -7.3045    Z=             -6.1857  Tot=              9.7222
 Quadrupole moment (field-independent basis, Debye-Ang):
   XX=           -116.6111   YY=           -173.7575   ZZ=           -182.7760
   XY=           -127.7972   XZ=            -95.1430   YZ=           -107.1959
 Traceless Quadrupole moment (field-independent basis, Debye-Ang):
   XX=             41.1038   YY=            -16.0426   ZZ=            -25.0612
   XY=           -127.7972   XZ=            -95.1430   YZ=           -107.1959
 Octapole moment (field-independent basis, Debye-Ang**2):
  XXX=          -3756.9009  YYY=          -2545.0001  ZZZ=          -3658.7564  XYY=          -2685.0247
  XXY=          -2608.5909  XXZ=          -2146.4319  XZZ=          -2544.7618  YZZ=          -1850.2826
  YYZ=          -1893.9586  XYZ=          -1700.8029
 Hexadecapole moment (field-independent basis, Debye-Ang**3):
 XXXX=         -92648.1837 YYYY=         -32217.8768 ZZZZ=         -61997.4429 XXXY=         -53886.2546
 XXXZ=         -49747.4392 YYYX=         -38284.0751 YYYZ=         -26071.8752 ZZZX=         -49853.1986
 ZZZY=         -30967.1262 XXYY=         -44681.3478 XXZZ=         -42609.8187 YYZZ=         -24207.6186
 XXYZ=         -31266.8156 YYXZ=         -28667.9434 ZZXY=         -27327.5758
 N-N= 6.535321020732D+02 E-N=-3.556769775911D+03  KE= 9.473611916406D+02
 No NMR shielding tensors so no spin-rotation constants.
 Leave Link  601 at Mon Feb 20 10:36:47 2023, MaxMem=  6710886400 cpu:               2.5 elap:               0.1
 (Enter /data0/home/software/g16/l122.exe)
 CPIOFr:  IOpCl= 0 IRwI=-1 IRwCP=  731 ICalc= -1 LCPTot=      156386 Len1MO=      408861 IndFrg=      156386
 CPIOFr:  IOpCl= 0 IRwI=-1 IRwCP=  731 ICalc=  0 LCPTot=      156386 Len1MO=      408861 IndFrg=      565247
 Counterpoise: doing calculation for fragment   1 using the basis set of the full-system, NewBq=T
 Leave Link  122 at Mon Feb 20 10:36:47 2023, MaxMem=  6710886400 cpu:               0.2 elap:               0.0
 (Enter /data0/home/software/g16/l301.exe)
 Basis read from rwf:  (5D, 7F)
 No pseudopotential information found on rwf file.
   317 basis functions,   480 primitive gaussians,   335 cartesian basis functions
    25 alpha electrons       25 beta electrons
       nuclear repulsion energy       279.6556099662 Hartrees.
 IExCor= 4336 DFT=T Ex+Corr=M062X ExCW=0 ScaHFX=  0.540000
 ScaDFX=  1.000000  1.000000  1.000000  1.000000 ScalE2=  1.000000  1.000000
 IRadAn=      5 IRanWt=     -1 IRanGd=            0 ICorTp=0 IEmpDi=131
 NAtoms=   20 NActive=   20 NUniq=   20 SFac= 1.00D+00 NAtFMM=   60 NAOKFM=F Big=F
 Integral buffers will be    131072 words long.
 Raffenetti 2 integral format.
 Two-electron integral symmetry is turned off.
 R6Disp:  Grimme-D3 Dispersion energy=       -0.0000405858 Hartrees.
 Nuclear repulsion after empirical dispersion term =      279.6555693804 Hartrees.
 No density basis found on file   718.
 Leave Link  301 at Mon Feb 20 10:36:47 2023, MaxMem=  6710886400 cpu:               1.3 elap:               0.1
 (Enter /data0/home/software/g16/l302.exe)
 NPDir=0 NMtPBC=     1 NCelOv=     1 NCel=       1 NClECP=     1 NCelD=      1
         NCelK=      1 NCelE2=     1 NClLst=     1 CellRange=     0.0.
 One-electron integrals computed using PRISM.
 NBasis=   317 RedAO= T EigKep=  3.04D-04  NBF=   317
 NBsUse=   317 1.00D-06 EigRej= -1.00D+00 NBFU=   317
 Precomputing XC quadrature grid using
 IXCGrd= 4 IRadAn=           5 IRanWt=          -1 IRanGd=           0 AccXCQ= 0.00D+00.
 Generated NRdTot=       0 NPtTot=           0 NUsed=           0 NTot=          32
 NSgBfM=   334   334   334   334   334 MxSgAt=    20 MxSgA2=    20.
 Leave Link  302 at Mon Feb 20 10:36:48 2023, MaxMem=  6710886400 cpu:               5.2 elap:               0.2
 (Enter /data0/home/software/g16/l303.exe)
 DipDrv:  MaxL=1.
 Leave Link  303 at Mon Feb 20 10:36:48 2023, MaxMem=  6710886400 cpu:               0.8 elap:               0.1
 (Enter /data0/home/software/g16/l401.exe)
 ExpMin= 3.48D-02 ExpMax= 7.75D+04 ExpMxC= 2.65D+03 IAcc=3 IRadAn=         5 AccDes= 0.00D+00
 Harris functional with IExCor= 1009 and IRadAn=       5 diagonalized for initial guess.
 HarFok:  IExCor= 1009 AccDes= 0.00D+00 IRadAn=         5 IDoV= 1 UseB2=F ITyADJ=14
 ICtDFT=  3500011 ScaDFX=  1.000000  1.000000  1.000000  1.000000
 FoFCou: FMM=F IPFlag=           0 FMFlag=      100000 FMFlg1=           0
         NFxFlg=           0 DoJE=T BraDBF=F KetDBF=T FulRan=T
         wScrn=  0.000000 ICntrl=       500 IOpCl=  0 I1Cent=   200000004 NGrid=           0
         NMat0=    1 NMatS0=      1 NMatT0=    0 NMatD0=    1 NMtDS0=    0 NMtDT0=    0
 Symmetry not used in FoFCou.
 Harris En= -643.939047448267    
 JPrj=0 DoOrth=F DoCkMO=F.
 Leave Link  401 at Mon Feb 20 10:36:48 2023, MaxMem=  6710886400 cpu:              16.4 elap:               0.7
 (Enter /data0/home/software/g16/l502.exe)
 Two-electron integral symmetry not used.
 Closed shell SCF:
 Using DIIS extrapolation, IDIIS=  1040.
 NGot=  6710886400 LenX=  6710651443 LenY=  6710538777
 Requested convergence on RMS density matrix=1.00D-08 within 128 cycles.
 Requested convergence on MAX density matrix=1.00D-06.
 Requested convergence on             energy=1.00D-06.
 No special actions if energy rises.
 Fock matrices will be formed incrementally for  20 cycles.

 Cycle   1  Pass 1  IDiag  1:
 FoFJK:  IHMeth= 1 ICntrl=       0 DoSepK=F KAlg= 0 I1Cent=           0 FoldK=F
 IRaf= 850000000 NMat=       1 IRICut=       1 DoRegI=T DoRafI=F ISym2E= 0 IDoP0=0 IntGTp=1.
 FoFCou: FMM=F IPFlag=           0 FMFlag=      100000 FMFlg1=           0
         NFxFlg=           0 DoJE=F BraDBF=F KetDBF=F FulRan=T
         wScrn=  0.000000 ICntrl=         0 IOpCl=  0 I1Cent=           0 NGrid=           0
         NMat0=    1 NMatS0=      1 NMatT0=    0 NMatD0=    1 NMtDS0=    0 NMtDT0=    0
 Symmetry not used in FoFCou.
 E= -643.822108207232    
 DIIS: error= 2.70D-02 at cycle   1 NSaved=   1.
 NSaved= 1 IEnMin= 1 EnMin= -643.822108207232     IErMin= 1 ErrMin= 2.70D-02
 ErrMax= 2.70D-02  0.00D+00 EMaxC= 1.00D-01 BMatC= 5.23D-01 BMatP= 5.23D-01
 IDIUse=3 WtCom= 7.30D-01 WtEn= 2.70D-01
 Coeff-Com:  0.100D+01
 Coeff-En:   0.100D+01
 Coeff:      0.100D+01
 Gap=     0.217 Goal=   None    Shift=    0.000
 GapD=    0.217 DampG=1.000 DampE=0.500 DampFc=0.5000 IDamp=-1.
 Damping current iteration by 5.00D-01
 RMSDP=4.96D-03 MaxDP=2.58D-01              OVMax= 2.82D-01

 Cycle   2  Pass 1  IDiag  1:
 RMSU=  2.48D-03    CP:  1.01D+00
 E= -643.937433397497     Delta-E=       -0.115325190266 Rises=F Damp=T
 DIIS: error= 8.54D-03 at cycle   2 NSaved=   2.
 NSaved= 2 IEnMin= 2 EnMin= -643.937433397497     IErMin= 2 ErrMin= 8.54D-03
 ErrMax= 8.54D-03  0.00D+00 EMaxC= 1.00D-01 BMatC= 3.10D-02 BMatP= 5.23D-01
 IDIUse=3 WtCom= 9.15D-01 WtEn= 8.54D-02
 Coeff-Com:  0.906D-01 0.909D+00
 Coeff-En:   0.239D+00 0.761D+00
 Coeff:      0.103D+00 0.897D+00
 Gap=     0.320 Goal=   None    Shift=    0.000
 RMSDP=1.24D-03 MaxDP=8.27D-02 DE=-1.15D-01 OVMax= 1.89D-01

 Cycle   3  Pass 1  IDiag  1:
 RMSU=  8.49D-04    CP:  9.99D-01  6.37D-01
 E= -644.119674801659     Delta-E=       -0.182241404162 Rises=F Damp=F
 DIIS: error= 4.58D-03 at cycle   3 NSaved=   3.
 NSaved= 3 IEnMin= 3 EnMin= -644.119674801659     IErMin= 3 ErrMin= 4.58D-03
 ErrMax= 4.58D-03  0.00D+00 EMaxC= 1.00D-01 BMatC= 1.35D-02 BMatP= 3.10D-02
 IDIUse=3 WtCom= 9.54D-01 WtEn= 4.58D-02
 Coeff-Com: -0.923D-02 0.366D+00 0.643D+00
 Coeff-En:   0.000D+00 0.000D+00 0.100D+01
 Coeff:     -0.881D-02 0.349D+00 0.660D+00
 Gap=     0.310 Goal=   None    Shift=    0.000
 RMSDP=4.00D-04 MaxDP=1.69D-02 DE=-1.82D-01 OVMax= 3.82D-02

 Cycle   4  Pass 1  IDiag  1:
 RMSU=  3.61D-04    CP:  9.99D-01  6.81D-01  8.45D-01
 E= -644.126779595816     Delta-E=       -0.007104794157 Rises=F Damp=F
 DIIS: error= 2.10D-03 at cycle   4 NSaved=   4.
 NSaved= 4 IEnMin= 4 EnMin= -644.126779595816     IErMin= 4 ErrMin= 2.10D-03
 ErrMax= 2.10D-03  0.00D+00 EMaxC= 1.00D-01 BMatC= 3.74D-03 BMatP= 1.35D-02
 IDIUse=3 WtCom= 9.79D-01 WtEn= 2.10D-02
 Coeff-Com: -0.249D-01 0.523D-01 0.366D+00 0.606D+00
 Coeff-En:   0.000D+00 0.000D+00 0.199D+00 0.801D+00
 Coeff:     -0.244D-01 0.512D-01 0.363D+00 0.610D+00
 Gap=     0.315 Goal=   None    Shift=    0.000
 RMSDP=1.42D-04 MaxDP=6.31D-03 DE=-7.10D-03 OVMax= 9.95D-03

 Cycle   5  Pass 1  IDiag  1:
 RMSU=  4.66D-05    CP:  9.98D-01  6.80D-01  9.36D-01  6.96D-01
 E= -644.129221382967     Delta-E=       -0.002441787151 Rises=F Damp=F
 DIIS: error= 1.23D-04 at cycle   5 NSaved=   5.
 NSaved= 5 IEnMin= 5 EnMin= -644.129221382967     IErMin= 5 ErrMin= 1.23D-04
 ErrMax= 1.23D-04  0.00D+00 EMaxC= 1.00D-01 BMatC= 1.34D-05 BMatP= 3.74D-03
 IDIUse=3 WtCom= 9.99D-01 WtEn= 1.23D-03
 Coeff-Com: -0.304D-02 0.346D-03 0.421D-01 0.104D+00 0.856D+00
 Coeff-En:   0.000D+00 0.000D+00 0.000D+00 0.000D+00 0.100D+01
 Coeff:     -0.304D-02 0.346D-03 0.420D-01 0.104D+00 0.857D+00
 Gap=     0.314 Goal=   None    Shift=    0.000
 RMSDP=1.56D-05 MaxDP=6.44D-04 DE=-2.44D-03 OVMax= 6.91D-04

 Cycle   6  Pass 1  IDiag  1:
 RMSU=  9.13D-06    CP:  9.98D-01  6.77D-01  9.38D-01  7.19D-01  1.12D+00
 E= -644.129230057031     Delta-E=       -0.000008674064 Rises=F Damp=F
 DIIS: error= 3.79D-05 at cycle   6 NSaved=   6.
 NSaved= 6 IEnMin= 6 EnMin= -644.129230057031     IErMin= 6 ErrMin= 3.79D-05
 ErrMax= 3.79D-05  0.00D+00 EMaxC= 1.00D-01 BMatC= 9.10D-07 BMatP= 1.34D-05
 IDIUse=1 WtCom= 1.00D+00 WtEn= 0.00D+00
 Coeff-Com:  0.273D-03-0.136D-02-0.557D-02-0.594D-02 0.135D+00 0.878D+00
 Coeff:      0.273D-03-0.136D-02-0.557D-02-0.594D-02 0.135D+00 0.878D+00
 Gap=     0.315 Goal=   None    Shift=    0.000
 RMSDP=6.46D-06 MaxDP=2.49D-04 DE=-8.67D-06 OVMax= 2.62D-04

 Cycle   7  Pass 1  IDiag  1:
 RMSU=  3.54D-06    CP:  9.98D-01  6.75D-01  9.38D-01  7.24D-01  1.20D+00
                    CP:  8.64D-01
 E= -644.129230593533     Delta-E=       -0.000000536501 Rises=F Damp=F
 DIIS: error= 2.62D-05 at cycle   7 NSaved=   7.
 NSaved= 7 IEnMin= 7 EnMin= -644.129230593533     IErMin= 7 ErrMin= 2.62D-05
 ErrMax= 2.62D-05  0.00D+00 EMaxC= 1.00D-01 BMatC= 4.88D-07 BMatP= 9.10D-07
 IDIUse=1 WtCom= 1.00D+00 WtEn= 0.00D+00
 Coeff-Com:  0.463D-03-0.706D-03-0.795D-02-0.151D-01-0.234D-01 0.458D+00
 Coeff-Com:  0.589D+00
 Coeff:      0.463D-03-0.706D-03-0.795D-02-0.151D-01-0.234D-01 0.458D+00
 Coeff:      0.589D+00
 Gap=     0.315 Goal=   None    Shift=    0.000
 RMSDP=1.85D-06 MaxDP=8.81D-05 DE=-5.37D-07 OVMax= 1.06D-04

 Cycle   8  Pass 1  IDiag  1:
 RMSU=  1.27D-06    CP:  9.98D-01  6.75D-01  9.38D-01  7.24D-01  1.20D+00
                    CP:  9.82D-01  8.51D-01
 E= -644.129230922315     Delta-E=       -0.000000328783 Rises=F Damp=F
 DIIS: error= 4.50D-06 at cycle   8 NSaved=   8.
 NSaved= 8 IEnMin= 8 EnMin= -644.129230922315     IErMin= 8 ErrMin= 4.50D-06
 ErrMax= 4.50D-06  0.00D+00 EMaxC= 1.00D-01 BMatC= 1.76D-08 BMatP= 4.88D-07
 IDIUse=1 WtCom= 1.00D+00 WtEn= 0.00D+00
 Coeff-Com:  0.122D-03-0.160D-03-0.254D-02-0.459D-02-0.113D-01 0.110D+00
 Coeff-Com:  0.210D+00 0.699D+00
 Coeff:      0.122D-03-0.160D-03-0.254D-02-0.459D-02-0.113D-01 0.110D+00
 Coeff:      0.210D+00 0.699D+00
 Gap=     0.315 Goal=   None    Shift=    0.000
 RMSDP=4.39D-07 MaxDP=1.65D-05 DE=-3.29D-07 OVMax= 2.61D-05

 Cycle   9  Pass 1  IDiag  1:
 RMSU=  3.05D-07    CP:  9.98D-01  6.75D-01  9.38D-01  7.24D-01  1.21D+00
                    CP:  9.90D-01  9.09D-01  8.65D-01
 E= -644.129230936371     Delta-E=       -0.000000014055 Rises=F Damp=F
 DIIS: error= 1.39D-06 at cycle   9 NSaved=   9.
 NSaved= 9 IEnMin= 9 EnMin= -644.129230936371     IErMin= 9 ErrMin= 1.39D-06
 ErrMax= 1.39D-06  0.00D+00 EMaxC= 1.00D-01 BMatC= 1.43D-09 BMatP= 1.76D-08
 IDIUse=1 WtCom= 1.00D+00 WtEn= 0.00D+00
 Coeff-Com: -0.328D-04 0.602D-04 0.244D-03 0.626D-03-0.136D-02-0.282D-01
 Coeff-Com: -0.168D-01 0.191D+00 0.855D+00
 Coeff:     -0.328D-04 0.602D-04 0.244D-03 0.626D-03-0.136D-02-0.282D-01
 Coeff:     -0.168D-01 0.191D+00 0.855D+00
 Gap=     0.315 Goal=   None    Shift=    0.000
 RMSDP=2.10D-07 MaxDP=1.22D-05 DE=-1.41D-08 OVMax= 9.05D-06

 Cycle  10  Pass 1  IDiag  1:
 RMSU=  9.85D-08    CP:  9.98D-01  6.75D-01  9.38D-01  7.25D-01  1.21D+00
                    CP:  9.90D-01  9.32D-01  9.57D-01  1.09D+00
 E= -644.129230937872     Delta-E=       -0.000000001501 Rises=F Damp=F
 DIIS: error= 2.69D-07 at cycle  10 NSaved=  10.
 NSaved=10 IEnMin=10 EnMin= -644.129230937872     IErMin=10 ErrMin= 2.69D-07
 ErrMax= 2.69D-07  0.00D+00 EMaxC= 1.00D-01 BMatC= 3.45D-11 BMatP= 1.43D-09
 IDIUse=1 WtCom= 1.00D+00 WtEn= 0.00D+00
 Coeff-Com: -0.582D-05 0.103D-04 0.115D-03 0.221D-03 0.505D-03-0.734D-02
 Coeff-Com: -0.108D-01-0.957D-02 0.635D-01 0.963D+00
 Coeff:     -0.582D-05 0.103D-04 0.115D-03 0.221D-03 0.505D-03-0.734D-02
 Coeff:     -0.108D-01-0.957D-02 0.635D-01 0.963D+00
 Gap=     0.315 Goal=   None    Shift=    0.000
 RMSDP=4.87D-08 MaxDP=1.27D-06 DE=-1.50D-09 OVMax= 2.61D-06

 Cycle  11  Pass 1  IDiag  1:
 RMSU=  3.03D-08    CP:  9.98D-01  6.75D-01  9.38D-01  7.25D-01  1.21D+00
                    CP:  9.90D-01  9.37D-01  9.68D-01  1.17D+00  1.13D+00
 E= -644.129230937927     Delta-E=       -0.000000000055 Rises=F Damp=F
 DIIS: error= 2.14D-07 at cycle  11 NSaved=  11.
 NSaved=11 IEnMin=11 EnMin= -644.129230937927     IErMin=11 ErrMin= 2.14D-07
 ErrMax= 2.14D-07  0.00D+00 EMaxC= 1.00D-01 BMatC= 2.14D-11 BMatP= 3.45D-11
 IDIUse=1 WtCom= 1.00D+00 WtEn= 0.00D+00
 Coeff-Com:  0.553D-06-0.122D-05 0.351D-04 0.495D-04 0.394D-03-0.115D-02
 Coeff-Com: -0.388D-02-0.229D-01-0.558D-01 0.504D+00 0.579D+00
 Coeff:      0.553D-06-0.122D-05 0.351D-04 0.495D-04 0.394D-03-0.115D-02
 Coeff:     -0.388D-02-0.229D-01-0.558D-01 0.504D+00 0.579D+00
 Gap=     0.315 Goal=   None    Shift=    0.000
 RMSDP=1.51D-08 MaxDP=6.73D-07 DE=-5.53D-11 OVMax= 1.04D-06

 Cycle  12  Pass 1  IDiag  1:
 RMSU=  1.08D-08    CP:  9.98D-01  6.75D-01  9.38D-01  7.25D-01  1.21D+00
                    CP:  9.90D-01  9.38D-01  9.69D-01  1.18D+00  1.19D+00
                    CP:  8.22D-01
 E= -644.129230937917     Delta-E=        0.000000000010 Rises=F Damp=F
 DIIS: error= 4.22D-08 at cycle  12 NSaved=  12.
 NSaved=12 IEnMin=11 EnMin= -644.129230937927     IErMin=12 ErrMin= 4.22D-08
 ErrMax= 4.22D-08  0.00D+00 EMaxC= 1.00D-01 BMatC= 9.35D-13 BMatP= 2.14D-11
 IDIUse=1 WtCom= 1.00D+00 WtEn= 0.00D+00
 Coeff-Com:  0.802D-06-0.152D-05-0.178D-05-0.951D-05 0.284D-04 0.381D-03
 Coeff-Com:  0.224D-03-0.413D-02-0.227D-01 0.245D-01 0.178D+00 0.824D+00
 Coeff:      0.802D-06-0.152D-05-0.178D-05-0.951D-05 0.284D-04 0.381D-03
 Coeff:      0.224D-03-0.413D-02-0.227D-01 0.245D-01 0.178D+00 0.824D+00
 Gap=     0.315 Goal=   None    Shift=    0.000
 RMSDP=5.31D-09 MaxDP=1.28D-07 DE= 1.05D-11 OVMax= 2.97D-07

 SCF Done:  E(RM062X) =  -644.129230938     A.U. after   12 cycles
            NFock= 12  Conv=0.53D-08     -V/T= 2.0026
 KE= 6.424822344886D+02 PE=-2.086915748924D+03 EE= 5.206487141167D+02
 Leave Link  502 at Mon Feb 20 10:37:09 2023, MaxMem=  6710886400 cpu:             486.5 elap:              20.4
 (Enter /data0/home/software/g16/l601.exe)
 Copying SCF densities to generalized density rwf, IOpCl= 0 IROHF=0.

 **********************************************************************

            Population analysis using the SCF density.

 **********************************************************************

 Alpha  occ. eigenvalues --  -78.16798 -19.70219 -19.69077 -19.68401 -19.57043
 Alpha  occ. eigenvalues --   -6.97575  -5.09537  -5.09461  -5.09202  -1.24722
 Alpha  occ. eigenvalues --   -1.17600  -1.17018  -1.07385  -0.72790  -0.67233
 Alpha  occ. eigenvalues --   -0.63989  -0.58543  -0.55567  -0.50027  -0.48862
 Alpha  occ. eigenvalues --   -0.48081  -0.44792  -0.44637  -0.36712  -0.36333
 Alpha virt. eigenvalues --   -0.04842  -0.00188   0.02324   0.03784   0.06097
 Alpha virt. eigenvalues --    0.07092   0.07403   0.08117   0.09615   0.11180
 Alpha virt. eigenvalues --    0.11763   0.12542   0.12798   0.14962   0.15124
 Alpha virt. eigenvalues --    0.16275   0.16969   0.17158   0.17932   0.18509
 Alpha virt. eigenvalues --    0.19015   0.19863   0.21255   0.22451   0.22791
 Alpha virt. eigenvalues --    0.23358   0.23934   0.24404   0.24998   0.26246
 Alpha virt. eigenvalues --    0.27580   0.28303   0.28642   0.29341   0.29712
 Alpha virt. eigenvalues --    0.29912   0.30814   0.31820   0.32064   0.33461
 Alpha virt. eigenvalues --    0.33808   0.36280   0.36669   0.37606   0.38273
 Alpha virt. eigenvalues --    0.38677   0.39655   0.40680   0.41378   0.44035
 Alpha virt. eigenvalues --    0.44679   0.47393   0.47680   0.48401   0.49056
 Alpha virt. eigenvalues --    0.51864   0.54114   0.57814   0.63019   0.64244
 Alpha virt. eigenvalues --    0.67913   0.69476   0.71630   0.72277   0.73940
 Alpha virt. eigenvalues --    0.75329   0.76321   0.76832   0.78195   0.78466
 Alpha virt. eigenvalues --    0.79284   0.79565   0.80415   0.81307   0.82497
 Alpha virt. eigenvalues --    0.87960   0.89694   0.90916   0.93803   0.95040
 Alpha virt. eigenvalues --    0.96328   0.97952   1.00666   1.02489   1.03578
 Alpha virt. eigenvalues --    1.06322   1.06778   1.09385   1.10342   1.12716
 Alpha virt. eigenvalues --    1.14560   1.16197   1.16509   1.18037   1.18454
 Alpha virt. eigenvalues --    1.21835   1.23462   1.25380   1.28318   1.31779
 Alpha virt. eigenvalues --    1.31978   1.34745   1.36396   1.37688   1.40911
 Alpha virt. eigenvalues --    1.48788   1.53362   1.53798   1.57126   1.59409
 Alpha virt. eigenvalues --    1.61431   1.63409   1.64488   1.66660   1.68767
 Alpha virt. eigenvalues --    1.71239   1.73065   1.75239   1.77678   1.78418
 Alpha virt. eigenvalues --    1.79481   1.81747   1.82716   1.83081   1.85180
 Alpha virt. eigenvalues --    1.86223   1.86899   1.88488   1.91350   1.93274
 Alpha virt. eigenvalues --    1.95867   1.96843   1.99813   2.01446   2.03350
 Alpha virt. eigenvalues --    2.03542   2.05320   2.07186   2.12440   2.15255
 Alpha virt. eigenvalues --    2.15762   2.17178   2.19053   2.21085   2.23753
 Alpha virt. eigenvalues --    2.24044   2.26902   2.27319   2.28867   2.31007
 Alpha virt. eigenvalues --    2.36062   2.39668   2.42522   2.44077   2.45216
 Alpha virt. eigenvalues --    2.47769   2.49756   2.50080   2.52014   2.54178
 Alpha virt. eigenvalues --    2.55319   2.55553   2.57937   2.59483   2.60327
 Alpha virt. eigenvalues --    2.61110   2.63295   2.63486   2.64949   2.65026
 Alpha virt. eigenvalues --    2.66959   2.68696   2.69153   2.69948   2.71222
 Alpha virt. eigenvalues --    2.72127   2.72771   2.76139   2.76958   2.78936
 Alpha virt. eigenvalues --    2.82902   2.83141   2.84979   2.86104   2.90181
 Alpha virt. eigenvalues --    2.94015   2.94844   2.95456   2.96425   2.99910
 Alpha virt. eigenvalues --    3.02067   3.05112   3.08841   3.14632   3.18557
 Alpha virt. eigenvalues --    3.48960   3.54283   3.57869   3.58776   3.60087
 Alpha virt. eigenvalues --    3.67657   3.69402   3.72841   4.51476   4.57694
 Alpha virt. eigenvalues --    4.60383   4.63803   5.03548   5.06145   5.06811
 Alpha virt. eigenvalues --    5.09161   5.11616   5.13649   5.14576   5.15559
 Alpha virt. eigenvalues --    5.16680   5.20609   5.27403   5.31658   5.41687
 Alpha virt. eigenvalues --    5.43730   5.50950   5.58996   6.71590   6.74497
 Alpha virt. eigenvalues --    6.75124   6.78895   6.80657   6.81531   6.84467
 Alpha virt. eigenvalues --    6.87555   6.92138   6.92798   6.96399   7.00265
 Alpha virt. eigenvalues --    7.03718   7.05771   7.08803   7.25289   7.30319
 Alpha virt. eigenvalues --    7.30882   7.31855   7.42839   7.64399   9.76861
 Alpha virt. eigenvalues --    9.77921   9.88455   9.89580   9.91904   9.95061
 Alpha virt. eigenvalues --    9.95295   9.99423  10.01247  10.04032  10.05391
 Alpha virt. eigenvalues --   10.09557  10.12984  10.15985  10.16509  10.23486
 Alpha virt. eigenvalues --   10.25508  10.34039  10.35208  10.43302  12.86982
 Alpha virt. eigenvalues --   13.02061  13.04901  13.22244  13.29980  13.39271
 Alpha virt. eigenvalues --   13.47635  13.66424  13.68712  13.87305  13.98100
 Alpha virt. eigenvalues --   14.12014  14.23332  14.26769  14.36423  17.66714
 Alpha virt. eigenvalues --   17.85509  17.97099  18.23344  49.98378  50.00758
 Alpha virt. eigenvalues --   50.02789  50.12177 135.79299 137.55146 138.08658
 Alpha virt. eigenvalues --  139.33419 163.88123
          Condensed to atoms (all electrons):
               1          2          3          4          5          6
     1  P   12.636501   0.519825   0.158348   0.049063   0.257494   0.023024
     2  O    0.519825   8.225880  -0.078204   0.006282  -0.067456   0.009065
     3  O    0.158348  -0.078204   8.162134   0.222446   0.003212  -0.015515
     4  H    0.049063   0.006282   0.222446   0.354863  -0.001774   0.003466
     5  O    0.257494  -0.067456   0.003212  -0.001774   8.018884   0.232869
     6  H    0.023024   0.009065  -0.015515   0.003466   0.232869   0.491730
     7  O    0.244724  -0.030938  -0.000432  -0.017685   0.029303  -0.014615
     8  H   -0.003044  -0.007066   0.006039  -0.000327  -0.008606  -0.007019
     9  O    0.002196   0.000130   0.000791  -0.000074  -0.000208   0.003086
    10  H   -0.001058  -0.000023  -0.000396  -0.000092   0.000687  -0.002288
    11  H   -0.000316  -0.000009  -0.000266  -0.000019   0.000160  -0.000777
    12  O    0.001837   0.015023  -0.000206  -0.000013  -0.004743  -0.000156
    13  H    0.003800  -0.013667   0.000778  -0.000047   0.005318  -0.000432
    14  H   -0.001061  -0.001465   0.000023   0.000008   0.000376   0.000059
    15  O   -0.012605   0.000541   0.052275   0.004835  -0.007970  -0.002062
    16  H    0.005114   0.000001  -0.011753   0.002009   0.001204   0.000087
    17  H   -0.000325  -0.000325  -0.010630  -0.000812   0.001582   0.000157
    18  O   -0.000632  -0.000899  -0.000512   0.000026   0.003178  -0.001443
    19  H   -0.000440   0.003214   0.000403  -0.000078  -0.008500   0.002867
    20  H   -0.000689  -0.000694   0.000047   0.000006   0.001268   0.000486
               7          8          9         10         11         12
     1  P    0.244724  -0.003044   0.002196  -0.001058  -0.000316   0.001837
     2  O   -0.030938  -0.007066   0.000130  -0.000023  -0.000009   0.015023
     3  O   -0.000432   0.006039   0.000791  -0.000396  -0.000266  -0.000206
     4  H   -0.017685  -0.000327  -0.000074  -0.000092  -0.000019  -0.000013
     5  O    0.029303  -0.008606  -0.000208   0.000687   0.000160  -0.004743
     6  H   -0.014615  -0.007019   0.003086  -0.002288  -0.000777  -0.000156
     7  O    8.059496   0.264346  -0.003649   0.002843   0.000793  -0.000322
     8  H    0.264346   0.433756   0.000161  -0.000122   0.000010  -0.000021
     9  O   -0.003649   0.000161   0.013469  -0.004160  -0.006786   0.000002
    10  H    0.002843  -0.000122  -0.004160   0.002277   0.001711  -0.000000
    11  H    0.000793   0.000010  -0.006786   0.001711   0.004036  -0.000000
    12  O   -0.000322  -0.000021   0.000002  -0.000000  -0.000000   0.012708
    13  H    0.000582   0.000154  -0.000002   0.000000   0.000000  -0.008693
    14  H    0.000065  -0.000001  -0.000000  -0.000000   0.000000  -0.003640
    15  O   -0.019817   0.002614   0.005210  -0.001062  -0.001867   0.000009
    16  H    0.003480  -0.000937  -0.000958   0.000165   0.000247  -0.000001
    17  H    0.012439  -0.000625  -0.006356   0.001333   0.002489  -0.000002
    18  O    0.000768  -0.000149  -0.000013   0.000010   0.000002   0.000781
    19  H   -0.000743  -0.000157   0.000026  -0.000015  -0.000004   0.000825
    20  H   -0.000089  -0.000007  -0.000000  -0.000001  -0.000000  -0.002121
              13         14         15         16         17         18
     1  P    0.003800  -0.001061  -0.012605   0.005114  -0.000325  -0.000632
     2  O   -0.013667  -0.001465   0.000541   0.000001  -0.000325  -0.000899
     3  O    0.000778   0.000023   0.052275  -0.011753  -0.010630  -0.000512
     4  H   -0.000047   0.000008   0.004835   0.002009  -0.000812   0.000026
     5  O    0.005318   0.000376  -0.007970   0.001204   0.001582   0.003178
     6  H   -0.000432   0.000059  -0.002062   0.000087   0.000157  -0.001443
     7  O    0.000582   0.000065  -0.019817   0.003480   0.012439   0.000768
     8  H    0.000154  -0.000001   0.002614  -0.000937  -0.000625  -0.000149
     9  O   -0.000002  -0.000000   0.005210  -0.000958  -0.006356  -0.000013
    10  H    0.000000  -0.000000  -0.001062   0.000165   0.001333   0.000010
    11  H    0.000000   0.000000  -0.001867   0.000247   0.002489   0.000002
    12  O   -0.008693  -0.003640   0.000009  -0.000001  -0.000002   0.000781
    13  H    0.012142   0.000442   0.000009   0.000000   0.000000  -0.000117
    14  H    0.000442   0.002467  -0.000001   0.000000   0.000000  -0.000156
    15  O    0.000009  -0.000001   0.078634  -0.021998  -0.034319  -0.000014
    16  H    0.000000   0.000000  -0.021998   0.009312   0.007643   0.000001
    17  H    0.000000   0.000000  -0.034319   0.007643   0.022070   0.000004
    18  O   -0.000117  -0.000156  -0.000014   0.000001   0.000004   0.004884
    19  H   -0.000741  -0.000126   0.000014  -0.000002  -0.000004  -0.003039
    20  H    0.000517   0.000605  -0.000001   0.000000   0.000000  -0.002092
              19         20
     1  P   -0.000440  -0.000689
     2  O    0.003214  -0.000694
     3  O    0.000403   0.000047
     4  H   -0.000078   0.000006
     5  O   -0.008500   0.001268
     6  H    0.002867   0.000486
     7  O   -0.000743  -0.000089
     8  H   -0.000157  -0.000007
     9  O    0.000026  -0.000000
    10  H   -0.000015  -0.000001
    11  H   -0.000004  -0.000000
    12  O    0.000825  -0.002121
    13  H   -0.000741   0.000517
    14  H   -0.000126   0.000605
    15  O    0.000014  -0.000001
    16  H   -0.000002   0.000000
    17  H   -0.000004   0.000000
    18  O   -0.003039  -0.002092
    19  H    0.005708  -0.000665
    20  H   -0.000665   0.002912
 Mulliken charges:
               1
     1  P    1.118245
     2  O   -0.579216
     3  O   -0.488581
     4  H    0.377918
     5  O   -0.456277
     6  H    0.277412
     7  O   -0.530548
     8  H    0.321002
     9  O   -0.002865
    10  H    0.000191
    11  H    0.000594
    12  O   -0.011266
    13  H   -0.000043
    14  H    0.002405
    15  O   -0.042426
    16  H    0.006385
    17  H    0.005681
    18  O   -0.000590
    19  H    0.001458
    20  H    0.000518
 Sum of Mulliken charges =  -0.00000
 Mulliken charges with hydrogens summed into heavy atoms:
               1
     1  P    1.118245
     2  O   -0.579216
     3  O   -0.110663
     5  O   -0.178865
     7  O   -0.209546
     9  O   -0.002079
    12  O   -0.008904
    15  O   -0.030360
    18  O    0.001386
         Mulliken charges condensed to fragments:
      1      0.039956
      2     -0.002079
      3     -0.008904
      4     -0.030360
      5      0.001386
 Electronic spatial extent (au):  <R**2>=          59232.1899
 Charge=             -0.0000 electrons
 Dipole moment (field-independent basis, Debye):
    X=              0.5500    Y=             -4.8572    Z=             -5.4399  Tot=              7.3135
 Quadrupole moment (field-independent basis, Debye-Ang):
   XX=            -18.2804   YY=           -100.8760   ZZ=           -147.8291
   XY=            -61.0860   XZ=            -70.2532   YZ=            -85.1689
 Traceless Quadrupole moment (field-independent basis, Debye-Ang):
   XX=             70.7148   YY=            -11.8808   ZZ=            -58.8340
   XY=            -61.0860   XZ=            -70.2532   YZ=            -85.1689
 Octapole moment (field-independent basis, Debye-Ang**2):
  XXX=          -1011.9639  YYY=          -1368.1333  ZZZ=          -2873.5114  XYY=          -1324.0622
  XXY=           -992.0215  XXZ=          -1258.8791  XZZ=          -1977.9784  YZZ=          -1481.9890
  YYZ=          -1277.2081  XYZ=          -1119.1561
 Hexadecapole moment (field-independent basis, Debye-Ang**3):
 XXXX=         -29401.4337 YYYY=         -15504.3259 ZZZZ=         -48216.6224 XXXY=         -18533.5403
 XXXZ=         -25651.0358 YYYX=         -18144.9872 YYYZ=         -15779.3873 ZZZX=         -38655.2816
 ZZZY=         -24241.6629 XXYY=         -18968.3222 XXZZ=         -30287.1078 YYZZ=         -17316.3162
 XXYZ=         -17118.6710 YYXZ=         -16953.1449 ZZXY=         -19785.7403
 N-N= 2.796555693804D+02 E-N=-2.086915756621D+03  KE= 6.424822344886D+02
 No NMR shielding tensors so no spin-rotation constants.
 Leave Link  601 at Mon Feb 20 10:37:09 2023, MaxMem=  6710886400 cpu:               2.5 elap:               0.1
 (Enter /data0/home/software/g16/l122.exe)
 CPIOFr:  IOpCl= 0 IRwI=-1 IRwCP=  731 ICalc=  1 LCPTot=      156386 Len1MO=      408861 IndFrg=      974108
 Counterpoise: doing calculation for fragment   2 using the basis set of the full-system, NewBq=T
 Leave Link  122 at Mon Feb 20 10:37:09 2023, MaxMem=  6710886400 cpu:               0.1 elap:               0.0
 (Enter /data0/home/software/g16/l301.exe)
 Basis read from rwf:  (5D, 7F)
 No pseudopotential information found on rwf file.
   317 basis functions,   480 primitive gaussians,   335 cartesian basis functions
     5 alpha electrons        5 beta electrons
       nuclear repulsion energy         9.0862461303 Hartrees.
 IExCor= 4336 DFT=T Ex+Corr=M062X ExCW=0 ScaHFX=  0.540000
 ScaDFX=  1.000000  1.000000  1.000000  1.000000 ScalE2=  1.000000  1.000000
 IRadAn=      5 IRanWt=     -1 IRanGd=            0 ICorTp=0 IEmpDi=131
 NAtoms=   20 NActive=   20 NUniq=   20 SFac= 1.00D+00 NAtFMM=   60 NAOKFM=F Big=F
 Integral buffers will be    131072 words long.
 Raffenetti 2 integral format.
 Two-electron integral symmetry is turned off.
 R6Disp:  Grimme-D3 Dispersion energy=       -0.0000000077 Hartrees.
 Nuclear repulsion after empirical dispersion term =        9.0862461226 Hartrees.
 No density basis found on file   718.
 Leave Link  301 at Mon Feb 20 10:37:09 2023, MaxMem=  6710886400 cpu:               1.3 elap:               0.1
 (Enter /data0/home/software/g16/l302.exe)
 NPDir=0 NMtPBC=     1 NCelOv=     1 NCel=       1 NClECP=     1 NCelD=      1
         NCelK=      1 NCelE2=     1 NClLst=     1 CellRange=     0.0.
 One-electron integrals computed using PRISM.
 NBasis=   317 RedAO= T EigKep=  3.04D-04  NBF=   317
 NBsUse=   317 1.00D-06 EigRej= -1.00D+00 NBFU=   317
 Precomputing XC quadrature grid using
 IXCGrd= 4 IRadAn=           5 IRanWt=          -1 IRanGd=           0 AccXCQ= 0.00D+00.
 Generated NRdTot=       0 NPtTot=           0 NUsed=           0 NTot=          32
 NSgBfM=   334   334   334   334   334 MxSgAt=    20 MxSgA2=    20.
 Leave Link  302 at Mon Feb 20 10:37:09 2023, MaxMem=  6710886400 cpu:               5.2 elap:               0.2
 (Enter /data0/home/software/g16/l303.exe)
 DipDrv:  MaxL=1.
 Leave Link  303 at Mon Feb 20 10:37:09 2023, MaxMem=  6710886400 cpu:               0.8 elap:               0.1
 (Enter /data0/home/software/g16/l401.exe)
 ExpMin= 3.48D-02 ExpMax= 7.75D+04 ExpMxC= 2.65D+03 IAcc=3 IRadAn=         5 AccDes= 0.00D+00
 Harris functional with IExCor= 1009 and IRadAn=       5 diagonalized for initial guess.
 HarFok:  IExCor= 1009 AccDes= 0.00D+00 IRadAn=         5 IDoV= 1 UseB2=F ITyADJ=14
 ICtDFT=  3500011 ScaDFX=  1.000000  1.000000  1.000000  1.000000
 FoFCou: FMM=F IPFlag=           0 FMFlag=      100000 FMFlg1=           0
         NFxFlg=           0 DoJE=T BraDBF=F KetDBF=T FulRan=T
         wScrn=  0.000000 ICntrl=       500 IOpCl=  0 I1Cent=   200000004 NGrid=           0
         NMat0=    1 NMatS0=      1 NMatT0=    0 NMatD0=    1 NMtDS0=    0 NMtDT0=    0
 Symmetry not used in FoFCou.
 Harris En= -76.4167747490024    
 JPrj=0 DoOrth=F DoCkMO=F.
 Leave Link  401 at Mon Feb 20 10:37:10 2023, MaxMem=  6710886400 cpu:              16.2 elap:               0.7
 (Enter /data0/home/software/g16/l502.exe)
 Two-electron integral symmetry not used.
 Closed shell SCF:
 Using DIIS extrapolation, IDIIS=  1040.
 NGot=  6710886400 LenX=  6710651443 LenY=  6710538777
 Requested convergence on RMS density matrix=1.00D-08 within 128 cycles.
 Requested convergence on MAX density matrix=1.00D-06.
 Requested convergence on             energy=1.00D-06.
 No special actions if energy rises.
 Fock matrices will be formed incrementally for  20 cycles.

 Cycle   1  Pass 1  IDiag  1:
 FoFJK:  IHMeth= 1 ICntrl=       0 DoSepK=F KAlg= 0 I1Cent=           0 FoldK=F
 IRaf= 850000000 NMat=       1 IRICut=       1 DoRegI=T DoRafI=F ISym2E= 0 IDoP0=0 IntGTp=1.
 FoFCou: FMM=F IPFlag=           0 FMFlag=      100000 FMFlg1=           0
         NFxFlg=           0 DoJE=F BraDBF=F KetDBF=F FulRan=T
         wScrn=  0.000000 ICntrl=         0 IOpCl=  0 I1Cent=           0 NGrid=           0
         NMat0=    1 NMatS0=      1 NMatT0=    0 NMatD0=    1 NMtDS0=    0 NMtDT0=    0
 Symmetry not used in FoFCou.
 E= -76.3473626608002    
 DIIS: error= 2.48D-02 at cycle   1 NSaved=   1.
 NSaved= 1 IEnMin= 1 EnMin= -76.3473626608002     IErMin= 1 ErrMin= 2.48D-02
 ErrMax= 2.48D-02  0.00D+00 EMaxC= 1.00D-01 BMatC= 1.20D-01 BMatP= 1.20D-01
 IDIUse=3 WtCom= 7.52D-01 WtEn= 2.48D-01
 Coeff-Com:  0.100D+01
 Coeff-En:   0.100D+01
 Coeff:      0.100D+01
 Gap=     0.282 Goal=   None    Shift=    0.000
 GapD=    0.282 DampG=1.000 DampE=0.500 DampFc=0.5000 IDamp=-1.
 Damping current iteration by 5.00D-01
 RMSDP=1.89D-03 MaxDP=9.94D-02              OVMax= 1.72D-01

 Cycle   2  Pass 1  IDiag  1:
 RMSU=  9.44D-04    CP:  9.94D-01
 E= -76.3782448080188     Delta-E=       -0.030882147219 Rises=F Damp=T
 DIIS: error= 5.41D-03 at cycle   2 NSaved=   2.
 NSaved= 2 IEnMin= 2 EnMin= -76.3782448080188     IErMin= 2 ErrMin= 5.41D-03
 ErrMax= 5.41D-03  0.00D+00 EMaxC= 1.00D-01 BMatC= 5.00D-03 BMatP= 1.20D-01
 IDIUse=3 WtCom= 9.46D-01 WtEn= 5.41D-02
 Coeff-Com:  0.873D-01 0.913D+00
 Coeff-En:   0.197D+00 0.803D+00
 Coeff:      0.933D-01 0.907D+00
 Gap=     0.403 Goal=   None    Shift=    0.000
 RMSDP=2.89D-04 MaxDP=2.09D-02 DE=-3.09D-02 OVMax= 1.04D-01

 Cycle   3  Pass 1  IDiag  1:
 RMSU=  1.70D-04    CP:  1.00D+00  7.53D-01
 E= -76.4223956579888     Delta-E=       -0.044150849970 Rises=F Damp=F
 DIIS: error= 8.29D-04 at cycle   3 NSaved=   3.
 NSaved= 3 IEnMin= 3 EnMin= -76.4223956579888     IErMin= 3 ErrMin= 8.29D-04
 ErrMax= 8.29D-04  0.00D+00 EMaxC= 1.00D-01 BMatC= 1.51D-04 BMatP= 5.00D-03
 IDIUse=3 WtCom= 9.92D-01 WtEn= 8.29D-03
 Coeff-Com: -0.276D-01 0.509D-01 0.977D+00
 Coeff-En:   0.000D+00 0.000D+00 0.100D+01
 Coeff:     -0.274D-01 0.505D-01 0.977D+00
 Gap=     0.406 Goal=   None    Shift=    0.000
 RMSDP=2.47D-05 MaxDP=1.21D-03 DE=-4.42D-02 OVMax= 3.89D-03

 Cycle   4  Pass 1  IDiag  1:
 RMSU=  2.24D-05    CP:  9.98D-01  7.52D-01  1.05D+00
 E= -76.4225159258394     Delta-E=       -0.000120267851 Rises=F Damp=F
 DIIS: error= 1.15D-04 at cycle   4 NSaved=   4.
 NSaved= 4 IEnMin= 4 EnMin= -76.4225159258394     IErMin= 4 ErrMin= 1.15D-04
 ErrMax= 1.15D-04  0.00D+00 EMaxC= 1.00D-01 BMatC= 2.64D-06 BMatP= 1.51D-04
 IDIUse=3 WtCom= 9.99D-01 WtEn= 1.15D-03
 Coeff-Com: -0.302D-02 0.460D-03 0.145D+00 0.857D+00
 Coeff-En:   0.000D+00 0.000D+00 0.000D+00 0.100D+01
 Coeff:     -0.302D-02 0.460D-03 0.145D+00 0.858D+00
 Gap=     0.406 Goal=   None    Shift=    0.000
 RMSDP=5.75D-06 MaxDP=3.14D-04 DE=-1.20D-04 OVMax= 5.16D-04

 Cycle   5  Pass 1  IDiag  1:
 RMSU=  2.90D-06    CP:  9.99D-01  7.47D-01  1.05D+00  1.09D+00
 E= -76.4225176369354     Delta-E=       -0.000001711096 Rises=F Damp=F
 DIIS: error= 2.06D-05 at cycle   5 NSaved=   5.
 NSaved= 5 IEnMin= 5 EnMin= -76.4225176369354     IErMin= 5 ErrMin= 2.06D-05
 ErrMax= 2.06D-05  0.00D+00 EMaxC= 1.00D-01 BMatC= 7.39D-08 BMatP= 2.64D-06
 IDIUse=1 WtCom= 1.00D+00 WtEn= 0.00D+00
 Coeff-Com:  0.145D-02-0.226D-02-0.370D-01-0.486D-01 0.109D+01
 Coeff:      0.145D-02-0.226D-02-0.370D-01-0.486D-01 0.109D+01
 Gap=     0.406 Goal=   None    Shift=    0.000
 RMSDP=4.38D-06 MaxDP=2.29D-04 DE=-1.71D-06 OVMax= 2.15D-04

 Cycle   6  Pass 1  IDiag  1:
 RMSU=  7.57D-07    CP:  9.98D-01  7.43D-01  1.06D+00  1.18D+00  1.30D+00
 E= -76.4225177705411     Delta-E=       -0.000000133606 Rises=F Damp=F
 DIIS: error= 3.39D-06 at cycle   6 NSaved=   6.
 NSaved= 6 IEnMin= 6 EnMin= -76.4225177705411     IErMin= 6 ErrMin= 3.39D-06
 ErrMax= 3.39D-06  0.00D+00 EMaxC= 1.00D-01 BMatC= 1.81D-09 BMatP= 7.39D-08
 IDIUse=1 WtCom= 1.00D+00 WtEn= 0.00D+00
 Coeff-Com: -0.269D-03 0.383D-03 0.360D-02-0.702D-02-0.155D+00 0.116D+01
 Coeff:     -0.269D-03 0.383D-03 0.360D-02-0.702D-02-0.155D+00 0.116D+01
 Gap=     0.406 Goal=   None    Shift=    0.000
 RMSDP=5.93D-07 MaxDP=3.12D-05 DE=-1.34D-07 OVMax= 3.93D-05

 Cycle   7  Pass 1  IDiag  1:
 RMSU=  9.00D-08    CP:  9.98D-01  7.43D-01  1.06D+00  1.19D+00  1.37D+00
                    CP:  1.23D+00
 E= -76.4225177742110     Delta-E=       -0.000000003670 Rises=F Damp=F
 DIIS: error= 3.21D-07 at cycle   7 NSaved=   7.
 NSaved= 7 IEnMin= 7 EnMin= -76.4225177742110     IErMin= 7 ErrMin= 3.21D-07
 ErrMax= 3.21D-07  0.00D+00 EMaxC= 1.00D-01 BMatC= 2.71D-11 BMatP= 1.81D-09
 IDIUse=1 WtCom= 1.00D+00 WtEn= 0.00D+00
 Coeff-Com:  0.590D-05 0.903D-05 0.312D-04 0.160D-02-0.101D-01-0.637D-01
 Coeff-Com:  0.107D+01
 Coeff:      0.590D-05 0.903D-05 0.312D-04 0.160D-02-0.101D-01-0.637D-01
 Coeff:      0.107D+01
 Gap=     0.406 Goal=   None    Shift=    0.000
 RMSDP=8.54D-08 MaxDP=4.26D-06 DE=-3.67D-09 OVMax= 5.03D-06

 Cycle   8  Pass 1  IDiag  1:
 RMSU=  1.70D-08    CP:  9.98D-01  7.43D-01  1.06D+00  1.19D+00  1.38D+00
                    CP:  1.26D+00  1.18D+00
 E= -76.4225177742662     Delta-E=       -0.000000000055 Rises=F Damp=F
 DIIS: error= 9.16D-08 at cycle   8 NSaved=   8.
 NSaved= 8 IEnMin= 8 EnMin= -76.4225177742662     IErMin= 8 ErrMin= 9.16D-08
 ErrMax= 9.16D-08  0.00D+00 EMaxC= 1.00D-01 BMatC= 1.69D-12 BMatP= 2.71D-11
 IDIUse=1 WtCom= 1.00D+00 WtEn= 0.00D+00
 Coeff-Com:  0.127D-04-0.153D-04-0.135D-03 0.625D-03 0.443D-02-0.545D-01
 Coeff-Com:  0.161D+00 0.888D+00
 Coeff:      0.127D-04-0.153D-04-0.135D-03 0.625D-03 0.443D-02-0.545D-01
 Coeff:      0.161D+00 0.888D+00
 Gap=     0.406 Goal=   None    Shift=    0.000
 RMSDP=6.59D-09 MaxDP=3.78D-07 DE=-5.52D-11 OVMax= 7.29D-07

 SCF Done:  E(RM062X) =  -76.4225177743     A.U. after    8 cycles
            NFock=  8  Conv=0.66D-08     -V/T= 2.0032
 KE= 7.618240364849D+01 PE=-1.990119266823D+02 EE= 3.732075913701D+01
 Leave Link  502 at Mon Feb 20 10:37:23 2023, MaxMem=  6710886400 cpu:             317.8 elap:              13.3
 (Enter /data0/home/software/g16/l601.exe)
 Copying SCF densities to generalized density rwf, IOpCl= 0 IROHF=0.

 **********************************************************************

            Population analysis using the SCF density.

 **********************************************************************

 Alpha  occ. eigenvalues --  -19.62726  -1.13291  -0.60575  -0.47623  -0.40023
 Alpha virt. eigenvalues --    0.00614   0.04020   0.05016   0.05317   0.09171
 Alpha virt. eigenvalues --    0.09845   0.11942   0.12645   0.13792   0.14095
 Alpha virt. eigenvalues --    0.14728   0.15440   0.16588   0.17585   0.18168
 Alpha virt. eigenvalues --    0.18325   0.19694   0.20127   0.20683   0.21676
 Alpha virt. eigenvalues --    0.21938   0.22665   0.23585   0.25354   0.25993
 Alpha virt. eigenvalues --    0.26510   0.27621   0.28418   0.29524   0.30201
 Alpha virt. eigenvalues --    0.30751   0.32093   0.32285   0.35252   0.36251
 Alpha virt. eigenvalues --    0.36589   0.37008   0.37648   0.38246   0.38861
 Alpha virt. eigenvalues --    0.39984   0.41211   0.42090   0.42913   0.44098
 Alpha virt. eigenvalues --    0.44978   0.46554   0.47173   0.50725   0.51352
 Alpha virt. eigenvalues --    0.52627   0.54693   0.59321   0.65329   0.69894
 Alpha virt. eigenvalues --    0.70782   0.72422   0.73477   0.76178   0.76264
 Alpha virt. eigenvalues --    0.77691   0.78610   0.79428   0.80162   0.81613
 Alpha virt. eigenvalues --    0.82398   0.83224   0.84161   0.85466   0.86517
 Alpha virt. eigenvalues --    0.87691   0.89854   0.91231   0.92238   0.94039
 Alpha virt. eigenvalues --    0.95918   0.96832   0.97313   0.98718   0.99981
 Alpha virt. eigenvalues --    1.00882   1.01219   1.05040   1.06809   1.07094
 Alpha virt. eigenvalues --    1.08262   1.10781   1.11831   1.14175   1.15966
 Alpha virt. eigenvalues --    1.16347   1.20910   1.21637   1.22537   1.23607
 Alpha virt. eigenvalues --    1.27054   1.29580   1.31171   1.32288   1.33914
 Alpha virt. eigenvalues --    1.41079   1.46157   1.46853   1.48076   1.54471
 Alpha virt. eigenvalues --    1.62432   1.71288   1.76850   1.77510   1.80733
[...]
 Alpha virt. eigenvalues --    2.36089   2.39812   2.54632   2.87482   3.00834
 Alpha virt. eigenvalues --    5.05616   5.48055   5.90210   6.78438   6.80124
 Alpha virt. eigenvalues --    6.87336   6.91499   7.09754  49.95323
          Condensed to atoms (all electrons):
              15         16         17
    15  O    7.920102   0.319239   0.315709
    16  H    0.319239   0.428580  -0.023780
    17  H    0.315709  -0.023780   0.428979
 Mulliken charges:
               1
     1  P    0.000000
     2  O    0.000000
     3  O    0.000000
     4  H    0.000000
     5  O    0.000000
     6  H    0.000000
     7  O    0.000000
     8  H    0.000000
     9  O    0.000000
    10  H    0.000000
    11  H    0.000000
    12  O    0.000000
    13  H    0.000000
    14  H    0.000000
    15  O   -0.555051
    16  H    0.275960
    17  H    0.279091
    18  O    0.000000
    19  H    0.000000
    20  H    0.000000
 Sum of Mulliken charges =  -0.00000
 Mulliken charges with hydrogens summed into heavy atoms:
               1
     1  P    0.000000
     2  O    0.000000
     3  O    0.000000
     5  O    0.000000
     7  O    0.000000
     9  O    0.000000
    12  O    0.000000
    15  O   -0.000000
    18  O    0.000000
         Mulliken charges condensed to fragments:
      1      0.000000
      2      0.000000
      3      0.000000
      4     -0.000000
      5      0.000000
 Electronic spatial extent (au):  <R**2>=           8725.0531
 Charge=             -0.0000 electrons
 Dipole moment (field-independent basis, Debye):
    X=              1.8599    Y=             -0.5700    Z=             -0.8746  Tot=              2.1329
 Quadrupole moment (field-independent basis, Debye-Ang):
   XX=             37.3577   YY=            -11.4055   ZZ=            -21.7328
   XY=             -0.7587   XZ=              8.2090   YZ=             -9.3093
 Traceless Quadrupole moment (field-independent basis, Debye-Ang):
   XX=             35.9512   YY=            -12.8119   ZZ=            -23.1393
   XY=             -0.7587   XZ=              8.2090   YZ=             -9.3093
 Octapole moment (field-independent basis, Debye-Ang**2):
  XXX=            548.0856  YYY=            -99.9042  ZZZ=           -386.8568  XYY=           -114.7492
  XXY=             38.0918  XXZ=            252.3948  XZZ=            -70.8495  YZZ=           -143.9022
  YYZ=           -126.3688  XYZ=            -50.4385
 Hexadecapole moment (field-independent basis, Debye-Ang**3):
 XXXX=           6875.2834 YYYY=           -665.5211 ZZZZ=          -5940.3189 XXXY=            737.7552
 XXXZ=           4093.6474 YYYX=          -1109.9872 YYYZ=          -1032.8350 ZZZX=          -2696.9757
 ZZZY=          -2084.8545 XXYY=          -1205.9907 XXZZ=            741.9978 YYZZ=          -1441.0809
 XXYZ=           -119.9481 YYXZ=          -1293.9358 ZZXY=          -1103.0133
 N-N= 9.067910499468D+00 E-N=-1.989804590591D+02  KE= 7.618297056907D+01
 No NMR shielding tensors so no spin-rotation constants.
 Leave Link  601 at Mon Feb 20 10:38:13 2023, MaxMem=  6710886400 cpu:               1.8 elap:               0.1
 (Enter /data0/home/software/g16/l122.exe)
 CPIOFr:  IOpCl= 0 IRwI=-1 IRwCP=  731 ICalc=  9 LCPTot=      156386 Len1MO=      408861 IndFrg=     4244996
 Counterpoise: doing calculation for fragment   5 using the basis set of the fragment.
 Leave Link  122 at Mon Feb 20 10:38:13 2023, MaxMem=  6710886400 cpu:               0.1 elap:               0.0
 (Enter /data0/home/software/g16/l301.exe)
 Basis read from rwf:  (5D, 7F)
 No pseudopotential information found on rwf file.
    39 basis functions,    58 primitive gaussians,    41 cartesian basis functions
     5 alpha electrons        5 beta electrons
       nuclear repulsion energy         9.1030688941 Hartrees.
 IExCor= 4336 DFT=T Ex+Corr=M062X ExCW=0 ScaHFX=  0.540000
 ScaDFX=  1.000000  1.000000  1.000000  1.000000 ScalE2=  1.000000  1.000000
 IRadAn=      5 IRanWt=     -1 IRanGd=            0 ICorTp=0 IEmpDi=131
 NAtoms=   20 NActive=    3 NUniq=    3 SFac= 1.00D+00 NAtFMM=   60 NAOKFM=F Big=F
 Integral buffers will be    131072 words long.
 Raffenetti 2 integral format.
 Two-electron integral symmetry is turned off.
 R6Disp:  Grimme-D3 Dispersion energy=       -0.0000000070 Hartrees.
 Nuclear repulsion after empirical dispersion term =        9.1030688871 Hartrees.
 No density basis found on file   718.
 Leave Link  301 at Mon Feb 20 10:38:13 2023, MaxMem=  6710886400 cpu:               1.3 elap:               0.1
 (Enter /data0/home/software/g16/l302.exe)
 NPDir=0 NMtPBC=     1 NCelOv=     1 NCel=       1 NClECP=     1 NCelD=      1
         NCelK=      1 NCelE2=     1 NClLst=     1 CellRange=     0.0.
 One-electron integrals computed using PRISM.
 NBasis=    39 RedAO= T EigKep=  2.95D-03  NBF=    39
 NBsUse=    39 1.00D-06 EigRej= -1.00D+00 NBFU=    39
 Precomputing XC quadrature grid using
 IXCGrd= 4 IRadAn=           5 IRanWt=          -1 IRanGd=           0 AccXCQ= 0.00D+00.
 Generated NRdTot=       0 NPtTot=           0 NUsed=           0 NTot=          32
 NSgBfM=    41    41    41    41    41 MxSgAt=     3 MxSgA2=     3.
 Leave Link  302 at Mon Feb 20 10:38:13 2023, MaxMem=  6710886400 cpu:               2.2 elap:               0.1
 (Enter /data0/home/software/g16/l303.exe)
 DipDrv:  MaxL=1.
 Leave Link  303 at Mon Feb 20 10:38:13 2023, MaxMem=  6710886400 cpu:               0.4 elap:               0.0
 (Enter /data0/home/software/g16/l401.exe)
 ExpMin= 8.45D-02 ExpMax= 8.59D+03 ExpMxC= 1.30D+03 IAcc=3 IRadAn=         5 AccDes= 0.00D+00
 Harris functional with IExCor= 1009 and IRadAn=       5 diagonalized for initial guess.
 HarFok:  IExCor= 1009 AccDes= 0.00D+00 IRadAn=         5 IDoV= 1 UseB2=F ITyADJ=14
 ICtDFT=  3500011 ScaDFX=  1.000000  1.000000  1.000000  1.000000
 FoFCou: FMM=F IPFlag=           0 FMFlag=      100000 FMFlg1=           0
         NFxFlg=           0 DoJE=T BraDBF=F KetDBF=T FulRan=T
         wScrn=  0.000000 ICntrl=       500 IOpCl=  0 I1Cent=   200000004 NGrid=           0
         NMat0=    1 NMatS0=      1 NMatT0=    0 NMatD0=    1 NMtDS0=    0 NMtDT0=    0
 Symmetry not used in FoFCou.
 Harris En= -76.4162434558068    
 JPrj=0 DoOrth=F DoCkMO=F.
 Leave Link  401 at Mon Feb 20 10:38:14 2023, MaxMem=  6710886400 cpu:               2.9 elap:               0.1
 (Enter /data0/home/software/g16/l502.exe)
 Keep R1 ints in memory in canonical form, NReq=21039229.
 FoFCou: FMM=F IPFlag=           0 FMFlag=           0 FMFlg1=           0
         NFxFlg=           0 DoJE=F BraDBF=F KetDBF=F FulRan=T
         wScrn=  0.000000 ICntrl=       600 IOpCl=  0 I1Cent=           0 NGrid=           0
         NMat0=    1 NMatS0=    780 NMatT0=    0 NMatD0=    1 NMtDS0=    0 NMtDT0=    0
 Symmetry not used in FoFCou.
 Two-electron integral symmetry not used.
 Closed shell SCF:
 Using DIIS extrapolation, IDIIS=  1040.
 NGot=  6710886400 LenX=  6710576467 LenY=  6710574345
 Requested convergence on RMS density matrix=1.00D-08 within 128 cycles.
 Requested convergence on MAX density matrix=1.00D-06.
 Requested convergence on             energy=1.00D-06.
 No special actions if energy rises.
 Integral accuracy reduced to 1.0D-05 until final iterations.

 Cycle   1  Pass 0  IDiag  1:
 E= -76.3466220062028    
 DIIS: error= 6.98D-02 at cycle   1 NSaved=   1.
 NSaved= 1 IEnMin= 1 EnMin= -76.3466220062028     IErMin= 1 ErrMin= 6.98D-02
 ErrMax= 6.98D-02  0.00D+00 EMaxC= 1.00D-01 BMatC= 1.20D-01 BMatP= 1.20D-01
 IDIUse=3 WtCom= 3.02D-01 WtEn= 6.98D-01
 Coeff-Com:  0.100D+01
 Coeff-En:   0.100D+01
 Coeff:      0.100D+01
 Gap=     0.325 Goal=   None    Shift=    0.000
 GapD=    0.325 DampG=1.000 DampE=0.500 DampFc=0.5000 IDamp=-1.
 Damping current iteration by 5.00D-01
 RMSDP=8.02D-03 MaxDP=1.01D-01              OVMax= 1.67D-01

 Cycle   2  Pass 0  IDiag  1:
 E= -76.3778970667873     Delta-E=       -0.031275060584 Rises=F Damp=T
 DIIS: error= 1.13D-02 at cycle   2 NSaved=   2.
 NSaved= 2 IEnMin= 2 EnMin= -76.3778970667873     IErMin= 2 ErrMin= 1.13D-02
 ErrMax= 1.13D-02  0.00D+00 EMaxC= 1.00D-01 BMatC= 4.83D-03 BMatP= 1.20D-01
 IDIUse=3 WtCom= 8.87D-01 WtEn= 1.13D-01
 Coeff-Com:  0.829D-01 0.917D+00
 Coeff-En:   0.188D+00 0.812D+00
 Coeff:      0.948D-01 0.905D+00
 Gap=     0.457 Goal=   None    Shift=    0.000
 RMSDP=9.51D-04 MaxDP=1.41D-02 DE=-3.13D-02 OVMax= 1.00D-01

 Cycle   3  Pass 0  IDiag  1:
 E= -76.4216545270465     Delta-E=       -0.043757460259 Rises=F Damp=F
 DIIS: error= 2.14D-03 at cycle   3 NSaved=   3.
 NSaved= 3 IEnMin= 3 EnMin= -76.4216545270465     IErMin= 3 ErrMin= 2.14D-03
 ErrMax= 2.14D-03  0.00D+00 EMaxC= 1.00D-01 BMatC= 8.92D-05 BMatP= 4.83D-03
 IDIUse=3 WtCom= 9.79D-01 WtEn= 2.14D-02
 Coeff-Com: -0.199D-01 0.385D-01 0.981D+00
 Coeff-En:   0.000D+00 0.000D+00 0.100D+01
 Coeff:     -0.195D-01 0.377D-01 0.982D+00
 Gap=     0.462 Goal=   None    Shift=    0.000
 RMSDP=1.14D-04 MaxDP=9.41D-04 DE=-4.38D-02 OVMax= 3.31D-03

 Cycle   4  Pass 0  IDiag  1:
 E= -76.4217308919700     Delta-E=       -0.000076364923 Rises=F Damp=F
 DIIS: error= 4.11D-04 at cycle   4 NSaved=   4.
 NSaved= 4 IEnMin= 4 EnMin= -76.4217308919700     IErMin= 4 ErrMin= 4.11D-04
 ErrMax= 4.11D-04  0.00D+00 EMaxC= 1.00D-01 BMatC= 3.20D-06 BMatP= 8.92D-05
 IDIUse=3 WtCom= 9.96D-01 WtEn= 4.11D-03
 Coeff-Com: -0.181D-02-0.237D-02 0.159D+00 0.845D+00
 Coeff-En:   0.000D+00 0.000D+00 0.000D+00 0.100D+01
 Coeff:     -0.180D-02-0.236D-02 0.158D+00 0.846D+00
 Gap=     0.462 Goal=   None    Shift=    0.000
 RMSDP=2.21D-05 MaxDP=3.55D-04 DE=-7.64D-05 OVMax= 5.37D-04

 Cycle   5  Pass 0  IDiag  1:
 E= -76.4217328818790     Delta-E=       -0.000001989909 Rises=F Damp=F
 DIIS: error= 8.73D-05 at cycle   5 NSaved=   5.
 NSaved= 5 IEnMin= 5 EnMin= -76.4217328818790     IErMin= 5 ErrMin= 8.73D-05
 ErrMax= 8.73D-05  0.00D+00 EMaxC= 1.00D-01 BMatC= 8.06D-08 BMatP= 3.20D-06
 IDIUse=1 WtCom= 1.00D+00 WtEn= 0.00D+00
 Coeff-Com:  0.117D-02-0.179D-02-0.368D-01-0.590D-01 0.110D+01
 Coeff:      0.117D-02-0.179D-02-0.368D-01-0.590D-01 0.110D+01
 Gap=     0.463 Goal=   None    Shift=    0.000
 RMSDP=8.92D-06 MaxDP=1.00D-04 DE=-1.99D-06 OVMax= 2.01D-04

 Initial convergence to 1.0D-05 achieved.  Increase integral accuracy.
 Cycle   6  Pass 1  IDiag  1:
 E= -76.4217261186259     Delta-E=        0.000006763253 Rises=F Damp=F
 DIIS: error= 2.17D-05 at cycle   1 NSaved=   1.
 NSaved= 1 IEnMin= 1 EnMin= -76.4217261186259     IErMin= 1 ErrMin= 2.17D-05
 ErrMax= 2.17D-05  0.00D+00 EMaxC= 1.00D-01 BMatC= 2.00D-08 BMatP= 2.00D-08
 IDIUse=1 WtCom= 1.00D+00 WtEn= 0.00D+00
 Coeff-Com:  0.100D+01
 Coeff:      0.100D+01
 Gap=     0.463 Goal=   None    Shift=    0.000
 RMSDP=8.92D-06 MaxDP=1.00D-04 DE= 6.76D-06 OVMax= 4.18D-05

 Cycle   7  Pass 1  IDiag  1:
 E= -76.4217261339527     Delta-E=       -0.000000015327 Rises=F Damp=F
 DIIS: error= 6.38D-06 at cycle   2 NSaved=   2.
 NSaved= 2 IEnMin= 2 EnMin= -76.4217261339527     IErMin= 2 ErrMin= 6.38D-06
 ErrMax= 6.38D-06  0.00D+00 EMaxC= 1.00D-01 BMatC= 7.36D-10 BMatP= 2.00D-08
 IDIUse=1 WtCom= 1.00D+00 WtEn= 0.00D+00
 Coeff-Com: -0.226D-01 0.102D+01
 Coeff:     -0.226D-01 0.102D+01
 Gap=     0.463 Goal=   None    Shift=    0.000
 RMSDP=7.47D-07 MaxDP=8.54D-06 DE=-1.53D-08 OVMax= 1.72D-05

 Cycle   8  Pass 1  IDiag  1:
 E= -76.4217261341348     Delta-E=       -0.000000000182 Rises=F Damp=F
 DIIS: error= 5.49D-06 at cycle   3 NSaved=   3.
 NSaved= 3 IEnMin= 3 EnMin= -76.4217261341348     IErMin= 3 ErrMin= 5.49D-06
 ErrMax= 5.49D-06  0.00D+00 EMaxC= 1.00D-01 BMatC= 7.69D-10 BMatP= 7.36D-10
 IDIUse=1 WtCom= 1.00D+00 WtEn= 0.00D+00
 Coeff-Com: -0.424D-01 0.537D+00 0.505D+00
 Coeff:     -0.424D-01 0.537D+00 0.505D+00
 Gap=     0.463 Goal=   None    Shift=    0.000
 RMSDP=3.20D-07 MaxDP=4.43D-06 DE=-1.82D-10 OVMax= 7.16D-06

 Cycle   9  Pass 1  IDiag  1:
 E= -76.4217261346384     Delta-E=       -0.000000000504 Rises=F Damp=F
 DIIS: error= 6.75D-07 at cycle   4 NSaved=   4.
 NSaved= 4 IEnMin= 4 EnMin= -76.4217261346384     IErMin= 4 ErrMin= 6.75D-07
 ErrMax= 6.75D-07  0.00D+00 EMaxC= 1.00D-01 BMatC= 5.70D-12 BMatP= 7.36D-10
 IDIUse=1 WtCom= 1.00D+00 WtEn= 0.00D+00
 Coeff-Com: -0.210D-02-0.188D-01 0.373D-01 0.984D+00
 Coeff:     -0.210D-02-0.188D-01 0.373D-01 0.984D+00
 Gap=     0.463 Goal=   None    Shift=    0.000
 RMSDP=8.14D-08 MaxDP=4.94D-07 DE=-5.04D-10 OVMax= 1.56D-06

 Cycle  10  Pass 1  IDiag  1:
 E= -76.4217261346462     Delta-E=       -0.000000000008 Rises=F Damp=F
 DIIS: error= 7.41D-08 at cycle   5 NSaved=   5.
 NSaved= 5 IEnMin= 5 EnMin= -76.4217261346462     IErMin= 5 ErrMin= 7.41D-08
 ErrMax= 7.41D-08  0.00D+00 EMaxC= 1.00D-01 BMatC= 2.23D-13 BMatP= 5.70D-12
 IDIUse=1 WtCom= 1.00D+00 WtEn= 0.00D+00
 Coeff-Com:  0.230D-02-0.324D-01-0.274D-01 0.356D-01 0.102D+01
 Coeff:      0.230D-02-0.324D-01-0.274D-01 0.356D-01 0.102D+01
 Gap=     0.463 Goal=   None    Shift=    0.000
 RMSDP=3.06D-08 MaxDP=2.09D-07 DE=-7.84D-12 OVMax= 4.84D-07

 Cycle  11  Pass 1  IDiag  1:
 E= -76.4217261346467     Delta-E=       -0.000000000000 Rises=F Damp=F
 DIIS: error= 1.47D-08 at cycle   6 NSaved=   6.
 NSaved= 6 IEnMin= 6 EnMin= -76.4217261346467     IErMin= 6 ErrMin= 1.47D-08
 ErrMax= 1.47D-08  0.00D+00 EMaxC= 1.00D-01 BMatC= 6.52D-15 BMatP= 2.23D-13
 IDIUse=1 WtCom= 1.00D+00 WtEn= 0.00D+00
 Coeff-Com: -0.669D-04 0.246D-02 0.468D-03-0.411D-01-0.403D-01 0.108D+01
 Coeff:     -0.669D-04 0.246D-02 0.468D-03-0.411D-01-0.403D-01 0.108D+01
 Gap=     0.463 Goal=   None    Shift=    0.000
 RMSDP=5.15D-09 MaxDP=4.01D-08 DE=-4.83D-13 OVMax= 1.01D-07

 SCF Done:  E(RM062X) =  -76.4217261346     A.U. after   11 cycles
            NFock= 11  Conv=0.52D-08     -V/T= 2.0029
 KE= 7.619722503512D+01 PE=-1.990541001002D+02 EE= 3.733208004330D+01
 Leave Link  502 at Mon Feb 20 10:38:14 2023, MaxMem=  6710886400 cpu:               8.6 elap:               0.4
 (Enter /data0/home/software/g16/l601.exe)
 Copying SCF densities to generalized density rwf, IOpCl= 0 IROHF=0.

 **********************************************************************

            Population analysis using the SCF density.

 **********************************************************************

 Alpha  occ. eigenvalues --  -19.62697  -1.13468  -0.60347  -0.47894  -0.40030
 Alpha virt. eigenvalues --    0.06222   0.13331   0.17429   0.17936   0.18884
 Alpha virt. eigenvalues --    0.23471   0.50931   0.53529   0.98210   1.00229
 Alpha virt. eigenvalues --    1.05992   1.16836   1.20382   1.31647   1.33975
 Alpha virt. eigenvalues --    1.71156   1.74542   1.75124   2.07257   2.09995
 Alpha virt. eigenvalues --    2.35987   2.39312   2.55311   2.87712   3.01603
 Alpha virt. eigenvalues --    5.05611   5.49756   5.90418   6.78615   6.79880
 Alpha virt. eigenvalues --    6.87279   6.91947   7.09270  49.95574
          Condensed to atoms (all electrons):
              18         19         20
    18  O    7.917831   0.316513   0.315563
    19  H    0.316513   0.432457  -0.023506
    20  H    0.315563  -0.023506   0.432573
 Mulliken charges:
               1
     1  P    0.000000
     2  O    0.000000
     3  O    0.000000
     4  H    0.000000
     5  O    0.000000
     6  H    0.000000
     7  O    0.000000
     8  H    0.000000
     9  O    0.000000
    10  H    0.000000
    11  H    0.000000
    12  O    0.000000
    13  H    0.000000
    14  H    0.000000
    15  O    0.000000
    16  H    0.000000
    17  H    0.000000
    18  O   -0.549907
    19  H    0.274537
    20  H    0.275371
 Sum of Mulliken charges =   0.00000
 Mulliken charges with hydrogens summed into heavy atoms:
               1
     1  P    0.000000
     2  O    0.000000
     3  O    0.000000
     5  O    0.000000
     7  O    0.000000
     9  O    0.000000
    12  O    0.000000
    15  O    0.000000
    18  O    0.000000
         Mulliken charges condensed to fragments:
      1      0.000000
      2      0.000000
      3      0.000000
      4      0.000000
      5      0.000000
 Electronic spatial extent (au):  <R**2>=          14156.4935
 Charge=             -0.0000 electrons
 Dipole moment (field-independent basis, Debye):
    X=             -1.6963    Y=             -0.5349    Z=              1.2061  Tot=              2.1490
 Quadrupole moment (field-independent basis, Debye-Ang):
   XX=            -58.0302   YY=            -15.7633   ZZ=             14.6310
   XY=            -23.6891   XZ=              3.1747   YZ=              8.2379
 Traceless Quadrupole moment (field-independent basis, Debye-Ang):
   XX=            -38.3094   YY=              3.9575   ZZ=             34.3518
   XY=            -23.6891   XZ=              3.1747   YZ=              8.2379
 Octapole moment (field-independent basis, Debye-Ang**2):
  XXX=          -1469.7272  YYY=           -306.7249  ZZZ=            110.1926  XYY=           -382.4047
  XXY=           -658.9972  XXZ=           -237.7675  XZZ=             87.1080  YZZ=            123.0721
  YYZ=             -0.1568  XYZ=            -14.4229
 Hexadecapole moment (field-independent basis, Debye-Ang**3):
 XXXX=         -32751.4953 YYYY=          -4961.7106 ZZZZ=            359.5579 XXXY=         -15502.4284
 XXXZ=          -8800.8880 YYYX=          -5973.7405 YYYZ=          -1220.3394 ZZZX=            468.6668
 ZZZY=           1010.6227 XXYY=          -8588.3902 XXZZ=          -1213.4115 YYZZ=            607.2620
 XXYZ=          -2878.9865 YYXZ=          -1290.0622 ZZXY=            619.0835
 N-N= 9.103068887105D+00 E-N=-1.990541002214D+02  KE= 7.619722503512D+01
 No NMR shielding tensors so no spin-rotation constants.
 Leave Link  601 at Mon Feb 20 10:38:14 2023, MaxMem=  6710886400 cpu:               1.7 elap:               0.1
 (Enter /data0/home/software/g16/l122.exe)
 CPIOFr:  IOpCl= 0 IRwI=-1 IRwCP=  731 ICalc= 10 LCPTot=      156386 Len1MO=      408861 IndFrg=     4653857
 Restoring MOs from calculation   1 to rwf.
 CPIOFr:  IOpCl= 0 IRwI=-2 IRwCP=  731 ICalc=  0 LCPTot=      156386 Len1MO=      408861 IndFrg=      565247
 Counterpoise corrected energy =    -949.859685761681
                   BSSE energy =       0.005568323969
              sum of fragments =    -949.814455205467
           complexation energy =     -31.88 kcal/mole (raw)
           complexation energy =     -28.38 kcal/mole (corrected)
 Leave Link  122 at Mon Feb 20 10:38:14 2023, MaxMem=  6710886400 cpu:               0.2 elap:               0.0
 (Enter /data0/home/software/g16/l9999.exe)
 1\1\GINC-LOCALHOST\SP\RM062X\6-311+G(2d,p)\H11O8P1\WUHANYU\20-Feb-2023
 \0\\#p M062X/6-311+G(2d,p) nosymm em=GD3 counterpoise=5\\Title Card Re
 quired\\0,1\P,0,13.293946,6.643324,10.565128\O,0,13.726683,7.614477,11
 .582713\O,0,11.814584,6.157975,10.811709\H,0,11.702019,5.197208,10.375
 979\O,0,13.324663,7.345708,9.136645\H,0,13.601026,6.684258,8.374036\O,
 0,14.134153,5.297877,10.527126\H,0,14.856018,5.291503,9.741545\O,0,12.
 630554,3.774847,7.16328\H,0,13.355265,4.438959,7.220284\H,0,12.00927,4
 .168882,6.556673\O,0,13.972038,10.463029,10.999691\H,0,13.868988,9.523
 69,11.242255\H,0,13.078289,10.754501,10.820493\O,0,11.64174,3.563158,9
 .734581\H,0,12.409237,3.187881,10.173319\H,0,11.921955,3.618708,8.7954
 4\O,0,15.202429,9.619788,8.583305\H,0,14.615438,8.8591,8.4982\H,0,14.8
 29477,10.07934,9.352311\\Version=ES64L-G16RevA.03\HF=-76.4217261\RMSD=
 5.151e-09\Dipole=-0.6777289,-2.8993442,-2.4581086\Quadrupole=30.632859
 2,-12.1815086,-18.4513506,-96.3989752,-71.3634739,-80.2164335\PG=C01 [
 X(H11O8P1)]\\@


 CHILDREN YOU ARE VERY LITTLE,
 AND YOUR BONES ARE VERY BRITTLE;
 IF YOU WOULD GROW GREAT AND STATELY
 YOU MUST TRY TO WALK SEDATELY.
 YOU MUST STILL BE BRIGHT AND QUIET,
 AND CONTENT WITH SIMPLE DIET;
 AND REMAIN, THROUGH ALL BEWILD'RING
 INNOCENT AND HONEST CHILDREN.
     -- A CHILD'S GARDEN OF VERSE,
        ROBERT LOUIS STEVENSON
 Job cpu time:       0 days  0 hours 42 minutes 17.3 seconds.
 Elapsed time:       0 days  0 hours  1 minutes 49.0 seconds.
 File lengths (MBytes):  RWF=    104 Int=      0 D2E=      0 Chk=     42 Scr=      1
 Normal termination of Gaussian 16 at Mon Feb 20 10:38:14 2023.
