 Entering Gaussian System, Link 0=g16
 Initial command:
 /data0/home/software/g16/l1.exe "/data0/home/software/g16/scratch/Gau-285909.inp" -scrdir="/data0/home/software/g16/scratch/"
 Default is to use a total of  22 processors:
                               22 via shared-memory
                                1 via Linda
 Entering Link 1 = /data0/home/software/g16/l1.exe PID=    285910.
  
 Copyright (c) 1988,1990,1992,1993,1995,1998,2003,2009,2016,
            Gaussian, Inc.  All Rights Reserved.
  
 This is part of the Gaussian(R) 16 program.  It is based on
 the Gaussian(R) 09 system (copyright 2009, Gaussian, Inc.),
 the Gaussian(R) 03 system (copyright 2003, Gaussian, Inc.),
 the Gaussian(R) 98 system (copyright 1998, Gaussian, Inc.),
 the Gaussian(R) 94 system (copyright 1995, Gaussian, Inc.),
 the Gaussian 92(TM) system (copyright 1992, Gaussian, Inc.),
 the Gaussian 90(TM) system (copyright 1990, Gaussian, Inc.),
 the Gaussian 88(TM) system (copyright 1988, Gaussian, Inc.),
 the Gaussian 86(TM) system (copyright 1986, Carnegie Mellon
 University), and the Gaussian 82(TM) system (copyright 1983,
 Carnegie Mellon University). Gaussian is a federally registered
 trademark of Gaussian, Inc.
  
 This software contains proprietary and confidential information,
 including trade secrets, belonging to Gaussian, Inc.
  
 This software is provided under written license and may be
 used, copied, transmitted, or stored only in accord with that
 written license.
  
 The following legend is applicable only to US Government
 contracts under FAR:
  
                    RESTRICTED RIGHTS LEGEND
  
 Use, reproduction and disclosure by the US Government is
 subject to restrictions as set forth in subparagraphs (a)
 and (c) of the Commercial Computer Software - Restricted
 Rights clause in FAR 52.227-19.
  
 Gaussian, Inc.
 340 Quinnipiac St., Bldg. 40, Wallingford CT 06492
  
  
 ---------------------------------------------------------------
 Warning -- This program may not be used in any manner that
 competes with the business of Gaussian, Inc. or will provide
 assistance to any competitor of Gaussian, Inc.  The licensee
 of this program is prohibited from giving any competitor of
 Gaussian, Inc. access to this program.  By using this program,
 the user acknowledges that Gaussian, Inc. is engaged in the
 business of creating and licensing software in the field of
 computational chemistry and represents and warrants to the
 licensee that it is not a competitor of Gaussian, Inc. and that
 it will not use this program in any manner prohibited above.
 ---------------------------------------------------------------
  

 Cite this work as:
 Gaussian 16, Revision A.03,
 M. J. Frisch, G. W. Trucks, H. B. Schlegel, G. E. Scuseria, 
 M. A. Robb, J. R. Cheeseman, G. Scalmani, V. Barone, 
 G. A. Petersson, H. Nakatsuji, X. Li, M. Caricato, A. V. Marenich, 
 J. Bloino, B. G. Janesko, R. Gomperts, B. Mennucci, H. P. Hratchian, 
 J. V. Ortiz, A. F. Izmaylov, J. L. Sonnenberg, D. Williams-Young, 
 F. Ding, F. Lipparini, F. Egidi, J. Goings, B. Peng, A. Petrone, 
 T. Henderson, D. Ranasinghe, V. G. Zakrzewski, J. Gao, N. Rega, 
 G. Zheng, W. Liang, M. Hada, M. Ehara, K. Toyota, R. Fukuda, 
 J. Hasegawa, M. Ishida, T. Nakajima, Y. Honda, O. Kitao, H. Nakai, 
 T. Vreven, K. Throssell, J. A. Montgomery, Jr., J. E. Peralta, 
 F. Ogliaro, M. J. Bearpark, J. J. Heyd, E. N. Brothers, K. N. Kudin, 
 V. N. Staroverov, T. A. Keith, R. Kobayashi, J. Normand, 
 K. Raghavachari, A. P. Rendell, J. C. Burant, S. S. Iyengar, 
 J. Tomasi, M. Cossi, J. M. Millam, M. Klene, C. Adamo, R. Cammi, 
 J. W. Ochterski, R. L. Martin, K. Morokuma, O. Farkas, 
 J. B. Foresman, and D. J. Fox, Gaussian, Inc., Wallingford CT, 2016.
 
 ******************************************
 Gaussian 16:  ES64L-G16RevA.03 25-Dec-2016
                19-Feb-2023 
 ******************************************
 %nproc=24
 Will use up to   24 processors via shared memory.
 %mem=50GB
 ---------------------------------------------------
 #p M062X/6-311+G(2d,p) nosymm em=GD3 counterpoise=5
 ---------------------------------------------------
 1/38=1,62=5,172=1/1;
 2/12=2,15=1,17=6,18=5,40=1/2;
 1/38=1,53=2,62=5,63=1/22;
 3/5=4,6=6,7=112,11=2,25=1,30=1,74=-55,124=31/1,2,3;
 4//1;
 5/5=2,38=5/2;
 6/7=2,8=2,9=2,10=2,28=1/1;
 1/53=2,62=5,63=1/22;
 3/5=7,6=11,7=112,11=2,25=1,30=1,74=-55,82=7,124=31/1,2,3;
 4//1;
 5/5=2,38=5/2;
 6/7=2,8=2,9=2,10=2,28=1/1;
 1/53=2,62=5,63=1/22(-4);
 99/5=1,9=1/99;
 Leave Link    1 at Sun Feb 19 12:33:17 2023, MaxMem=  6710886400 cpu:               0.7 elap:               0.0
 (Enter /data0/home/software/g16/l101.exe)
 -------------------
 Title Card Required
 -------------------
 Symbolic Z-matrix:
 Charge =  0 Multiplicity = 1 in supermolecule
 Charge =  0 Multiplicity = 1 in fragment      1.
 Charge =  0 Multiplicity = 1 in fragment      2.
 Charge =  0 Multiplicity = 1 in fragment      3.
 Charge =  0 Multiplicity = 1 in fragment      4.
 Charge =  0 Multiplicity = 1 in fragment      5.
 P                     3.91687   15.93243   9.54405    
 O                     3.97136   15.05029   8.37376    
 O                     3.72318   17.44444   9.1328     
 H                     3.72971   18.04407   9.99328    
 O                     2.79495   15.68001   10.63186    
 H                     2.60159   14.63268   10.66219    
 O                     5.20827   15.90236   10.49052    
 H                     6.0725    15.83606   9.92553    
 O                     6.21127   15.4214   6.50743    
 H                     5.40866   15.16804   6.99811    
 H                     6.01171   16.29888   6.17801    
 O                     4.55222   17.06813   13.17033    
 H                     3.69647   16.62888   13.21732    
 H                     4.99809   16.60579   12.44343    
 O                     3.96792   19.15336   11.42218    
 H                     4.12132   18.50285   12.13466    
 H                     4.79693   19.62081   11.34313    
 O                     7.56852   15.60297   8.92511    
 H                     7.88508   14.71167   9.05913    
 H                     7.19813   15.59289   8.0196     
 
 ITRead=  0  0  0  0  0  0  0  0  0  0  0  0  0  0  0  0  0  0  0  0
 MicOpt= -1 -1 -1 -1 -1 -1 -1 -1 -1 -1 -1 -1 -1 -1 -1 -1 -1 -1 -1 -1
 NAtoms=     20 NQM=       20 NQMF=       0 NMMI=      0 NMMIF=      0
                NMic=       0 NMicF=      0.
                    Isotopes and Nuclear Properties:
 (Nuclear quadrupole moments (NQMom) in fm**2, nuclear magnetic moments (NMagM)
  in nuclear magnetons)

  Atom         1           2           3           4           5           6           7           8           9          10
 IAtWgt=          31          16          16           1          16           1          16           1          16           1
 AtmWgt=  30.9737634  15.9949146  15.9949146   1.0078250  15.9949146   1.0078250  15.9949146   1.0078250  15.9949146   1.0078250
 NucSpn=           1           0           0           1           0           1           0           1           0           1
 AtZEff=  -0.0000000  -0.0000000  -0.0000000  -0.0000000  -0.0000000  -0.0000000  -0.0000000  -0.0000000  -0.0000000  -0.0000000
 NQMom=    0.0000000   0.0000000   0.0000000   0.0000000   0.0000000   0.0000000   0.0000000   0.0000000   0.0000000   0.0000000
 NMagM=    1.1316000   0.0000000   0.0000000   2.7928460   0.0000000   2.7928460   0.0000000   2.7928460   0.0000000   2.7928460
 AtZNuc=  15.0000000   8.0000000   8.0000000   1.0000000   8.0000000   1.0000000   8.0000000   1.0000000   8.0000000   1.0000000

  Atom        11          12          13          14          15          16          17          18          19          20
 IAtWgt=           1          16           1           1          16           1           1          16           1           1
 AtmWgt=   1.0078250  15.9949146   1.0078250   1.0078250  15.9949146   1.0078250   1.0078250  15.9949146   1.0078250   1.0078250
 NucSpn=           1           0           1           1           0           1           1           0           1           1
 AtZEff=  -0.0000000  -0.0000000  -0.0000000  -0.0000000  -0.0000000  -0.0000000  -0.0000000  -0.0000000  -0.0000000  -0.0000000
 NQMom=    0.0000000   0.0000000   0.0000000   0.0000000   0.0000000   0.0000000   0.0000000   0.0000000   0.0000000   0.0000000
 NMagM=    2.7928460   0.0000000   2.7928460   2.7928460   0.0000000   2.7928460   2.7928460   0.0000000   2.7928460   2.7928460
 AtZNuc=   1.0000000   8.0000000   1.0000000   1.0000000   8.0000000   1.0000000   1.0000000   8.0000000   1.0000000   1.0000000
 Leave Link  101 at Sun Feb 19 12:33:17 2023, MaxMem=  6710886400 cpu:               2.0 elap:               0.1
 (Enter /data0/home/software/g16/l202.exe)
                          Input orientation:                          
 ---------------------------------------------------------------------
 Center     Atomic      Atomic             Coordinates (Angstroms)
 Number     Number       Type             X           Y           Z
 ---------------------------------------------------------------------
      1         15           0        3.916866   15.932432    9.544045
      2          8           0        3.971357   15.050293    8.373755
      3          8           0        3.723175   17.444442    9.132802
      4          1           0        3.729707   18.044071    9.993280
      5          8           0        2.794953   15.680009   10.631861
      6          1           0        2.601588   14.632675   10.662190
      7          8           0        5.208271   15.902361   10.490515
      8          1           0        6.072496   15.836057    9.925525
      9          8           0        6.211266   15.421396    6.507425
     10          1           0        5.408660   15.168036    6.998109
     11          1           0        6.011706   16.298877    6.178008
     12          8           0        4.552216   17.068127   13.170331
     13          1           0        3.696469   16.628879   13.217320
     14          1           0        4.998085   16.605787   12.443428
     15          8           0        3.967917   19.153358   11.422181
     16          1           0        4.121315   18.502854   12.134662
     17          1           0        4.796930   19.620806   11.343131
     18          8           0        7.568518   15.602972    8.925110
     19          1           0        7.885075   14.711670    9.059130
     20          1           0        7.198126   15.592887    8.019602
 ---------------------------------------------------------------------
                    Distance matrix (angstroms):
                    1          2          3          4          5
     1  P    0.000000
     2  O    1.466532   0.000000
     3  O    1.578864   2.523826   0.000000
     4  H    2.166993   3.412325   1.048818   0.000000
     5  O    1.582956   2.622882   2.494393   2.621133   0.000000
     6  H    2.160919   2.699557   3.391610   3.654821   1.065466
     7  O    1.601386   2.595506   2.535135   2.649588   2.427658
     8  H    2.191245   2.727673   2.955439   3.220027   3.356419
     9  O    3.840116   2.939064   4.144384   5.018739   5.361814
    10  H    3.048203   1.993014   3.546801   4.479008   4.505301
    11  H    3.981563   3.247043   3.909028   4.775932   5.528771
    12  O    3.852716   5.236047   4.138908   3.423834   3.385066
    13  H    3.745205   5.101727   4.165230   3.521123   2.897876
    14  H    3.166838   4.476156   3.645406   3.111377   2.998772
    15  O    3.728856   5.111561   2.867324   1.824560   3.750280
    16  H    3.655156   5.107552   3.207790   2.224715   3.462095
    17  H    4.197062   5.512563   3.282539   2.333914   4.477019
    18  O    3.718358   3.680898   4.268584   4.672946   5.070094
    19  H    4.179962   3.987680   4.979446   5.407829   5.414841
    20  H    3.633990   3.291181   4.091791   4.683336   5.120490
                    6          7          8          9         10
     6  H    0.000000
     7  O    2.904543   0.000000
     8  H    3.746733   1.034647   0.000000
     9  O    5.560030   4.135497   3.445955   0.000000
    10  H    4.646693   3.574393   3.075174   0.974237   0.000000
    11  H    5.874778   4.404594   3.776477   0.958286   1.521523
    12  O    4.003392   2.995135   3.789197   7.061054   6.514612
    13  H    3.422321   3.201381   4.136422   7.266699   6.613943
    14  H    3.578991   2.086350   2.843709   6.173388   5.646875
    15  O    4.783411   3.602147   4.204012   6.566200   6.126250
    16  H    4.410899   3.263013   3.974821   6.747524   6.257990
    17  H    5.492236   3.837055   4.238042   6.558921   6.251447
    18  O    5.350637   2.847963   1.814729   2.778543   2.927027
    19  H    5.521891   3.260658   2.302244   3.133137   3.254030
    20  H    5.388269   3.187587   2.226818   1.813831   2.103838
                   11         12         13         14         15
    11  H    0.000000
    12  O    7.184319   0.000000
    13  H    7.417623   0.963042   0.000000
    14  H    6.354298   0.970023   1.514479   0.000000
    15  O    6.310823   2.783096   3.109534   2.931605   0.000000
    16  H    6.626675   1.821188   2.205544   2.112564   0.976891
    17  H    6.260143   3.148764   3.698003   3.215813   0.954997
    18  O    3.233345   5.409867   5.870972   4.471166   5.639586
    19  H    3.785446   5.793342   6.205695   4.834859   6.376263
    20  H    2.301626   5.975549   6.352256   5.043450   5.889715
                   16         17         18         19         20
    16  H    0.000000
    17  H    1.527349   0.000000
    18  O    5.531162   5.447157   0.000000
    19  H    6.164241   6.233211   0.955295   0.000000
    20  H    5.904946   5.747671   0.978385   1.526126   0.000000
 Symmetry turned off by external request.
 Stoichiometry    H11O8P
 Framework group  C1[X(H11O8P)]
 Deg. of freedom    54
 Full point group                 C1      NOp   1
 Rotational constants (GHZ):           1.3344459           0.6007283           0.5426312
 Leave Link  202 at Sun Feb 19 12:33:17 2023, MaxMem=  6710886400 cpu:               0.1 elap:               0.0
 (Enter /data0/home/software/g16/l122.exe)
 Counterpoise: doing full-system calculation.
 Leave Link  122 at Sun Feb 19 12:33:17 2023, MaxMem=  6710886400 cpu:               0.0 elap:               0.0
 (Enter /data0/home/software/g16/l301.exe)
 Standard basis: 6-311+G(2d,p) (5D, 7F)
 Ernie: Thresh=  0.10000D-02 Tol=  0.10000D-05 Strict=F.
   317 basis functions,   480 primitive gaussians,   335 cartesian basis functions
    45 alpha electrons       45 beta electrons
       nuclear repulsion energy       672.3167275077 Hartrees.
 IExCor= 4336 DFT=T Ex+Corr=M062X ExCW=0 ScaHFX=  0.540000
 ScaDFX=  1.000000  1.000000  1.000000  1.000000 ScalE2=  1.000000  1.000000
 IRadAn=      5 IRanWt=     -1 IRanGd=            0 ICorTp=0 IEmpDi=131
 NAtoms=   20 NActive=   20 NUniq=   20 SFac= 1.00D+00 NAtFMM=   60 NAOKFM=F Big=F
 Integral buffers will be    131072 words long.
 Raffenetti 2 integral format.
 Two-electron integral symmetry is turned off.
 R6Disp:  Grimme-D3 Dispersion energy=       -0.0007418503 Hartrees.
 Nuclear repulsion after empirical dispersion term =      672.3159856574 Hartrees.
 Leave Link  301 at Sun Feb 19 12:33:17 2023, MaxMem=  6710886400 cpu:               1.1 elap:               0.1
 (Enter /data0/home/software/g16/l302.exe)
 NPDir=0 NMtPBC=     1 NCelOv=     1 NCel=       1 NClECP=     1 NCelD=      1
         NCelK=      1 NCelE2=     1 NClLst=     1 CellRange=     0.0.
 One-electron integrals computed using PRISM.
 NBasis=   317 RedAO= T EigKep=  2.31D-04  NBF=   317
 NBsUse=   317 1.00D-06 EigRej= -1.00D+00 NBFU=   317
 Precomputing XC quadrature grid using
 IXCGrd= 4 IRadAn=           5 IRanWt=          -1 IRanGd=           0 AccXCQ= 0.00D+00.
 Generated NRdTot=       0 NPtTot=           0 NUsed=           0 NTot=          32
 NSgBfM=   335   335   335   335   335 MxSgAt=    20 MxSgA2=    20.
 Leave Link  302 at Sun Feb 19 12:33:17 2023, MaxMem=  6710886400 cpu:               5.1 elap:               0.2
 (Enter /data0/home/software/g16/l303.exe)
 DipDrv:  MaxL=1.
 Leave Link  303 at Sun Feb 19 12:33:17 2023, MaxMem=  6710886400 cpu:               0.7 elap:               0.0
 (Enter /data0/home/software/g16/l401.exe)
 ExpMin= 3.48D-02 ExpMax= 7.75D+04 ExpMxC= 2.65D+03 IAcc=3 IRadAn=         5 AccDes= 0.00D+00
 Harris functional with IExCor= 1009 and IRadAn=       5 diagonalized for initial guess.
 HarFok:  IExCor= 1009 AccDes= 0.00D+00 IRadAn=         5 IDoV= 1 UseB2=F ITyADJ=14
 ICtDFT=  3500011 ScaDFX=  1.000000  1.000000  1.000000  1.000000
 FoFCou: FMM=F IPFlag=           0 FMFlag=      100000 FMFlg1=           0
         NFxFlg=           0 DoJE=T BraDBF=F KetDBF=T FulRan=T
         wScrn=  0.000000 ICntrl=       500 IOpCl=  0 I1Cent=   200000004 NGrid=           0
         NMat0=    1 NMatS0=      1 NMatT0=    0 NMatD0=    1 NMtDS0=    0 NMtDT0=    0
 Symmetry not used in FoFCou.
 Harris En= -949.621482957554    
 JPrj=0 DoOrth=F DoCkMO=F.
 Leave Link  401 at Sun Feb 19 12:33:18 2023, MaxMem=  6710886400 cpu:              16.6 elap:               0.7
 (Enter /data0/home/software/g16/l502.exe)
 Two-electron integral symmetry not used.
 Closed shell SCF:
 Using DIIS extrapolation, IDIIS=  1040.
 NGot=  6710886400 LenX=  6710651443 LenY=  6710538777
 Requested convergence on RMS density matrix=1.00D-08 within 128 cycles.
 Requested convergence on MAX density matrix=1.00D-06.
 Requested convergence on             energy=1.00D-06.
 No special actions if energy rises.
 Fock matrices will be formed incrementally for  20 cycles.

 Cycle   1  Pass 1  IDiag  1:
 FoFJK:  IHMeth= 1 ICntrl=       0 DoSepK=F KAlg= 0 I1Cent=           0 FoldK=F
 IRaf= 880000000 NMat=       1 IRICut=       1 DoRegI=T DoRafI=F ISym2E= 0 IDoP0=0 IntGTp=1.
 FoFCou: FMM=F IPFlag=           0 FMFlag=      100000 FMFlg1=           0
         NFxFlg=           0 DoJE=F BraDBF=F KetDBF=F FulRan=T
         wScrn=  0.000000 ICntrl=         0 IOpCl=  0 I1Cent=           0 NGrid=           0
         NMat0=    1 NMatS0=      1 NMatT0=    0 NMatD0=    1 NMtDS0=    0 NMtDT0=    0
 Symmetry not used in FoFCou.
 E= -949.416644331898    
 DIIS: error= 3.46D-02 at cycle   1 NSaved=   1.
 NSaved= 1 IEnMin= 1 EnMin= -949.416644331898     IErMin= 1 ErrMin= 3.46D-02
 ErrMax= 3.46D-02  0.00D+00 EMaxC= 1.00D-01 BMatC= 8.94D-01 BMatP= 8.94D-01
 IDIUse=3 WtCom= 6.54D-01 WtEn= 3.46D-01
 Coeff-Com:  0.100D+01
 Coeff-En:   0.100D+01
 Coeff:      0.100D+01
 Gap=     0.316 Goal=   None    Shift=    0.000
 GapD=    0.316 DampG=1.000 DampE=0.500 DampFc=0.5000 IDamp=-1.
 Damping current iteration by 5.00D-01
 RMSDP=4.84D-03 MaxDP=2.08D-01              OVMax= 1.95D-01

 Cycle   2  Pass 1  IDiag  1:
 RMSU=  2.42D-03    CP:  1.00D+00
 E= -949.640107507927     Delta-E=       -0.223463176029 Rises=F Damp=T
 DIIS: error= 8.82D-03 at cycle   2 NSaved=   2.
 NSaved= 2 IEnMin= 2 EnMin= -949.640107507927     IErMin= 2 ErrMin= 8.82D-03
 ErrMax= 8.82D-03  0.00D+00 EMaxC= 1.00D-01 BMatC= 3.71D-02 BMatP= 8.94D-01
 IDIUse=3 WtCom= 9.12D-01 WtEn= 8.82D-02
 Coeff-Com:  0.378D-01 0.962D+00
 Coeff-En:   0.134D+00 0.866D+00
 Coeff:      0.463D-01 0.954D+00
 Gap=     0.380 Goal=   None    Shift=    0.000
 RMSDP=9.28D-04 MaxDP=4.79D-02 DE=-2.23D-01 OVMax= 1.01D-01

 Cycle   3  Pass 1  IDiag  1:
 RMSU=  7.89D-04    CP:  9.93D-01  8.05D-01
 E= -949.915002126897     Delta-E=       -0.274894618970 Rises=F Damp=F
 DIIS: error= 3.01D-03 at cycle   3 NSaved=   3.
 NSaved= 3 IEnMin= 3 EnMin= -949.915002126897     IErMin= 3 ErrMin= 3.01D-03
 ErrMax= 3.01D-03  0.00D+00 EMaxC= 1.00D-01 BMatC= 7.33D-03 BMatP= 3.71D-02
 IDIUse=3 WtCom= 9.70D-01 WtEn= 3.01D-02
 Coeff-Com: -0.273D-01 0.230D+00 0.798D+00
 Coeff-En:   0.000D+00 0.000D+00 0.100D+01
 Coeff:     -0.265D-01 0.223D+00 0.804D+00
 Gap=     0.379 Goal=   None    Shift=    0.000
 RMSDP=3.47D-04 MaxDP=1.51D-02 DE=-2.75D-01 OVMax= 3.18D-02

 Cycle   4  Pass 1  IDiag  1:
 RMSU=  3.21D-04    CP:  9.93D-01  8.51D-01  9.19D-01
 E= -949.916884213484     Delta-E=       -0.001882086587 Rises=F Damp=F
 DIIS: error= 3.08D-03 at cycle   4 NSaved=   4.
 NSaved= 4 IEnMin= 4 EnMin= -949.916884213484     IErMin= 3 ErrMin= 3.01D-03
 ErrMax= 3.08D-03  0.00D+00 EMaxC= 1.00D-01 BMatC= 4.84D-03 BMatP= 7.33D-03
 IDIUse=3 WtCom= 9.69D-01 WtEn= 3.08D-02
 Coeff-Com: -0.199D-01 0.418D-01 0.480D+00 0.498D+00
 Coeff-En:   0.000D+00 0.000D+00 0.395D+00 0.605D+00
 Coeff:     -0.193D-01 0.406D-01 0.478D+00 0.501D+00
 Gap=     0.377 Goal=   None    Shift=    0.000
 RMSDP=1.65D-04 MaxDP=7.75D-03 DE=-1.88D-03 OVMax= 1.34D-02

 Cycle   5  Pass 1  IDiag  1:
 RMSU=  4.48D-05    CP:  9.93D-01  8.42D-01  9.87D-01  5.40D-01
 E= -949.920130078090     Delta-E=       -0.003245864606 Rises=F Damp=F
 DIIS: error= 1.70D-04 at cycle   5 NSaved=   5.
 NSaved= 5 IEnMin= 5 EnMin= -949.920130078090     IErMin= 5 ErrMin= 1.70D-04
 ErrMax= 1.70D-04  0.00D+00 EMaxC= 1.00D-01 BMatC= 2.32D-05 BMatP= 4.84D-03
 IDIUse=3 WtCom= 9.98D-01 WtEn= 1.70D-03
 Coeff-Com: -0.342D-02 0.381D-02 0.102D+00 0.133D+00 0.765D+00
 Coeff-En:   0.000D+00 0.000D+00 0.000D+00 0.000D+00 0.100D+01
 Coeff:     -0.341D-02 0.381D-02 0.101D+00 0.132D+00 0.766D+00
 Gap=     0.374 Goal=   None    Shift=    0.000
 RMSDP=1.84D-05 MaxDP=1.01D-03 DE=-3.25D-03 OVMax= 9.24D-04

 Cycle   6  Pass 1  IDiag  1:
 RMSU=  1.52D-05    CP:  9.92D-01  8.40D-01  9.92D-01  5.58D-01  8.89D-01
 E= -949.920145996963     Delta-E=       -0.000015918873 Rises=F Damp=F
 DIIS: error= 5.94D-05 at cycle   6 NSaved=   6.
 NSaved= 6 IEnMin= 6 EnMin= -949.920145996963     IErMin= 6 ErrMin= 5.94D-05
 ErrMax= 5.94D-05  0.00D+00 EMaxC= 1.00D-01 BMatC= 2.69D-06 BMatP= 2.32D-05
 IDIUse=1 WtCom= 1.00D+00 WtEn= 0.00D+00
 Coeff-Com: -0.196D-03-0.789D-03 0.115D-01 0.216D-01 0.281D+00 0.687D+00
 Coeff:     -0.196D-03-0.789D-03 0.115D-01 0.216D-01 0.281D+00 0.687D+00
 Gap=     0.375 Goal=   None    Shift=    0.000
 RMSDP=5.54D-06 MaxDP=2.00D-04 DE=-1.59D-05 OVMax= 2.43D-04

 Cycle   7  Pass 1  IDiag  1:
 RMSU=  3.37D-06    CP:  9.92D-01  8.40D-01  9.93D-01  5.59D-01  9.74D-01
                    CP:  8.96D-01
 E= -949.920147877486     Delta-E=       -0.000001880523 Rises=F Damp=F
 DIIS: error= 2.22D-05 at cycle   7 NSaved=   7.
 NSaved= 7 IEnMin= 7 EnMin= -949.920147877486     IErMin= 7 ErrMin= 2.22D-05
 ErrMax= 2.22D-05  0.00D+00 EMaxC= 1.00D-01 BMatC= 3.00D-07 BMatP= 2.69D-06
 IDIUse=1 WtCom= 1.00D+00 WtEn= 0.00D+00
 Coeff-Com:  0.363D-03-0.731D-03-0.970D-02-0.101D-01 0.269D-02 0.230D+00
 Coeff-Com:  0.787D+00
 Coeff:      0.363D-03-0.731D-03-0.970D-02-0.101D-01 0.269D-02 0.230D+00
 Coeff:      0.787D+00
 Gap=     0.375 Goal=   None    Shift=    0.000
 RMSDP=2.40D-06 MaxDP=7.85D-05 DE=-1.88D-06 OVMax= 9.64D-05

 Cycle   8  Pass 1  IDiag  1:
 RMSU=  1.70D-06    CP:  9.92D-01  8.39D-01  9.94D-01  5.60D-01  9.96D-01
                    CP:  9.65D-01  8.74D-01
 E= -949.920148085721     Delta-E=       -0.000000208235 Rises=F Damp=F
 DIIS: error= 9.21D-06 at cycle   8 NSaved=   8.
 NSaved= 8 IEnMin= 8 EnMin= -949.920148085721     IErMin= 8 ErrMin= 9.21D-06
 ErrMax= 9.21D-06  0.00D+00 EMaxC= 1.00D-01 BMatC= 6.07D-08 BMatP= 3.00D-07
 IDIUse=1 WtCom= 1.00D+00 WtEn= 0.00D+00
 Coeff-Com:  0.169D-03-0.236D-03-0.534D-02-0.624D-02-0.201D-01 0.390D-01
 Coeff-Com:  0.368D+00 0.624D+00
 Coeff:      0.169D-03-0.236D-03-0.534D-02-0.624D-02-0.201D-01 0.390D-01
 Coeff:      0.368D+00 0.624D+00
 Gap=     0.375 Goal=   None    Shift=    0.000
 RMSDP=6.65D-07 MaxDP=3.44D-05 DE=-2.08D-07 OVMax= 3.19D-05

 Cycle   9  Pass 1  IDiag  1:
 RMSU=  4.14D-07    CP:  9.92D-01  8.39D-01  9.94D-01  5.60D-01  9.96D-01
                    CP:  9.82D-01  9.91D-01  8.94D-01
 E= -949.920148130671     Delta-E=       -0.000000044950 Rises=F Damp=F
 DIIS: error= 1.04D-06 at cycle   9 NSaved=   9.
 NSaved= 9 IEnMin= 9 EnMin= -949.920148130671     IErMin= 9 ErrMin= 1.04D-06
 ErrMax= 1.04D-06  0.00D+00 EMaxC= 1.00D-01 BMatC= 1.09D-09 BMatP= 6.07D-08
 IDIUse=1 WtCom= 1.00D+00 WtEn= 0.00D+00
 Coeff-Com: -0.175D-04 0.350D-04 0.161D-03 0.142D-03-0.207D-02-0.131D-01
 Coeff-Com: -0.200D-01 0.449D-01 0.990D+00
 Coeff:     -0.175D-04 0.350D-04 0.161D-03 0.142D-03-0.207D-02-0.131D-01
 Coeff:     -0.200D-01 0.449D-01 0.990D+00
 Gap=     0.375 Goal=   None    Shift=    0.000
 RMSDP=2.19D-07 MaxDP=4.88D-06 DE=-4.49D-08 OVMax= 1.00D-05

 Cycle  10  Pass 1  IDiag  1:
 RMSU=  1.17D-07    CP:  9.92D-01  8.39D-01  9.94D-01  5.60D-01  9.97D-01
                    CP:  9.84D-01  1.02D+00  9.79D-01  1.06D+00
 E= -949.920148131879     Delta-E=       -0.000000001208 Rises=F Damp=F
 DIIS: error= 1.13D-06 at cycle  10 NSaved=  10.
 NSaved=10 IEnMin=10 EnMin= -949.920148131879     IErMin= 9 ErrMin= 1.04D-06
 ErrMax= 1.13D-06  0.00D+00 EMaxC= 1.00D-01 BMatC= 5.42D-10 BMatP= 1.09D-09
 IDIUse=1 WtCom= 1.00D+00 WtEn= 0.00D+00
 Coeff-Com: -0.228D-04 0.379D-04 0.518D-03 0.569D-03 0.322D-03-0.103D-01
 Coeff-Com: -0.412D-01-0.303D-01 0.513D+00 0.568D+00
 Coeff:     -0.228D-04 0.379D-04 0.518D-03 0.569D-03 0.322D-03-0.103D-01
 Coeff:     -0.412D-01-0.303D-01 0.513D+00 0.568D+00
 Gap=     0.375 Goal=   None    Shift=    0.000
 RMSDP=7.08D-08 MaxDP=2.66D-06 DE=-1.21D-09 OVMax= 4.19D-06

 Cycle  11  Pass 1  IDiag  1:
 RMSU=  4.10D-08    CP:  9.92D-01  8.39D-01  9.94D-01  5.60D-01  9.97D-01
                    CP:  9.84D-01  1.02D+00  9.93D-01  1.17D+00  8.11D-01
 E= -949.920148132263     Delta-E=       -0.000000000383 Rises=F Damp=F
 DIIS: error= 1.27D-07 at cycle  11 NSaved=  11.
 NSaved=11 IEnMin=11 EnMin= -949.920148132263     IErMin=11 ErrMin= 1.27D-07
 ErrMax= 1.27D-07  0.00D+00 EMaxC= 1.00D-01 BMatC= 1.20D-11 BMatP= 5.42D-10
 IDIUse=1 WtCom= 1.00D+00 WtEn= 0.00D+00
 Coeff-Com: -0.484D-06 0.832D-06 0.563D-04 0.606D-04 0.230D-03-0.975D-04
 Coeff-Com: -0.471D-02-0.104D-01-0.195D-01 0.928D-01 0.942D+00
 Coeff:     -0.484D-06 0.832D-06 0.563D-04 0.606D-04 0.230D-03-0.975D-04
 Coeff:     -0.471D-02-0.104D-01-0.195D-01 0.928D-01 0.942D+00
 Gap=     0.375 Goal=   None    Shift=    0.000
 RMSDP=2.19D-08 MaxDP=7.58D-07 DE=-3.83D-10 OVMax= 1.06D-06

 Cycle  12  Pass 1  IDiag  1:
 RMSU=  1.49D-08    CP:  9.92D-01  8.39D-01  9.94D-01  5.60D-01  9.97D-01
                    CP:  9.84D-01  1.02D+00  9.96D-01  1.20D+00  8.67D-01
                    CP:  9.87D-01
 E= -949.920148132253     Delta-E=        0.000000000010 Rises=F Damp=F
 DIIS: error= 3.42D-08 at cycle  12 NSaved=  12.
 NSaved=12 IEnMin=11 EnMin= -949.920148132263     IErMin=12 ErrMin= 3.42D-08
 ErrMax= 3.42D-08  0.00D+00 EMaxC= 1.00D-01 BMatC= 9.23D-13 BMatP= 1.20D-11
 IDIUse=1 WtCom= 1.00D+00 WtEn= 0.00D+00
 Coeff-Com:  0.113D-05-0.186D-05-0.899D-05-0.102D-04 0.538D-04 0.503D-03
 Coeff-Com:  0.890D-03-0.126D-02-0.335D-01-0.556D-02 0.265D+00 0.774D+00
 Coeff:      0.113D-05-0.186D-05-0.899D-05-0.102D-04 0.538D-04 0.503D-03
 Coeff:      0.890D-03-0.126D-02-0.335D-01-0.556D-02 0.265D+00 0.774D+00
 Gap=     0.375 Goal=   None    Shift=    0.000
 RMSDP=5.20D-09 MaxDP=1.86D-07 DE= 9.55D-12 OVMax= 1.74D-07

 SCF Done:  E(RM062X) =  -949.920148132     A.U. after   12 cycles
            NFock= 12  Conv=0.52D-08     -V/T= 2.0027
 KE= 9.473997027520D+02 PE=-3.595254410973D+03 EE= 1.025618574431D+03
 Leave Link  502 at Sun Feb 19 12:33:39 2023, MaxMem=  6710886400 cpu:             514.2 elap:              21.5
 (Enter /data0/home/software/g16/l601.exe)
 Copying SCF densities to generalized density rwf, IOpCl= 0 IROHF=0.

 **********************************************************************

            Population analysis using the SCF density.

 **********************************************************************

 Alpha  occ. eigenvalues --  -78.17080 -19.69197 -19.66466 -19.65681 -19.64721
 Alpha  occ. eigenvalues --  -19.63953 -19.63917 -19.63341 -19.60382  -6.97817
 Alpha  occ. eigenvalues --   -5.09729  -5.09678  -5.09562  -1.23842  -1.16572
 Alpha  occ. eigenvalues --   -1.16147  -1.15587  -1.15089  -1.14368  -1.13942
 Alpha  occ. eigenvalues --   -1.10554  -0.72572  -0.64820  -0.63172  -0.62797
 Alpha  occ. eigenvalues --   -0.62695  -0.62622  -0.61595  -0.57215  -0.55149
 Alpha  occ. eigenvalues --   -0.51881  -0.51163  -0.50966  -0.49171  -0.48566
 Alpha  occ. eigenvalues --   -0.48090  -0.46697  -0.46166  -0.42624  -0.42263
 Alpha  occ. eigenvalues --   -0.41976  -0.41719  -0.41103  -0.39948  -0.39225
 Alpha virt. eigenvalues --   -0.01751   0.01311   0.02500   0.03361   0.07610
 Alpha virt. eigenvalues --    0.08494   0.08750   0.09957   0.11645   0.12434
 Alpha virt. eigenvalues --    0.12997   0.13759   0.14006   0.14690   0.15666
 Alpha virt. eigenvalues --    0.16417   0.16521   0.17054   0.17465   0.17738
 Alpha virt. eigenvalues --    0.18669   0.19278   0.19997   0.20256   0.20541
 Alpha virt. eigenvalues --    0.21237   0.21797   0.23773   0.24505   0.24723
 Alpha virt. eigenvalues --    0.25171   0.26157   0.26516   0.27002   0.27385
 Alpha virt. eigenvalues --    0.27788   0.28508   0.29898   0.30456   0.30647
 Alpha virt. eigenvalues --    0.33341   0.33372   0.34388   0.35181   0.36400
 Alpha virt. eigenvalues --    0.36857   0.37483   0.40226   0.41741   0.43498
 Alpha virt. eigenvalues --    0.44372   0.46059   0.48815   0.49943   0.51963
 Alpha virt. eigenvalues --    0.52496   0.54041   0.54631   0.55507   0.56196
 Alpha virt. eigenvalues --    0.57660   0.60272   0.61338   0.62210   0.65177
 Alpha virt. eigenvalues --    0.66846   0.71374   0.77775   0.78997   0.80767
 Alpha virt. eigenvalues --    0.86148   0.96578   0.97149   0.99644   1.00880
 Alpha virt. eigenvalues --    1.01431   1.01820   1.03332   1.03725   1.04838
 Alpha virt. eigenvalues --    1.05457   1.08495   1.09192   1.10567   1.11287
 Alpha virt. eigenvalues --    1.12115   1.12437   1.13567   1.14452   1.15411
 Alpha virt. eigenvalues --    1.16479   1.17020   1.17554   1.18367   1.19900
 Alpha virt. eigenvalues --    1.20668   1.20926   1.21870   1.22705   1.23199
 Alpha virt. eigenvalues --    1.25018   1.27023   1.28347   1.29976   1.30690
 Alpha virt. eigenvalues --    1.33770   1.34848   1.35696   1.36189   1.38452
 Alpha virt. eigenvalues --    1.38940   1.42113   1.43124   1.44443   1.45101
 Alpha virt. eigenvalues --    1.47459   1.47853   1.49458   1.52012   1.56666
 Alpha virt. eigenvalues --    1.58551   1.61084   1.65247   1.65847   1.67469
 Alpha virt. eigenvalues --    1.67837   1.69251   1.70719   1.72995   1.73777
 Alpha virt. eigenvalues --    1.74744   1.74998   1.76362   1.78892   1.79489
 Alpha virt. eigenvalues --    1.80856   1.83027   1.83951   1.85684   1.87074
 Alpha virt. eigenvalues --    1.90667   1.96486   1.97041   1.97882   1.99473
 Alpha virt. eigenvalues --    2.01236   2.03801   2.04454   2.07464   2.07749
 Alpha virt. eigenvalues --    2.09073   2.11524   2.12276   2.13619   2.15606
 Alpha virt. eigenvalues --    2.16078   2.17936   2.22331   2.24220   2.25839
 Alpha virt. eigenvalues --    2.28198   2.32612   2.34770   2.40383   2.41212
 Alpha virt. eigenvalues --    2.42173   2.43569   2.45669   2.49910   2.52774
 Alpha virt. eigenvalues --    2.53604   2.55342   2.58327   2.59603   2.60606
 Alpha virt. eigenvalues --    2.60743   2.62058   2.64534   2.65304   2.67709
 Alpha virt. eigenvalues --    2.71051   2.77269   2.81137   2.86256   2.87163
 Alpha virt. eigenvalues --    2.91208   2.93496   2.95110   2.98363   3.00413
 Alpha virt. eigenvalues --    3.01931   3.08818   3.11032   3.12846   3.13330
 Alpha virt. eigenvalues --    5.07129   5.07919   5.09314   5.12079   5.12340
 Alpha virt. eigenvalues --    5.13237   5.14692   5.14822   5.15763   5.17341
 Alpha virt. eigenvalues --    5.23744   5.27741   5.37266   5.46051   5.52284
 Alpha virt. eigenvalues --    5.52760   5.53659   5.54976   5.60545   5.65077
 Alpha virt. eigenvalues --    5.92463   5.93827   5.94576   5.95098   6.73972
 Alpha virt. eigenvalues --    6.74240   6.74991   6.76678   6.77411   6.77747
 Alpha virt. eigenvalues --    6.78244   6.78700   6.79925   6.80244   6.81330
 Alpha virt. eigenvalues --    6.81668   6.82631   6.83898   6.84090   6.85989
 Alpha virt. eigenvalues --    6.89270   6.90442   6.90916   6.91339   6.91495
 Alpha virt. eigenvalues --    6.93279   6.94148   6.95408   6.96768   6.98964
 Alpha virt. eigenvalues --    6.99774   7.00947   7.06794   7.07657   7.10671
 Alpha virt. eigenvalues --    7.12068   7.15154   7.16211   7.16711   7.21565
 Alpha virt. eigenvalues --    7.27274   7.31658   7.36492   7.40998   7.66466
 Alpha virt. eigenvalues --   14.23638  14.25347  14.37904  49.98250  49.98740
 Alpha virt. eigenvalues --   49.99965  50.01230  50.02049  50.05725  50.05988
 Alpha virt. eigenvalues --   50.09673 163.88850
          Condensed to atoms (all electrons):
               1          2          3          4          5          6
     1  P   12.649917   0.408793   0.254184   0.032868   0.214191   0.002551
     2  O    0.408793   8.366649  -0.058624   0.002012  -0.083463  -0.001492
     3  O    0.254184  -0.058624   8.155006   0.207467  -0.018934   0.001439
     4  H    0.032868   0.002012   0.207467   0.372283   0.004284   0.000480
     5  O    0.214191  -0.083463  -0.018934   0.004284   8.154412   0.255032
     6  H    0.002551  -0.001492   0.001439   0.000480   0.255032   0.411552
     7  O    0.262551  -0.018233  -0.003554  -0.011579   0.008705  -0.008411
     8  H    0.027308  -0.027554   0.008951  -0.003422   0.009836  -0.000326
     9  O    0.011014  -0.013552  -0.007896   0.000240   0.001280  -0.000024
    10  H    0.010787   0.035031   0.001440  -0.000127  -0.000055   0.000100
    11  H    0.000859  -0.001219   0.001378  -0.000037  -0.000086   0.000003
    12  O    0.002840   0.004286  -0.006872  -0.006435  -0.013213  -0.001657
    13  H   -0.000844  -0.000442   0.000413   0.000288   0.005814   0.000282
    14  H    0.011178  -0.000305  -0.001638   0.002601   0.004600   0.000226
    15  O    0.050874   0.007704   0.011758  -0.057094  -0.025124  -0.000113
    16  H   -0.004893  -0.001466  -0.008119   0.023272   0.007907   0.000217
    17  H   -0.005778  -0.000341   0.000027   0.002693   0.001149  -0.000006
    18  O   -0.007325   0.011804  -0.011754   0.000152   0.001830   0.000252
    19  H   -0.001171  -0.001505   0.000532   0.000001  -0.000111  -0.000011
    20  H    0.008380  -0.007558   0.001865  -0.000057  -0.000200  -0.000009
               7          8          9         10         11         12
     1  P    0.262551   0.027308   0.011014   0.010787   0.000859   0.002840
     2  O   -0.018233  -0.027554  -0.013552   0.035031  -0.001219   0.004286
     3  O   -0.003554   0.008951  -0.007896   0.001440   0.001378  -0.006872
     4  H   -0.011579  -0.003422   0.000240  -0.000127  -0.000037  -0.006435
     5  O    0.008705   0.009836   0.001280  -0.000055  -0.000086  -0.013213
     6  H   -0.008411  -0.000326  -0.000024   0.000100   0.000003  -0.001657
     7  O    8.188703   0.198034  -0.008419   0.001246  -0.000197   0.015761
     8  H    0.198034   0.358717  -0.002081   0.001785   0.000270   0.000808
     9  O   -0.008419  -0.002081   8.015109   0.302044   0.327566   0.000021
    10  H    0.001246   0.001785   0.302044   0.331430  -0.019804   0.000007
    11  H   -0.000197   0.000270   0.327566  -0.019804   0.403769  -0.000004
    12  O    0.015761   0.000808   0.000021   0.000007  -0.000004   7.904614
    13  H   -0.000848   0.000491  -0.000002   0.000000   0.000000   0.338150
    14  H    0.018430  -0.001428   0.000000  -0.000017   0.000002   0.326187
    15  O   -0.002878   0.001541   0.000187  -0.000024  -0.000024  -0.001794
    16  H   -0.004881  -0.000748  -0.000023   0.000003   0.000002   0.007284
    17  H    0.000553  -0.000183  -0.000023   0.000002   0.000002   0.004125
    18  O    0.059158  -0.083206  -0.014146  -0.001632  -0.001784   0.000152
    19  H   -0.003199   0.004346   0.003907  -0.000697   0.000498   0.000027
    20  H   -0.006623   0.020092  -0.005225   0.005779   0.003910  -0.000042
              13         14         15         16         17         18
     1  P   -0.000844   0.011178   0.050874  -0.004893  -0.005778  -0.007325
     2  O   -0.000442  -0.000305   0.007704  -0.001466  -0.000341   0.011804
     3  O    0.000413  -0.001638   0.011758  -0.008119   0.000027  -0.011754
     4  H    0.000288   0.002601  -0.057094   0.023272   0.002693   0.000152
     5  O    0.005814   0.004600  -0.025124   0.007907   0.001149   0.001830
     6  H    0.000282   0.000226  -0.000113   0.000217  -0.000006   0.000252
     7  O   -0.000848   0.018430  -0.002878  -0.004881   0.000553   0.059158
     8  H    0.000491  -0.001428   0.001541  -0.000748  -0.000183  -0.083206
     9  O   -0.000002   0.000000   0.000187  -0.000023  -0.000023  -0.014146
    10  H    0.000000  -0.000017  -0.000024   0.000003   0.000002  -0.001632
    11  H    0.000000   0.000002  -0.000024   0.000002   0.000002  -0.001784
    12  O    0.338150   0.326187  -0.001794   0.007284   0.004125   0.000152
    13  H    0.402429  -0.021631  -0.003941   0.004697   0.000453  -0.000026
    14  H   -0.021631   0.343037  -0.009492   0.004970  -0.000543   0.000426
    15  O   -0.003941  -0.009492   8.142618   0.245245   0.310844   0.000397
    16  H    0.004697   0.004970   0.245245   0.360316  -0.014706  -0.000104
    17  H    0.000453  -0.000543   0.310844  -0.014706   0.408218  -0.000032
    18  O   -0.000026   0.000426   0.000397  -0.000104  -0.000032   8.179338
    19  H    0.000000  -0.000077  -0.000020   0.000002   0.000000   0.299418
    20  H    0.000003   0.000001  -0.000104   0.000017   0.000008   0.256972
              19         20
     1  P   -0.001171   0.008380
     2  O   -0.001505  -0.007558
     3  O    0.000532   0.001865
     4  H    0.000001  -0.000057
     5  O   -0.000111  -0.000200
     6  H   -0.000011  -0.000009
     7  O   -0.003199  -0.006623
     8  H    0.004346   0.020092
     9  O    0.003907  -0.005225
    10  H   -0.000697   0.005779
    11  H    0.000498   0.003910
    12  O    0.000027  -0.000042
    13  H    0.000000   0.000003
    14  H   -0.000077   0.000001
    15  O   -0.000020  -0.000104
    16  H    0.000002   0.000017
    17  H    0.000000   0.000008
    18  O    0.299418   0.256972
    19  H    0.415589  -0.013727
    20  H   -0.013727   0.347118
 Mulliken charges:
               1
     1  P    1.071715
     2  O   -0.620527
     3  O   -0.527069
     4  H    0.430108
     5  O   -0.527855
     6  H    0.339913
     7  O   -0.684318
     8  H    0.486772
     9  O   -0.609977
    10  H    0.332701
    11  H    0.284897
    12  O   -0.574245
    13  H    0.274714
    14  H    0.323471
    15  O   -0.670558
    16  H    0.381007
    17  H    0.293538
    18  O   -0.689890
    19  H    0.296199
    20  H    0.389402
 Sum of Mulliken charges =  -0.00000
 Mulliken charges with hydrogens summed into heavy atoms:
               1
     1  P    1.071715
     2  O   -0.620527
     3  O   -0.096961
     5  O   -0.187941
     7  O   -0.197546
     9  O    0.007622
    12  O    0.023940
    15  O    0.003988
    18  O   -0.004289
         Mulliken charges condensed to fragments:
      1     -0.031260
      2      0.007622
      3      0.023940
      4      0.003988
      5     -0.004289
 Electronic spatial extent (au):  <R**2>=         125998.8902
 Charge=             -0.0000 electrons
 Dipole moment (field-independent basis, Debye):
    X=              0.3438    Y=             -1.2221    Z=              1.8449  Tot=              2.2395
 Quadrupole moment (field-independent basis, Debye-Ang):
   XX=            -59.4884   YY=            -98.0341   ZZ=            -32.4002
   XY=              5.1491   XZ=              8.0562   YZ=              9.2607
 Traceless Quadrupole moment (field-independent basis, Debye-Ang):
   XX=              3.8191   YY=            -34.7266   ZZ=             30.9074
   XY=              5.1491   XZ=              8.0562   YZ=              9.2607
 Octapole moment (field-independent basis, Debye-Ang**2):
  XXX=           -856.7858  YYY=          -3830.3056  ZZZ=          -1498.5492  XYY=           -173.6607
  XXY=           -975.5536  XXZ=           -564.7469  XZZ=           -208.4726  YZZ=           -809.5988
  YYZ=           -747.9841  XYZ=             92.3993
 Hexadecapole moment (field-independent basis, Debye-Ang**3):
 XXXX=          -8839.7678 YYYY=        -115181.3285 ZZZZ=         -34478.7927 XXXY=         -14086.4365
 XXXZ=          -8080.0155 YYYX=         -11015.1861 YYYZ=         -36302.9191 ZZZX=          -8053.5223
 ZZZY=         -28203.1032 XXYY=         -17247.3757 XXZZ=          -7307.9048 YYZZ=         -23503.7550
 XXYZ=          -9484.0437 YYXZ=          -1459.9101 ZZXY=          -4003.4464
 N-N= 6.723159856574D+02 E-N=-3.595254415194D+03  KE= 9.473997027520D+02
 No NMR shielding tensors so no spin-rotation constants.
 Leave Link  601 at Sun Feb 19 12:33:40 2023, MaxMem=  6710886400 cpu:               2.5 elap:               0.1
 (Enter /data0/home/software/g16/l122.exe)
 CPIOFr:  IOpCl= 0 IRwI=-1 IRwCP=  731 ICalc= -1 LCPTot=      156386 Len1MO=      408861 IndFrg=      156386
 CPIOFr:  IOpCl= 0 IRwI=-1 IRwCP=  731 ICalc=  0 LCPTot=      156386 Len1MO=      408861 IndFrg=      565247
 Counterpoise: doing calculation for fragment   1 using the basis set of the full-system, NewBq=T
 Leave Link  122 at Sun Feb 19 12:33:40 2023, MaxMem=  6710886400 cpu:               0.2 elap:               0.0
 (Enter /data0/home/software/g16/l301.exe)
 Basis read from rwf:  (5D, 7F)
 No pseudopotential information found on rwf file.
   317 basis functions,   480 primitive gaussians,   335 cartesian basis functions
    25 alpha electrons       25 beta electrons
       nuclear repulsion energy       280.0399371950 Hartrees.
 IExCor= 4336 DFT=T Ex+Corr=M062X ExCW=0 ScaHFX=  0.540000
 ScaDFX=  1.000000  1.000000  1.000000  1.000000 ScalE2=  1.000000  1.000000
 IRadAn=      5 IRanWt=     -1 IRanGd=            0 ICorTp=0 IEmpDi=131
 NAtoms=   20 NActive=   20 NUniq=   20 SFac= 1.00D+00 NAtFMM=   60 NAOKFM=F Big=F
 Integral buffers will be    131072 words long.
 Raffenetti 2 integral format.
 Two-electron integral symmetry is turned off.
 R6Disp:  Grimme-D3 Dispersion energy=       -0.0000478720 Hartrees.
 Nuclear repulsion after empirical dispersion term =      280.0398893230 Hartrees.
 No density basis found on file   718.
 Leave Link  301 at Sun Feb 19 12:33:40 2023, MaxMem=  6710886400 cpu:               1.3 elap:               0.1
 (Enter /data0/home/software/g16/l302.exe)
 NPDir=0 NMtPBC=     1 NCelOv=     1 NCel=       1 NClECP=     1 NCelD=      1
         NCelK=      1 NCelE2=     1 NClLst=     1 CellRange=     0.0.
 One-electron integrals computed using PRISM.
 NBasis=   317 RedAO= T EigKep=  2.31D-04  NBF=   317
 NBsUse=   317 1.00D-06 EigRej= -1.00D+00 NBFU=   317
 Precomputing XC quadrature grid using
 IXCGrd= 4 IRadAn=           5 IRanWt=          -1 IRanGd=           0 AccXCQ= 0.00D+00.
 Generated NRdTot=       0 NPtTot=           0 NUsed=           0 NTot=          32
 NSgBfM=   335   335   335   335   335 MxSgAt=    20 MxSgA2=    20.
 Leave Link  302 at Sun Feb 19 12:33:40 2023, MaxMem=  6710886400 cpu:               5.2 elap:               0.2
 (Enter /data0/home/software/g16/l303.exe)
 DipDrv:  MaxL=1.
 Leave Link  303 at Sun Feb 19 12:33:40 2023, MaxMem=  6710886400 cpu:               0.8 elap:               0.0
 (Enter /data0/home/software/g16/l401.exe)
 ExpMin= 3.48D-02 ExpMax= 7.75D+04 ExpMxC= 2.65D+03 IAcc=3 IRadAn=         5 AccDes= 0.00D+00
 Harris functional with IExCor= 1009 and IRadAn=       5 diagonalized for initial guess.
 HarFok:  IExCor= 1009 AccDes= 0.00D+00 IRadAn=         5 IDoV= 1 UseB2=F ITyADJ=14
 ICtDFT=  3500011 ScaDFX=  1.000000  1.000000  1.000000  1.000000
 FoFCou: FMM=F IPFlag=           0 FMFlag=      100000 FMFlg1=           0
         NFxFlg=           0 DoJE=T BraDBF=F KetDBF=T FulRan=T
         wScrn=  0.000000 ICntrl=       500 IOpCl=  0 I1Cent=   200000004 NGrid=           0
         NMat0=    1 NMatS0=      1 NMatT0=    0 NMatD0=    1 NMtDS0=    0 NMtDT0=    0
 Symmetry not used in FoFCou.
 Harris En= -643.942248185740    
 JPrj=0 DoOrth=F DoCkMO=F.
 Leave Link  401 at Sun Feb 19 12:33:41 2023, MaxMem=  6710886400 cpu:              16.8 elap:               0.7
 (Enter /data0/home/software/g16/l502.exe)
 Two-electron integral symmetry not used.
 Closed shell SCF:
 Using DIIS extrapolation, IDIIS=  1040.
 NGot=  6710886400 LenX=  6710651443 LenY=  6710538777
 Requested convergence on RMS density matrix=1.00D-08 within 128 cycles.
 Requested convergence on MAX density matrix=1.00D-06.
 Requested convergence on             energy=1.00D-06.
 No special actions if energy rises.
 Fock matrices will be formed incrementally for  20 cycles.

 Cycle   1  Pass 1  IDiag  1:
 FoFJK:  IHMeth= 1 ICntrl=       0 DoSepK=F KAlg= 0 I1Cent=           0 FoldK=F
 IRaf= 880000000 NMat=       1 IRICut=       1 DoRegI=T DoRafI=F ISym2E= 0 IDoP0=0 IntGTp=1.
 FoFCou: FMM=F IPFlag=           0 FMFlag=      100000 FMFlg1=           0
         NFxFlg=           0 DoJE=F BraDBF=F KetDBF=F FulRan=T
         wScrn=  0.000000 ICntrl=         0 IOpCl=  0 I1Cent=           0 NGrid=           0
         NMat0=    1 NMatS0=      1 NMatT0=    0 NMatD0=    1 NMtDS0=    0 NMtDT0=    0
 Symmetry not used in FoFCou.
 E= -643.869403016773    
 DIIS: error= 3.02D-02 at cycle   1 NSaved=   1.
 NSaved= 1 IEnMin= 1 EnMin= -643.869403016773     IErMin= 1 ErrMin= 3.02D-02
 ErrMax= 3.02D-02  0.00D+00 EMaxC= 1.00D-01 BMatC= 5.01D-01 BMatP= 5.01D-01
 IDIUse=3 WtCom= 6.98D-01 WtEn= 3.02D-01
 Coeff-Com:  0.100D+01
 Coeff-En:   0.100D+01
 Coeff:      0.100D+01
 Gap=     0.308 Goal=   None    Shift=    0.000
 GapD=    0.308 DampG=1.000 DampE=0.500 DampFc=0.5000 IDamp=-1.
 Damping current iteration by 5.00D-01
 RMSDP=3.72D-03 MaxDP=1.82D-01              OVMax= 2.43D-01

 Cycle   2  Pass 1  IDiag  1:
 RMSU=  1.86D-03    CP:  1.00D+00
 E= -643.986051489780     Delta-E=       -0.116648473007 Rises=F Damp=T
 DIIS: error= 8.91D-03 at cycle   2 NSaved=   2.
 NSaved= 2 IEnMin= 2 EnMin= -643.986051489780     IErMin= 2 ErrMin= 8.91D-03
 ErrMax= 8.91D-03  0.00D+00 EMaxC= 1.00D-01 BMatC= 2.57D-02 BMatP= 5.01D-01
 IDIUse=3 WtCom= 9.11D-01 WtEn= 8.91D-02
 Coeff-Com:  0.638D-01 0.936D+00
 Coeff-En:   0.188D+00 0.812D+00
 Coeff:      0.749D-01 0.925D+00
 Gap=     0.364 Goal=   None    Shift=    0.000
 RMSDP=8.04D-04 MaxDP=4.71D-02 DE=-1.17D-01 OVMax= 1.54D-01

 Cycle   3  Pass 1  IDiag  1:
 RMSU=  6.63D-04    CP:  9.90D-01  7.61D-01
 E= -644.145469847497     Delta-E=       -0.159418357717 Rises=F Damp=F
 DIIS: error= 3.76D-03 at cycle   3 NSaved=   3.
 NSaved= 3 IEnMin= 3 EnMin= -644.145469847497     IErMin= 3 ErrMin= 3.76D-03
 ErrMax= 3.76D-03  0.00D+00 EMaxC= 1.00D-01 BMatC= 8.91D-03 BMatP= 2.57D-02
 IDIUse=3 WtCom= 9.62D-01 WtEn= 3.76D-02
 Coeff-Com: -0.185D-01 0.325D+00 0.694D+00
 Coeff-En:   0.000D+00 0.000D+00 0.100D+01
 Coeff:     -0.178D-01 0.313D+00 0.705D+00
 Gap=     0.354 Goal=   None    Shift=    0.000
 RMSDP=3.47D-04 MaxDP=1.45D-02 DE=-1.59D-01 OVMax= 3.27D-02

 Cycle   4  Pass 1  IDiag  1:
 RMSU=  3.13D-04    CP:  9.89D-01  8.18D-01  8.42D-01
 E= -644.149312232798     Delta-E=       -0.003842385302 Rises=F Damp=F
 DIIS: error= 2.72D-03 at cycle   4 NSaved=   4.
 NSaved= 4 IEnMin= 4 EnMin= -644.149312232798     IErMin= 4 ErrMin= 2.72D-03
 ErrMax= 2.72D-03  0.00D+00 EMaxC= 1.00D-01 BMatC= 3.61D-03 BMatP= 8.91D-03
 IDIUse=3 WtCom= 9.73D-01 WtEn= 2.72D-02
 Coeff-Com: -0.215D-01 0.501D-01 0.412D+00 0.560D+00
 Coeff-En:   0.000D+00 0.000D+00 0.290D+00 0.710D+00
 Coeff:     -0.210D-01 0.487D-01 0.408D+00 0.564D+00
 Gap=     0.361 Goal=   None    Shift=    0.000
 RMSDP=1.39D-04 MaxDP=5.99D-03 DE=-3.84D-03 OVMax= 1.11D-02

 Cycle   5  Pass 1  IDiag  1:
 RMSU=  3.94D-05    CP:  9.89D-01  8.07D-01  9.36D-01  6.31D-01
 E= -644.151712740656     Delta-E=       -0.002400507858 Rises=F Damp=F
 DIIS: error= 1.76D-04 at cycle   5 NSaved=   5.
 NSaved= 5 IEnMin= 5 EnMin= -644.151712740656     IErMin= 5 ErrMin= 1.76D-04
 ErrMax= 1.76D-04  0.00D+00 EMaxC= 1.00D-01 BMatC= 1.45D-05 BMatP= 3.61D-03
 IDIUse=3 WtCom= 9.98D-01 WtEn= 1.76D-03
 Coeff-Com: -0.281D-02 0.145D-02 0.659D-01 0.122D+00 0.813D+00
 Coeff-En:   0.000D+00 0.000D+00 0.000D+00 0.000D+00 0.100D+01
 Coeff:     -0.280D-02 0.144D-02 0.658D-01 0.122D+00 0.813D+00
 Gap=     0.360 Goal=   None    Shift=    0.000
 RMSDP=1.34D-05 MaxDP=8.36D-04 DE=-2.40D-03 OVMax= 7.33D-04

 Cycle   6  Pass 1  IDiag  1:
 RMSU=  1.09D-05    CP:  9.89D-01  8.04D-01  9.40D-01  6.49D-01  9.94D-01
 E= -644.151722399643     Delta-E=       -0.000009658987 Rises=F Damp=F
 DIIS: error= 4.79D-05 at cycle   6 NSaved=   6.
 NSaved= 6 IEnMin= 6 EnMin= -644.151722399643     IErMin= 6 ErrMin= 4.79D-05
 ErrMax= 4.79D-05  0.00D+00 EMaxC= 1.00D-01 BMatC= 1.24D-06 BMatP= 1.45D-05
 IDIUse=1 WtCom= 1.00D+00 WtEn= 0.00D+00
 Coeff-Com: -0.130D-03-0.124D-02 0.545D-02 0.162D-01 0.239D+00 0.740D+00
 Coeff:     -0.130D-03-0.124D-02 0.545D-02 0.162D-01 0.239D+00 0.740D+00
 Gap=     0.360 Goal=   None    Shift=    0.000
 RMSDP=5.52D-06 MaxDP=2.56D-04 DE=-9.66D-06 OVMax= 2.25D-04

 Cycle   7  Pass 1  IDiag  1:
 RMSU=  2.83D-06    CP:  9.89D-01  8.03D-01  9.41D-01  6.52D-01  1.08D+00
                    CP:  8.64D-01
 E= -644.151723257124     Delta-E=       -0.000000857481 Rises=F Damp=F
 DIIS: error= 2.15D-05 at cycle   7 NSaved=   7.
 NSaved= 7 IEnMin= 7 EnMin= -644.151723257124     IErMin= 7 ErrMin= 2.15D-05
 ErrMax= 2.15D-05  0.00D+00 EMaxC= 1.00D-01 BMatC= 2.39D-07 BMatP= 1.24D-06
 IDIUse=1 WtCom= 1.00D+00 WtEn= 0.00D+00
 Coeff-Com:  0.376D-03-0.702D-03-0.826D-02-0.125D-01-0.194D-01 0.294D+00
 Coeff-Com:  0.747D+00
 Coeff:      0.376D-03-0.702D-03-0.826D-02-0.125D-01-0.194D-01 0.294D+00
 Coeff:      0.747D+00
 Gap=     0.360 Goal=   None    Shift=    0.000
 RMSDP=1.94D-06 MaxDP=7.90D-05 DE=-8.57D-07 OVMax= 1.02D-04

 Cycle   8  Pass 1  IDiag  1:
 RMSU=  1.35D-06    CP:  9.89D-01  8.03D-01  9.41D-01  6.52D-01  1.10D+00
                    CP:  9.52D-01  8.79D-01
 E= -644.151723416093     Delta-E=       -0.000000158968 Rises=F Damp=F
 DIIS: error= 7.19D-06 at cycle   8 NSaved=   8.
 NSaved= 8 IEnMin= 8 EnMin= -644.151723416093     IErMin= 8 ErrMin= 7.19D-06
 ErrMax= 7.19D-06  0.00D+00 EMaxC= 1.00D-01 BMatC= 3.66D-08 BMatP= 2.39D-07
 IDIUse=1 WtCom= 1.00D+00 WtEn= 0.00D+00
 Coeff-Com:  0.169D-03-0.231D-03-0.410D-02-0.639D-02-0.199D-01 0.856D-01
 Coeff-Com:  0.357D+00 0.587D+00
 Coeff:      0.169D-03-0.231D-03-0.410D-02-0.639D-02-0.199D-01 0.856D-01
 Coeff:      0.357D+00 0.587D+00
 Gap=     0.360 Goal=   None    Shift=    0.000
 RMSDP=5.11D-07 MaxDP=2.06D-05 DE=-1.59D-07 OVMax= 3.09D-05

 Cycle   9  Pass 1  IDiag  1:
 RMSU=  2.86D-07    CP:  9.89D-01  8.03D-01  9.41D-01  6.52D-01  1.10D+00
                    CP:  9.57D-01  9.93D-01  8.15D-01
 E= -644.151723441958     Delta-E=       -0.000000025866 Rises=F Damp=F
 DIIS: error= 8.81D-07 at cycle   9 NSaved=   9.
 NSaved= 9 IEnMin= 9 EnMin= -644.151723441958     IErMin= 9 ErrMin= 8.81D-07
 ErrMax= 8.81D-07  0.00D+00 EMaxC= 1.00D-01 BMatC= 5.67D-10 BMatP= 3.66D-08
 IDIUse=1 WtCom= 1.00D+00 WtEn= 0.00D+00
 Coeff-Com: -0.257D-04 0.473D-04 0.294D-03 0.557D-03-0.194D-03-0.185D-01
 Coeff-Com: -0.333D-01 0.420D-01 0.101D+01
 Coeff:     -0.257D-04 0.473D-04 0.294D-03 0.557D-03-0.194D-03-0.185D-01
 Coeff:     -0.333D-01 0.420D-01 0.101D+01
 Gap=     0.360 Goal=   None    Shift=    0.000
 RMSDP=1.72D-07 MaxDP=7.14D-06 DE=-2.59D-08 OVMax= 7.68D-06

 Cycle  10  Pass 1  IDiag  1:
 RMSU=  7.71D-08    CP:  9.89D-01  8.03D-01  9.41D-01  6.53D-01  1.10D+00
                    CP:  9.57D-01  1.01D+00  9.00D-01  1.11D+00
 E= -644.151723442708     Delta-E=       -0.000000000750 Rises=F Damp=F
 DIIS: error= 2.69D-07 at cycle  10 NSaved=  10.
 NSaved=10 IEnMin=10 EnMin= -644.151723442708     IErMin=10 ErrMin= 2.69D-07
 ErrMax= 2.69D-07  0.00D+00 EMaxC= 1.00D-01 BMatC= 3.30D-11 BMatP= 5.67D-10
 IDIUse=1 WtCom= 1.00D+00 WtEn= 0.00D+00
 Coeff-Com: -0.921D-05 0.159D-04 0.171D-03 0.285D-03 0.503D-03-0.690D-02
 Coeff-Com: -0.185D-01-0.881D-02 0.236D+00 0.797D+00
 Coeff:     -0.921D-05 0.159D-04 0.171D-03 0.285D-03 0.503D-03-0.690D-02
 Coeff:     -0.185D-01-0.881D-02 0.236D+00 0.797D+00
 Gap=     0.360 Goal=   None    Shift=    0.000
 RMSDP=3.32D-08 MaxDP=8.65D-07 DE=-7.50D-10 OVMax= 2.18D-06

 Cycle  11  Pass 1  IDiag  1:
 RMSU=  2.34D-08    CP:  9.89D-01  8.03D-01  9.41D-01  6.53D-01  1.10D+00
                    CP:  9.57D-01  1.02D+00  9.05D-01  1.16D+00  1.05D+00
 E= -644.151723442713     Delta-E=       -0.000000000005 Rises=F Damp=F
 DIIS: error= 2.22D-07 at cycle  11 NSaved=  11.
 NSaved=11 IEnMin=11 EnMin= -644.151723442713     IErMin=11 ErrMin= 2.22D-07
 ErrMax= 2.22D-07  0.00D+00 EMaxC= 1.00D-01 BMatC= 1.54D-11 BMatP= 3.30D-11
 IDIUse=1 WtCom= 1.00D+00 WtEn= 0.00D+00
 Coeff-Com: -0.393D-06 0.340D-06 0.434D-04 0.606D-04 0.308D-03-0.790D-03
 Coeff-Com: -0.454D-02-0.113D-01-0.372D-01 0.427D+00 0.627D+00
 Coeff:     -0.393D-06 0.340D-06 0.434D-04 0.606D-04 0.308D-03-0.790D-03
 Coeff:     -0.454D-02-0.113D-01-0.372D-01 0.427D+00 0.627D+00
 Gap=     0.360 Goal=   None    Shift=    0.000
 RMSDP=1.25D-08 MaxDP=5.52D-07 DE=-4.77D-12 OVMax= 7.99D-07

 Cycle  12  Pass 1  IDiag  1:
 RMSU=  7.75D-09    CP:  9.89D-01  8.03D-01  9.41D-01  6.53D-01  1.10D+00
                    CP:  9.57D-01  1.02D+00  9.08D-01  1.17D+00  1.14D+00
                    CP:  8.61D-01
 E= -644.151723442752     Delta-E=       -0.000000000039 Rises=F Damp=F
 DIIS: error= 2.66D-08 at cycle  12 NSaved=  12.
 NSaved=12 IEnMin=12 EnMin= -644.151723442752     IErMin=12 ErrMin= 2.66D-08
 ErrMax= 2.66D-08  0.00D+00 EMaxC= 1.00D-01 BMatC= 3.29D-13 BMatP= 1.54D-11
 IDIUse=1 WtCom= 1.00D+00 WtEn= 0.00D+00
 Coeff-Com:  0.856D-06-0.150D-05-0.713D-05-0.144D-04 0.231D-05 0.444D-03
 Coeff-Com:  0.993D-03-0.690D-03-0.293D-01 0.494D-02 0.115D+00 0.909D+00
 Coeff:      0.856D-06-0.150D-05-0.713D-05-0.144D-04 0.231D-05 0.444D-03
 Coeff:      0.993D-03-0.690D-03-0.293D-01 0.494D-02 0.115D+00 0.909D+00
 Gap=     0.360 Goal=   None    Shift=    0.000
 RMSDP=3.84D-09 MaxDP=1.28D-07 DE=-3.89D-11 OVMax= 2.25D-07

 SCF Done:  E(RM062X) =  -644.151723443     A.U. after   12 cycles
            NFock= 12  Conv=0.38D-08     -V/T= 2.0026
 KE= 6.424989578111D+02 PE=-2.087828380505D+03 EE= 5.211378099285D+02
 Leave Link  502 at Sun Feb 19 12:34:01 2023, MaxMem=  6710886400 cpu:             477.9 elap:              20.0
 (Enter /data0/home/software/g16/l601.exe)
 Copying SCF densities to generalized density rwf, IOpCl= 0 IROHF=0.

 **********************************************************************

            Population analysis using the SCF density.

 **********************************************************************

 Alpha  occ. eigenvalues --  -78.16749 -19.68480 -19.68172 -19.67638 -19.58979
 Alpha  occ. eigenvalues --   -6.97521  -5.09420  -5.09399  -5.09236  -1.24068
 Alpha  occ. eigenvalues --   -1.16637  -1.16116  -1.09189  -0.72797  -0.65662
 Alpha  occ. eigenvalues --   -0.62839  -0.56383  -0.54891  -0.51817  -0.48383
 Alpha  occ. eigenvalues --   -0.46861  -0.46148  -0.43022  -0.38732  -0.38075
 Alpha virt. eigenvalues --   -0.02084   0.00908   0.01217   0.04155   0.06483
 Alpha virt. eigenvalues --    0.07998   0.08374   0.09201   0.10353   0.11519
 Alpha virt. eigenvalues --    0.13092   0.13599   0.13942   0.14232   0.14818
 Alpha virt. eigenvalues --    0.16189   0.16372   0.17999   0.18490   0.19500
 Alpha virt. eigenvalues --    0.19619   0.20648   0.20775   0.21800   0.23319
 Alpha virt. eigenvalues --    0.24007   0.24585   0.25196   0.26404   0.26554
 Alpha virt. eigenvalues --    0.28032   0.28674   0.29216   0.29864   0.30384
 Alpha virt. eigenvalues --    0.30762   0.30923   0.32381   0.33416   0.34864
 Alpha virt. eigenvalues --    0.35385   0.35750   0.36345   0.37084   0.38110
 Alpha virt. eigenvalues --    0.38917   0.40771   0.41048   0.41931   0.43809
 Alpha virt. eigenvalues --    0.46133   0.47606   0.48136   0.51747   0.52299
 Alpha virt. eigenvalues --    0.54703   0.55149   0.61583   0.62502   0.65037
 Alpha virt. eigenvalues --    0.67987   0.69664   0.71345   0.71836   0.73423
 Alpha virt. eigenvalues --    0.74153   0.75908   0.76954   0.78145   0.78796
 Alpha virt. eigenvalues --    0.79100   0.80157   0.80767   0.83626   0.86499
 Alpha virt. eigenvalues --    0.87139   0.90160   0.91928   0.93088   0.96018
 Alpha virt. eigenvalues --    0.98414   0.99072   1.00803   1.02355   1.03611
 Alpha virt. eigenvalues --    1.05197   1.05345   1.10159   1.12195   1.14366
 Alpha virt. eigenvalues --    1.15514   1.17061   1.17539   1.18682   1.20242
 Alpha virt. eigenvalues --    1.21358   1.24724   1.26194   1.27148   1.30314
 Alpha virt. eigenvalues --    1.32251   1.34937   1.38645   1.42200   1.45619
 Alpha virt. eigenvalues --    1.48318   1.51455   1.55666   1.57450   1.60904
 Alpha virt. eigenvalues --    1.62514   1.63796   1.66425   1.69042   1.69814
 Alpha virt. eigenvalues --    1.71193   1.72690   1.74172   1.74953   1.77885
 Alpha virt. eigenvalues --    1.78901   1.80207   1.82732   1.85144   1.85774
 Alpha virt. eigenvalues --    1.87749   1.88083   1.89395   1.91251   1.93992
 Alpha virt. eigenvalues --    1.98192   2.00209   2.01455   2.01766   2.04153
 Alpha virt. eigenvalues --    2.05098   2.06870   2.09002   2.11310   2.13173
 Alpha virt. eigenvalues --    2.17575   2.17701   2.19225   2.20281   2.22659
 Alpha virt. eigenvalues --    2.23109   2.24672   2.28874   2.30728   2.34237
 Alpha virt. eigenvalues --    2.38365   2.41090   2.44525   2.45066   2.46354
 Alpha virt. eigenvalues --    2.47536   2.49601   2.50851   2.51559   2.53074
 Alpha virt. eigenvalues --    2.53987   2.55114   2.57353   2.58893   2.59246
 Alpha virt. eigenvalues --    2.60079   2.61131   2.62101   2.63012   2.63548
 Alpha virt. eigenvalues --    2.64881   2.65638   2.67333   2.68254   2.70332
 Alpha virt. eigenvalues --    2.71913   2.72821   2.75592   2.79352   2.80400
 Alpha virt. eigenvalues --    2.84378   2.87002   2.87891   2.88841   2.92103
 Alpha virt. eigenvalues --    2.95098   2.97165   2.99156   3.00647   3.01483
 Alpha virt. eigenvalues --    3.04063   3.07533   3.10384   3.12488   3.13381
 Alpha virt. eigenvalues --    3.51051   3.51683   3.55740   3.56794   3.63852
 Alpha virt. eigenvalues --    3.65787   3.69690   3.70414   4.53313   4.54496
 Alpha virt. eigenvalues --    4.60656   4.62219   5.04962   5.06123   5.08886
 Alpha virt. eigenvalues --    5.09340   5.10430   5.13231   5.14002   5.14734
 Alpha virt. eigenvalues --    5.15720   5.18566   5.24360   5.31210   5.40830
 Alpha virt. eigenvalues --    5.46762   5.60314   5.67797   6.73589   6.75131
 Alpha virt. eigenvalues --    6.75734   6.78167   6.80648   6.82333   6.83741
 Alpha virt. eigenvalues --    6.85823   6.90965   6.95736   6.96369   6.99169
 Alpha virt. eigenvalues --    7.03104   7.07418   7.13563   7.21997   7.27329
 Alpha virt. eigenvalues --    7.30402   7.36094   7.41657   7.66505   9.79997
 Alpha virt. eigenvalues --    9.80212   9.81600   9.82457   9.84517   9.88500
 Alpha virt. eigenvalues --    9.90140   9.94103   9.94796   9.95186   9.97366
 Alpha virt. eigenvalues --    9.97868  10.00679  10.01152  10.05562  10.10884
 Alpha virt. eigenvalues --   10.15950  10.19296  10.22854  10.28368  12.91054
 Alpha virt. eigenvalues --   12.93138  12.97973  13.14621  13.26259  13.29614
 Alpha virt. eigenvalues --   13.33315  13.50632  13.72749  13.74272  13.80422
 Alpha virt. eigenvalues --   13.95456  14.24108  14.25660  14.38388  17.70862
 Alpha virt. eigenvalues --   17.72446  17.81136  18.03459  50.00382  50.02629
 Alpha virt. eigenvalues --   50.03690  50.10977 136.34807 136.64539 137.38384
 Alpha virt. eigenvalues --  138.46395 163.89180
          Condensed to atoms (all electrons):
               1          2          3          4          5          6
     1  P   12.547126   0.477369   0.228640   0.037763   0.279034  -0.005718
     2  O    0.477369   8.182054  -0.023970   0.007482  -0.043472  -0.006554
     3  O    0.228640  -0.023970   8.068626   0.228475  -0.000664   0.002438
     4  H    0.037763   0.007482   0.228475   0.379949  -0.005516   0.000425
     5  O    0.279034  -0.043472  -0.000664  -0.005516   8.019581   0.266805
     6  H   -0.005718  -0.006554   0.002438   0.000425   0.266805   0.407771
     7  O    0.263654  -0.006623   0.010633  -0.019681   0.016442  -0.006567
     8  H    0.009645  -0.026071   0.000456  -0.002391   0.007229   0.000997
     9  O   -0.018390   0.028940   0.001109   0.000346  -0.000565  -0.000076
    10  H    0.011926  -0.013234   0.000121  -0.000208   0.000385   0.000102
    11  H    0.002832  -0.004165  -0.000320  -0.000065   0.000057   0.000006
    12  O   -0.008257   0.000142   0.004154  -0.003779  -0.012364  -0.001944
    13  H   -0.000241  -0.000060  -0.000473   0.000393   0.004948   0.000717
    14  H    0.013406   0.000992  -0.003047   0.001802   0.003270   0.000256
    15  O    0.002060   0.000277   0.018560   0.001225  -0.004797  -0.000132
    16  H   -0.000396  -0.000281  -0.004046   0.004662   0.004931   0.000141
    17  H    0.000141   0.000020  -0.003909   0.000519   0.000323  -0.000001
    18  O   -0.002631   0.009924  -0.001087   0.000416  -0.000278  -0.000005
    19  H    0.000196  -0.002018   0.000078  -0.000035   0.000026   0.000007
    20  H    0.005436  -0.008071  -0.000072  -0.000136   0.000169   0.000024
               7          8          9         10         11         12
     1  P    0.263654   0.009645  -0.018390   0.011926   0.002832  -0.008257
     2  O   -0.006623  -0.026071   0.028940  -0.013234  -0.004165   0.000142
     3  O    0.010633   0.000456   0.001109   0.000121  -0.000320   0.004154
     4  H   -0.019681  -0.002391   0.000346  -0.000208  -0.000065  -0.003779
     5  O    0.016442   0.007229  -0.000565   0.000385   0.000057  -0.012364
     6  H   -0.006567   0.000997  -0.000076   0.000102   0.000006  -0.001944
     7  O    8.020242   0.257186  -0.000102   0.000702  -0.000405   0.023263
     8  H    0.257186   0.358906  -0.005953   0.002999   0.000465  -0.000514
     9  O   -0.000102  -0.005953   0.030681  -0.017010  -0.007991  -0.000010
    10  H    0.000702   0.002999  -0.017010   0.013283   0.002891   0.000012
    11  H   -0.000405   0.000465  -0.007991   0.002891   0.003588   0.000001
    12  O    0.023263  -0.000514  -0.000010   0.000012   0.000001   0.029034
    13  H   -0.003292   0.000195  -0.000001  -0.000000   0.000000  -0.008661
    14  H   -0.010658  -0.002105   0.000042  -0.000027  -0.000002  -0.014177
    15  O    0.009294  -0.000586  -0.000006   0.000009   0.000005   0.008379
    16  H   -0.005438   0.000383  -0.000002  -0.000001  -0.000000  -0.010199
    17  H   -0.001262   0.000079  -0.000001  -0.000000  -0.000001  -0.001088
    18  O    0.013371   0.001670   0.007202  -0.002927  -0.001454  -0.000159
    19  H   -0.003824   0.001086  -0.001710   0.000653   0.000273   0.000032
    20  H   -0.001808   0.007138  -0.009236   0.003826   0.001994   0.000016
              13         14         15         16         17         18
     1  P   -0.000241   0.013406   0.002060  -0.000396   0.000141  -0.002631
     2  O   -0.000060   0.000992   0.000277  -0.000281   0.000020   0.009924
     3  O   -0.000473  -0.003047   0.018560  -0.004046  -0.003909  -0.001087
     4  H    0.000393   0.001802   0.001225   0.004662   0.000519   0.000416
     5  O    0.004948   0.003270  -0.004797   0.004931   0.000323  -0.000278
     6  H    0.000717   0.000256  -0.000132   0.000141  -0.000001  -0.000005
     7  O   -0.003292  -0.010658   0.009294  -0.005438  -0.001262   0.013371
     8  H    0.000195  -0.002105  -0.000586   0.000383   0.000079   0.001670
     9  O   -0.000001   0.000042  -0.000006  -0.000002  -0.000001   0.007202
    10  H   -0.000000  -0.000027   0.000009  -0.000001  -0.000000  -0.002927
    11  H    0.000000  -0.000002   0.000005  -0.000000  -0.000001  -0.001454
    12  O   -0.008661  -0.014177   0.008379  -0.010199  -0.001088  -0.000159
    13  H    0.004244   0.002332  -0.001954   0.002598   0.000250   0.000008
    14  H    0.002332   0.012111  -0.002643   0.003029   0.000260   0.000187
    15  O   -0.001954  -0.002643   0.033554  -0.016541  -0.011582  -0.000060
    16  H    0.002598   0.003029  -0.016541   0.013116   0.004146   0.000027
    17  H    0.000250   0.000260  -0.011582   0.004146   0.005838   0.000012
    18  O    0.000008   0.000187  -0.000060   0.000027   0.000012   0.032711
    19  H   -0.000001  -0.000065   0.000010  -0.000003  -0.000001  -0.012962
    20  H    0.000000  -0.000059   0.000010   0.000000  -0.000002  -0.014837
              19         20
     1  P    0.000196   0.005436
     2  O   -0.002018  -0.008071
     3  O    0.000078  -0.000072
     4  H   -0.000035  -0.000136
     5  O    0.000026   0.000169
     6  H    0.000007   0.000024
     7  O   -0.003824  -0.001808
     8  H    0.001086   0.007138
     9  O   -0.001710  -0.009236
    10  H    0.000653   0.003826
    11  H    0.000273   0.001994
    12  O    0.000032   0.000016
    13  H   -0.000001   0.000000
    14  H   -0.000065  -0.000059
    15  O    0.000010   0.000010
    16  H   -0.000003   0.000000
    17  H   -0.000001  -0.000002
    18  O   -0.012962  -0.014837
    19  H    0.006973   0.004771
    20  H    0.004771   0.011205
 Mulliken charges:
               1
     1  P    1.156404
     2  O   -0.572680
     3  O   -0.525703
     4  H    0.368354
     5  O   -0.535544
     6  H    0.341306
     7  O   -0.555125
     8  H    0.389187
     9  O   -0.007266
    10  H   -0.003502
    11  H    0.002291
    12  O   -0.003880
    13  H   -0.001004
    14  H   -0.004904
    15  O   -0.035082
    16  H    0.003874
    17  H    0.006258
    18  O   -0.029127
    19  H    0.006512
    20  H   -0.000369
 Sum of Mulliken charges =  -0.00000
 Mulliken charges with hydrogens summed into heavy atoms:
               1
     1  P    1.156404
     2  O   -0.572680
     3  O   -0.157349
     5  O   -0.194238
     7  O   -0.165938
     9  O   -0.008477
    12  O   -0.009788
    15  O   -0.024951
    18  O   -0.022983
         Mulliken charges condensed to fragments:
      1      0.066199
      2     -0.008477
      3     -0.009788
      4     -0.024951
      5     -0.022983
 Electronic spatial extent (au):  <R**2>=          65466.5697
 Charge=             -0.0000 electrons
 Dipole moment (field-independent basis, Debye):
    X=              0.8261    Y=              0.9392    Z=              2.8829  Tot=              3.1426
 Quadrupole moment (field-independent basis, Debye-Ang):
   XX=            -23.6575   YY=             -0.9240   ZZ=             13.6619
   XY=             19.3596   XZ=             17.2638   YZ=             53.1855
 Traceless Quadrupole moment (field-independent basis, Debye-Ang):
   XX=            -20.0176   YY=              2.7158   ZZ=             17.3018
   XY=             19.3596   XZ=             17.2638   YZ=             53.1855
 Octapole moment (field-independent basis, Debye-Ang**2):
  XXX=           -302.6878  YYY=           -758.0913  ZZZ=           -405.2682  XYY=            279.5979
  XXY=           -350.0472  XXZ=           -200.4259  XZZ=             88.6136  YZZ=            269.7144
  YYZ=            678.8346  XYZ=            329.8766
 Hexadecapole moment (field-independent basis, Debye-Ang**3):
 XXXX=          -2478.4462 YYYY=         -31838.2497 ZZZZ=         -13087.4977 XXXY=          -4731.6117
 XXXZ=          -2848.1382 YYYX=           1972.2164 YYYZ=           3619.4929 ZZZX=          -1498.4202
 ZZZY=          -6139.7820 XXYY=          -5722.1398 XXZZ=          -2389.9707 YYZZ=           2462.7089
 XXYZ=          -2950.4155 YYXZ=           4944.8267 ZZXY=           1894.3546
 N-N= 2.800398893230D+02 E-N=-2.087828384705D+03  KE= 6.424989578111D+02
 No NMR shielding tensors so no spin-rotation constants.
 Leave Link  601 at Sun Feb 19 12:34:01 2023, MaxMem=  6710886400 cpu:               2.4 elap:               0.1
 (Enter /data0/home/software/g16/l122.exe)
 CPIOFr:  IOpCl= 0 IRwI=-1 IRwCP=  731 ICalc=  1 LCPTot=      156386 Len1MO=      408861 IndFrg=      974108
 Counterpoise: doing calculation for fragment   2 using the basis set of the full-system, NewBq=T
 Leave Link  122 at Sun Feb 19 12:34:01 2023, MaxMem=  6710886400 cpu:               0.1 elap:               0.0
 (Enter /data0/home/software/g16/l301.exe)
 Basis read from rwf:  (5D, 7F)
 No pseudopotential information found on rwf file.
   317 basis functions,   480 primitive gaussians,   335 cartesian basis functions
     5 alpha electrons        5 beta electrons
       nuclear repulsion energy         9.1108562544 Hartrees.
 IExCor= 4336 DFT=T Ex+Corr=M062X ExCW=0 ScaHFX=  0.540000
 ScaDFX=  1.000000  1.000000  1.000000  1.000000 ScalE2=  1.000000  1.000000
 IRadAn=      5 IRanWt=     -1 IRanGd=            0 ICorTp=0 IEmpDi=131
 NAtoms=   20 NActive=   20 NUniq=   20 SFac= 1.00D+00 NAtFMM=   60 NAOKFM=F Big=F
 Integral buffers will be    131072 words long.
 Raffenetti 2 integral format.
 Two-electron integral symmetry is turned off.
 R6Disp:  Grimme-D3 Dispersion energy=       -0.0000000075 Hartrees.
 Nuclear repulsion after empirical dispersion term =        9.1108562468 Hartrees.
 No density basis found on file   718.
 Leave Link  301 at Sun Feb 19 12:34:01 2023, MaxMem=  6710886400 cpu:               1.3 elap:               0.1
 (Enter /data0/home/software/g16/l302.exe)
 NPDir=0 NMtPBC=     1 NCelOv=     1 NCel=       1 NClECP=     1 NCelD=      1
         NCelK=      1 NCelE2=     1 NClLst=     1 CellRange=     0.0.
 One-electron integrals computed using PRISM.
 NBasis=   317 RedAO= T EigKep=  2.31D-04  NBF=   317
 NBsUse=   317 1.00D-06 EigRej= -1.00D+00 NBFU=   317
 Precomputing XC quadrature grid using
 IXCGrd= 4 IRadAn=           5 IRanWt=          -1 IRanGd=           0 AccXCQ= 0.00D+00.
 Generated NRdTot=       0 NPtTot=           0 NUsed=           0 NTot=          32
 NSgBfM=   335   335   335   335   335 MxSgAt=    20 MxSgA2=    20.
 Leave Link  302 at Sun Feb 19 12:34:01 2023, MaxMem=  6710886400 cpu:               5.2 elap:               0.2
 (Enter /data0/home/software/g16/l303.exe)
 DipDrv:  MaxL=1.
 Leave Link  303 at Sun Feb 19 12:34:01 2023, MaxMem=  6710886400 cpu:               0.8 elap:               0.1
 (Enter /data0/home/software/g16/l401.exe)
 ExpMin= 3.48D-02 ExpMax= 7.75D+04 ExpMxC= 2.65D+03 IAcc=3 IRadAn=         5 AccDes= 0.00D+00
 Harris functional with IExCor= 1009 and IRadAn=       5 diagonalized for initial guess.
 HarFok:  IExCor= 1009 AccDes= 0.00D+00 IRadAn=         5 IDoV= 1 UseB2=F ITyADJ=14
 ICtDFT=  3500011 ScaDFX=  1.000000  1.000000  1.000000  1.000000
 FoFCou: FMM=F IPFlag=           0 FMFlag=      100000 FMFlg1=           0
         NFxFlg=           0 DoJE=T BraDBF=F KetDBF=T FulRan=T
         wScrn=  0.000000 ICntrl=       500 IOpCl=  0 I1Cent=   200000004 NGrid=           0
         NMat0=    1 NMatS0=      1 NMatT0=    0 NMatD0=    1 NMtDS0=    0 NMtDT0=    0
 Symmetry not used in FoFCou.
 Harris En= -76.4173703438940    
 JPrj=0 DoOrth=F DoCkMO=F.
 Leave Link  401 at Sun Feb 19 12:34:02 2023, MaxMem=  6710886400 cpu:              15.3 elap:               0.7
 (Enter /data0/home/software/g16/l502.exe)
 Two-electron integral symmetry not used.
 Closed shell SCF:
 Using DIIS extrapolation, IDIIS=  1040.
 NGot=  6710886400 LenX=  6710651443 LenY=  6710538777
 Requested convergence on RMS density matrix=1.00D-08 within 128 cycles.
 Requested convergence on MAX density matrix=1.00D-06.
 Requested convergence on             energy=1.00D-06.
 No special actions if energy rises.
 Fock matrices will be formed incrementally for  20 cycles.

 Cycle   1  Pass 1  IDiag  1:
 FoFJK:  IHMeth= 1 ICntrl=       0 DoSepK=F KAlg= 0 I1Cent=           0 FoldK=F
 IRaf= 880000000 NMat=       1 IRICut=       1 DoRegI=T DoRafI=F ISym2E= 0 IDoP0=0 IntGTp=1.
 FoFCou: FMM=F IPFlag=           0 FMFlag=      100000 FMFlg1=           0
         NFxFlg=           0 DoJE=F BraDBF=F KetDBF=F FulRan=T
         wScrn=  0.000000 ICntrl=         0 IOpCl=  0 I1Cent=           0 NGrid=           0
         NMat0=    1 NMatS0=      1 NMatT0=    0 NMatD0=    1 NMtDS0=    0 NMtDT0=    0
 Symmetry not used in FoFCou.
 E= -76.3475286653293    
 DIIS: error= 2.22D-02 at cycle   1 NSaved=   1.
 NSaved= 1 IEnMin= 1 EnMin= -76.3475286653293     IErMin= 1 ErrMin= 2.22D-02
 ErrMax= 2.22D-02  0.00D+00 EMaxC= 1.00D-01 BMatC= 1.20D-01 BMatP= 1.20D-01
 IDIUse=3 WtCom= 7.78D-01 WtEn= 2.22D-01
 Coeff-Com:  0.100D+01
 Coeff-En:   0.100D+01
 Coeff:      0.100D+01
 Gap=     0.267 Goal=   None    Shift=    0.000
 GapD=    0.267 DampG=1.000 DampE=0.500 DampFc=0.5000 IDamp=-1.
 Damping current iteration by 5.00D-01
 RMSDP=1.75D-03 MaxDP=9.94D-02              OVMax= 1.72D-01

 Cycle   2  Pass 1  IDiag  1:
 RMSU=  8.72D-04    CP:  9.90D-01
 E= -76.3785842660873     Delta-E=       -0.031055600758 Rises=F Damp=T
 DIIS: error= 5.07D-03 at cycle   2 NSaved=   2.
 NSaved= 2 IEnMin= 2 EnMin= -76.3785842660873     IErMin= 2 ErrMin= 5.07D-03
 ErrMax= 5.07D-03  0.00D+00 EMaxC= 1.00D-01 BMatC= 4.97D-03 BMatP= 1.20D-01
 IDIUse=3 WtCom= 9.49D-01 WtEn= 5.07D-02
 Coeff-Com:  0.859D-01 0.914D+00
 Coeff-En:   0.195D+00 0.805D+00
 Coeff:      0.914D-01 0.909D+00
 Gap=     0.394 Goal=   None    Shift=    0.000
 RMSDP=2.56D-04 MaxDP=1.75D-02 DE=-3.11D-02 OVMax= 1.04D-01

 Cycle   3  Pass 1  IDiag  1:
 RMSU=  1.84D-04    CP:  9.95D-01  7.98D-01
 E= -76.4227713772365     Delta-E=       -0.044187111149 Rises=F Damp=F
 DIIS: error= 7.88D-04 at cycle   3 NSaved=   3.
 NSaved= 3 IEnMin= 3 EnMin= -76.4227713772365     IErMin= 3 ErrMin= 7.88D-04
 ErrMax= 7.88D-04  0.00D+00 EMaxC= 1.00D-01 BMatC= 1.55D-04 BMatP= 4.97D-03
 IDIUse=3 WtCom= 9.92D-01 WtEn= 7.88D-03
 Coeff-Com: -0.281D-01 0.515D-01 0.977D+00
 Coeff-En:   0.000D+00 0.000D+00 0.100D+01
 Coeff:     -0.279D-01 0.511D-01 0.977D+00
 Gap=     0.396 Goal=   None    Shift=    0.000
 RMSDP=2.51D-05 MaxDP=1.23D-03 DE=-4.42D-02 OVMax= 3.92D-03

 Cycle   4  Pass 1  IDiag  1:
 RMSU=  2.08D-05    CP:  9.93D-01  8.04D-01  1.06D+00
 E= -76.4228944124806     Delta-E=       -0.000123035244 Rises=F Damp=F
 DIIS: error= 1.11D-04 at cycle   4 NSaved=   4.
 NSaved= 4 IEnMin= 4 EnMin= -76.4228944124806     IErMin= 4 ErrMin= 1.11D-04
 ErrMax= 1.11D-04  0.00D+00 EMaxC= 1.00D-01 BMatC= 2.60D-06 BMatP= 1.55D-04
 IDIUse=3 WtCom= 9.99D-01 WtEn= 1.11D-03
 Coeff-Com: -0.301D-02 0.508D-03 0.143D+00 0.860D+00
 Coeff-En:   0.000D+00 0.000D+00 0.000D+00 0.100D+01
 Coeff:     -0.301D-02 0.508D-03 0.142D+00 0.860D+00
 Gap=     0.396 Goal=   None    Shift=    0.000
 RMSDP=6.08D-06 MaxDP=3.64D-04 DE=-1.23D-04 OVMax= 5.11D-04

 Cycle   5  Pass 1  IDiag  1:
 RMSU=  3.68D-06    CP:  9.93D-01  7.99D-01  1.07D+00  1.09D+00
 E= -76.4228960918605     Delta-E=       -0.000001679380 Rises=F Damp=F
 DIIS: error= 1.86D-05 at cycle   5 NSaved=   5.
 NSaved= 5 IEnMin= 5 EnMin= -76.4228960918605     IErMin= 5 ErrMin= 1.86D-05
 ErrMax= 1.86D-05  0.00D+00 EMaxC= 1.00D-01 BMatC= 7.26D-08 BMatP= 2.60D-06
 IDIUse=1 WtCom= 1.00D+00 WtEn= 0.00D+00
 Coeff-Com:  0.146D-02-0.227D-02-0.365D-01-0.446D-01 0.108D+01
 Coeff:      0.146D-02-0.227D-02-0.365D-01-0.446D-01 0.108D+01
 Gap=     0.397 Goal=   None    Shift=    0.000
 RMSDP=3.98D-06 MaxDP=2.56D-04 DE=-1.68D-06 OVMax= 2.08D-04

 Cycle   6  Pass 1  IDiag  1:
 RMSU=  8.82D-07    CP:  9.93D-01  7.95D-01  1.07D+00  1.17D+00  1.34D+00
 E= -76.4228962215402     Delta-E=       -0.000000129680 Rises=F Damp=F
 DIIS: error= 2.26D-06 at cycle   6 NSaved=   6.
 NSaved= 6 IEnMin= 6 EnMin= -76.4228962215402     IErMin= 6 ErrMin= 2.26D-06
 ErrMax= 2.26D-06  0.00D+00 EMaxC= 1.00D-01 BMatC= 1.75D-09 BMatP= 7.26D-08
 IDIUse=1 WtCom= 1.00D+00 WtEn= 0.00D+00
 Coeff-Com: -0.273D-03 0.388D-03 0.370D-02-0.761D-02-0.158D+00 0.116D+01
 Coeff:     -0.273D-03 0.388D-03 0.370D-02-0.761D-02-0.158D+00 0.116D+01
 Gap=     0.397 Goal=   None    Shift=    0.000
 RMSDP=5.77D-07 MaxDP=3.98D-05 DE=-1.30D-07 OVMax= 3.88D-05

 Cycle   7  Pass 1  IDiag  1:
 RMSU=  9.79D-08    CP:  9.93D-01  7.95D-01  1.07D+00  1.18D+00  1.41D+00
                    CP:  1.24D+00
 E= -76.4228962250917     Delta-E=       -0.000000003552 Rises=F Damp=F
 DIIS: error= 2.99D-07 at cycle   7 NSaved=   7.
 NSaved= 7 IEnMin= 7 EnMin= -76.4228962250917     IErMin= 7 ErrMin= 2.99D-07
 ErrMax= 2.99D-07  0.00D+00 EMaxC= 1.00D-01 BMatC= 2.20D-11 BMatP= 1.75D-09
 IDIUse=1 WtCom= 1.00D+00 WtEn= 0.00D+00
 Coeff-Com:  0.243D-04-0.161D-04-0.249D-03 0.201D-02 0.579D-03-0.130D+00
 Coeff-Com:  0.113D+01
 Coeff:      0.243D-04-0.161D-04-0.249D-03 0.201D-02 0.579D-03-0.130D+00
 Coeff:      0.113D+01
 Gap=     0.397 Goal=   None    Shift=    0.000
 RMSDP=7.43D-08 MaxDP=5.12D-06 DE=-3.55D-09 OVMax= 5.03D-06

 Cycle   8  Pass 1  IDiag  1:
 RMSU=  1.34D-08    CP:  9.93D-01  7.95D-01  1.07D+00  1.18D+00  1.42D+00
                    CP:  1.27D+00  1.20D+00
 E= -76.4228962251438     Delta-E=       -0.000000000052 Rises=F Damp=F
 DIIS: error= 7.02D-08 at cycle   8 NSaved=   8.
 NSaved= 8 IEnMin= 8 EnMin= -76.4228962251438     IErMin= 8 ErrMin= 7.02D-08
 ErrMax= 7.02D-08  0.00D+00 EMaxC= 1.00D-01 BMatC= 9.23D-13 BMatP= 2.20D-11
 IDIUse=1 WtCom= 1.00D+00 WtEn= 0.00D+00
 Coeff-Com:  0.977D-05-0.125D-04-0.976D-04 0.503D-03 0.368D-02-0.424D-01
 Coeff-Com:  0.128D+00 0.911D+00
 Coeff:      0.977D-05-0.125D-04-0.976D-04 0.503D-03 0.368D-02-0.424D-01
 Coeff:      0.128D+00 0.911D+00
 Gap=     0.397 Goal=   None    Shift=    0.000
 RMSDP=4.54D-09 MaxDP=3.36D-07 DE=-5.21D-11 OVMax= 5.29D-07

 SCF Done:  E(RM062X) =  -76.4228962251     A.U. after    8 cycles
            NFock=  8  Conv=0.45D-08     -V/T= 2.0030
 KE= 7.619077050594D+01 PE=-1.990647470702D+02 EE= 3.734022409229D+01
 Leave Link  502 at Sun Feb 19 12:34:16 2023, MaxMem=  6710886400 cpu:             336.5 elap:              14.1
 (Enter /data0/home/software/g16/l601.exe)
 Copying SCF densities to generalized density rwf, IOpCl= 0 IROHF=0.

 **********************************************************************

            Population analysis using the SCF density.

 **********************************************************************

 Alpha  occ. eigenvalues --  -19.62679  -1.13397  -0.60720  -0.47627  -0.40044
 Alpha virt. eigenvalues --   -0.00386   0.03770   0.04123   0.04592   0.09722
 Alpha virt. eigenvalues --    0.10038   0.11116   0.11682   0.12407   0.14801
 Alpha virt. eigenvalues --    0.15200   0.15799   0.16518   0.17080   0.17456
 Alpha virt. eigenvalues --    0.18571   0.18954   0.19788   0.20818   0.21437
 Alpha virt. eigenvalues --    0.22378   0.23355   0.24263   0.25205   0.25516
 Alpha virt. eigenvalues --    0.27300   0.27617   0.28072   0.29246   0.29885
 Alpha virt. eigenvalues --    0.31142   0.32063   0.33194   0.34996   0.35943
 Alpha virt. eigenvalues --    0.36560   0.36942   0.37781   0.38131   0.39036
 Alpha virt. eigenvalues --    0.39964   0.40737   0.42751   0.43550   0.44159
 Alpha virt. eigenvalues --    0.45295   0.47312   0.49109   0.50509   0.51255
 Alpha virt. eigenvalues --    0.52573   0.56278   0.63167   0.65771   0.67314
 Alpha virt. eigenvalues --    0.70498   0.72620   0.72866   0.74816   0.75128
 Alpha virt. eigenvalues --    0.77299   0.77595   0.78248   0.79207   0.80110
 Alpha virt. eigenvalues --    0.81811   0.82572   0.84729   0.85539   0.86267
 Alpha virt. eigenvalues --    0.89016   0.89983   0.91073   0.91847   0.92774
 Alpha virt. eigenvalues --    0.95950   0.96482   0.97766   0.99974   1.01322
 Alpha virt. eigenvalues --    1.02034   1.02700   1.05253   1.06868   1.08223
 Alpha virt. eigenvalues --    1.08688   1.11446   1.11829   1.12468   1.14886
 Alpha virt. eigenvalues --    1.15354   1.16473   1.21251   1.21934   1.24581
 Alpha virt. eigenvalues --    1.27010   1.28163   1.29986   1.31871   1.33856
 Alpha virt. eigenvalues --    1.38765   1.44424   1.47910   1.50758   1.54542
 Alpha virt. eigenvalues --    1.61839   1.71517   1.76567   1.78585   1.81801
[...]
 Alpha virt. eigenvalues --    1.06039   1.18670   1.19898   1.32495   1.33824
 Alpha virt. eigenvalues --    1.69620   1.74118   1.75835   2.07628   2.09529
 Alpha virt. eigenvalues --    2.35393   2.42131   2.54411   2.88537   3.01374
 Alpha virt. eigenvalues --    5.05692   5.47881   5.93092   6.78254   6.80271
 Alpha virt. eigenvalues --    6.87075   6.91482   7.09496  49.95962
          Condensed to atoms (all electrons):
              15         16         17
    15  O    7.914895   0.319288   0.322984
    16  H    0.319288   0.424981  -0.024517
    17  H    0.322984  -0.024517   0.424616
 Mulliken charges:
               1
     1  P    0.000000
     2  O    0.000000
     3  O    0.000000
     4  H    0.000000
     5  O    0.000000
     6  H    0.000000
     7  O    0.000000
     8  H    0.000000
     9  O    0.000000
    10  H    0.000000
    11  H    0.000000
    12  O    0.000000
    13  H    0.000000
    14  H    0.000000
    15  O   -0.557166
    16  H    0.280248
    17  H    0.276918
    18  O    0.000000
    19  H    0.000000
    20  H    0.000000
 Sum of Mulliken charges =   0.00000
 Mulliken charges with hydrogens summed into heavy atoms:
               1
     1  P    0.000000
     2  O    0.000000
     3  O    0.000000
     5  O    0.000000
     7  O    0.000000
     9  O    0.000000
    12  O    0.000000
    15  O    0.000000
    18  O    0.000000
         Mulliken charges condensed to fragments:
      1      0.000000
      2      0.000000
      3      0.000000
      4      0.000000
      5      0.000000
 Electronic spatial extent (au):  <R**2>=          18375.8475
 Charge=              0.0000 electrons
 Dipole moment (field-independent basis, Debye):
    X=              1.7593    Y=             -0.3172    Z=              1.1238  Tot=              2.1115
 Quadrupole moment (field-independent basis, Debye-Ang):
   XX=              8.1771   YY=            -18.0444   ZZ=             19.3600
   XY=             33.2992   XZ=             24.6040   YZ=             16.4810
 Traceless Quadrupole moment (field-independent basis, Debye-Ang):
   XX=              5.0128   YY=            -21.2086   ZZ=             16.1958
   XY=             33.2992   XZ=             24.6040   YZ=             16.4810
 Octapole moment (field-independent basis, Debye-Ang**2):
  XXX=             14.1434  YYY=           -687.8654  ZZZ=            223.4284  XYY=            606.8912
  XXY=            159.1865  XXZ=            111.1251  XZZ=            307.2338  YZZ=            296.3792
  YYZ=            152.0264  XYZ=            460.8755
 Hexadecapole moment (field-independent basis, Debye-Ang**3):
 XXXX=           -115.1467 YYYY=         -21903.3310 ZZZZ=           1744.9749 XXXY=            300.9567
 XXXZ=            229.5450 YYYX=          10585.4323 YYYZ=          -1507.6019 ZZZX=           3519.1141
 ZZZY=           3230.1427 XXYY=           3003.7738 XXZZ=           1367.7475 YYZZ=           3486.8463
 XXYZ=           2133.7134 YYXZ=           8363.6177 ZZXY=           5696.8531
 N-N= 9.112943326880D+00 E-N=-1.990790626269D+02  KE= 7.619915795786D+01
 No NMR shielding tensors so no spin-rotation constants.
 Leave Link  601 at Sun Feb 19 12:35:08 2023, MaxMem=  6710886400 cpu:               1.7 elap:               0.1
 (Enter /data0/home/software/g16/l122.exe)
 CPIOFr:  IOpCl= 0 IRwI=-1 IRwCP=  731 ICalc=  9 LCPTot=      156386 Len1MO=      408861 IndFrg=     4244996
 Counterpoise: doing calculation for fragment   5 using the basis set of the fragment.
 Leave Link  122 at Sun Feb 19 12:35:08 2023, MaxMem=  6710886400 cpu:               0.1 elap:               0.0
 (Enter /data0/home/software/g16/l301.exe)
 Basis read from rwf:  (5D, 7F)
 No pseudopotential information found on rwf file.
    39 basis functions,    58 primitive gaussians,    41 cartesian basis functions
     5 alpha electrons        5 beta electrons
       nuclear repulsion energy         9.1052193988 Hartrees.
 IExCor= 4336 DFT=T Ex+Corr=M062X ExCW=0 ScaHFX=  0.540000
 ScaDFX=  1.000000  1.000000  1.000000  1.000000 ScalE2=  1.000000  1.000000
 IRadAn=      5 IRanWt=     -1 IRanGd=            0 ICorTp=0 IEmpDi=131
 NAtoms=   20 NActive=    3 NUniq=    3 SFac= 1.00D+00 NAtFMM=   60 NAOKFM=F Big=F
 Integral buffers will be    131072 words long.
 Raffenetti 2 integral format.
 Two-electron integral symmetry is turned off.
 R6Disp:  Grimme-D3 Dispersion energy=       -0.0000000077 Hartrees.
 Nuclear repulsion after empirical dispersion term =        9.1052193911 Hartrees.
 No density basis found on file   718.
 Leave Link  301 at Sun Feb 19 12:35:08 2023, MaxMem=  6710886400 cpu:               1.3 elap:               0.1
 (Enter /data0/home/software/g16/l302.exe)
 NPDir=0 NMtPBC=     1 NCelOv=     1 NCel=       1 NClECP=     1 NCelD=      1
         NCelK=      1 NCelE2=     1 NClLst=     1 CellRange=     0.0.
 One-electron integrals computed using PRISM.
 NBasis=    39 RedAO= T EigKep=  3.04D-03  NBF=    39
 NBsUse=    39 1.00D-06 EigRej= -1.00D+00 NBFU=    39
 Precomputing XC quadrature grid using
 IXCGrd= 4 IRadAn=           5 IRanWt=          -1 IRanGd=           0 AccXCQ= 0.00D+00.
 Generated NRdTot=       0 NPtTot=           0 NUsed=           0 NTot=          32
 NSgBfM=    41    41    41    41    41 MxSgAt=     3 MxSgA2=     3.
 Leave Link  302 at Sun Feb 19 12:35:09 2023, MaxMem=  6710886400 cpu:               2.3 elap:               0.1
 (Enter /data0/home/software/g16/l303.exe)
 DipDrv:  MaxL=1.
 Leave Link  303 at Sun Feb 19 12:35:09 2023, MaxMem=  6710886400 cpu:               0.4 elap:               0.0
 (Enter /data0/home/software/g16/l401.exe)
 ExpMin= 8.45D-02 ExpMax= 8.59D+03 ExpMxC= 1.30D+03 IAcc=3 IRadAn=         5 AccDes= 0.00D+00
 Harris functional with IExCor= 1009 and IRadAn=       5 diagonalized for initial guess.
 HarFok:  IExCor= 1009 AccDes= 0.00D+00 IRadAn=         5 IDoV= 1 UseB2=F ITyADJ=14
 ICtDFT=  3500011 ScaDFX=  1.000000  1.000000  1.000000  1.000000
 FoFCou: FMM=F IPFlag=           0 FMFlag=      100000 FMFlg1=           0
         NFxFlg=           0 DoJE=T BraDBF=F KetDBF=T FulRan=T
         wScrn=  0.000000 ICntrl=       500 IOpCl=  0 I1Cent=   200000004 NGrid=           0
         NMat0=    1 NMatS0=      1 NMatT0=    0 NMatD0=    1 NMtDS0=    0 NMtDT0=    0
 Symmetry not used in FoFCou.
 Harris En= -76.4164942798421    
 JPrj=0 DoOrth=F DoCkMO=F.
 Leave Link  401 at Sun Feb 19 12:35:09 2023, MaxMem=  6710886400 cpu:               2.9 elap:               0.1
 (Enter /data0/home/software/g16/l502.exe)
 Keep R1 ints in memory in canonical form, NReq=21039229.
 FoFCou: FMM=F IPFlag=           0 FMFlag=           0 FMFlg1=           0
         NFxFlg=           0 DoJE=F BraDBF=F KetDBF=F FulRan=T
         wScrn=  0.000000 ICntrl=       600 IOpCl=  0 I1Cent=           0 NGrid=           0
         NMat0=    1 NMatS0=    780 NMatT0=    0 NMatD0=    1 NMtDS0=    0 NMtDT0=    0
 Symmetry not used in FoFCou.
 Two-electron integral symmetry not used.
 Closed shell SCF:
 Using DIIS extrapolation, IDIIS=  1040.
 NGot=  6710886400 LenX=  6710576467 LenY=  6710574345
 Requested convergence on RMS density matrix=1.00D-08 within 128 cycles.
 Requested convergence on MAX density matrix=1.00D-06.
 Requested convergence on             energy=1.00D-06.
 No special actions if energy rises.
 Integral accuracy reduced to 1.0D-05 until final iterations.

 Cycle   1  Pass 0  IDiag  1:
 E= -76.3462118611088    
 DIIS: error= 7.02D-02 at cycle   1 NSaved=   1.
 NSaved= 1 IEnMin= 1 EnMin= -76.3462118611088     IErMin= 1 ErrMin= 7.02D-02
 ErrMax= 7.02D-02  0.00D+00 EMaxC= 1.00D-01 BMatC= 1.21D-01 BMatP= 1.21D-01
 IDIUse=3 WtCom= 2.98D-01 WtEn= 7.02D-01
 Coeff-Com:  0.100D+01
 Coeff-En:   0.100D+01
 Coeff:      0.100D+01
 Gap=     0.325 Goal=   None    Shift=    0.000
 GapD=    0.325 DampG=1.000 DampE=0.500 DampFc=0.5000 IDamp=-1.
 Damping current iteration by 5.00D-01
 RMSDP=7.91D-03 MaxDP=1.01D-01              OVMax= 1.68D-01

 Cycle   2  Pass 0  IDiag  1:
 E= -76.3776806908953     Delta-E=       -0.031468829786 Rises=F Damp=T
 DIIS: error= 1.14D-02 at cycle   2 NSaved=   2.
 NSaved= 2 IEnMin= 2 EnMin= -76.3776806908953     IErMin= 2 ErrMin= 1.14D-02
 ErrMax= 1.14D-02  0.00D+00 EMaxC= 1.00D-01 BMatC= 4.83D-03 BMatP= 1.21D-01
 IDIUse=3 WtCom= 8.86D-01 WtEn= 1.14D-01
 Coeff-Com:  0.821D-01 0.918D+00
 Coeff-En:   0.187D+00 0.813D+00
 Coeff:      0.941D-01 0.906D+00
 Gap=     0.457 Goal=   None    Shift=    0.000
 RMSDP=9.41D-04 MaxDP=1.40D-02 DE=-3.15D-02 OVMax= 1.00D-01

 Cycle   3  Pass 0  IDiag  1:
 E= -76.4216285672932     Delta-E=       -0.043947876398 Rises=F Damp=F
 DIIS: error= 2.18D-03 at cycle   3 NSaved=   3.
 NSaved= 3 IEnMin= 3 EnMin= -76.4216285672932     IErMin= 3 ErrMin= 2.18D-03
 ErrMax= 2.18D-03  0.00D+00 EMaxC= 1.00D-01 BMatC= 9.15D-05 BMatP= 4.83D-03
 IDIUse=3 WtCom= 9.78D-01 WtEn= 2.18D-02
 Coeff-Com: -0.200D-01 0.398D-01 0.980D+00
 Coeff-En:   0.000D+00 0.000D+00 0.100D+01
 Coeff:     -0.196D-01 0.389D-01 0.981D+00
 Gap=     0.462 Goal=   None    Shift=    0.000
 RMSDP=1.15D-04 MaxDP=1.01D-03 DE=-4.39D-02 OVMax= 3.32D-03

 Cycle   4  Pass 0  IDiag  1:
 E= -76.4217065211015     Delta-E=       -0.000077953808 Rises=F Damp=F
 DIIS: error= 4.13D-04 at cycle   4 NSaved=   4.
 NSaved= 4 IEnMin= 4 EnMin= -76.4217065211015     IErMin= 4 ErrMin= 4.13D-04
 ErrMax= 4.13D-04  0.00D+00 EMaxC= 1.00D-01 BMatC= 3.30D-06 BMatP= 9.15D-05
 IDIUse=3 WtCom= 9.96D-01 WtEn= 4.13D-03
 Coeff-Com: -0.192D-02-0.218D-02 0.163D+00 0.841D+00
 Coeff-En:   0.000D+00 0.000D+00 0.000D+00 0.100D+01
 Coeff:     -0.191D-02-0.217D-02 0.162D+00 0.842D+00
 Gap=     0.462 Goal=   None    Shift=    0.000
 RMSDP=2.21D-05 MaxDP=3.53D-04 DE=-7.80D-05 OVMax= 5.34D-04

 Cycle   5  Pass 0  IDiag  1:
 E= -76.4217085555308     Delta-E=       -0.000002034429 Rises=F Damp=F
 DIIS: error= 8.90D-05 at cycle   5 NSaved=   5.
 NSaved= 5 IEnMin= 5 EnMin= -76.4217085555308     IErMin= 5 ErrMin= 8.90D-05
 ErrMax= 8.90D-05  0.00D+00 EMaxC= 1.00D-01 BMatC= 8.29D-08 BMatP= 3.30D-06
 IDIUse=1 WtCom= 1.00D+00 WtEn= 0.00D+00
 Coeff-Com:  0.118D-02-0.180D-02-0.365D-01-0.661D-01 0.110D+01
 Coeff:      0.118D-02-0.180D-02-0.365D-01-0.661D-01 0.110D+01
 Gap=     0.463 Goal=   None    Shift=    0.000
 RMSDP=8.97D-06 MaxDP=1.03D-04 DE=-2.03D-06 OVMax= 2.02D-04

 Initial convergence to 1.0D-05 achieved.  Increase integral accuracy.
 Cycle   6  Pass 1  IDiag  1:
 E= -76.4216946976241     Delta-E=        0.000013857907 Rises=F Damp=F
 DIIS: error= 1.18D-05 at cycle   1 NSaved=   1.
 NSaved= 1 IEnMin= 1 EnMin= -76.4216946976241     IErMin= 1 ErrMin= 1.18D-05
 ErrMax= 1.18D-05  0.00D+00 EMaxC= 1.00D-01 BMatC= 1.00D-08 BMatP= 1.00D-08
 IDIUse=1 WtCom= 1.00D+00 WtEn= 0.00D+00
 Coeff-Com:  0.100D+01
 Coeff:      0.100D+01
 Gap=     0.463 Goal=   None    Shift=    0.000
 RMSDP=8.97D-06 MaxDP=1.03D-04 DE= 1.39D-05 OVMax= 4.40D-05

 Cycle   7  Pass 1  IDiag  1:
 E= -76.4216947056475     Delta-E=       -0.000000008023 Rises=F Damp=F
 DIIS: error= 1.07D-05 at cycle   2 NSaved=   2.
 NSaved= 2 IEnMin= 2 EnMin= -76.4216947056475     IErMin= 2 ErrMin= 1.07D-05
 ErrMax= 1.07D-05  0.00D+00 EMaxC= 1.00D-01 BMatC= 1.63D-09 BMatP= 1.00D-08
 IDIUse=1 WtCom= 1.00D+00 WtEn= 0.00D+00
 Coeff-Com:  0.148D+00 0.852D+00
 Coeff:      0.148D+00 0.852D+00
 Gap=     0.463 Goal=   None    Shift=    0.000
 RMSDP=7.84D-07 MaxDP=1.35D-05 DE=-8.02D-09 OVMax= 2.10D-05

 Cycle   8  Pass 1  IDiag  1:
 E= -76.4216947061472     Delta-E=       -0.000000000500 Rises=F Damp=F
 DIIS: error= 6.52D-06 at cycle   3 NSaved=   3.
 NSaved= 3 IEnMin= 3 EnMin= -76.4216947061472     IErMin= 3 ErrMin= 6.52D-06
 ErrMax= 6.52D-06  0.00D+00 EMaxC= 1.00D-01 BMatC= 1.13D-09 BMatP= 1.63D-09
 IDIUse=1 WtCom= 1.00D+00 WtEn= 0.00D+00
 Coeff-Com: -0.499D-01 0.464D+00 0.586D+00
 Coeff:     -0.499D-01 0.464D+00 0.586D+00
 Gap=     0.463 Goal=   None    Shift=    0.000
 RMSDP=3.77D-07 MaxDP=5.18D-06 DE=-5.00D-10 OVMax= 9.43D-06

 Cycle   9  Pass 1  IDiag  1:
 E= -76.4216947069006     Delta-E=       -0.000000000753 Rises=F Damp=F
 DIIS: error= 4.05D-07 at cycle   4 NSaved=   4.
 NSaved= 4 IEnMin= 4 EnMin= -76.4216947069006     IErMin= 4 ErrMin= 4.05D-07
 ErrMax= 4.05D-07  0.00D+00 EMaxC= 1.00D-01 BMatC= 2.09D-12 BMatP= 1.13D-09
 IDIUse=1 WtCom= 1.00D+00 WtEn= 0.00D+00
 Coeff-Com:  0.537D-02-0.975D-01-0.109D+00 0.120D+01
 Coeff:      0.537D-02-0.975D-01-0.109D+00 0.120D+01
 Gap=     0.463 Goal=   None    Shift=    0.000
 RMSDP=7.75D-08 MaxDP=6.97D-07 DE=-7.53D-10 OVMax= 1.77D-06

 Cycle  10  Pass 1  IDiag  1:
 E= -76.4216947069071     Delta-E=       -0.000000000007 Rises=F Damp=F
 DIIS: error= 7.06D-08 at cycle   5 NSaved=   5.
 NSaved= 5 IEnMin= 5 EnMin= -76.4216947069071     IErMin= 5 ErrMin= 7.06D-08
 ErrMax= 7.06D-08  0.00D+00 EMaxC= 1.00D-01 BMatC= 7.09D-14 BMatP= 2.09D-12
 IDIUse=1 WtCom= 1.00D+00 WtEn= 0.00D+00
 Coeff-Com:  0.114D-02-0.118D-01-0.110D-01-0.921D-02 0.103D+01
 Coeff:      0.114D-02-0.118D-01-0.110D-01-0.921D-02 0.103D+01
 Gap=     0.463 Goal=   None    Shift=    0.000
 RMSDP=1.08D-08 MaxDP=7.60D-08 DE=-6.57D-12 OVMax= 2.46D-07

 Cycle  11  Pass 1  IDiag  1:
 E= -76.4216947069073     Delta-E=       -0.000000000000 Rises=F Damp=F
 DIIS: error= 1.06D-08 at cycle   6 NSaved=   6.
 NSaved= 6 IEnMin= 6 EnMin= -76.4216947069073     IErMin= 6 ErrMin= 1.06D-08
 ErrMax= 1.06D-08  0.00D+00 EMaxC= 1.00D-01 BMatC= 3.58D-15 BMatP= 7.09D-14
 IDIUse=1 WtCom= 1.00D+00 WtEn= 0.00D+00
 Coeff-Com:  0.908D-04 0.302D-03 0.900D-03-0.404D-01 0.170D+00 0.869D+00
 Coeff:      0.908D-04 0.302D-03 0.900D-03-0.404D-01 0.170D+00 0.869D+00
 Gap=     0.463 Goal=   None    Shift=    0.000
 RMSDP=1.88D-09 MaxDP=1.10D-08 DE=-1.42D-13 OVMax= 3.57D-08

 SCF Done:  E(RM062X) =  -76.4216947069     A.U. after   11 cycles
            NFock= 11  Conv=0.19D-08     -V/T= 2.0030
 KE= 7.619648518263D+01 PE=-1.990620749878D+02 EE= 3.733867570721D+01
 Leave Link  502 at Sun Feb 19 12:35:09 2023, MaxMem=  6710886400 cpu:               8.6 elap:               0.4
 (Enter /data0/home/software/g16/l601.exe)
 Copying SCF densities to generalized density rwf, IOpCl= 0 IROHF=0.

 **********************************************************************

            Population analysis using the SCF density.

 **********************************************************************

 Alpha  occ. eigenvalues --  -19.62598  -1.13356  -0.60764  -0.47503  -0.39985
 Alpha virt. eigenvalues --    0.06268   0.13326   0.17397   0.17947   0.18935
 Alpha virt. eigenvalues --    0.23286   0.50996   0.53587   0.97903   1.00245
 Alpha virt. eigenvalues --    1.06032   1.18478   1.19928   1.32395   1.33875
 Alpha virt. eigenvalues --    1.69730   1.74113   1.75731   2.07500   2.09555
 Alpha virt. eigenvalues --    2.35583   2.41606   2.54470   2.88311   3.01335
 Alpha virt. eigenvalues --    5.05678   5.47950   5.92555   6.78293   6.80233
 Alpha virt. eigenvalues --    6.87149   6.91470   7.09532  49.95851
          Condensed to atoms (all electrons):
              18         19         20
    18  O    7.915837   0.322334   0.318448
    19  H    0.322334   0.425474  -0.024374
    20  H    0.318448  -0.024374   0.425873
 Mulliken charges:
               1
     1  P    0.000000
     2  O    0.000000
     3  O    0.000000
     4  H    0.000000
     5  O    0.000000
     6  H    0.000000
     7  O    0.000000
     8  H    0.000000
     9  O    0.000000
    10  H    0.000000
    11  H    0.000000
    12  O    0.000000
    13  H    0.000000
    14  H    0.000000
    15  O    0.000000
    16  H    0.000000
    17  H    0.000000
    18  O   -0.556619
    19  H    0.276566
    20  H    0.280053
 Sum of Mulliken charges =   0.00000
 Mulliken charges with hydrogens summed into heavy atoms:
               1
     1  P    0.000000
     2  O    0.000000
     3  O    0.000000
     5  O    0.000000
     7  O    0.000000
     9  O    0.000000
    12  O    0.000000
    15  O    0.000000
    18  O    0.000000
         Mulliken charges condensed to fragments:
      1      0.000000
      2      0.000000
      3      0.000000
      4      0.000000
      5      0.000000
 Electronic spatial extent (au):  <R**2>=          13508.1741
 Charge=             -0.0000 electrons
 Dipole moment (field-independent basis, Debye):
    X=             -0.0897    Y=             -1.6143    Z=             -1.3654  Tot=              2.1162
 Quadrupole moment (field-independent basis, Debye-Ang):
   XX=             -8.4142   YY=            -55.9013   ZZ=            -29.7843
   XY=            -14.4329   XZ=            -10.0567   YZ=            -36.1145
 Traceless Quadrupole moment (field-independent basis, Debye-Ang):
   XX=             22.9524   YY=            -24.5347   ZZ=              1.5823
   XY=            -14.4329   XZ=            -10.0567   YZ=            -36.1145
 Octapole moment (field-independent basis, Debye-Ang**2):
  XXX=           -175.5847  YYY=          -1437.9260  ZZZ=           -471.6656  XYY=           -469.8217
  XXY=           -235.9014  XXZ=           -136.8772  XZZ=           -213.9109  YZZ=           -600.1510
  YYZ=           -843.3097  XYZ=           -276.3652
 Hexadecapole moment (field-independent basis, Debye-Ang**3):
 XXXX=          -2586.6189 YYYY=         -32622.8495 ZZZZ=          -6492.7506 XXXY=          -3575.0807
 XXXZ=          -1971.1857 YYYX=         -11794.0299 YYYZ=         -18287.3787 ZZZX=          -3391.0745
 ZZZY=          -8594.0369 XXYY=          -5623.6101 XXZZ=          -2094.1321 YYZZ=         -11909.6816
 XXYZ=          -3093.7200 YYXZ=          -6539.8292 ZZXY=          -4429.0401
 N-N= 9.105219391069D+00 E-N=-1.990620750670D+02  KE= 7.619648518263D+01
 No NMR shielding tensors so no spin-rotation constants.
 Leave Link  601 at Sun Feb 19 12:35:09 2023, MaxMem=  6710886400 cpu:               1.7 elap:               0.1
 (Enter /data0/home/software/g16/l122.exe)
 CPIOFr:  IOpCl= 0 IRwI=-1 IRwCP=  731 ICalc= 10 LCPTot=      156386 Len1MO=      408861 IndFrg=     4653857
 Restoring MOs from calculation   1 to rwf.
 CPIOFr:  IOpCl= 0 IRwI=-2 IRwCP=  731 ICalc=  0 LCPTot=      156386 Len1MO=      408861 IndFrg=      565247
 Counterpoise corrected energy =    -949.914253728962
                   BSSE energy =       0.005894403291
              sum of fragments =    -949.837680444693
           complexation energy =     -51.75 kcal/mole (raw)
           complexation energy =     -48.05 kcal/mole (corrected)
 Leave Link  122 at Sun Feb 19 12:35:09 2023, MaxMem=  6710886400 cpu:               0.2 elap:               0.0
 (Enter /data0/home/software/g16/l9999.exe)
 1\1\GINC-LOCALHOST\SP\RM062X\6-311+G(2d,p)\H11O8P1\WUHANYU\19-Feb-2023
 \0\\#p M062X/6-311+G(2d,p) nosymm em=GD3 counterpoise=5\\Title Card Re
 quired\\0,1\P,0,3.916866,15.932432,9.544045\O,0,3.971357,15.050293,8.3
 73755\O,0,3.723175,17.444442,9.132802\H,0,3.729707,18.044071,9.99328\O
 ,0,2.794953,15.680009,10.631861\H,0,2.601588,14.632675,10.66219\O,0,5.
 208271,15.902361,10.490515\H,0,6.072496,15.836057,9.925525\O,0,6.21126
 6,15.421396,6.507425\H,0,5.40866,15.168036,6.998109\H,0,6.011706,16.29
 8877,6.178008\O,0,4.552216,17.068127,13.170331\H,0,3.696469,16.628879,
 13.21732\H,0,4.998085,16.605787,12.443428\O,0,3.967917,19.153358,11.42
 2181\H,0,4.121315,18.502854,12.134662\H,0,4.79693,19.620806,11.343131\
 O,0,7.568518,15.602972,8.92511\H,0,7.885075,14.71167,9.05913\H,0,7.198
 126,15.592887,8.019602\\Version=ES64L-G16RevA.03\HF=-76.4216947\RMSD=1
 .880e-09\Dipole=0.1360639,-0.5328999,0.6982985\Quadrupole=4.1500886,-2
 7.5590289,23.4089403,3.5171655,5.7943233,4.9742453\PG=C01 [X(H11O8P1)]
 \\@


 SUCCESS-- IF YOU HAVE TRIED TO DO SOMETHING AND FAILED
           YOU ARE BETTER OFF THAN IF YOU HAD TRIED TO DO
           NOTHING AND SUCCEEDED.

                   -- FROM THE BACK OF A SUGAR PACKET
 Job cpu time:       0 days  0 hours 43 minutes 39.7 seconds.
 Elapsed time:       0 days  0 hours  1 minutes 52.4 seconds.
 File lengths (MBytes):  RWF=    104 Int=      0 D2E=      0 Chk=     42 Scr=      1
 Normal termination of Gaussian 16 at Sun Feb 19 12:35:09 2023.
