Title Card Required                                                     
SP        RM062X                                                      6-311+G(2d,p)       
Number of atoms                            I                9
Info1-9                                    I   N=           9
          18          18           0           0           0         110
           1          18        -502
Full Title                                 C   N=           2
Title Card Required     
Route                                      C   N=           3
#p 6-311+g(2d,p) nosymm em=gd3 m062x
Charge                                     I                0
Multiplicity                               I                1
Number of electrons                        I               36
Number of alpha electrons                  I               18
Number of beta electrons                   I               18
Number of basis functions                  I              159
Number of independent functions            I              159
Number of point charges in /Mol/           I                0
Number of translation vectors              I                0
Atomic numbers                             I   N=           9
           6           6           6           7           1           1
           1           1           7
Nuclear charges                            R   N=           9
  6.00000000E+00  6.00000000E+00  6.00000000E+00  7.00000000E+00  1.00000000E+00
  1.00000000E+00  1.00000000E+00  1.00000000E+00  7.00000000E+00
Current cartesian coordinates              R   N=          27
  1.39396592E+01  3.05257628E+01  2.57886805E+01  1.20976525E+01  2.88989467E+01
  2.67365406E+01  1.21415546E+01  2.83486509E+01  2.26104068E+01  1.39611341E+01
  3.01708646E+01  2.31716441E+01  1.50813411E+01  3.10689589E+01  2.19596739E+01
  1.51624198E+01  3.18306413E+01  2.67262549E+01  1.14925357E+01  2.85943909E+01
  2.86466645E+01  1.17285134E+01  2.76847504E+01  2.07186398E+01  1.10144199E+01
  2.75761630E+01  2.47487169E+01
Number of symbols in /Mol/                 I                0
Force Field                                I                0
Atom Types                                 C   N=           9
                                                            
                                                
Int Atom Types                             I   N=           9
           0           0           0           0           0           0
           0           0           0
MM charges                                 R   N=           9
  0.00000000E+00  0.00000000E+00  0.00000000E+00  0.00000000E+00  0.00000000E+00
  0.00000000E+00  0.00000000E+00  0.00000000E+00  0.00000000E+00
Integer atomic weights                     I   N=           9
          12          12          12          14           1           1
           1           1          14
Real atomic weights                        R   N=           9
  1.20000000E+01  1.20000000E+01  1.20000000E+01  1.40030740E+01  1.00782504E+00
  1.00782504E+00  1.00782504E+00  1.00782504E+00  1.40030740E+01
Atom fragment info                         I   N=           9
           0           0           0           0           0           0
           0           0           0
Atom residue num                           I   N=           9
           0           0           0           0           0           0
           0           0           0
Nuclear spins                              I   N=           9
           0           0           0           2           1           1
           1           1           2
Nuclear ZEff                               R   N=           9
 -3.60000000E+00 -3.60000000E+00 -3.60000000E+00 -4.55000000E+00 -1.00000000E+00
 -1.00000000E+00 -1.00000000E+00 -1.00000000E+00 -4.55000000E+00
Nuclear ZNuc                               R   N=           9
  6.00000000E+00  6.00000000E+00  6.00000000E+00  7.00000000E+00  1.00000000E+00
  1.00000000E+00  1.00000000E+00  1.00000000E+00  7.00000000E+00
Nuclear QMom                               R   N=           9
  0.00000000E+00  0.00000000E+00  0.00000000E+00  2.04400000E+00  0.00000000E+00
  0.00000000E+00  0.00000000E+00  0.00000000E+00  2.04400000E+00
Nuclear GFac                               R   N=           9
  0.00000000E+00  0.00000000E+00  0.00000000E+00  4.03761000E-01  2.79284600E+00
  2.79284600E+00  2.79284600E+00  2.79284600E+00  4.03761000E-01
MicOpt                                     I   N=           9
          -1          -1          -1          -1          -1          -1
          -1          -1          -1
Number of residues                         I                0
Number of secondary structures             I                0
Number of contracted shells                I               51
Number of primitive shells                 I               94
Pure/Cartesian d shells                    I                0
Pure/Cartesian f shells                    I                0
Highest angular momentum                   I                2
Largest degree of contraction              I                6
Shell types                                I   N=          51
           0          -1          -1          -1          -1          -2
          -2           0          -1          -1          -1          -1
          -2          -2           0          -1          -1          -1
          -1          -2          -2           0          -1          -1
          -1          -1          -2          -2           0           0
           0           1           0           0           0           1
           0           0           0           1           0           0
           0           1           0          -1          -1          -1
          -1          -2          -2
Number of primitives per shell             I   N=          51
           6           3           1           1           1           1
           1           6           3           1           1           1
           1           1           6           3           1           1
           1           1           1           6           3           1
           1           1           1           1           3           1
           1           1           3           1           1           1
           3           1           1           1           3           1
           1           1           6           3           1           1
           1           1           1
Shell to atom map                          I   N=          51
           1           1           1           1           1           1
           1           2           2           2           2           2
           2           2           3           3           3           3
           3           3           3           4           4           4
           4           4           4           4           5           5
           5           5           6           6           6           6
           7           7           7           7           8           8
           8           8           9           9           9           9
           9           9           9
Primitive exponents                        R   N=          94
  4.56324000E+03  6.82024000E+02  1.54973000E+02  4.44553000E+01  1.30290000E+01
  1.82773000E+00  2.09642000E+01  4.80331000E+00  1.45933000E+00  4.83456000E-01
  1.45585000E-01  4.38000000E-02  1.25200000E+00  3.13000000E-01  4.56324000E+03
  6.82024000E+02  1.54973000E+02  4.44553000E+01  1.30290000E+01  1.82773000E+00
  2.09642000E+01  4.80331000E+00  1.45933000E+00  4.83456000E-01  1.45585000E-01
  4.38000000E-02  1.25200000E+00  3.13000000E-01  4.56324000E+03  6.82024000E+02
  1.54973000E+02  4.44553000E+01  1.30290000E+01  1.82773000E+00  2.09642000E+01
  4.80331000E+00  1.45933000E+00  4.83456000E-01  1.45585000E-01  4.38000000E-02
  1.25200000E+00  3.13000000E-01  6.29348000E+03  9.49044000E+02  2.18776000E+02
  6.36916000E+01  1.88282000E+01  2.72023000E+00  3.06331000E+01  7.02614000E+00
  2.11205000E+00  6.84009000E-01  2.00878000E-01  6.39000000E-02  1.82600000E+00
  4.56500000E-01  3.38650000E+01  5.09479000E+00  1.15879000E+00  3.25840000E-01
  1.02741000E-01  7.50000000E-01  3.38650000E+01  5.09479000E+00  1.15879000E+00
  3.25840000E-01  1.02741000E-01  7.50000000E-01  3.38650000E+01  5.09479000E+00
  1.15879000E+00  3.25840000E-01  1.02741000E-01  7.50000000E-01  3.38650000E+01
  5.09479000E+00  1.15879000E+00  3.25840000E-01  1.02741000E-01  7.50000000E-01
  6.29348000E+03  9.49044000E+02  2.18776000E+02  6.36916000E+01  1.88282000E+01
  2.72023000E+00  3.06331000E+01  7.02614000E+00  2.11205000E+00  6.84009000E-01
  2.00878000E-01  6.39000000E-02  1.82600000E+00  4.56500000E-01
Contraction coefficients                   R   N=          94
  1.96665025E-03  1.52306019E-02  7.61269097E-02  2.60801033E-01  6.16462078E-01
  2.21006028E-01  1.14660081E-01  9.19999648E-01 -3.03068213E-03  1.00000000E+00
  1.00000000E+00  1.00000000E+00  1.00000000E+00  1.00000000E+00  1.96665025E-03
  1.52306019E-02  7.61269097E-02  2.60801033E-01  6.16462078E-01  2.21006028E-01
  1.14660081E-01  9.19999648E-01 -3.03068213E-03  1.00000000E+00  1.00000000E+00
  1.00000000E+00  1.00000000E+00  1.00000000E+00  1.96665025E-03  1.52306019E-02
  7.61269097E-02  2.60801033E-01  6.16462078E-01  2.21006028E-01  1.14660081E-01
  9.19999648E-01 -3.03068213E-03  1.00000000E+00  1.00000000E+00  1.00000000E+00
  1.00000000E+00  1.00000000E+00  1.96978815E-03  1.49612859E-02  7.35005308E-02
  2.48936766E-01  6.02459433E-01  2.56201759E-01  1.11906080E-01  9.21666655E-01
 -2.56919183E-03  1.00000000E+00  1.00000000E+00  1.00000000E+00  1.00000000E+00
  1.00000000E+00  2.54938145E-02  1.90373109E-01  8.52161486E-01  1.00000000E+00
  1.00000000E+00  1.00000000E+00  2.54938145E-02  1.90373109E-01  8.52161486E-01
  1.00000000E+00  1.00000000E+00  1.00000000E+00  2.54938145E-02  1.90373109E-01
  8.52161486E-01  1.00000000E+00  1.00000000E+00  1.00000000E+00  2.54938145E-02
  1.90373109E-01  8.52161486E-01  1.00000000E+00  1.00000000E+00  1.00000000E+00
  1.96978815E-03  1.49612859E-02  7.35005308E-02  2.48936766E-01  6.02459433E-01
  2.56201759E-01  1.11906080E-01  9.21666655E-01 -2.56919183E-03  1.00000000E+00
  1.00000000E+00  1.00000000E+00  1.00000000E+00  1.00000000E+00
P(S=P) Contraction coefficients            R   N=          94
  0.00000000E+00  0.00000000E+00  0.00000000E+00  0.00000000E+00  0.00000000E+00
  0.00000000E+00  4.02486927E-02  2.37593957E-01  8.15853851E-01  1.00000000E+00
  1.00000000E+00  1.00000000E+00  0.00000000E+00  0.00000000E+00  0.00000000E+00
  0.00000000E+00  0.00000000E+00  0.00000000E+00  0.00000000E+00  0.00000000E+00
  4.02486927E-02  2.37593957E-01  8.15853851E-01  1.00000000E+00  1.00000000E+00
  1.00000000E+00  0.00000000E+00  0.00000000E+00  0.00000000E+00  0.00000000E+00
  0.00000000E+00  0.00000000E+00  0.00000000E+00  0.00000000E+00  4.02486927E-02
  2.37593957E-01  8.15853851E-01  1.00000000E+00  1.00000000E+00  1.00000000E+00
  0.00000000E+00  0.00000000E+00  0.00000000E+00  0.00000000E+00  0.00000000E+00
  0.00000000E+00  0.00000000E+00  0.00000000E+00  3.83119186E-02  2.37403116E-01
  8.17592398E-01  1.00000000E+00  1.00000000E+00  1.00000000E+00  0.00000000E+00
  0.00000000E+00  0.00000000E+00  0.00000000E+00  0.00000000E+00  0.00000000E+00
  0.00000000E+00  0.00000000E+00  0.00000000E+00  0.00000000E+00  0.00000000E+00
  0.00000000E+00  0.00000000E+00  0.00000000E+00  0.00000000E+00  0.00000000E+00
  0.00000000E+00  0.00000000E+00  0.00000000E+00  0.00000000E+00  0.00000000E+00
  0.00000000E+00  0.00000000E+00  0.00000000E+00  0.00000000E+00  0.00000000E+00
  0.00000000E+00  0.00000000E+00  0.00000000E+00  0.00000000E+00  0.00000000E+00
  0.00000000E+00  3.83119186E-02  2.37403116E-01  8.17592398E-01  1.00000000E+00
  1.00000000E+00  1.00000000E+00  0.00000000E+00  0.00000000E+00
Coordinates of each shell                  R   N=         153
  1.39396592E+01  3.05257628E+01  2.57886805E+01  1.39396592E+01  3.05257628E+01
  2.57886805E+01  1.39396592E+01  3.05257628E+01  2.57886805E+01  1.39396592E+01
  3.05257628E+01  2.57886805E+01  1.39396592E+01  3.05257628E+01  2.57886805E+01
  1.39396592E+01  3.05257628E+01  2.57886805E+01  1.39396592E+01  3.05257628E+01
  2.57886805E+01  1.20976525E+01  2.88989467E+01  2.67365406E+01  1.20976525E+01
  2.88989467E+01  2.67365406E+01  1.20976525E+01  2.88989467E+01  2.67365406E+01
  1.20976525E+01  2.88989467E+01  2.67365406E+01  1.20976525E+01  2.88989467E+01
  2.67365406E+01  1.20976525E+01  2.88989467E+01  2.67365406E+01  1.20976525E+01
  2.88989467E+01  2.67365406E+01  1.21415546E+01  2.83486509E+01  2.26104068E+01
  1.21415546E+01  2.83486509E+01  2.26104068E+01  1.21415546E+01  2.83486509E+01
  2.26104068E+01  1.21415546E+01  2.83486509E+01  2.26104068E+01  1.21415546E+01
  2.83486509E+01  2.26104068E+01  1.21415546E+01  2.83486509E+01  2.26104068E+01
  1.21415546E+01  2.83486509E+01  2.26104068E+01  1.39611341E+01  3.01708646E+01
  2.31716441E+01  1.39611341E+01  3.01708646E+01  2.31716441E+01  1.39611341E+01
  3.01708646E+01  2.31716441E+01  1.39611341E+01  3.01708646E+01  2.31716441E+01
  1.39611341E+01  3.01708646E+01  2.31716441E+01  1.39611341E+01  3.01708646E+01
  2.31716441E+01  1.39611341E+01  3.01708646E+01  2.31716441E+01  1.50813411E+01
  3.10689589E+01  2.19596739E+01  1.50813411E+01  3.10689589E+01  2.19596739E+01
  1.50813411E+01  3.10689589E+01  2.19596739E+01  1.50813411E+01  3.10689589E+01
  2.19596739E+01  1.51624198E+01  3.18306413E+01  2.67262549E+01  1.51624198E+01
  3.18306413E+01  2.67262549E+01  1.51624198E+01  3.18306413E+01  2.67262549E+01
  1.51624198E+01  3.18306413E+01  2.67262549E+01  1.14925357E+01  2.85943909E+01
  2.86466645E+01  1.14925357E+01  2.85943909E+01  2.86466645E+01  1.14925357E+01
  2.85943909E+01  2.86466645E+01  1.14925357E+01  2.85943909E+01  2.86466645E+01
  1.17285134E+01  2.76847504E+01  2.07186398E+01  1.17285134E+01  2.76847504E+01
  2.07186398E+01  1.17285134E+01  2.76847504E+01  2.07186398E+01  1.17285134E+01
  2.76847504E+01  2.07186398E+01  1.10144199E+01  2.75761630E+01  2.47487169E+01
  1.10144199E+01  2.75761630E+01  2.47487169E+01  1.10144199E+01  2.75761630E+01
  2.47487169E+01  1.10144199E+01  2.75761630E+01  2.47487169E+01  1.10144199E+01
  2.75761630E+01  2.47487169E+01  1.10144199E+01  2.75761630E+01  2.47487169E+01
  1.10144199E+01  2.75761630E+01  2.47487169E+01
Num ILSW                                   I              100
ILSW                                       I   N=         100
           0           0           0           0           2           0
           0           0           0           0        4336          -1
           5           0           0           0           0           0
           0           0           0           0           0           0
           1           1           0           0           0           0
           0           0      100000           0          -1           0
           0           0           0           0           0           0
           0           0           0           1           0           0
           0 -2000000000           1           0           0           0
           0           0         131          52           0           0
           0           0          55           0           0           0
           0           0           0           9           0           1
           0           0           0           0           0           0
           0           0           0           0           0           0
           0           0           0           0           0           0
           0           0           0           0           0           0
           0           0           0           0
Num RLSW                                   I               52
RLSW                                       R   N=          52
  1.00000000E+00  1.00000000E+00  1.00000000E+00  1.00000000E+00  5.40000000E-01
  0.00000000E+00  0.00000000E+00  1.00000000E+00  0.00000000E+00  0.00000000E+00
  0.00000000E+00  0.00000000E+00  1.00000000E+00  0.00000000E+00  0.00000000E+00
  0.00000000E+00  0.00000000E+00  1.00000000E+00  0.00000000E+00  0.00000000E+00
  0.00000000E+00  0.00000000E+00  1.00000000E+00  0.00000000E+00  0.00000000E+00
  0.00000000E+00  0.00000000E+00  1.00000000E+00  0.00000000E+00  0.00000000E+00
  0.00000000E+00  0.00000000E+00  1.00000000E+00  0.00000000E+00  0.00000000E+00
  0.00000000E+00  0.00000000E+00  0.00000000E+00  1.00000000E+00  1.00000000E+00
  0.00000000E+00  1.00000000E+00  0.00000000E+00  0.00000000E+00  0.00000000E+00
  0.00000000E+00  0.00000000E+00  0.00000000E+00  0.00000000E+00  0.00000000E+00
  0.00000000E+00  0.00000000E+00
MxBond                                     I                3
NBond                                      I   N=           9
           3           3           3           3           1           1
           1           1           2
IBond                                      I   N=          27
           2           4           6           1           7           9
           4           8           9           1           3           5
           4           0           0           1           0           0
           2           0           0           3           0           0
           2           3           0
RBond                                      R   N=          27
  1.50000000E+00  1.00000000E+00  1.00000000E+00  1.50000000E+00  1.00000000E+00
  1.00000000E+00  1.00000000E+00  1.00000000E+00  1.50000000E+00  1.00000000E+00
  1.00000000E+00  1.00000000E+00  1.00000000E+00  0.00000000E+00  0.00000000E+00
  1.00000000E+00  0.00000000E+00  0.00000000E+00  1.00000000E+00  0.00000000E+00
  0.00000000E+00  1.00000000E+00  0.00000000E+00  0.00000000E+00  1.00000000E+00
  1.50000000E+00  0.00000000E+00
Virial Ratio                               R      2.005141498651561E+00
SCF Energy                                 R     -2.261881470065901E+02
Total Energy                               R     -2.261881470065901E+02
RMS Density                                R      8.096822774210581E-09
Job Status                                 I                1
Nuclear derivative order                   I                0
External E-field                           R   N=          35
  0.00000000E+00  0.00000000E+00  0.00000000E+00  0.00000000E+00  0.00000000E+00
  0.00000000E+00  0.00000000E+00  0.00000000E+00  0.00000000E+00  0.00000000E+00
  0.00000000E+00  0.00000000E+00  0.00000000E+00  0.00000000E+00  0.00000000E+00
  0.00000000E+00  0.00000000E+00  0.00000000E+00  0.00000000E+00  0.00000000E+00
  0.00000000E+00  0.00000000E+00  0.00000000E+00  0.00000000E+00  0.00000000E+00
  0.00000000E+00  0.00000000E+00  0.00000000E+00  0.00000000E+00  0.00000000E+00
  0.00000000E+00  0.00000000E+00  0.00000000E+00  0.00000000E+00  0.00000000E+00
IOpCl                                      I                0
IROHF                                      I                0
Alpha Orbital Energies                     R   N=         159
 -1.48124645E+01 -1.47350342E+01 -1.06055132E+01 -1.05774342E+01 -1.05582903E+01
 -1.11655210E+00 -9.70470561E-01 -8.37688883E-01 -7.04585189E-01 -6.69399474E-01
 -6.42850733E-01 -5.13848329E-01 -5.05612637E-01 -5.01985243E-01 -4.80842007E-01
 -3.44391580E-01 -3.41044494E-01 -2.85981884E-01  5.19910891E-03  2.61227266E-02
  3.53791341E-02  3.87112312E-02  5.31392139E-02  6.14546946E-02  6.28030127E-02
  8.06221749E-02  8.20229433E-02  1.02128642E-01  1.03299830E-01  1.24493509E-01
  1.27474501E-01  1.50948778E-01  1.57059251E-01  1.98176412E-01  2.04826706E-01
  2.08499419E-01  2.22383194E-01  2.28570097E-01  2.39193659E-01  2.39842174E-01
  2.52217957E-01  2.61797140E-01  2.77672833E-01  2.91121656E-01  3.04505021E-01
  3.32004513E-01  4.21647490E-01  4.38998442E-01  4.76683329E-01  4.91145863E-01
  5.46799454E-01  5.51449180E-01  5.73283314E-01  5.81082504E-01  5.97851262E-01
  6.16492970E-01  6.17801842E-01  6.39976737E-01  6.65666416E-01  7.07065511E-01
  7.44225709E-01  7.65823334E-01  7.69357773E-01  7.89066440E-01  7.93788798E-01
  8.06086077E-01  8.38495505E-01  8.57379573E-01  8.67742650E-01  8.99466984E-01
  9.10923301E-01  9.32660732E-01  9.50676128E-01  9.90915104E-01  9.97345189E-01
  1.01372984E+00  1.06862489E+00  1.11344209E+00  1.18082500E+00  1.26149029E+00
  1.28332712E+00  1.31922523E+00  1.34999427E+00  1.35742786E+00  1.39136979E+00
  1.41137286E+00  1.41727271E+00  1.44874867E+00  1.45827015E+00  1.47271761E+00
  1.51663390E+00  1.68781462E+00  1.69517890E+00  1.72817484E+00  1.73317997E+00
  1.79436886E+00  1.82316068E+00  1.89622346E+00  1.91582634E+00  2.01477381E+00
  2.03602803E+00  2.14807864E+00  2.22770555E+00  2.30612575E+00  2.40296813E+00
  2.45581419E+00  2.50181005E+00  2.63634493E+00  2.70426409E+00  2.75463826E+00
  2.78700407E+00  2.81966720E+00  2.83729942E+00  2.87436824E+00  2.94355928E+00
  2.96039864E+00  3.09831020E+00  3.16561656E+00  3.22463217E+00  3.26054378E+00
  3.31851890E+00  3.34180040E+00  3.37909828E+00  3.38714586E+00  3.42755405E+00
  3.43049743E+00  3.45367947E+00  3.52176572E+00  3.56879616E+00  3.57320569E+00
  3.62008263E+00  3.64892684E+00  3.69594596E+00  3.72548049E+00  3.94464695E+00
  3.96274687E+00  3.97804400E+00  3.99663736E+00  4.02899149E+00  4.48437439E+00
  4.59622260E+00  4.89205890E+00  4.96652046E+00  4.98626724E+00  5.01123885E+00
  5.02424176E+00  5.04229359E+00  5.09216971E+00  5.21325080E+00  5.25603552E+00
  5.35806637E+00  5.42267316E+00  5.52083072E+00  5.60708657E+00  2.38964969E+01
  2.40914286E+01  2.41400560E+01  3.56552478E+01  3.57010512E+01
Alpha MO coefficients                      R   N=       25281
  1.84006841E-05 -4.42202817E-05  1.88126815E-05 -9.98177934E-06 -1.94940032E-04
  3.48101102E-04 -8.10480243E-05 -1.03140788E-04 -1.78895601E-04  1.05468742E-02
 -3.71220000E-03 -3.92642932E-03 -2.60535749E-03 -4.81444134E-03  4.36741186E-04
  4.31635541E-04  9.62866731E-05 -7.32223353E-06 -2.63835420E-05 -2.99614668E-05
  3.21163504E-06 -2.01334050E-05 -1.48127702E-04 -2.16564077E-04 -1.63615263E-04
  5.25689656E-05  5.55500093E-04 -3.84736578E-06  1.84376089E-05  6.73886012E-05
  6.01036369E-05 -3.04047528E-05 -3.07638780E-04 -4.90851963E-04 -3.87411879E-04
  5.72633918E-04 -4.58158508E-03 -2.43746198E-03 -1.91375818E-03  2.92091866E-03
  6.03632483E-03  4.38337015E-04  2.67961836E-04 -1.05559124E-03 -4.26985064E-05
 -1.24623988E-05 -2.43638583E-05  2.17067727E-06 -1.17509207E-05  9.28083535E-04
 -1.07257904E-04  9.11222926E-05 -1.03218088E-05 -2.73242427E-04  1.88880731E-05
 -4.44656635E-05  1.10692193E-04  1.11702447E-04  4.05826187E-05  4.55387734E-04
  2.47054238E-04  2.48983687E-04  8.50090945E-05  7.88414247E-03  1.51507705E-03
  2.05714116E-03  4.23977826E-03  1.98801247E-04  6.70646941E-04  6.71331446E-04
  2.13781022E-04 -5.14625231E-07 -2.37845405E-05 -2.82077941E-05  2.31524677E-06
 -3.57740846E-05  4.17199770E-04 -1.20716801E-04  1.55259415E-05  1.55522526E-05
  1.82164600E-04  5.58849123E-01  4.65772557E-01  6.42118026E-05  5.79886198E-05
 -2.00895138E-05  1.11254001E-02  1.45940042E-04  1.21066485E-04 -1.31051929E-04
 -1.18296922E-02  4.11536711E-03  3.27441168E-03 -4.63010842E-03 -2.29709729E-03
  3.01622400E-04  3.48587395E-04  4.12294164E-04  1.97084878E-04 -1.19424026E-04
 -1.07541273E-05  2.59956251E-05  3.72530624E-04 -2.91835040E-04 -4.66331930E-04
 -5.63551285E-04  6.19996812E-05 -3.07247954E-04  2.16850699E-04 -3.47594464E-03
  9.04043162E-04  7.47998202E-04  6.02601506E-04 -7.88746538E-04 -8.86557809E-05
  1.51160052E-04  1.76635753E-03 -4.88790865E-06  2.98197569E-05  2.40155715E-04
  2.40490183E-05 -1.69603640E-03 -4.15452462E-04 -1.24298421E-04 -7.86407798E-05
  2.80003067E-04 -8.84987059E-05  5.20156089E-05  1.49903705E-03 -1.52885237E-04
 -1.54307994E-04 -5.53484216E-05 -8.19555511E-05 -5.16950135E-05  2.41216938E-05
  1.82115413E-05 -3.40439889E-05 -7.16631050E-05 -1.73869406E-04 -1.44622909E-04
  1.52234580E-04 -2.36477854E-03 -7.96113909E-04 -5.98394442E-04  1.13932113E-03
 -3.36296300E-03 -6.96878900E-04 -8.90143773E-04 -1.55640782E-03 -7.70881010E-06
 -2.35548750E-05 -2.71668228E-05  2.89993651E-06 -1.90309910E-05  9.91377204E-05
  1.71507577E-04  1.82960274E-04 -2.77460936E-05 -3.92629709E-05 -4.64715627E-06
  2.90690152E-05 -8.08676735E-05 -7.18915174E-05  3.83708018E-05 -2.48595950E-04
  7.09717132E-04  6.68609542E-04 -7.44205151E-05 -3.70237970E-03  2.76547182E-03
  2.65847195E-03  8.17270747E-05  9.89966947E-03 -1.64039200E-03 -1.57438773E-03
 -3.22056739E-05 -2.21609961E-05 -1.82312329E-05 -2.56762175E-05  2.41386083E-06
 -1.81537085E-05  3.58738509E-04  4.11459781E-04  4.59786385E-04 -7.11270574E-05
 -1.65495141E-04  2.44880709E-05 -7.69359286E-05 -1.07831556E-04 -1.21720283E-04
 -1.28878007E-04  4.21484064E-04  4.21131444E-05 -2.14285299E-07 -2.81040790E-04
  1.07127129E-02  1.26160040E-03  4.96206747E-04 -4.94633620E-03 -9.41603355E-03
 -8.50372608E-04 -6.51894425E-04  1.12587842E-03 -2.42443035E-05  1.46545920E-05
  5.67090988E-06 -2.18791938E-06 -1.54718049E-05  4.19335901E-04 -6.18494499E-04
 -4.02884515E-04  1.00378033E-04  5.70299095E-04  2.32394561E-05 -5.26615456E-05
 -1.28789249E-04 -9.66500474E-05  1.86655020E-04  5.10722588E-04  1.00289546E-04
  1.16461478E-04  1.38604479E-04  8.98814676E-03  5.38185828E-04  1.22870495E-03
  4.98630211E-03  1.01741725E-04 -3.26737075E-04 -1.97441734E-04  8.11641262E-04
 -4.51839402E-05  3.86991692E-05  1.91185520E-05 -6.20375973E-06 -4.43982460E-05
  2.24579547E-04  5.19747143E-04  6.32012218E-04 -5.99599423E-05  5.44716809E-04
  8.43349625E-05  8.10354356E-05 -5.75951535E-05 -5.34527346E-05  1.17892325E-05
 -1.79290362E-05  3.38855782E-04  3.06151533E-04 -1.27170097E-04 -2.27872761E-03
  2.03089862E-03  1.79107843E-03 -1.06961612E-03 -4.26770822E-03  6.19371229E-04
  2.71515218E-04 -2.24110205E-03 -3.46758581E-05  1.02586208E-05  6.73517916E-07
 -9.76983492E-07 -2.98239074E-06  2.84750389E-04 -1.37967007E-04 -7.63869476E-05
  1.12148589E-05 -1.10202371E-04  1.05506390E-05 -1.21875788E-03 -6.45521592E-04
  1.67107460E-04  1.37673803E-04 -1.54512203E-04  5.76463334E-05 -1.27937288E-03
 -5.80363555E-04  1.95183510E-04  1.93176037E-04  4.47551890E-05 -1.06273633E-04
 -6.68305401E-04  1.51017828E-03  8.73381111E-05  1.25769474E-04  2.93321285E-04
 -1.14320916E-04 -4.54335307E-04  1.64973749E-03  1.41473995E-04  8.98133015E-05
 -3.19956139E-04  5.58813636E-01  4.65923391E-01  1.30227380E-03  1.22330470E-03
 -1.60247201E-04  1.08979845E-02 -5.29592963E-05 -5.98197572E-05 -6.56808660E-05
 -1.48498683E-02 -3.51990011E-03 -3.33774340E-03  2.28193440E-04  6.42113252E-04
  5.08305982E-05  1.20855528E-04  4.99372286E-04  2.39237048E-04 -3.47459143E-05
  4.46611106E-05  4.66915209E-06  1.22177721E-04 -3.00770950E-04  5.58766081E-05
 -1.30627461E-04 -2.73742957E-05 -7.48013092E-04 -3.26124916E-04 -1.97576757E-04
 -1.71108419E-05 -1.98413478E-05 -2.46711170E-05 -9.89227794E-04  3.92293820E-04
  4.60963814E-04  5.98664483E-04  1.34771138E-03 -5.03186091E-04 -5.48731328E-04
 -4.65630477E-04  4.14889298E-03 -3.15873258E-04 -3.10784251E-04 -6.39779300E-05
 -8.87617841E-05  1.16515618E-05 -1.98035844E-05 -2.10608255E-06 -6.01223818E-05
 -1.65426242E-04  1.41241629E-04  2.19440478E-04  1.15180374E-05  8.66992527E-04
 -1.39957417E-04 -5.73011575E-05  1.67349711E-06 -1.10732162E-06 -1.89201183E-05
 -9.50594802E-04 -1.27591324E-04 -2.26554934E-05  6.92906603E-04  1.63223610E-03
  8.44044011E-04  5.89809034E-04 -1.52157215E-03  1.08699711E-03 -1.22623803E-03
 -1.33598563E-03 -1.12655121E-03 -5.29108771E-05  5.42903903E-06 -1.68909853E-05
 -1.85773663E-06 -6.12366225E-05  8.01276195E-04 -6.91729943E-04 -4.20938932E-04
  9.38114448E-05  2.72289683E-04  5.64179319E-01  4.63660519E-01  4.86369642E-04
  4.37441730E-04 -1.94701796E-04  1.41364269E-02 -1.59103053E-04  1.56261616E-04
  2.13877838E-03  5.70402302E-03 -2.57685062E-04  1.23655937E-04  2.58434248E-03
 -7.36854463E-03 -6.42712273E-04 -6.95054315E-04 -5.54067902E-04  3.38269183E-04
 -9.50705910E-05  8.06075602E-05  2.77850876E-05  6.02012922E-04  1.28164251E-03
 -1.42366616E-05  3.99425333E-04  1.72108037E-06  6.51963879E-04 -7.14234406E-05
 -1.47467658E-04 -2.96061887E-04 -3.03930826E-04 -1.43028294E-04  1.43255207E-03
  2.82177275E-04  3.14000623E-04  3.04738591E-04 -6.01134572E-03  3.12093944E-03
  2.95050535E-03 -2.60950091E-04  2.34186688E-03 -7.94579389E-05 -4.86439538E-04
 -2.85669728E-03 -1.49358230E-04  2.11614506E-05  2.06897493E-05  8.37189039E-06
  2.62413866E-04  1.25709102E-03 -2.19698558E-05 -1.49572248E-05 -9.04877464E-05
 -2.13788200E-03  1.23117452E-04  3.01442634E-04 -2.36694986E-03  7.67073685E-05
  1.39628704E-04  4.59236216E-04 -8.33215624E-05 -1.00096304E-03  8.01606824E-04
  1.48541892E-04  1.74760450E-04  2.27221813E-04 -1.29331753E-04 -9.50156227E-04
  1.28841065E-03 -3.83553927E-05  7.68174453E-06  3.07037296E-04  3.50207247E-04
 -3.12111399E-03  1.46739609E-03 -2.60013489E-04 -4.28424327E-04 -1.26230367E-03
 -9.82316828E-05 -1.47385621E-04  2.71488563E-04  1.89499734E-04 -4.90862979E-04
  1.45061452E-03 -5.66918738E-04 -4.01853014E-04  9.81096133E-04 -8.48053023E-03
 -2.99418057E-03 -2.22386740E-03  4.47711901E-03  2.27312086E-04  9.84628509E-04
  5.94830801E-04 -2.42248133E-03  4.44958498E-05 -1.23404081E-04 -9.28095645E-05
  2.01961421E-05  9.72786929E-05 -8.16185752E-04  1.64237700E-03  1.22160699E-03
 -2.54460155E-04 -9.96865067E-04  5.64013403E-01  4.63584650E-01  3.47334171E-04
  2.14866081E-04 -8.17882433E-04  1.40326630E-02 -6.66573921E-04 -6.89336310E-04
 -3.59393948E-04  3.04380476E-03 -3.83879559E-04 -2.97433754E-04  4.86636058E-04
 -8.32067521E-03  3.53665847E-04  3.15969709E-04 -1.55975589E-04  4.25482688E-04
 -2.00857207E-05  1.71813923E-04  1.46948516E-05  5.79835740E-04 -8.48609003E-04
  1.25148174E-03  1.21374450E-03 -1.11185899E-04  1.58756150E-03  1.16675061E-02
  9.65757329E-03  4.53106648E-04  3.97572594E-04 -2.51411671E-04  8.33084485E-04