 Entering Gaussian System, Link 0=g16
 Initial command:
 /data0/hywu0/study/g16/l1.exe "/data0/hywu0/study/g16/scratch/Gau-860123.inp" -scrdir="/data0/hywu0/study/g16/scratch/"
 Default is to use a total of   8 processors:
                                8 via shared-memory
                                1 via Linda
 Entering Link 1 = /data0/hywu0/study/g16/l1.exe PID=    860124.
  
 Copyright (c) 1988,1990,1992,1993,1995,1998,2003,2009,2016,
            Gaussian, Inc.  All Rights Reserved.
  
 This is part of the Gaussian(R) 16 program.  It is based on
 the Gaussian(R) 09 system (copyright 2009, Gaussian, Inc.),
 the Gaussian(R) 03 system (copyright 2003, Gaussian, Inc.),
 the Gaussian(R) 98 system (copyright 1998, Gaussian, Inc.),
 the Gaussian(R) 94 system (copyright 1995, Gaussian, Inc.),
 the Gaussian 92(TM) system (copyright 1992, Gaussian, Inc.),
 the Gaussian 90(TM) system (copyright 1990, Gaussian, Inc.),
 the Gaussian 88(TM) system (copyright 1988, Gaussian, Inc.),
 the Gaussian 86(TM) system (copyright 1986, Carnegie Mellon
 University), and the Gaussian 82(TM) system (copyright 1983,
 Carnegie Mellon University). Gaussian is a federally registered
 trademark of Gaussian, Inc.
  
 This software contains proprietary and confidential information,
 including trade secrets, belonging to Gaussian, Inc.
  
 This software is provided under written license and may be
 used, copied, transmitted, or stored only in accord with that
 written license.
  
 The following legend is applicable only to US Government
 contracts under FAR:
  
                    RESTRICTED RIGHTS LEGEND
  
 Use, reproduction and disclosure by the US Government is
 subject to restrictions as set forth in subparagraphs (a)
 and (c) of the Commercial Computer Software - Restricted
 Rights clause in FAR 52.227-19.
  
 Gaussian, Inc.
 340 Quinnipiac St., Bldg. 40, Wallingford CT 06492
  
  
 ---------------------------------------------------------------
 Warning -- This program may not be used in any manner that
 competes with the business of Gaussian, Inc. or will provide
 assistance to any competitor of Gaussian, Inc.  The licensee
 of this program is prohibited from giving any competitor of
 Gaussian, Inc. access to this program.  By using this program,
 the user acknowledges that Gaussian, Inc. is engaged in the
 business of creating and licensing software in the field of
 computational chemistry and represents and warrants to the
 licensee that it is not a competitor of Gaussian, Inc. and that
 it will not use this program in any manner prohibited above.
 ---------------------------------------------------------------
  

 Cite this work as:
 Gaussian 16, Revision A.03,
 M. J. Frisch, G. W. Trucks, H. B. Schlegel, G. E. Scuseria, 
 M. A. Robb, J. R. Cheeseman, G. Scalmani, V. Barone, 
 G. A. Petersson, H. Nakatsuji, X. Li, M. Caricato, A. V. Marenich, 
 J. Bloino, B. G. Janesko, R. Gomperts, B. Mennucci, H. P. Hratchian, 
 J. V. Ortiz, A. F. Izmaylov, J. L. Sonnenberg, D. Williams-Young, 
 F. Ding, F. Lipparini, F. Egidi, J. Goings, B. Peng, A. Petrone, 
 T. Henderson, D. Ranasinghe, V. G. Zakrzewski, J. Gao, N. Rega, 
 G. Zheng, W. Liang, M. Hada, M. Ehara, K. Toyota, R. Fukuda, 
 J. Hasegawa, M. Ishida, T. Nakajima, Y. Honda, O. Kitao, H. Nakai, 
 T. Vreven, K. Throssell, J. A. Montgomery, Jr., J. E. Peralta, 
 F. Ogliaro, M. J. Bearpark, J. J. Heyd, E. N. Brothers, K. N. Kudin, 
 V. N. Staroverov, T. A. Keith, R. Kobayashi, J. Normand, 
 K. Raghavachari, A. P. Rendell, J. C. Burant, S. S. Iyengar, 
 J. Tomasi, M. Cossi, J. M. Millam, M. Klene, C. Adamo, R. Cammi, 
 J. W. Ochterski, R. L. Martin, K. Morokuma, O. Farkas, 
 J. B. Foresman, and D. J. Fox, Gaussian, Inc., Wallingford CT, 2016.
 
 ******************************************
 Gaussian 16:  ES64L-G16RevA.03 25-Dec-2016
                10-Jul-2023 
 ******************************************
 %chk=Im.chk
 %nprocshared=16
 Will use up to   16 processors via shared memory.
 %mem=10GB
 ------------------------------------
 #p 6-311+g(2d,p) nosymm em=gd3 m062x
 ------------------------------------
 1/38=1,172=1/1;
 2/12=2,15=1,17=6,18=5,40=1/2;
 3/5=4,6=6,7=112,11=2,25=1,30=1,74=-55,124=31/1,2,3;
 4//1;
 5/5=2,38=5/2;
 6/7=2,8=2,9=2,10=2,28=1/1;
 99/5=1,9=1/99;
 Leave Link    1 at Mon Jul 10 15:20:19 2023, MaxMem=  1342177280 cpu:               0.7 elap:               0.1
 (Enter /data0/hywu0/study/g16/l101.exe)
 -------------------
 Title Card Required
 -------------------
 Symbolic Z-matrix:
 Charge =  0 Multiplicity = 1
 C                     7.37655   16.15354   13.64678 
 C                     6.4018    15.29266   14.14837 
 C                     6.42503   15.00146   11.96491 
 N                     7.38791   15.96573   12.26191 
 H                     7.9807    16.44099   11.62056 
 H                     8.02361   16.84405   14.14292 
 H                     6.08159   15.1315   15.15916 
 H                     6.20646   14.65014   10.96383 
 N                     5.82858   14.59268   13.09646 
 
 ITRead=  0  0  0  0  0  0  0  0  0
 MicOpt= -1 -1 -1 -1 -1 -1 -1 -1 -1
 NAtoms=      9 NQM=        9 NQMF=       0 NMMI=      0 NMMIF=      0
                NMic=       0 NMicF=      0.
                    Isotopes and Nuclear Properties:
 (Nuclear quadrupole moments (NQMom) in fm**2, nuclear magnetic moments (NMagM)
  in nuclear magnetons)

  Atom         1           2           3           4           5           6           7           8           9
 IAtWgt=          12          12          12          14           1           1           1           1          14
 AtmWgt=  12.0000000  12.0000000  12.0000000  14.0030740   1.0078250   1.0078250   1.0078250   1.0078250  14.0030740
 NucSpn=           0           0           0           2           1           1           1           1           2
 AtZEff=  -0.0000000  -0.0000000  -0.0000000  -0.0000000  -0.0000000  -0.0000000  -0.0000000  -0.0000000  -0.0000000
 NQMom=    0.0000000   0.0000000   0.0000000   2.0440000   0.0000000   0.0000000   0.0000000   0.0000000   2.0440000
 NMagM=    0.0000000   0.0000000   0.0000000   0.4037610   2.7928460   2.7928460   2.7928460   2.7928460   0.4037610
 AtZNuc=   6.0000000   6.0000000   6.0000000   7.0000000   1.0000000   1.0000000   1.0000000   1.0000000   7.0000000
 Leave Link  101 at Mon Jul 10 15:20:19 2023, MaxMem=  1342177280 cpu:               1.4 elap:               0.1
 (Enter /data0/hywu0/study/g16/l202.exe)
                          Input orientation:                          
 ---------------------------------------------------------------------
 Center     Atomic      Atomic             Coordinates (Angstroms)
 Number     Number       Type             X           Y           Z
 ---------------------------------------------------------------------
      1          6           0        7.376550   16.153538   13.646782
      2          6           0        6.401802   15.292664   14.148368
      3          6           0        6.425034   15.001460   11.964912
      4          7           0        7.387914   15.965734   12.261906
      5          1           0        7.980702   16.440985   11.620559
      6          1           0        8.023607   16.844050   14.142925
      7          1           0        6.081588   15.131500   15.159162
      8          1           0        6.206462   14.650139   10.963832
      9          7           0        5.828580   14.592677   13.096457
 ---------------------------------------------------------------------
                    Distance matrix (angstroms):
                    1          2          3          4          5
     1  C    0.000000
     2  C    1.393853   0.000000
     3  C    2.249745   2.202912   0.000000
     4  N    1.397598   2.232527   1.394693   0.000000
     5  H    2.133824   3.193961   2.147304   0.994277   0.000000
     6  H    1.068479   2.244344   3.270216   2.171123   2.554727
     7  H    2.238031   1.072481   3.215291   3.285807   4.224109
     8  H    3.290522   3.254576   1.083218   2.193539   2.605062
     9  N    2.266132   1.387473   1.342853   2.239036   3.197835
                    6          7          8          9
     6  H    0.000000
     7  H    2.781547   0.000000
     8  H    4.268711   4.224701   0.000000
     9  N    3.313898   2.146880   2.166607   0.000000
 Symmetry turned off by external request.
 Stoichiometry    C3H4N2
 Framework group  C1[X(C3H4N2)]
 Deg. of freedom    21
 Full point group                 C1      NOp   1
 Rotational constants (GHZ):           9.4238550           9.1881291           4.6522498
 Leave Link  202 at Mon Jul 10 15:20:19 2023, MaxMem=  1342177280 cpu:               0.4 elap:               0.0
 (Enter /data0/hywu0/study/g16/l301.exe)
 Standard basis: 6-311+G(2d,p) (5D, 7F)
 Ernie: Thresh=  0.10000D-02 Tol=  0.10000D-05 Strict=F.
   159 basis functions,   242 primitive gaussians,   169 cartesian basis functions
    18 alpha electrons       18 beta electrons
       nuclear repulsion energy       161.0247378029 Hartrees.
 IExCor= 4336 DFT=T Ex+Corr=M062X ExCW=0 ScaHFX=  0.540000
 ScaDFX=  1.000000  1.000000  1.000000  1.000000 ScalE2=  1.000000  1.000000
 IRadAn=      5 IRanWt=     -1 IRanGd=            0 ICorTp=0 IEmpDi=131
 NAtoms=    9 NActive=    9 NUniq=    9 SFac= 1.00D+00 NAtFMM=   60 NAOKFM=F Big=F
 Integral buffers will be    131072 words long.
 Raffenetti 2 integral format.
 Two-electron integral symmetry is turned off.
 R6Disp:  Grimme-D3 Dispersion energy=       -0.0000417082 Hartrees.
 Nuclear repulsion after empirical dispersion term =      161.0246960947 Hartrees.
 Leave Link  301 at Mon Jul 10 15:20:19 2023, MaxMem=  1342177280 cpu:               1.3 elap:               0.1
 (Enter /data0/hywu0/study/g16/l302.exe)
 NPDir=0 NMtPBC=     1 NCelOv=     1 NCel=       1 NClECP=     1 NCelD=      1
         NCelK=      1 NCelE2=     1 NClLst=     1 CellRange=     0.0.
 One-electron integrals computed using PRISM.
 NBasis=   159 RedAO= T EigKep=  5.81D-05  NBF=   159
 NBsUse=   159 1.00D-06 EigRej= -1.00D+00 NBFU=   159
 Precomputing XC quadrature grid using
 IXCGrd= 4 IRadAn=           5 IRanWt=          -1 IRanGd=           0 AccXCQ= 0.00D+00.
 Generated NRdTot=       0 NPtTot=           0 NUsed=           0 NTot=          32
 NSgBfM=   169   169   169   169   169 MxSgAt=     9 MxSgA2=     9.
 Leave Link  302 at Mon Jul 10 15:20:19 2023, MaxMem=  1342177280 cpu:               2.2 elap:               0.2
 (Enter /data0/hywu0/study/g16/l303.exe)
 DipDrv:  MaxL=1.
 Leave Link  303 at Mon Jul 10 15:20:19 2023, MaxMem=  1342177280 cpu:               0.8 elap:               0.1
 (Enter /data0/hywu0/study/g16/l401.exe)
 ExpMin= 4.38D-02 ExpMax= 6.29D+03 ExpMxC= 9.49D+02 IAcc=3 IRadAn=         5 AccDes= 0.00D+00
 Harris functional with IExCor= 1009 and IRadAn=       5 diagonalized for initial guess.
 HarFok:  IExCor= 1009 AccDes= 0.00D+00 IRadAn=         5 IDoV= 1 UseB2=F ITyADJ=14
 ICtDFT=  3500011 ScaDFX=  1.000000  1.000000  1.000000  1.000000
 FoFCou: FMM=F IPFlag=           0 FMFlag=      100000 FMFlg1=           0
         NFxFlg=           0 DoJE=T BraDBF=F KetDBF=T FulRan=T
         wScrn=  0.000000 ICntrl=       500 IOpCl=  0 I1Cent=   200000004 NGrid=           0
         NMat0=    1 NMatS0=      1 NMatT0=    0 NMatD0=    1 NMtDS0=    0 NMtDT0=    0
 Symmetry not used in FoFCou.
 Harris En= -226.053383409543    
 JPrj=0 DoOrth=F DoCkMO=F.
 Leave Link  401 at Mon Jul 10 15:20:20 2023, MaxMem=  1342177280 cpu:               5.5 elap:               0.4
 (Enter /data0/hywu0/study/g16/l502.exe)
 Keep R1 ints in memory in canonical form, NReq=96849826.
 FoFCou: FMM=F IPFlag=           0 FMFlag=           0 FMFlg1=           0
         NFxFlg=           0 DoJE=F BraDBF=F KetDBF=F FulRan=T
         wScrn=  0.000000 ICntrl=       600 IOpCl=  0 I1Cent=           0 NGrid=           0
         NMat0=    1 NMatS0=  12720 NMatT0=    0 NMatD0=    1 NMtDS0=    0 NMtDT0=    0
 Symmetry not used in FoFCou.
 Two-electron integral symmetry not used.
 Closed shell SCF:
 Using DIIS extrapolation, IDIIS=  1040.
 NGot=  1342177280 LenX=  1261210616 LenY=  1261181614
 Requested convergence on RMS density matrix=1.00D-08 within 128 cycles.
 Requested convergence on MAX density matrix=1.00D-06.
 Requested convergence on             energy=1.00D-06.
 No special actions if energy rises.

 Cycle   1  Pass 1  IDiag  1:
 E= -226.087538168792    
 DIIS: error= 2.84D-02 at cycle   1 NSaved=   1.
 NSaved= 1 IEnMin= 1 EnMin= -226.087538168792     IErMin= 1 ErrMin= 2.84D-02
 ErrMax= 2.84D-02  0.00D+00 EMaxC= 1.00D-01 BMatC= 1.33D-01 BMatP= 1.33D-01
 IDIUse=3 WtCom= 7.16D-01 WtEn= 2.84D-01
 Coeff-Com:  0.100D+01
 Coeff-En:   0.100D+01
 Coeff:      0.100D+01
 Gap=     0.312 Goal=   None    Shift=    0.000
 GapD=    0.312 DampG=1.000 DampE=0.500 DampFc=0.5000 IDamp=-1.
 Damping current iteration by 5.00D-01
 RMSDP=5.26D-03 MaxDP=1.86D-01              OVMax= 1.73D-01

 Cycle   2  Pass 1  IDiag  1:
 E= -226.134685941837     Delta-E=       -0.047147773046 Rises=F Damp=T
 DIIS: error= 9.29D-03 at cycle   2 NSaved=   2.
 NSaved= 2 IEnMin= 2 EnMin= -226.134685941837     IErMin= 2 ErrMin= 9.29D-03
 ErrMax= 9.29D-03  0.00D+00 EMaxC= 1.00D-01 BMatC= 1.57D-02 BMatP= 1.33D-01
 IDIUse=3 WtCom= 9.07D-01 WtEn= 9.29D-02
 Coeff-Com: -0.978D-01 0.110D+01
 Coeff-En:   0.000D+00 0.100D+01
 Coeff:     -0.887D-01 0.109D+01
 Gap=     0.294 Goal=   None    Shift=    0.000
 RMSDP=1.38D-03 MaxDP=5.45D-02 DE=-4.71D-02 OVMax= 1.14D-01

 Cycle   3  Pass 1  IDiag  1:
 E= -226.179372019686     Delta-E=       -0.044686077849 Rises=F Damp=F
 DIIS: error= 8.55D-03 at cycle   3 NSaved=   3.
 NSaved= 3 IEnMin= 3 EnMin= -226.179372019686     IErMin= 3 ErrMin= 8.55D-03
 ErrMax= 8.55D-03  0.00D+00 EMaxC= 1.00D-01 BMatC= 1.00D-02 BMatP= 1.57D-02
 IDIUse=3 WtCom= 9.15D-01 WtEn= 8.55D-02
 Coeff-Com: -0.151D+00 0.538D+00 0.613D+00
 Coeff-En:   0.000D+00 0.000D+00 0.100D+01
 Coeff:     -0.138D+00 0.492D+00 0.646D+00
 Gap=     0.297 Goal=   None    Shift=    0.000
 RMSDP=5.65D-04 MaxDP=1.43D-02 DE=-4.47D-02 OVMax= 4.42D-02

 Cycle   4  Pass 1  IDiag  1:
 E= -226.186764688544     Delta-E=       -0.007392668857 Rises=F Damp=F
 DIIS: error= 3.97D-03 at cycle   4 NSaved=   4.
 NSaved= 4 IEnMin= 4 EnMin= -226.186764688544     IErMin= 4 ErrMin= 3.97D-03
 ErrMax= 3.97D-03  0.00D+00 EMaxC= 1.00D-01 BMatC= 1.60D-03 BMatP= 1.00D-02
 IDIUse=3 WtCom= 9.60D-01 WtEn= 3.97D-02
 Coeff-Com: -0.616D-01 0.154D+00 0.348D+00 0.559D+00
 Coeff-En:   0.000D+00 0.000D+00 0.111D+00 0.889D+00
 Coeff:     -0.591D-01 0.148D+00 0.339D+00 0.572D+00
 Gap=     0.291 Goal=   None    Shift=    0.000
 RMSDP=2.24D-04 MaxDP=5.28D-03 DE=-7.39D-03 OVMax= 1.21D-02

 Cycle   5  Pass 1  IDiag  1:
 E= -226.188117757734     Delta-E=       -0.001353069191 Rises=F Damp=F
 DIIS: error= 6.39D-04 at cycle   5 NSaved=   5.
 NSaved= 5 IEnMin= 5 EnMin= -226.188117757734     IErMin= 5 ErrMin= 6.39D-04
 ErrMax= 6.39D-04  0.00D+00 EMaxC= 1.00D-01 BMatC= 3.14D-05 BMatP= 1.60D-03
 IDIUse=3 WtCom= 9.94D-01 WtEn= 6.39D-03
 Coeff-Com: -0.144D-01 0.290D-01 0.876D-01 0.208D+00 0.690D+00
 Coeff-En:   0.000D+00 0.000D+00 0.000D+00 0.000D+00 0.100D+01
 Coeff:     -0.144D-01 0.288D-01 0.870D-01 0.206D+00 0.692D+00
 Gap=     0.291 Goal=   None    Shift=    0.000
 RMSDP=2.99D-05 MaxDP=7.94D-04 DE=-1.35D-03 OVMax= 2.32D-03

 Cycle   6  Pass 1  IDiag  1:
 E= -226.188142675011     Delta-E=       -0.000024917277 Rises=F Damp=F
 DIIS: error= 2.07D-04 at cycle   6 NSaved=   6.
 NSaved= 6 IEnMin= 6 EnMin= -226.188142675011     IErMin= 6 ErrMin= 2.07D-04
 ErrMax= 2.07D-04  0.00D+00 EMaxC= 1.00D-01 BMatC= 4.43D-06 BMatP= 3.14D-05
 IDIUse=3 WtCom= 9.98D-01 WtEn= 2.07D-03
 Coeff-Com: -0.370D-02 0.548D-02 0.241D-01 0.684D-01 0.345D+00 0.561D+00
 Coeff-En:   0.000D+00 0.000D+00 0.000D+00 0.000D+00 0.000D+00 0.100D+01
 Coeff:     -0.370D-02 0.547D-02 0.240D-01 0.683D-01 0.344D+00 0.562D+00
 Gap=     0.291 Goal=   None    Shift=    0.000
 RMSDP=1.50D-05 MaxDP=4.41D-04 DE=-2.49D-05 OVMax= 9.36D-04

 Cycle   7  Pass 1  IDiag  1:
 E= -226.188146782577     Delta-E=       -0.000004107566 Rises=F Damp=F
 DIIS: error= 2.92D-05 at cycle   7 NSaved=   7.
 NSaved= 7 IEnMin= 7 EnMin= -226.188146782577     IErMin= 7 ErrMin= 2.92D-05
 ErrMax= 2.92D-05  0.00D+00 EMaxC= 1.00D-01 BMatC= 1.45D-07 BMatP= 4.43D-06
 IDIUse=1 WtCom= 1.00D+00 WtEn= 0.00D+00
 Coeff-Com:  0.173D-02-0.370D-02-0.853D-02-0.219D-01-0.508D-01 0.769D-01
 Coeff-Com:  0.101D+01
 Coeff:      0.173D-02-0.370D-02-0.853D-02-0.219D-01-0.508D-01 0.769D-01
 Coeff:      0.101D+01
 Gap=     0.291 Goal=   None    Shift=    0.000
 RMSDP=8.32D-06 MaxDP=2.67D-04 DE=-4.11D-06 OVMax= 2.27D-04

 Cycle   8  Pass 1  IDiag  1:
 E= -226.188146990667     Delta-E=       -0.000000208090 Rises=F Damp=F
 DIIS: error= 1.05D-05 at cycle   8 NSaved=   8.
 NSaved= 8 IEnMin= 8 EnMin= -226.188146990667     IErMin= 8 ErrMin= 1.05D-05
 ErrMax= 1.05D-05  0.00D+00 EMaxC= 1.00D-01 BMatC= 1.38D-08 BMatP= 1.45D-07
 IDIUse=1 WtCom= 1.00D+00 WtEn= 0.00D+00
 Coeff-Com:  0.715D-03-0.146D-02-0.337D-02-0.960D-02-0.260D-01 0.130D-01
 Coeff-Com:  0.363D+00 0.664D+00
 Coeff:      0.715D-03-0.146D-02-0.337D-02-0.960D-02-0.260D-01 0.130D-01
 Coeff:      0.363D+00 0.664D+00
 Gap=     0.291 Goal=   None    Shift=    0.000
 RMSDP=9.96D-07 MaxDP=2.34D-05 DE=-2.08D-07 OVMax= 5.55D-05

 Cycle   9  Pass 1  IDiag  1:
 E= -226.188147003617     Delta-E=       -0.000000012951 Rises=F Damp=F
 DIIS: error= 4.54D-06 at cycle   9 NSaved=   9.
 NSaved= 9 IEnMin= 9 EnMin= -226.188147003617     IErMin= 9 ErrMin= 4.54D-06
 ErrMax= 4.54D-06  0.00D+00 EMaxC= 1.00D-01 BMatC= 2.81D-09 BMatP= 1.38D-08
 IDIUse=1 WtCom= 1.00D+00 WtEn= 0.00D+00
 Coeff-Com: -0.100D-03 0.225D-03 0.697D-03 0.100D-02 0.952D-03-0.126D-01
 Coeff-Com: -0.863D-01 0.282D+00 0.814D+00
 Coeff:     -0.100D-03 0.225D-03 0.697D-03 0.100D-02 0.952D-03-0.126D-01
 Coeff:     -0.863D-01 0.282D+00 0.814D+00
 Gap=     0.291 Goal=   None    Shift=    0.000
 RMSDP=4.57D-07 MaxDP=1.17D-05 DE=-1.30D-08 OVMax= 2.13D-05

 Cycle  10  Pass 1  IDiag  1:
 E= -226.188147006510     Delta-E=       -0.000000002892 Rises=F Damp=F
 DIIS: error= 5.71D-07 at cycle  10 NSaved=  10.
 NSaved=10 IEnMin=10 EnMin= -226.188147006510     IErMin=10 ErrMin= 5.71D-07
 ErrMax= 5.71D-07  0.00D+00 EMaxC= 1.00D-01 BMatC= 6.37D-11 BMatP= 2.81D-09
 IDIUse=1 WtCom= 1.00D+00 WtEn= 0.00D+00
 Coeff-Com: -0.454D-04 0.983D-04 0.286D-03 0.552D-03 0.127D-02-0.182D-02
 Coeff-Com: -0.306D-01 0.177D-01 0.109D+00 0.903D+00
 Coeff:     -0.454D-04 0.983D-04 0.286D-03 0.552D-03 0.127D-02-0.182D-02
 Coeff:     -0.306D-01 0.177D-01 0.109D+00 0.903D+00
 Gap=     0.291 Goal=   None    Shift=    0.000
 RMSDP=7.23D-08 MaxDP=1.99D-06 DE=-2.89D-09 OVMax= 4.25D-06

 Cycle  11  Pass 1  IDiag  1:
 E= -226.188147006571     Delta-E=       -0.000000000061 Rises=F Damp=F
 DIIS: error= 4.34D-07 at cycle  11 NSaved=  11.
 NSaved=11 IEnMin=11 EnMin= -226.188147006571     IErMin=11 ErrMin= 4.34D-07
 ErrMax= 4.34D-07  0.00D+00 EMaxC= 1.00D-01 BMatC= 1.56D-11 BMatP= 6.37D-11
 IDIUse=1 WtCom= 1.00D+00 WtEn= 0.00D+00
 Coeff-Com: -0.664D-05 0.140D-04 0.500D-04 0.101D-03 0.339D-03 0.447D-03
 Coeff-Com: -0.471D-02-0.152D-01-0.300D-01 0.393D+00 0.656D+00
 Coeff:     -0.664D-05 0.140D-04 0.500D-04 0.101D-03 0.339D-03 0.447D-03
 Coeff:     -0.471D-02-0.152D-01-0.300D-01 0.393D+00 0.656D+00
 Gap=     0.291 Goal=   None    Shift=    0.000
 RMSDP=2.57D-08 MaxDP=6.82D-07 DE=-6.11D-11 OVMax= 1.88D-06

 Cycle  12  Pass 1  IDiag  1:
 E= -226.188147006590     Delta-E=       -0.000000000019 Rises=F Damp=F
 DIIS: error= 1.08D-07 at cycle  12 NSaved=  12.
 NSaved=12 IEnMin=12 EnMin= -226.188147006590     IErMin=12 ErrMin= 1.08D-07
 ErrMax= 1.08D-07  0.00D+00 EMaxC= 1.00D-01 BMatC= 1.60D-12 BMatP= 1.56D-11
 IDIUse=1 WtCom= 1.00D+00 WtEn= 0.00D+00
 Coeff-Com:  0.338D-05-0.731D-05-0.151D-04-0.304D-04-0.223D-04 0.428D-03
 Coeff-Com:  0.208D-02-0.616D-02-0.261D-01-0.168D-02 0.247D+00 0.785D+00
 Coeff:      0.338D-05-0.731D-05-0.151D-04-0.304D-04-0.223D-04 0.428D-03
 Coeff:      0.208D-02-0.616D-02-0.261D-01-0.168D-02 0.247D+00 0.785D+00
 Gap=     0.291 Goal=   None    Shift=    0.000
 RMSDP=8.10D-09 MaxDP=2.07D-07 DE=-1.94D-11 OVMax= 3.91D-07

 SCF Done:  E(RM062X) =  -226.188147007     A.U. after   12 cycles
            NFock= 12  Conv=0.81D-08     -V/T= 2.0051
 KE= 2.250311496541D+02 PE=-8.485128465350D+02 EE= 2.362688537796D+02
 Leave Link  502 at Mon Jul 10 15:20:27 2023, MaxMem=  1342177280 cpu:              88.5 elap:               7.1
 (Enter /data0/hywu0/study/g16/l601.exe)
 Copying SCF densities to generalized density rwf, IOpCl= 0 IROHF=0.

 **********************************************************************

            Population analysis using the SCF density.

 **********************************************************************

 Alpha  occ. eigenvalues --  -14.81246 -14.73503 -10.60551 -10.57743 -10.55829
 Alpha  occ. eigenvalues --   -1.11655  -0.97047  -0.83769  -0.70459  -0.66940
 Alpha  occ. eigenvalues --   -0.64285  -0.51385  -0.50561  -0.50199  -0.48084
 Alpha  occ. eigenvalues --   -0.34439  -0.34104  -0.28598
 Alpha virt. eigenvalues --    0.00520   0.02612   0.03538   0.03871   0.05314
 Alpha virt. eigenvalues --    0.06145   0.06280   0.08062   0.08202   0.10213
 Alpha virt. eigenvalues --    0.10330   0.12449   0.12747   0.15095   0.15706
 Alpha virt. eigenvalues --    0.19818   0.20483   0.20850   0.22238   0.22857
 Alpha virt. eigenvalues --    0.23919   0.23984   0.25222   0.26180   0.27767
 Alpha virt. eigenvalues --    0.29112   0.30451   0.33200   0.42165   0.43900
 Alpha virt. eigenvalues --    0.47668   0.49115   0.54680   0.55145   0.57328
 Alpha virt. eigenvalues --    0.58108   0.59785   0.61649   0.61780   0.63998
 Alpha virt. eigenvalues --    0.66567   0.70707   0.74423   0.76582   0.76936
 Alpha virt. eigenvalues --    0.78907   0.79379   0.80609   0.83850   0.85738
 Alpha virt. eigenvalues --    0.86774   0.89947   0.91092   0.93266   0.95068
 Alpha virt. eigenvalues --    0.99092   0.99735   1.01373   1.06862   1.11344
 Alpha virt. eigenvalues --    1.18083   1.26149   1.28333   1.31923   1.34999
 Alpha virt. eigenvalues --    1.35743   1.39137   1.41137   1.41727   1.44875
 Alpha virt. eigenvalues --    1.45827   1.47272   1.51663   1.68781   1.69518
 Alpha virt. eigenvalues --    1.72817   1.73318   1.79437   1.82316   1.89622
 Alpha virt. eigenvalues --    1.91583   2.01477   2.03603   2.14808   2.22771
 Alpha virt. eigenvalues --    2.30613   2.40297   2.45581   2.50181   2.63634
 Alpha virt. eigenvalues --    2.70426   2.75464   2.78700   2.81967   2.83730
 Alpha virt. eigenvalues --    2.87437   2.94356   2.96040   3.09831   3.16562
 Alpha virt. eigenvalues --    3.22463   3.26054   3.31852   3.34180   3.37910
 Alpha virt. eigenvalues --    3.38715   3.42755   3.43050   3.45368   3.52177
 Alpha virt. eigenvalues --    3.56880   3.57321   3.62008   3.64893   3.69595
 Alpha virt. eigenvalues --    3.72548   3.94465   3.96275   3.97804   3.99664
 Alpha virt. eigenvalues --    4.02899   4.48437   4.59622   4.89206   4.96652
 Alpha virt. eigenvalues --    4.98627   5.01124   5.02424   5.04229   5.09217
 Alpha virt. eigenvalues --    5.21325   5.25604   5.35807   5.42267   5.52083
 Alpha virt. eigenvalues --    5.60709  23.89650  24.09143  24.14006  35.65525
 Alpha virt. eigenvalues --   35.70105
          Condensed to atoms (all electrons):
               1          2          3          4          5          6
     1  C    5.352816   0.302384  -0.270460   0.447633  -0.052523   0.376125
     2  C    0.302384   5.168609   0.030242  -0.220614   0.026951   0.004950
     3  C   -0.270460   0.030242   5.067732   0.314761  -0.009910   0.010457
     4  N    0.447633  -0.220614   0.314761   6.391273   0.370754  -0.033201
     5  H   -0.052523   0.026951  -0.009910   0.370754   0.409386  -0.001605
     6  H    0.376125   0.004950   0.010457  -0.033201  -0.001605   0.505069
     7  H   -0.065668   0.436883   0.019256   0.006825  -0.000014   0.000090
     8  H   -0.001128   0.019222   0.435090  -0.055899   0.000500  -0.000026
     9  N    0.039542   0.267984   0.355797   0.018519  -0.000845   0.001491
               7          8          9
     1  C   -0.065668  -0.001128   0.039542
     2  C    0.436883   0.019222   0.267984
     3  C    0.019256   0.435090   0.355797
     4  N    0.006825  -0.055899   0.018519
     5  H   -0.000014   0.000500  -0.000845
     6  H    0.000090  -0.000026   0.001491
     7  H    0.527578   0.000020  -0.051619
     8  H    0.000020   0.501296  -0.045971
     9  N   -0.051619  -0.045971   6.724253
 Mulliken charges:
               1
     1  C   -0.128723
     2  C   -0.036611
     3  C    0.047035
     4  N   -0.240051
     5  H    0.257306
     6  H    0.136649
     7  H    0.126648
     8  H    0.146897
     9  N   -0.309151
 Sum of Mulliken charges =  -0.00000
 Mulliken charges with hydrogens summed into heavy atoms:
               1
     1  C    0.007927
     2  C    0.090038
     3  C    0.193932
     4  N    0.017255
     9  N   -0.309151
 Electronic spatial extent (au):  <R**2>=          58403.4553
 Charge=             -0.0000 electrons
 Dipole moment (field-independent basis, Debye):
    X=              2.5611    Y=              2.2459    Z=             -1.4449  Tot=              3.7002
 Quadrupole moment (field-independent basis, Debye-Ang):
   XX=              3.4800   YY=             38.0667   ZZ=            -60.1809
   XY=             56.1834   XZ=             22.2725   YZ=              7.0976
 Traceless Quadrupole moment (field-independent basis, Debye-Ang):
   XX=              9.6914   YY=             44.2781   ZZ=            -53.9695
   XY=             56.1834   XZ=             22.2725   YZ=              7.0976
 Octapole moment (field-independent basis, Debye-Ang**2):
  XXX=           -268.3564  YYY=            164.0209  ZZZ=          -1620.5680  XYY=            921.0775
  XXY=            183.4132  XXZ=            -40.6638  XZZ=             -5.1019  YZZ=           -543.8263
  YYZ=            154.1113  XYZ=            560.2642
 Hexadecapole moment (field-independent basis, Debye-Ang**3):
 XXXX=          -5163.5850 YYYY=         -11364.8444 ZZZZ=         -36097.9627 XXXY=          -3136.6414
 XXXZ=          -4164.8909 YYYX=          11921.5099 YYYZ=          -3172.2704 ZZZX=          -5907.4630
 ZZZY=         -19974.1333 XXYY=           3479.4017 XXZZ=          -2701.4731 YYZZ=          -7850.5700
 XXYZ=           1045.8077 YYXZ=           9331.5679 ZZXY=           2734.5973
 N-N= 1.610246960947D+02 E-N=-8.485128500398D+02  KE= 2.250311496541D+02
 No NMR shielding tensors so no spin-rotation constants.
 Leave Link  601 at Mon Jul 10 15:20:27 2023, MaxMem=  1342177280 cpu:               1.2 elap:               0.2
 (Enter /data0/hywu0/study/g16/l9999.exe)
 1\1\GINC-LOCALHOST\SP\RM062X\6-311+G(2d,p)\C3H4N2\HYWU0\10-Jul-2023\0\
 \#p 6-311+g(2d,p) nosymm em=gd3 m062x\\Title Card Required\\0,1\C,0,7.
 37655,16.153538,13.646782\C,0,6.401802,15.292664,14.148368\C,0,6.42503
 4,15.00146,11.964912\N,0,7.387914,15.965734,12.261906\H,0,7.980702,16.
 440985,11.620559\H,0,8.023607,16.84405,14.142925\H,0,6.081588,15.1315,
 15.159162\H,0,6.206462,14.650139,10.963832\N,0,5.82858,14.592677,13.09
 6457\\Version=ES64L-G16RevA.03\HF=-226.188147\RMSD=8.097e-09\Dipole=1.
 0076249,0.8835887,-0.5684862\Quadrupole=7.2053018,32.919705,-40.125006
 8,41.7709808,16.559029,5.2768616\PG=C01 [X(C3H4N2)]\\@


 BETTER TO HUNT IN FIELDS, FOR HEALTH UNBOUGHT
 THAN FEE THE DOCTOR FOR A NAUSEOUS DRAUGHT.
 THE WISE, FOR CURE, ON EXERCISE DEPEND;
 GOD NEVER MADE HIS WORK FOR MAN TO MEND.
     -- JOHN DRYDEN (1631-1700)
 Job cpu time:       0 days  0 hours  1 minutes 43.0 seconds.
 Elapsed time:       0 days  0 hours  0 minutes  8.2 seconds.
 File lengths (MBytes):  RWF=     15 Int=      0 D2E=      0 Chk=      3 Scr=      1
 Normal termination of Gaussian 16 at Mon Jul 10 15:20:27 2023.
