 Entering Gaussian System, Link 0=g16
 Initial command:
 /data0/hywu0/study/g16/l1.exe "/data0/hywu0/study/g16/scratch/Gau-860286.inp" -scrdir="/data0/hywu0/study/g16/scratch/"
 Default is to use a total of   8 processors:
                                8 via shared-memory
                                1 via Linda
 Entering Link 1 = /data0/hywu0/study/g16/l1.exe PID=    860287.
  
 Copyright (c) 1988,1990,1992,1993,1995,1998,2003,2009,2016,
            Gaussian, Inc.  All Rights Reserved.
  
 This is part of the Gaussian(R) 16 program.  It is based on
 the Gaussian(R) 09 system (copyright 2009, Gaussian, Inc.),
 the Gaussian(R) 03 system (copyright 2003, Gaussian, Inc.),
 the Gaussian(R) 98 system (copyright 1998, Gaussian, Inc.),
 the Gaussian(R) 94 system (copyright 1995, Gaussian, Inc.),
 the Gaussian 92(TM) system (copyright 1992, Gaussian, Inc.),
 the Gaussian 90(TM) system (copyright 1990, Gaussian, Inc.),
 the Gaussian 88(TM) system (copyright 1988, Gaussian, Inc.),
 the Gaussian 86(TM) system (copyright 1986, Carnegie Mellon
 University), and the Gaussian 82(TM) system (copyright 1983,
 Carnegie Mellon University). Gaussian is a federally registered
 trademark of Gaussian, Inc.
  
 This software contains proprietary and confidential information,
 including trade secrets, belonging to Gaussian, Inc.
  
 This software is provided under written license and may be
 used, copied, transmitted, or stored only in accord with that
 written license.
  
 The following legend is applicable only to US Government
 contracts under FAR:
  
                    RESTRICTED RIGHTS LEGEND
  
 Use, reproduction and disclosure by the US Government is
 subject to restrictions as set forth in subparagraphs (a)
 and (c) of the Commercial Computer Software - Restricted
 Rights clause in FAR 52.227-19.
  
 Gaussian, Inc.
 340 Quinnipiac St., Bldg. 40, Wallingford CT 06492
  
  
 ---------------------------------------------------------------
 Warning -- This program may not be used in any manner that
 competes with the business of Gaussian, Inc. or will provide
 assistance to any competitor of Gaussian, Inc.  The licensee
 of this program is prohibited from giving any competitor of
 Gaussian, Inc. access to this program.  By using this program,
 the user acknowledges that Gaussian, Inc. is engaged in the
 business of creating and licensing software in the field of
 computational chemistry and represents and warrants to the
 licensee that it is not a competitor of Gaussian, Inc. and that
 it will not use this program in any manner prohibited above.
 ---------------------------------------------------------------
  

 Cite this work as:
 Gaussian 16, Revision A.03,
 M. J. Frisch, G. W. Trucks, H. B. Schlegel, G. E. Scuseria, 
 M. A. Robb, J. R. Cheeseman, G. Scalmani, V. Barone, 
 G. A. Petersson, H. Nakatsuji, X. Li, M. Caricato, A. V. Marenich, 
 J. Bloino, B. G. Janesko, R. Gomperts, B. Mennucci, H. P. Hratchian, 
 J. V. Ortiz, A. F. Izmaylov, J. L. Sonnenberg, D. Williams-Young, 
 F. Ding, F. Lipparini, F. Egidi, J. Goings, B. Peng, A. Petrone, 
 T. Henderson, D. Ranasinghe, V. G. Zakrzewski, J. Gao, N. Rega, 
 G. Zheng, W. Liang, M. Hada, M. Ehara, K. Toyota, R. Fukuda, 
 J. Hasegawa, M. Ishida, T. Nakajima, Y. Honda, O. Kitao, H. Nakai, 
 T. Vreven, K. Throssell, J. A. Montgomery, Jr., J. E. Peralta, 
 F. Ogliaro, M. J. Bearpark, J. J. Heyd, E. N. Brothers, K. N. Kudin, 
 V. N. Staroverov, T. A. Keith, R. Kobayashi, J. Normand, 
 K. Raghavachari, A. P. Rendell, J. C. Burant, S. S. Iyengar, 
 J. Tomasi, M. Cossi, J. M. Millam, M. Klene, C. Adamo, R. Cammi, 
 J. W. Ochterski, R. L. Martin, K. Morokuma, O. Farkas, 
 J. B. Foresman, and D. J. Fox, Gaussian, Inc., Wallingford CT, 2016.
 
 ******************************************
 Gaussian 16:  ES64L-G16RevA.03 25-Dec-2016
                10-Jul-2023 
 ******************************************
 %chk=PA.chk
 %nprocshared=16
 Will use up to   16 processors via shared memory.
 %mem=10GB
 ------------------------------------
 #p 6-311+g(2d,p) nosymm em=gd3 m062x
 ------------------------------------
 1/38=1,172=1/1;
 2/12=2,15=1,17=6,18=5,40=1/2;
 3/5=4,6=6,7=112,11=2,25=1,30=1,74=-55,124=31/1,2,3;
 4//1;
 5/5=2,38=5/2;
 6/7=2,8=2,9=2,10=2,28=1/1;
 99/5=1,9=1/99;
 Leave Link    1 at Mon Jul 10 15:20:39 2023, MaxMem=  1342177280 cpu:               0.5 elap:               0.0
 (Enter /data0/hywu0/study/g16/l101.exe)
 -------------------
 Title Card Required
 -------------------
 Symbolic Z-matrix:
 Charge =  0 Multiplicity = 1
 P                     3.46964   12.46572   11.25299 
 O                     4.49948   12.8379   10.29427 
 O                     3.78967   12.59261   12.80244 
 H                     4.50627   13.35275   12.96708 
 O                     2.13168   13.29093   11.00841 
 H                     1.42398   12.97434   11.68298 
 O                     2.92002   10.96183   11.1859 
 H                     3.53702   10.37117   11.75105 
 
 ITRead=  0  0  0  0  0  0  0  0
 MicOpt= -1 -1 -1 -1 -1 -1 -1 -1
 NAtoms=      8 NQM=        8 NQMF=       0 NMMI=      0 NMMIF=      0
                NMic=       0 NMicF=      0.
                    Isotopes and Nuclear Properties:
 (Nuclear quadrupole moments (NQMom) in fm**2, nuclear magnetic moments (NMagM)
  in nuclear magnetons)

  Atom         1           2           3           4           5           6           7           8
 IAtWgt=          31          16          16           1          16           1          16           1
 AtmWgt=  30.9737634  15.9949146  15.9949146   1.0078250  15.9949146   1.0078250  15.9949146   1.0078250
 NucSpn=           1           0           0           1           0           1           0           1
 AtZEff=  -0.0000000  -0.0000000  -0.0000000  -0.0000000  -0.0000000  -0.0000000  -0.0000000  -0.0000000
 NQMom=    0.0000000   0.0000000   0.0000000   0.0000000   0.0000000   0.0000000   0.0000000   0.0000000
 NMagM=    1.1316000   0.0000000   0.0000000   2.7928460   0.0000000   2.7928460   0.0000000   2.7928460
 AtZNuc=  15.0000000   8.0000000   8.0000000   1.0000000   8.0000000   1.0000000   8.0000000   1.0000000
 Leave Link  101 at Mon Jul 10 15:20:39 2023, MaxMem=  1342177280 cpu:               2.3 elap:               0.1
 (Enter /data0/hywu0/study/g16/l202.exe)
                          Input orientation:                          
 ---------------------------------------------------------------------
 Center     Atomic      Atomic             Coordinates (Angstroms)
 Number     Number       Type             X           Y           Z
 ---------------------------------------------------------------------
      1         15           0        3.469642   12.465723   11.252991
      2          8           0        4.499475   12.837902   10.294270
      3          8           0        3.789670   12.592614   12.802439
      4          1           0        4.506273   13.352754   12.967075
      5          8           0        2.131680   13.290930   11.008408
      6          1           0        1.423984   12.974341   11.682976
      7          8           0        2.920019   10.961825   11.185899
      8          1           0        3.537021   10.371172   11.751049
 ---------------------------------------------------------------------
                    Distance matrix (angstroms):
                    1          2          3          4          5
     1  P    0.000000
     2  O    1.455410   0.000000
     3  O    1.587233   2.618187   0.000000
     4  H    2.190779   2.721949   1.057562   0.000000
     5  O    1.590890   2.514295   2.540693   3.078781   0.000000
     6  H    2.151347   3.377242   2.644879   3.360448   1.027669
     7  O    1.602590   2.609473   2.455396   3.377178   2.465302
     8  H    2.154007   3.022132   2.470639   3.362737   3.324377
                    6          7          8
     6  H    0.000000
     7  O    2.556448   0.000000
     8  H    3.353513   1.024186   0.000000
 Symmetry turned off by external request.
 Stoichiometry    H3O4P
 Framework group  C1[X(H3O4P)]
 Deg. of freedom    18
 Full point group                 C1      NOp   1
 Rotational constants (GHZ):           4.6599538           4.5080881           4.3523503
 Leave Link  202 at Mon Jul 10 15:20:39 2023, MaxMem=  1342177280 cpu:               0.0 elap:               0.0
 (Enter /data0/hywu0/study/g16/l301.exe)
 Standard basis: 6-311+G(2d,p) (5D, 7F)
 Ernie: Thresh=  0.10000D-02 Tol=  0.10000D-05 Strict=F.
   161 basis functions,   248 primitive gaussians,   171 cartesian basis functions
    25 alpha electrons       25 beta electrons
       nuclear repulsion energy       280.2310705647 Hartrees.
 IExCor= 4336 DFT=T Ex+Corr=M062X ExCW=0 ScaHFX=  0.540000
 ScaDFX=  1.000000  1.000000  1.000000  1.000000 ScalE2=  1.000000  1.000000
 IRadAn=      5 IRanWt=     -1 IRanGd=            0 ICorTp=0 IEmpDi=131
 NAtoms=    8 NActive=    8 NUniq=    8 SFac= 1.00D+00 NAtFMM=   60 NAOKFM=F Big=F
 Integral buffers will be    131072 words long.
 Raffenetti 2 integral format.
 Two-electron integral symmetry is turned off.
 R6Disp:  Grimme-D3 Dispersion energy=       -0.0000431798 Hartrees.
 Nuclear repulsion after empirical dispersion term =      280.2310273849 Hartrees.
 Leave Link  301 at Mon Jul 10 15:20:39 2023, MaxMem=  1342177280 cpu:               0.7 elap:               0.0
 (Enter /data0/hywu0/study/g16/l302.exe)
 NPDir=0 NMtPBC=     1 NCelOv=     1 NCel=       1 NClECP=     1 NCelD=      1
         NCelK=      1 NCelE2=     1 NClLst=     1 CellRange=     0.0.
 One-electron integrals computed using PRISM.
 NBasis=   161 RedAO= T EigKep=  4.85D-04  NBF=   161
 NBsUse=   161 1.00D-06 EigRej= -1.00D+00 NBFU=   161
 Precomputing XC quadrature grid using
 IXCGrd= 4 IRadAn=           5 IRanWt=          -1 IRanGd=           0 AccXCQ= 0.00D+00.
 Generated NRdTot=       0 NPtTot=           0 NUsed=           0 NTot=          32
 NSgBfM=   171   171   171   171   171 MxSgAt=     8 MxSgA2=     8.
 Leave Link  302 at Mon Jul 10 15:20:39 2023, MaxMem=  1342177280 cpu:               1.8 elap:               0.1
 (Enter /data0/hywu0/study/g16/l303.exe)
 DipDrv:  MaxL=1.
 Leave Link  303 at Mon Jul 10 15:20:39 2023, MaxMem=  1342177280 cpu:               0.4 elap:               0.0
 (Enter /data0/hywu0/study/g16/l401.exe)
 ExpMin= 3.48D-02 ExpMax= 7.75D+04 ExpMxC= 2.65D+03 IAcc=3 IRadAn=         5 AccDes= 0.00D+00
 Harris functional with IExCor= 1009 and IRadAn=       5 diagonalized for initial guess.
 HarFok:  IExCor= 1009 AccDes= 0.00D+00 IRadAn=         5 IDoV= 1 UseB2=F ITyADJ=14
 ICtDFT=  3500011 ScaDFX=  1.000000  1.000000  1.000000  1.000000
 FoFCou: FMM=F IPFlag=           0 FMFlag=      100000 FMFlg1=           0
         NFxFlg=           0 DoJE=T BraDBF=F KetDBF=T FulRan=T
         wScrn=  0.000000 ICntrl=       500 IOpCl=  0 I1Cent=   200000004 NGrid=           0
         NMat0=    1 NMatS0=      1 NMatT0=    0 NMatD0=    1 NMtDS0=    0 NMtDT0=    0
 Symmetry not used in FoFCou.
 Harris En= -643.944152848640    
 JPrj=0 DoOrth=F DoCkMO=F.
 Leave Link  401 at Mon Jul 10 15:20:39 2023, MaxMem=  1342177280 cpu:               4.5 elap:               0.3
 (Enter /data0/hywu0/study/g16/l502.exe)
 Keep R1 ints in memory in canonical form, NReq=100986924.
 FoFCou: FMM=F IPFlag=           0 FMFlag=           0 FMFlg1=           0
         NFxFlg=           0 DoJE=F BraDBF=F KetDBF=F FulRan=T
         wScrn=  0.000000 ICntrl=       600 IOpCl=  0 I1Cent=           0 NGrid=           0
         NMat0=    1 NMatS0=  13041 NMatT0=    0 NMatD0=    1 NMtDS0=    0 NMtDT0=    0
 Symmetry not used in FoFCou.
 Two-electron integral symmetry not used.
 Closed shell SCF:
 Using DIIS extrapolation, IDIIS=  1040.
 NGot=  1342177280 LenX=  1257074426 LenY=  1257044744
 Requested convergence on RMS density matrix=1.00D-08 within 128 cycles.
 Requested convergence on MAX density matrix=1.00D-06.
 Requested convergence on             energy=1.00D-06.
 No special actions if energy rises.

 Cycle   1  Pass 1  IDiag  1:
 E= -643.868347106576    
 DIIS: error= 4.26D-02 at cycle   1 NSaved=   1.
 NSaved= 1 IEnMin= 1 EnMin= -643.868347106576     IErMin= 1 ErrMin= 4.26D-02
 ErrMax= 4.26D-02  0.00D+00 EMaxC= 1.00D-01 BMatC= 5.05D-01 BMatP= 5.05D-01
 IDIUse=3 WtCom= 5.74D-01 WtEn= 4.26D-01
 Coeff-Com:  0.100D+01
 Coeff-En:   0.100D+01
 Coeff:      0.100D+01
 Gap=     0.293 Goal=   None    Shift=    0.000
 GapD=    0.293 DampG=1.000 DampE=0.500 DampFc=0.5000 IDamp=-1.
 Damping current iteration by 5.00D-01
 RMSDP=6.71D-03 MaxDP=1.44D-01              OVMax= 2.46D-01

 Cycle   2  Pass 1  IDiag  1:
 E= -643.984946811585     Delta-E=       -0.116599705009 Rises=F Damp=T
 DIIS: error= 1.08D-02 at cycle   2 NSaved=   2.
 NSaved= 2 IEnMin= 2 EnMin= -643.984946811585     IErMin= 2 ErrMin= 1.08D-02
 ErrMax= 1.08D-02  0.00D+00 EMaxC= 1.00D-01 BMatC= 2.62D-02 BMatP= 5.05D-01
 IDIUse=3 WtCom= 8.92D-01 WtEn= 1.08D-01
 Coeff-Com:  0.664D-01 0.934D+00
 Coeff-En:   0.194D+00 0.806D+00
 Coeff:      0.802D-01 0.920D+00
 Gap=     0.365 Goal=   None    Shift=    0.000
 RMSDP=1.51D-03 MaxDP=4.66D-02 DE=-1.17D-01 OVMax= 1.53D-01

 Cycle   3  Pass 1  IDiag  1:
 E= -644.146739301797     Delta-E=       -0.161792490212 Rises=F Damp=F
 DIIS: error= 7.52D-03 at cycle   3 NSaved=   3.
 NSaved= 3 IEnMin= 3 EnMin= -644.146739301797     IErMin= 3 ErrMin= 7.52D-03
 ErrMax= 7.52D-03  0.00D+00 EMaxC= 1.00D-01 BMatC= 9.37D-03 BMatP= 2.62D-02
 IDIUse=3 WtCom= 9.25D-01 WtEn= 7.52D-02
 Coeff-Com: -0.155D-01 0.331D+00 0.684D+00
 Coeff-En:   0.000D+00 0.000D+00 0.100D+01
 Coeff:     -0.144D-01 0.306D+00 0.708D+00
 Gap=     0.356 Goal=   None    Shift=    0.000
 RMSDP=6.31D-04 MaxDP=1.48D-02 DE=-1.62D-01 OVMax= 3.36D-02

 Cycle   4  Pass 1  IDiag  1:
 E= -644.150735651139     Delta-E=       -0.003996349342 Rises=F Damp=F
 DIIS: error= 4.35D-03 at cycle   4 NSaved=   4.
 NSaved= 4 IEnMin= 4 EnMin= -644.150735651139     IErMin= 4 ErrMin= 4.35D-03
 ErrMax= 4.35D-03  0.00D+00 EMaxC= 1.00D-01 BMatC= 3.88D-03 BMatP= 9.37D-03
 IDIUse=3 WtCom= 9.56D-01 WtEn= 4.35D-02
 Coeff-Com: -0.195D-01 0.454D-01 0.412D+00 0.562D+00
 Coeff-En:   0.000D+00 0.000D+00 0.295D+00 0.705D+00
 Coeff:     -0.186D-01 0.434D-01 0.407D+00 0.568D+00
 Gap=     0.362 Goal=   None    Shift=    0.000
 RMSDP=2.53D-04 MaxDP=6.35D-03 DE=-4.00D-03 OVMax= 1.15D-02

 Cycle   5  Pass 1  IDiag  1:
 E= -644.153304091172     Delta-E=       -0.002568440033 Rises=F Damp=F
 DIIS: error= 2.77D-04 at cycle   5 NSaved=   5.
 NSaved= 5 IEnMin= 5 EnMin= -644.153304091172     IErMin= 5 ErrMin= 2.77D-04
 ErrMax= 2.77D-04  0.00D+00 EMaxC= 1.00D-01 BMatC= 1.54D-05 BMatP= 3.88D-03
 IDIUse=3 WtCom= 9.97D-01 WtEn= 2.77D-03
 Coeff-Com: -0.212D-02 0.349D-04 0.640D-01 0.122D+00 0.816D+00
 Coeff-En:   0.000D+00 0.000D+00 0.000D+00 0.000D+00 0.100D+01
 Coeff:     -0.212D-02 0.348D-04 0.638D-01 0.122D+00 0.817D+00
 Gap=     0.361 Goal=   None    Shift=    0.000
 RMSDP=2.37D-05 MaxDP=9.05D-04 DE=-2.57D-03 OVMax= 7.21D-04

 Cycle   6  Pass 1  IDiag  1:
 E= -644.153314598910     Delta-E=       -0.000010507738 Rises=F Damp=F
 DIIS: error= 6.22D-05 at cycle   6 NSaved=   6.
 NSaved= 6 IEnMin= 6 EnMin= -644.153314598910     IErMin= 6 ErrMin= 6.22D-05
 ErrMax= 6.22D-05  0.00D+00 EMaxC= 1.00D-01 BMatC= 1.04D-06 BMatP= 1.54D-05
 IDIUse=1 WtCom= 1.00D+00 WtEn= 0.00D+00
 Coeff-Com:  0.484D-04-0.149D-02 0.325D-02 0.125D-01 0.219D+00 0.767D+00
 Coeff:      0.484D-04-0.149D-02 0.325D-02 0.125D-01 0.219D+00 0.767D+00
 Gap=     0.361 Goal=   None    Shift=    0.000
 RMSDP=8.42D-06 MaxDP=2.23D-04 DE=-1.05D-05 OVMax= 2.08D-04

 Cycle   7  Pass 1  IDiag  1:
 E= -644.153315369243     Delta-E=       -0.000000770333 Rises=F Damp=F
 DIIS: error= 2.11D-05 at cycle   7 NSaved=   7.
 NSaved= 7 IEnMin= 7 EnMin= -644.153315369243     IErMin= 7 ErrMin= 2.11D-05
 ErrMax= 2.11D-05  0.00D+00 EMaxC= 1.00D-01 BMatC= 1.56D-07 BMatP= 1.04D-06
 IDIUse=1 WtCom= 1.00D+00 WtEn= 0.00D+00
 Coeff-Com:  0.297D-03-0.521D-03-0.772D-02-0.119D-01-0.197D-01 0.262D+00
 Coeff-Com:  0.777D+00
 Coeff:      0.297D-03-0.521D-03-0.772D-02-0.119D-01-0.197D-01 0.262D+00
 Coeff:      0.777D+00
 Gap=     0.361 Goal=   None    Shift=    0.000
 RMSDP=2.67D-06 MaxDP=6.09D-05 DE=-7.70D-07 OVMax= 8.93D-05

 Cycle   8  Pass 1  IDiag  1:
 E= -644.153315471914     Delta-E=       -0.000000102671 Rises=F Damp=F
 DIIS: error= 1.24D-05 at cycle   8 NSaved=   8.
 NSaved= 8 IEnMin= 8 EnMin= -644.153315471914     IErMin= 8 ErrMin= 1.24D-05
 ErrMax= 1.24D-05  0.00D+00 EMaxC= 1.00D-01 BMatC= 3.33D-08 BMatP= 1.56D-07
 IDIUse=1 WtCom= 1.00D+00 WtEn= 0.00D+00
 Coeff-Com:  0.130D-03-0.161D-03-0.388D-02-0.614D-02-0.183D-01 0.831D-01
 Coeff-Com:  0.393D+00 0.552D+00
 Coeff:      0.130D-03-0.161D-03-0.388D-02-0.614D-02-0.183D-01 0.831D-01
 Coeff:      0.393D+00 0.552D+00
 Gap=     0.361 Goal=   None    Shift=    0.000
 RMSDP=7.60D-07 MaxDP=2.39D-05 DE=-1.03D-07 OVMax= 3.18D-05

 Cycle   9  Pass 1  IDiag  1:
 E= -644.153315494879     Delta-E=       -0.000000022965 Rises=F Damp=F
 DIIS: error= 1.28D-06 at cycle   9 NSaved=   9.
 NSaved= 9 IEnMin= 9 EnMin= -644.153315494879     IErMin= 9 ErrMin= 1.28D-06
 ErrMax= 1.28D-06  0.00D+00 EMaxC= 1.00D-01 BMatC= 6.26D-10 BMatP= 3.33D-08
 IDIUse=1 WtCom= 1.00D+00 WtEn= 0.00D+00
 Coeff-Com: -0.226D-04 0.443D-04 0.246D-03 0.485D-03-0.528D-03-0.176D-01
 Coeff-Com: -0.292D-01 0.663D-01 0.980D+00
 Coeff:     -0.226D-04 0.443D-04 0.246D-03 0.485D-03-0.528D-03-0.176D-01
 Coeff:     -0.292D-01 0.663D-01 0.980D+00
 Gap=     0.361 Goal=   None    Shift=    0.000
 RMSDP=2.55D-07 MaxDP=6.69D-06 DE=-2.30D-08 OVMax= 8.31D-06

 Cycle  10  Pass 1  IDiag  1:
 E= -644.153315495608     Delta-E=       -0.000000000729 Rises=F Damp=F
 DIIS: error= 2.28D-07 at cycle  10 NSaved=  10.
 NSaved=10 IEnMin=10 EnMin= -644.153315495608     IErMin=10 ErrMin= 2.28D-07
 ErrMax= 2.28D-07  0.00D+00 EMaxC= 1.00D-01 BMatC= 1.50D-11 BMatP= 6.26D-10
 IDIUse=1 WtCom= 1.00D+00 WtEn= 0.00D+00
 Coeff-Com: -0.387D-05 0.647D-05 0.116D-03 0.181D-03 0.458D-03-0.411D-02
 Coeff-Com: -0.147D-01-0.113D-01 0.733D-01 0.956D+00
 Coeff:     -0.387D-05 0.647D-05 0.116D-03 0.181D-03 0.458D-03-0.411D-02
 Coeff:     -0.147D-01-0.113D-01 0.733D-01 0.956D+00
 Gap=     0.361 Goal=   None    Shift=    0.000
 RMSDP=4.89D-08 MaxDP=8.03D-07 DE=-7.29D-10 OVMax= 1.90D-06

 Cycle  11  Pass 1  IDiag  1:
 E= -644.153315495615     Delta-E=       -0.000000000007 Rises=F Damp=F
 DIIS: error= 1.83D-07 at cycle  11 NSaved=  11.
 NSaved=11 IEnMin=11 EnMin= -644.153315495615     IErMin=11 ErrMin= 1.83D-07
 ErrMax= 1.83D-07  0.00D+00 EMaxC= 1.00D-01 BMatC= 7.77D-12 BMatP= 1.50D-11
 IDIUse=1 WtCom= 1.00D+00 WtEn= 0.00D+00
 Coeff-Com:  0.205D-06-0.734D-06 0.351D-04 0.451D-04 0.256D-03-0.612D-03
 Coeff-Com: -0.461D-02-0.105D-01-0.450D-01 0.473D+00 0.587D+00
 Coeff:      0.205D-06-0.734D-06 0.351D-04 0.451D-04 0.256D-03-0.612D-03
 Coeff:     -0.461D-02-0.105D-01-0.450D-01 0.473D+00 0.587D+00
 Gap=     0.361 Goal=   None    Shift=    0.000
 RMSDP=1.52D-08 MaxDP=4.46D-07 DE=-7.05D-12 OVMax= 7.54D-07

 Cycle  12  Pass 1  IDiag  1:
 E= -644.153315495633     Delta-E=       -0.000000000018 Rises=F Damp=F
 DIIS: error= 3.90D-08 at cycle  12 NSaved=  12.
 NSaved=12 IEnMin=12 EnMin= -644.153315495633     IErMin=12 ErrMin= 3.90D-08
 ErrMax= 3.90D-08  0.00D+00 EMaxC= 1.00D-01 BMatC= 4.45D-13 BMatP= 7.77D-12
 IDIUse=1 WtCom= 1.00D+00 WtEn= 0.00D+00
 Coeff-Com:  0.612D-06-0.115D-05-0.402D-05-0.924D-05 0.164D-04 0.349D-03
 Coeff-Com:  0.813D-03-0.129D-02-0.238D-01 0.475D-02 0.192D+00 0.828D+00
 Coeff:      0.612D-06-0.115D-05-0.402D-05-0.924D-05 0.164D-04 0.349D-03
 Coeff:      0.813D-03-0.129D-02-0.238D-01 0.475D-02 0.192D+00 0.828D+00
 Gap=     0.361 Goal=   None    Shift=    0.000
 RMSDP=5.65D-09 MaxDP=8.39D-08 DE=-1.83D-11 OVMax= 1.73D-07

 SCF Done:  E(RM062X) =  -644.153315496     A.U. after   12 cycles
            NFock= 12  Conv=0.56D-08     -V/T= 2.0025
 KE= 6.425719037937D+02 PE=-2.088185447309D+03 EE= 5.212292006351D+02
 Leave Link  502 at Mon Jul 10 15:20:46 2023, MaxMem=  1342177280 cpu:              81.3 elap:               6.2
 (Enter /data0/hywu0/study/g16/l601.exe)
 Copying SCF densities to generalized density rwf, IOpCl= 0 IROHF=0.

 **********************************************************************

            Population analysis using the SCF density.

 **********************************************************************

 Alpha  occ. eigenvalues --  -78.16804 -19.69320 -19.67882 -19.67449 -19.59024
 Alpha  occ. eigenvalues --   -6.97598  -5.09511  -5.09485  -5.09284  -1.24376
 Alpha  occ. eigenvalues --   -1.17009  -1.16244  -1.09699  -0.72793  -0.65967
 Alpha  occ. eigenvalues --   -0.63908  -0.56428  -0.55465  -0.50833  -0.48856
 Alpha  occ. eigenvalues --   -0.47649  -0.45295  -0.44004  -0.38850  -0.38270
 Alpha virt. eigenvalues --   -0.02137   0.01561   0.01931   0.04727   0.09186
 Alpha virt. eigenvalues --    0.10182   0.12307   0.14590   0.15044   0.15825
 Alpha virt. eigenvalues --    0.17573   0.18070   0.18745   0.20046   0.21524
 Alpha virt. eigenvalues --    0.22459   0.24405   0.25415   0.25531   0.28135
 Alpha virt. eigenvalues --    0.28402   0.28958   0.30685   0.31185   0.31854
 Alpha virt. eigenvalues --    0.34313   0.35764   0.36570   0.40440   0.43184
 Alpha virt. eigenvalues --    0.46841   0.48864   0.51764   0.55997   0.56785
 Alpha virt. eigenvalues --    0.74229   0.75988   0.76656   0.86596   0.97075
 Alpha virt. eigenvalues --    0.97858   1.02070   1.05768   1.08357   1.10975
 Alpha virt. eigenvalues --    1.12695   1.15388   1.17107   1.19292   1.20835
 Alpha virt. eigenvalues --    1.22150   1.24807   1.25726   1.28442   1.32803
 Alpha virt. eigenvalues --    1.37262   1.39395   1.44674   1.46707   1.48049
 Alpha virt. eigenvalues --    1.54238   1.55705   1.59504   1.63583   1.65533
 Alpha virt. eigenvalues --    1.68323   1.68962   1.69582   1.74625   1.81341
 Alpha virt. eigenvalues --    1.82378   1.84352   1.86326   1.93910   1.96448
 Alpha virt. eigenvalues --    2.03065   2.03868   2.07602   2.11750   2.16213
 Alpha virt. eigenvalues --    2.21125   2.23770   2.26907   2.34479   2.43094
 Alpha virt. eigenvalues --    2.47876   2.56745   2.61715   2.63472   2.69760
 Alpha virt. eigenvalues --    2.73022   2.83550   2.85525   2.91046   2.95086
 Alpha virt. eigenvalues --    5.01372   5.04693   5.07301   5.08066   5.09625
 Alpha virt. eigenvalues --    5.12499   5.19332   5.21561   5.36161   5.46209
 Alpha virt. eigenvalues --    5.53482   5.53678   6.71418   6.73566   6.73949
 Alpha virt. eigenvalues --    6.76903   6.79102   6.80379   6.84125   6.86079
 Alpha virt. eigenvalues --    6.89232   6.92949   6.95761   6.96882   6.99740
 Alpha virt. eigenvalues --    7.06363   7.08138   7.20515   7.26190   7.27966
 Alpha virt. eigenvalues --    7.31682   7.39588   7.64626  14.20792  14.24652
 Alpha virt. eigenvalues --   14.37049  49.97980  50.00084  50.01425  50.09795
 Alpha virt. eigenvalues --  163.85598
          Condensed to atoms (all electrons):
               1          2          3          4          5          6
     1  P   12.430658   0.573935   0.266980   0.002184   0.179248   0.039535
     2  O    0.573935   8.087514  -0.021430  -0.010347  -0.015335   0.004561
     3  O    0.266980  -0.021430   8.088070   0.265500   0.019612  -0.015620
     4  H    0.002184  -0.010347   0.265500   0.396851  -0.005647   0.000960
     5  O    0.179248  -0.015335   0.019612  -0.005647   8.087336   0.235266
     6  H    0.039535   0.004561  -0.015620   0.000960   0.235266   0.443596
     7  O    0.246069  -0.017910  -0.003432   0.004774  -0.003433  -0.017617
     8  H    0.007931  -0.010240  -0.011470   0.001110  -0.000811   0.001981
               7          8
     1  P    0.246069   0.007931
     2  O   -0.017910  -0.010240
     3  O   -0.003432  -0.011470
     4  H    0.004774   0.001110
     5  O   -0.003433  -0.000811
     6  H   -0.017617   0.001981
     7  O    8.079401   0.262830
     8  H    0.262830   0.428202
 Mulliken charges:
               1
     1  P    1.253460
     2  O   -0.590750
     3  O   -0.588211
     4  H    0.344615
     5  O   -0.496236
     6  H    0.307337
     7  O   -0.550683
     8  H    0.320467
 Sum of Mulliken charges =  -0.00000
 Mulliken charges with hydrogens summed into heavy atoms:
               1
     1  P    1.253460
     2  O   -0.590750
     3  O   -0.243596
     5  O   -0.188899
     7  O   -0.230215
 Electronic spatial extent (au):  <R**2>=          52930.1793
 Charge=             -0.0000 electrons
 Dipole moment (field-independent basis, Debye):
    X=             -0.8078    Y=             -0.8733    Z=              4.3192  Tot=              4.4800
 Quadrupole moment (field-independent basis, Debye-Ang):
   XX=            -38.7964   YY=            -53.9367   ZZ=             60.0507
   XY=            -13.9067   XZ=              8.5719   YZ=             46.0616
 Traceless Quadrupole moment (field-independent basis, Debye-Ang):
   XX=            -27.9022   YY=            -43.0426   ZZ=             70.9449
   XY=            -13.9067   XZ=              8.5719   YZ=             46.0616
 Octapole moment (field-independent basis, Debye-Ang**2):
  XXX=           -376.8305  YYY=          -1616.0828  ZZZ=            380.5203  XYY=           -321.9138
  XXY=           -495.6628  XXZ=           -357.3158  XZZ=            171.0465  YZZ=            688.5060
  YYZ=            121.6040  XYZ=             73.5118
 Hexadecapole moment (field-independent basis, Debye-Ang**3):
 XXXX=          -2696.2477 YYYY=         -37188.2125 ZZZZ=          -4040.0555 XXXY=          -4726.7227
 XXXZ=          -3874.8091 YYYX=          -7147.8287 YYYZ=          -8631.9787 ZZZX=           1358.3696
 ZZZY=           4439.5947 XXYY=          -6695.3642 XXZZ=          -3591.5682 YYZZ=           3857.6116
 XXYZ=          -4536.9299 YYXZ=           -606.4701 ZZXY=           1887.7475
 N-N= 2.802310273849D+02 E-N=-2.088185450097D+03  KE= 6.425719037937D+02
 No NMR shielding tensors so no spin-rotation constants.
 Leave Link  601 at Mon Jul 10 15:20:46 2023, MaxMem=  1342177280 cpu:               1.2 elap:               0.1
 (Enter /data0/hywu0/study/g16/l9999.exe)
 1\1\GINC-LOCALHOST\SP\RM062X\6-311+G(2d,p)\H3O4P1\HYWU0\10-Jul-2023\0\
 \#p 6-311+g(2d,p) nosymm em=gd3 m062x\\Title Card Required\\0,1\P,0,3.
 469642,12.465723,11.252991\O,0,4.499475,12.837902,10.29427\O,0,3.78967
 ,12.592614,12.802439\H,0,4.506273,13.352754,12.967075\O,0,2.13168,13.2
 9093,11.008408\H,0,1.423984,12.974341,11.682976\O,0,2.920019,10.961825
 ,11.185899\H,0,3.537021,10.371172,11.751049\\Version=ES64L-G16RevA.03\
 HF=-644.1533155\RMSD=5.650e-09\Dipole=-0.317795,-0.3435896,1.6993013\Q
 uadrupole=-20.7446383,-32.0011248,52.7457631,-10.3392581,6.3729647,34.
 245669\PG=C01 [X(H3O4P1)]\\@


 NOTHING RESEMBLES A NEW PHENOMENON AS MUCH AS A MISTAKE.

                               -- ENRICO FERMI (?)
 Job cpu time:       0 days  0 hours  1 minutes 33.1 seconds.
 Elapsed time:       0 days  0 hours  0 minutes  7.0 seconds.
 File lengths (MBytes):  RWF=     15 Int=      0 D2E=      0 Chk=      3 Scr=      1
 Normal termination of Gaussian 16 at Mon Jul 10 15:20:46 2023.
