          42
 G =       -0.696941 Gcorr = 0.231641 a.u. Nimag =   0 Frame:     1 Step:     1 Geom:     1
C          11.16986300      7.65241500     11.05693000
C          11.71124100      8.86072500     11.48240800
C           9.47018800      9.00183500     11.65513600
N           9.78701500      7.75642500     11.18418300
H          11.65856300      6.77890900     10.65129700
H          12.73416500      9.18043800     11.50979700
H           8.45899500      9.39667400     11.79871200
C           8.81587700      6.73328900     10.84592100
H           9.23229000      6.00929500     10.11445200
H           8.48417500      6.18931800     11.74479000
H           7.91489900      7.19240400     10.35547200
N          10.64441000      9.68035600     11.85793700
C          10.75007300     11.05237200     12.35620500
H          11.32108300     11.03171500     13.31347000
H           9.72159500     11.42793300     12.59451100
C          11.43503500     12.00263300     11.35058500
H          12.06410700     12.72107800     11.91494800
H          12.14860600     11.43752300     10.70529400
C          10.44703200     12.77326400     10.48216700
H          10.97680500     13.52994900      9.87420700
H           9.72139700     13.33755200     11.09086800
S           9.55662700     11.66251500      9.36817500
O           8.80257100     12.50231600      8.41977900
O          10.62879600     10.84265700      8.75634600
O           8.68220100     10.88179600     10.29018800
P          10.31948700      7.57055100      7.39675200
O          11.30014300      6.86287400      8.21499400
O           8.94924800      7.62814200      8.19837500
H           8.21966500      8.14094600      7.67389900
O          10.66842900      8.99596000      6.82988100
H          10.70966000      9.71386200      7.63153800
O           9.90135700      6.79759800      6.05295000
H          10.41696200      7.21427800      5.27175400
O           6.76335700      9.03495600      7.00299900
H           6.68928800      8.68404900      6.12011100
H           6.87694800     10.00762400      6.87700100
O           6.97621400     11.71538700      6.59681800
H           7.73959200     12.02549200      7.15717600
H           6.23351600     12.18006500      6.97085100
O           6.75520000      8.90586300      9.99752000
H           6.62406900      8.85522200      9.04776600
H           7.36927000      9.66176200     10.09585800
          42
 G =       -0.694709 Gcorr = 0.229935 a.u. Nimag =   0 Frame:     2 Step:     2 Geom:     2
C          11.22484700      7.78403400     10.99961300
C          11.82804500      8.97666400     11.38270400
C           9.63879600      9.10349600     11.89766500
N           9.87501800      7.88125300     11.33129300
H          11.65049000      6.92267200     10.50708400
H          12.84394400      9.29857600     11.26753200
H           8.66864100      9.48126900     12.23478400
C           8.84394500      6.90361500     11.03219900
H           8.21712300      7.25430400     10.17107300
H           9.28501000      5.93586200     10.73049300
H           8.15921100      6.76912300     11.88735500
N          10.83178900      9.78001400     11.94345200
C          10.99404000     11.16379400     12.38953700
H          11.70711600     11.17462300     13.24625800
H          10.00995200     11.53651600     12.77213800
C          11.50164700     12.09111500     11.26396700
H          12.13117300     12.88299400     11.72007400
H          12.18482000     11.53345400     10.58159900
C          10.38189400     12.74107500     10.46116400
H          10.79627300     13.48910200      9.75997100
H           9.68659800     13.29871900     11.11079300
S           9.44026100     11.52518500      9.50387300
O           8.66436000     12.28990900      8.51466000
O          10.47502400     10.62982400      8.93683800
O           8.61083000     10.85157100     10.54528000
P           9.86485600      7.44683200      7.39598600
O          10.38010800      6.62326500      8.49035900
O           8.35266900      7.82098800      7.67646700
H           7.95275100      8.35681500      6.86679800
O          10.67643400      8.74213000      7.01070900
H          10.60415700      9.46143100      7.79958900
O           9.78092700      6.70833300      5.97289000
H          10.73552100      6.60700700      5.61769700
O           7.20051600      9.32868800      5.60318700
H           7.76301800      9.20617100      4.83925700
H           7.29589800     10.28333200      5.81739800
O           7.51171200     12.01079900      6.07855200
H           8.04392300     12.10045300      6.91079300
H           6.69506900     12.44898400      6.29576200
O           6.73956600      8.93012800     11.08646200
H           6.03708700      8.96432200     10.44686400
H           7.34496100      9.66157500     10.81985100
          42
 G =       -0.692813 Gcorr = 0.235025 a.u. Nimag =   0 Frame:     3 Step:     3 Geom:     3
C          11.15040000      7.76582900     11.17957000
C          11.69906000      8.97756400     11.58623500
C           9.45781500      9.15964300     11.69698400
N           9.76642200      7.89333700     11.27302500
H          11.63742700      6.87354600     10.81372700
H          12.72604900      9.28196800     11.63447000
H           8.44939700      9.57226600     11.79746100
C           8.78540600      6.88165200     10.92298200
H           9.26901400      6.00109700     10.45017100
H           8.22135800      6.55271500     11.81150800
H           8.06253600      7.27716800     10.16811200
N          10.63628300      9.82492200     11.90890300
C          10.75276300     11.21331600     12.35933900
H          11.29938700     11.21719200     13.33101700
H           9.72531000     11.61375600     12.55735100
C          11.47927500     12.11711400     11.33938600
H          12.11506800     12.83613300     11.89582100
H          12.19162000     11.51713600     10.72520400
C          10.52854800     12.88755100     10.42906600
H          11.08805700     13.62559300      9.82469100
H           9.79424500     13.47330900     11.00663300
S           9.65681200     11.76678000      9.31238300
O           8.83974200     12.55935100      8.38784000
O          10.74284800     10.97012800      8.69667100
O           8.81278400     10.95475700     10.25244000
P          10.22381000      7.66242500      7.49239900
O          10.72031900      7.05546700      8.72716200
O           8.65934700      7.92579800      7.65669200
H           8.26128600      8.42472000      6.83806200
O          10.87647100      8.97198700      6.92255500
H          10.84524000      9.75302300      7.66595300
O          10.36619300      6.64856100      6.26680500
H          10.34698700      7.18878600      5.39190600
O           7.31811900      9.36290600      5.68056400
H           6.46811900      8.99151800      5.46466100
H           7.10064000     10.16449100      6.21934400
O           6.52126000     11.29507900      7.39663700
H           7.27134400     11.88877200      7.62349100
H           6.43208600     10.73404600      8.17923900
O           6.80537200      9.33032300      9.55612600
H           7.31176100      8.81901100      8.92342900
H           7.46403600      9.98927800      9.88400400
          42
 G =       -0.695074 Gcorr = 0.235338 a.u. Nimag =   0 Frame:     4 Step:     4 Geom:     4
C          11.06523200      7.87025800     11.44376200
C          11.63155500      9.11267600     11.70961400
C           9.39625700      9.37038900     11.63612300
N           9.68399000      8.04803000     11.42093300
H          11.54166600      6.92117200     11.25109600
H          12.66370100      9.39191000     11.78921900
H           8.39811100      9.82014100     11.60945800
C           8.69125400      7.02383000     11.14760400
H           8.07800700      6.81941200     12.04120200
H           8.01461600      7.34201100     10.31651600
H           9.16963300      6.08170900     10.80808900
N          10.58262300     10.02686600     11.83190100
C          10.72362000     11.46067100     12.09333400
H          11.22090400     11.58454800     13.08355600
H           9.70171800     11.91168000     12.17995000
C          11.53072500     12.19371500     10.99951100
H          12.19417500     12.93694600     11.48769200
H          12.22200300     11.48580500     10.48400900
C          10.65207900     12.90258500      9.97364800
H          11.26881800     13.54621900      9.31879000
H           9.92607600     13.57927900     10.45420900
S           9.77354300     11.70649400      8.94626800
O           8.96939800     12.42823500      7.95204900
O          10.85127700     10.85634000      8.39114100
O           8.91108300     10.98554400      9.93839300
P          10.22319600      7.43005900      7.67605200
O          10.61681200      7.03437100      9.02698400
O           8.66408900      7.75741600      7.65364400
H           8.40026100      8.31410200      6.81024600
O          10.95296900      8.61389800      6.93882500
H          10.96423800      9.48526500      7.57009700
O          10.43030000      6.21277900      6.66607900
H          10.36997700      6.56773300      5.70396000
O           7.88890500      9.44919600      5.60004000
H           8.65027600      9.98635900      5.37399600
H           7.29906500     10.07091800      6.09154700
O           6.54466600     11.19744400      7.19161100
H           7.29638100     11.78923200      7.40547900
H           6.43805000     10.65749300      7.98639600
O           6.84104500      9.34176200      9.45751500
H           7.29122100      8.75238200      8.84928600
H           7.53650700     10.00313800      9.68019600
          42
 G =       -0.695039 Gcorr = 0.235373 a.u. Nimag =   0 Frame:     5 Step:     5 Geom:     5
C          11.05031400      7.73407400     11.39101900
C          11.65373200      8.95437800     11.67714700
C           9.42430100      9.26710000     11.67153700
N           9.67379000      7.94521300     11.41048000
H          11.49821500      6.78004300     11.15839700
H          12.69418500      9.20639200     11.73695000
H           8.43712300      9.74105200     11.68454800
C           8.64927600      6.95344800     11.13483400
H           7.95723700      7.31321800     10.33385800
H           9.09499000      6.01176300     10.75234700
H           8.05695600      6.73525100     12.03916300
N          10.63115300      9.88917600     11.85402000
C          10.81396600     11.31093800     12.15282400
H          11.34036900     11.39372700     13.13219300
H           9.80606600     11.78320600     12.28041400
C          11.60919100     12.05670500     11.05890100
H          12.30393800     12.76875100     11.54997200
H          12.26831000     11.34806100     10.50384100
C          10.72105500     12.81703300     10.07902600
H          11.33573300     13.46527100      9.42678800
H          10.02515300     13.49601400     10.59923500
S           9.78605900     11.67388800      9.04126300
O           8.97204200     12.44430800      8.09266000
O          10.82723000     10.81662800      8.43017900
O           8.93439800     10.94271200     10.03530400
P          10.09842500      7.42635900      7.63669300
O          10.52125500      6.98357600      8.96396500
O           8.54682500      7.78728000      7.66821200
H           8.27210500      8.37425500      6.84899100
O          10.83303200      8.61523700      6.91249500
H          10.88332100      9.46694100      7.56797100
O          10.24998200      6.23485600      6.58694300
H          10.16786800      6.61868100      5.63753200
O           7.75803500      9.55464900      5.68493000
H           8.52643200     10.07842300      5.45096700
H           7.19903800     10.17698500      6.21072900
O           6.50131700     11.29110400      7.35882600
H           6.40211100     10.73148800      8.14101100
H           7.27195700     11.85911500      7.56957700
O           6.81214100      9.36547300      9.56222500
H           7.23275300      8.78346500      8.92647200
H           7.52864600     10.00377900      9.78558000
          42
 G =       -0.695018 Gcorr = 0.235393 a.u. Nimag =   0 Frame:     6 Step:     6 Geom:     6
C          11.00136200      7.95928700     11.55030800
C          11.58095600      9.20733600     11.75346200
C           9.34889000      9.48583900     11.65952200
N           9.62218800      8.15102400     11.51402600
H          11.46731000      6.99619500     11.40842300
H          12.61592000      9.47890600     11.82183500
H           8.35590400      9.94483400     11.60645600
C           8.61916800      7.12481200     11.29006000
H           8.00849800      6.96523800     12.19454200
H           7.94158500      7.41221400     10.44880100
H           9.08785700      6.16437400     10.99051000
N          10.54202300     10.13826600     11.82501200
C          10.69880100     11.58191100     12.01317800
H          11.19683300     11.75052000     12.99636500
H           9.68192500     12.04797100     12.07565000
C          11.51455000     12.24923900     10.88429000
H          12.18869500     13.00639600     11.33493100
H          12.19549500     11.50759100     10.40375300
C          10.64428100     12.91891200      9.82538900
H          11.26855900     13.52336600      9.14104100
H           9.92633600     13.62622000     10.27275700
S           9.75180900     11.68567000      8.85554400
O           8.95071800     12.36932200      7.83216100
O          10.81982400     10.80162700      8.33580400
O           8.88602900     11.01843600      9.88164300
P          10.15904700      7.34825500      7.80611000
O          10.55307700      7.02514000      9.17608400
O           8.60158300      7.68282300      7.76674600
H           8.34180800      8.19880900      6.89659000
O          10.89412500      8.48527500      7.00349200
H          10.91837100      9.38821100      7.58898500
O          10.35643700      6.07567200      6.86463600
H          10.29279100      6.37668500      5.88455000
O           7.84104200      9.27481400      5.62877600
H           8.61002000      9.78772000      5.37339000
H           7.26155300      9.93034000      6.08800800
O           6.52039300     11.12190500      7.12454400
H           6.40652300     10.62442700      7.94586000
H           7.27688500     11.71738300      7.31054700
O           6.79466800      9.38024700      9.48158900
H           7.23722600      8.75346800      8.90584700
H           7.49895600     10.04333900      9.66880200
          42
 G =       -0.697253 Gcorr = 0.231330 a.u. Nimag =   0 Frame:     7 Step:     7 Geom:     7
C          11.08714700      7.85956700     11.31881200
C          11.62122800      9.09386800     11.67292200
C           9.37722600      9.28424500     11.65655900
N           9.70130000      7.99585200     11.32752700
H          11.58587500      6.94479300     11.03436200
H          12.64593800      9.39929100     11.75052800
H           8.36701400      9.70581300     11.68418300
C           8.73620700      6.96084800     11.00858900
H           9.19230000      6.16367200     10.38482500
H           8.32063300      6.51085100     11.92436000
H           7.88854100      7.38559400     10.40510100
N          10.54733500      9.96088400     11.88744800
C          10.64536900     11.37187000     12.26347100
H          11.14075500     11.43254100     13.26031000
H           9.61032800     11.78379900     12.38448300
C          11.42664400     12.21293700     11.23109100
H          12.02484500     12.97293600     11.77420200
H          12.17614500     11.57934300     10.70037400
C          10.52598400     12.91126300     10.21850200
H          11.11762100     13.59870400      9.58587900
H           9.76801100     13.54164500     10.71214500
S           9.69999600     11.71216000      9.14735800
O           9.04352700     12.46779200      8.06504700
O          10.79681700     10.81905400      8.70542900
O           8.73741100     11.03901000     10.06643000
P          10.52639800      7.43712300      7.62518900
O          11.42087700      6.78808500      8.57922900
O           9.09928400      7.58997600      8.30600500
H           8.42549700      8.06809100      7.68420000
O          10.95165100      8.80085900      6.96552600
H          10.94200900      9.58814000      7.69961100
O          10.20382100      6.55193900      6.32534000
H          10.73770200      6.93282000      5.53794000
O           7.04374400      8.92009900      6.82787600
H           7.00606100      8.48499200      5.98118800
H           7.19254200      9.87261900      6.61440400
O           7.35646900     11.54031000      6.17497300
H           6.59821400     12.05409100      6.43677700
H           8.07824200     11.88907300      6.76677800
O           6.79272600      9.07649100      9.80899300
H           6.73680300      8.93773100      8.86057200
H           7.41377900      9.82924500      9.88548000
          42
 G =       -0.695043 Gcorr = 0.235370 a.u. Nimag =   0 Frame:     8 Step:     8 Geom:     8
C          11.05217200      7.88662100     11.52044900
C          11.62373100      9.13202100     11.75970500
C           9.38968700      9.39795900     11.67817000
N           9.67175200      8.06996400     11.49225200
H          11.52455300      6.93146300     11.34893800
H          12.65703100      9.40837800     11.83427200
H           8.39360600      9.85144700     11.64053300
C           8.67476900      7.04438300     11.24034100
H           8.00048800      7.34716100     10.40162000
H           9.14935200      6.09291600     10.92219300
H           8.05969900      6.86236400     12.13751500
N          10.57875900     10.05329000     11.86090800
C          10.72580300     11.49177400     12.09146800
H          11.22236000     11.63480800     13.07946000
H           9.70583700     11.94911800     12.16687900
C          11.53757000     12.19748400     10.98322500
H          12.20303600     12.94871000     11.45612800
H          12.22691800     11.47570600     10.48466800
C          10.66344600     12.88694900      9.94039900
H          11.28384000     13.51356200      9.27263200
H           9.93936500     13.57699400     10.40464200
S           9.78170100     11.67206100      8.93814600
O           8.98198300     12.37492500      7.92697800
O          10.85659000     10.80531700      8.40368700
O           8.91467600     10.97673100      9.94453100
P          10.21295200      7.36668200      7.76315600
O          10.60318700      6.99917600      9.12299000
O           8.65551100      7.70112000      7.73130600
H           8.39565000      8.23962500      6.87474500
O          10.94956700      8.53048500      7.00097100
H          10.96408800      9.41534100      7.61258800
O          10.41551700      6.12658400      6.78043400
H          10.35757100      6.46057000      5.81065500
O           7.89301800      9.35043200      5.63921700
H           8.65835400      9.87804300      5.40356100
H           7.30601700      9.98602000      6.11646900
O           6.55329100     11.14014800      7.18765700
H           6.44273800     10.61880800      7.99438400
H           7.30739300     11.73313000      7.38971400
O           6.83645400      9.33482300      9.49549100
H           7.28522300      8.72934000      8.90215200
H           7.53475900      9.99758800      9.70478600
          42
 G =       -0.696285 Gcorr = 0.234837 a.u. Nimag =   0 Frame:     9 Step:     9 Geom:     9
C          10.99620300      7.95437100     11.13808300
C          11.59987700      9.16004100     11.47835200
C           9.37382700      9.40329200     11.71809300
N           9.62395300      8.12302000     11.30453000
H          11.43522400      7.04189500     10.76168800
H          12.63470700      9.43910300     11.44811100
H           8.38420600      9.84705700     11.86912700
C           8.60022300      7.12648000     11.05402900
H           8.99418100      6.28713100     10.44545600
H           8.19297500      6.72872700     11.99761900
H           7.75184300      7.57621500     10.46895900
N          10.58122500     10.04198100     11.84600700
C          10.75795400     11.44131600     12.23807500
H          11.34045100     11.46530000     13.18836400
H           9.75175200     11.88436500     12.45663200
C          11.47537100     12.27876700     11.15692700
H          12.09408000     13.04899000     11.66170400
H          12.20032000     11.64445900     10.59508500
C          10.52034300     12.96047000     10.18299700
H          11.08150700     13.59771000      9.47469600
H           9.82484400     13.63969400     10.70546200
S           9.57044400     11.74301600      9.24776200
O           8.97071100     12.41118100      8.08444100
O          10.57737100     10.70652600      8.87858600
O           8.59431500     11.23181500     10.25024500
P          10.13086100      7.44911500      7.47456000
O          11.15321500      6.81341200      8.29832500
O           8.73997500      7.40761100      8.23734500
H           8.01817000      7.96195400      7.73661700
O          10.38225200      8.91622400      6.94902500
H          10.55828300      9.58684100      7.77861200
O           9.77018400      6.69905000      6.10434700
H          10.46219800      6.98263400      5.40229500
O           6.67216400      9.02304200      7.14036400
H           6.18033200      8.62141300      6.43312500
H           7.17017800      9.77239500      6.71437600
O           8.20170500     10.86732800      5.94532300
H           8.35715000     11.58384000      6.60916000
H           9.00745800     10.34265600      6.01278100
O           6.62264700      9.28950200     10.09018900
H           6.49961900      9.18369400      9.14202800
H           7.22572700     10.05638300     10.15051000
          42
 G =       -0.696113 Gcorr = 0.233933 a.u. Nimag =   0 Frame:    10 Step:    10 Geom:    10
C          11.08807100      8.13196800     10.91483000
C          11.66630500      9.37327700     11.15421200
C           9.55504500      9.41887900     11.94086400
N           9.78498100      8.18313300     11.40721300
H          11.49304700      7.26621500     10.41129800
H          12.63249500      9.74344900     10.87001300
H           8.62159100      9.76202500     12.38777000
C           8.78007400      7.14540100     11.26269500
H           8.13203700      7.08291700     12.15409700
H           8.10857300      7.37966000     10.39445200
H           9.24499200      6.16503200     11.05103400
N          10.70901400     10.15565000     11.80443800
C          10.82843400     11.57916900     12.12415100
H          11.55729400     11.68964400     12.96118400
H           9.83930900     11.95031800     12.49381900
C          11.28301100     12.42975300     10.91718300
H          11.77381500     13.34645200     11.30717400
H          12.07702400     11.89502300     10.34768000
C          10.15082600     12.83158800      9.97789900
H          10.53487300     13.48550800      9.17233100
H           9.38627700     13.43094900     10.50370800
S           9.35751300     11.38983000      9.23601700
O           8.70931000     11.81475400      7.97858700
O          10.47597000     10.43087000      9.00614800
O           8.42726800     10.93508300     10.29855500
P           9.58856800      7.29335200      7.49633800
O          10.07244100      6.44271600      8.58048400
O           8.12495200      7.79388200      7.83379500
H           7.80531500      8.55795600      7.20021900
O          10.45034300      8.55898400      7.07966100
H          10.54096700      9.23190500      7.90008700
O           9.51273300      6.49253200      6.11957500
H           9.56353000      7.16090800      5.34187900
O           7.22538000     10.00801600      6.35598400
H           7.50230400     10.69736100      6.99326100
H           7.80469600     10.19469400      5.60078400
O           9.64112000     11.00220600      5.41150200
H           9.37248000     11.50415800      6.20311300
H          10.09785200     10.24468300      5.78615900
O           6.68358000      9.10021900     11.35546400
H           5.86672700      9.10027100     10.86843300
H           7.23987500      9.76963700     10.89592700
          42
 G =       -0.697147 Gcorr = 0.231436 a.u. Nimag =   0 Frame:    11 Step:    11 Geom:    11
C          10.89780400      7.83471000     11.37119500
C          11.52114800      9.04069400     11.67319500
C           9.29455900      9.37519500     11.72347500
N           9.52454600      8.06043900     11.42057900
H          11.32727600      6.88256300     11.09654800
H          12.56529300      9.28113600     11.70939400
H           8.31486400      9.86184700     11.77147900
C           8.48524400      7.08186300     11.16261200
H           7.64564000      7.54468500     10.57608100
H           8.86780800      6.24143900     10.54620100
H           8.07425400      6.68292300     12.10375300
N          10.51258700      9.98056900     11.89762400
C          10.71276500     11.39161600     12.23050000
H          11.24397100     11.44611600     13.20905400
H           9.71064500     11.87249200     12.37240400
C          11.51113500     12.15332900     11.15068000
H          12.17405900     12.88722200     11.65301600
H          12.20090500     11.45911100     10.61477500
C          10.62353400     12.88136300     10.14756000
H          11.23629400     13.51244000      9.47744800
H           9.92384900     13.57192600     10.64674400
S           9.68790800     11.71033600      9.13716300
O           9.04531600     12.47820900      8.05515600
O          10.71056300     10.73720500      8.68635200
O           8.71530300     11.12508000     10.10467300
P          10.18507200      7.35490100      7.71098200
O          11.06808800      6.67338100      8.65300100
O           8.79567000      7.61998000      8.43398200
H           8.13232800      8.12253200      7.82013400
O          10.67544500      8.66937400      6.99874500
H          10.74265400      9.47499800      7.70974600
O           9.75952300      6.45933600      6.44837100
H          10.29545800      6.77747800      5.63497100
O           6.77848000      9.03669900      6.98440100
H           6.68735400      8.58372100      6.15120200
H           6.97916800      9.97240100      6.74093200
O           7.23203300     11.61524100      6.25352600
H           6.51764700     12.18149800      6.53010000
H           7.99635700     11.93161700      6.80901600
O           6.64143900      9.28655300      9.96674300
H           6.54409400      9.12689900      9.02495600
H           7.31194000      9.99890700     10.00154700
          42
 G =       -0.688723 Gcorr = 0.215957 a.u. Nimag =   0 Frame:    12 Step:    12 Geom:    12
C          10.90257100      7.43536400     11.25356000
C          11.64825500      8.59589200     11.41476800
C           9.47462700      9.19560700     11.19303900
N           9.55586600      7.82089300     11.13239800
H          11.24056400      6.40849100     11.14228800
H          12.71444800      8.71049100     11.51532000
H           8.53600800      9.80821400     11.09844300
C           8.42158100      6.92598700     10.87712900
H           7.95715400      7.16399500      9.88321300
H           8.75475600      5.87331600     10.81024000
H           7.65165600      7.02040600     11.66115300
N          10.75091400      9.68215100     11.38392400
C          11.13973000     11.10980200     11.38424600
H          11.87592500     11.27933900     12.20237300
H          10.24032700     11.73454400     11.64580900
C          11.73709100     11.51136800     10.02102700
H          12.79220800     11.82494700     10.16481700
H          11.80862400     10.61503100      9.34704500
C          10.97969400     12.62408000      9.31014600
H          11.46279600     12.82372400      8.32751600
H          11.10096300     13.58478900      9.85510600
S           9.26609800     12.25772000      9.09720000
O           8.76751800     13.00402400      7.93214400
O           9.13590000     10.76051000      8.81172200
O           8.61330900     12.53298800     10.39674700
P          10.47646500      7.51843100      7.92249900
O          11.16995200      6.50224000      8.74456100
O           8.89433500      7.58554800      8.07565300
H           8.28402600      8.37138100      7.46575600
O          11.00540900      9.04111300      8.18957800
H          10.26933300      9.79460000      8.25616500
O          10.70775300      7.37398400      6.29231900
H          11.40445100      6.74825900      5.98845300
O           7.47421900      9.47022600      7.35582100
H           7.83516800     10.03559200      6.58902100
H           7.79325900      9.97744000      8.17165100
O           7.87150200     11.55542100      5.86356500
H           8.40755800     12.19353000      6.41117400
H           6.98180300     11.90418700      5.88884300
O           7.08653900     10.74984500     11.47442100
H           6.48461600     10.72666300     10.73283000
H           7.49504600     11.65788600     11.43633100
          42
 G =       -0.689457 Gcorr = 0.235761 a.u. Nimag =   0 Frame:    13 Step:    13 Geom:    13
C          10.97581900      7.94692300     10.90706600
C          11.61677800      9.11729400     11.29014200
C           9.46574500      9.25554900     11.94745200
N           9.64748500      8.05310200     11.31923800
H          11.36040900      7.09309800     10.36884900
H          12.62426200      9.43819500     11.10948200
H           8.53514600      9.61031100     12.39635300
C           8.56677100      7.14864100     10.97058700
H           8.03280700      6.79409900     11.86577400
H           7.84202600      7.67039900     10.29444900
H           8.94717700      6.27223000     10.40255200
N          10.66895600      9.91387500     11.94182200
C          10.87597900     11.30074300     12.35512200
H          11.68473200     11.32494900     13.12182700
H           9.94830900     11.68434900     12.85423400
C          11.24922400     12.20388100     11.16011400