          42
 Energy =    -1880.74706220 a.u.  Frame:     1 Step:     1 Geom:     1
C          11.08714700      7.85956700     11.31881200
C          11.62122800      9.09386800     11.67292200
C           9.37722600      9.28424500     11.65655900
N           9.70130000      7.99585200     11.32752700
H          11.58587500      6.94479300     11.03436200
H          12.64593800      9.39929100     11.75052800
H           8.36701400      9.70581300     11.68418300
C           8.73620700      6.96084800     11.00858900
H           9.19230000      6.16367200     10.38482500
H           8.32063300      6.51085100     11.92436000
H           7.88854100      7.38559400     10.40510100
N          10.54733500      9.96088400     11.88744800
C          10.64536900     11.37187000     12.26347100
H          11.14075500     11.43254100     13.26031000
H           9.61032800     11.78379900     12.38448300
C          11.42664400     12.21293700     11.23109100
H          12.02484500     12.97293600     11.77420200
H          12.17614500     11.57934300     10.70037400
C          10.52598400     12.91126300     10.21850200
H          11.11762100     13.59870400      9.58587900
H           9.76801100     13.54164500     10.71214500
S           9.69999600     11.71216000      9.14735800
O           9.04352700     12.46779200      8.06504700
O          10.79681700     10.81905400      8.70542900
O           8.73741100     11.03901000     10.06643000
P          10.52639800      7.43712300      7.62518900
O          11.42087700      6.78808500      8.57922900
O           9.09928400      7.58997600      8.30600500
H           8.42549700      8.06809100      7.68420000
O          10.95165100      8.80085900      6.96552600
H          10.94200900      9.58814000      7.69961100
O          10.20382100      6.55193900      6.32534000
H          10.73770200      6.93282000      5.53794000
O           7.04374400      8.92009900      6.82787600
H           7.00606100      8.48499200      5.98118800
H           7.19254200      9.87261900      6.61440400
O           7.35646900     11.54031000      6.17497300
H           6.59821400     12.05409100      6.43677700
H           8.07824200     11.88907300      6.76677800
O           6.79272600      9.07649100      9.80899300
H           6.73680300      8.93773100      8.86057200
H           7.41377900      9.82924500      9.88548000
          42
 Energy =    -1880.75174180 a.u.  Frame:     2 Step:     2 Geom:     2
C          10.65181800      7.85281800     10.89122600
C          11.49442500      8.91061300     11.20971400
C           9.38454400      9.52192600     11.71376700
N           9.35443300      8.25102700     11.20954600
H          10.88141300      6.89358200     10.44447400
H          12.55318700      9.01089600     11.06141800
H           8.51971900     10.10354400     12.03429400
C           8.14047800      7.49329500     10.96657300
H           8.36902000      6.50360400     10.52127900
H           7.56187400      7.35562300     11.89617400
H           7.48440400      8.03474100     10.23970900
N          10.69442800      9.93079500     11.73224600
C          11.15185000     11.25346300     12.15468400
H          11.85231700     11.12358500     13.01423000
H          10.27757800     11.83793300     12.53290200
C          11.85232100     12.03127600     11.02210800
H          12.53710300     12.77352600     11.48513300
H          12.51932500     11.35189600     10.44037000
C          10.88732200     12.75369800     10.09119100
H          11.43665400     13.48611400      9.46633500
H          10.15009000     13.35265400     10.65476300
S          10.01262300     11.62487300      8.99307400
O           9.48549100     12.40494300      7.86702400
O          10.99899700     10.58426300      8.61051000
O           8.91757200     11.04231700      9.84215300
P          10.03471300      7.30341600      7.30135600
O          11.13702200      6.62258000      7.96756100
O           8.75727700      7.32556200      8.24865100
H           8.13951200      8.14026800      8.09327700
O          10.21197400      8.78145300      6.75969700
H          10.68333600      9.39493200      7.49280800
O           9.58035500      6.52872700      5.98582900
H           8.95175600      7.13321400      5.44358200
O           7.09527600      9.57108500      8.29155600
H           7.70937100     10.08414400      8.85625600
H           7.18060200     10.01851700      7.42206700
O           8.01534900     10.88774400      6.05096200
H           8.41410200     11.64228300      6.53792100
H           8.75500400     10.27992700      5.96398600
O           6.51252500     10.19878900     11.01656400
H           5.94249400      9.99137500     10.27064700
H           7.27036200     10.65299500     10.60240400
          42
 Energy =    -1880.75344820 a.u.  Frame:     3 Step:     3 Geom:     3
C          10.99620300      7.95437100     11.13808300
C          11.59987700      9.16004100     11.47835200
C           9.37382700      9.40329200     11.71809300
N           9.62395300      8.12302000     11.30453000
H          11.43522400      7.04189500     10.76168800
H          12.63470700      9.43910300     11.44811100
H           8.38420600      9.84705700     11.86912700
C           8.60022300      7.12648000     11.05402900
H           8.99418100      6.28713100     10.44545600
H           8.19297500      6.72872700     11.99761900
H           7.75184300      7.57621500     10.46895900
N          10.58122500     10.04198100     11.84600700
C          10.75795400     11.44131600     12.23807500
H          11.34045100     11.46530000     13.18836400
H           9.75175200     11.88436500     12.45663200
C          11.47537100     12.27876700     11.15692700
H          12.09408000     13.04899000     11.66170400
H          12.20032000     11.64445900     10.59508500
C          10.52034300     12.96047000     10.18299700
H          11.08150700     13.59771000      9.47469600
H           9.82484400     13.63969400     10.70546200
S           9.57044400     11.74301600      9.24776200
O           8.97071100     12.41118100      8.08444100
O          10.57737100     10.70652600      8.87858600
O           8.59431500     11.23181500     10.25024500
P          10.13086100      7.44911500      7.47456000
O          11.15321500      6.81341200      8.29832500
O           8.73997500      7.40761100      8.23734500
H           8.01817000      7.96195400      7.73661700
O          10.38225200      8.91622400      6.94902500
H          10.55828300      9.58684100      7.77861200
O           9.77018400      6.69905000      6.10434700
H          10.46219800      6.98263400      5.40229500
O           6.67216400      9.02304200      7.14036400
H           6.18033200      8.62141300      6.43312500
H           7.17017800      9.77239500      6.71437600
O           8.20170500     10.86732800      5.94532300
H           8.35715000     11.58384000      6.60916000
H           9.00745800     10.34265600      6.01278100
O           6.62264700      9.28950200     10.09018900
H           6.49961900      9.18369400      9.14202800
H           7.22572700     10.05638300     10.15051000
          42
 Energy =    -1880.75004390 a.u.  Frame:     4 Step:     4 Geom:     4
C          11.08807100      8.13196800     10.91483000
C          11.66630500      9.37327700     11.15421200
C           9.55504500      9.41887900     11.94086400
N           9.78498100      8.18313300     11.40721300
H          11.49304700      7.26621500     10.41129800
H          12.63249500      9.74344900     10.87001300
H           8.62159100      9.76202500     12.38777000
C           8.78007400      7.14540100     11.26269500
H           8.13203700      7.08291700     12.15409700
H           8.10857300      7.37966000     10.39445200
H           9.24499200      6.16503200     11.05103400
N          10.70901400     10.15565000     11.80443800
C          10.82843400     11.57916900     12.12415100
H          11.55729400     11.68964400     12.96118400
H           9.83930900     11.95031800     12.49381900
C          11.28301100     12.42975300     10.91718300
H          11.77381500     13.34645200     11.30717400
H          12.07702400     11.89502300     10.34768000
C          10.15082600     12.83158800      9.97789900
H          10.53487300     13.48550800      9.17233100
H           9.38627700     13.43094900     10.50370800
S           9.35751300     11.38983000      9.23601700
O           8.70931000     11.81475400      7.97858700
O          10.47597000     10.43087000      9.00614800
O           8.42726800     10.93508300     10.29855500
P           9.58856800      7.29335200      7.49633800
O          10.07244100      6.44271600      8.58048400
O           8.12495200      7.79388200      7.83379500
H           7.80531500      8.55795600      7.20021900
O          10.45034300      8.55898400      7.07966100
H          10.54096700      9.23190500      7.90008700
O           9.51273300      6.49253200      6.11957500
H           9.56353000      7.16090800      5.34187900
O           7.22538000     10.00801600      6.35598400
H           7.50230400     10.69736100      6.99326100
H           7.80469600     10.19469400      5.60078400
O           9.64112000     11.00220600      5.41150200
H           9.37248000     11.50415800      6.20311300
H          10.09785200     10.24468300      5.78615900
O           6.68358000      9.10021900     11.35546400
H           5.86672700      9.10027100     10.86843300
H           7.23987500      9.76963700     10.89592700
          42
 Energy =    -1880.74927980 a.u.  Frame:     5 Step:     5 Geom:     5
C          11.06523200      7.87025800     11.44376200
C          11.63155500      9.11267600     11.70961400
C           9.39625700      9.37038900     11.63612300
N           9.68399000      8.04803000     11.42093300
H          11.54166600      6.92117200     11.25109600
H          12.66370100      9.39191000     11.78921900
H           8.39811100      9.82014100     11.60945800
C           8.69125400      7.02383000     11.14760400
H           8.07800700      6.81941200     12.04120200
H           8.01461600      7.34201100     10.31651600
H           9.16963300      6.08170900     10.80808900
N          10.58262300     10.02686600     11.83190100
C          10.72362000     11.46067100     12.09333400
H          11.22090400     11.58454800     13.08355600
H           9.70171800     11.91168000     12.17995000
C          11.53072500     12.19371500     10.99951100
H          12.19417500     12.93694600     11.48769200
H          12.22200300     11.48580500     10.48400900
C          10.65207900     12.90258500      9.97364800
H          11.26881800     13.54621900      9.31879000
H           9.92607600     13.57927900     10.45420900
S           9.77354300     11.70649400      8.94626800
O           8.96939800     12.42823500      7.95204900
O          10.85127700     10.85634000      8.39114100
O           8.91108300     10.98554400      9.93839300
P          10.22319600      7.43005900      7.67605200
O          10.61681200      7.03437100      9.02698400
O           8.66408900      7.75741600      7.65364400
H           8.40026100      8.31410200      6.81024600
O          10.95296900      8.61389800      6.93882500
H          10.96423800      9.48526500      7.57009700
O          10.43030000      6.21277900      6.66607900
H          10.36997700      6.56773300      5.70396000
O           7.88890500      9.44919600      5.60004000
H           8.65027600      9.98635900      5.37399600
H           7.29906500     10.07091800      6.09154700
O           6.54466600     11.19744400      7.19161100
H           7.29638100     11.78923200      7.40547900
H           6.43805000     10.65749300      7.98639600
O           6.84104500      9.34176200      9.45751500
H           7.29122100      8.75238200      8.84928600
H           7.53650700     10.00313800      9.68019600
          42
 Energy =    -1880.74559550 a.u.  Frame:     6 Step:     6 Geom:     6
C          11.22484700      7.78403400     10.99961300
C          11.82804500      8.97666400     11.38270400
C           9.63879600      9.10349600     11.89766500
N           9.87501800      7.88125300     11.33129300
H          11.65049000      6.92267200     10.50708400
H          12.84394400      9.29857600     11.26753200
H           8.66864100      9.48126900     12.23478400
C           8.84394500      6.90361500     11.03219900
H           8.21712300      7.25430400     10.17107300
H           9.28501000      5.93586200     10.73049300
H           8.15921100      6.76912300     11.88735500
N          10.83178900      9.78001400     11.94345200
C          10.99404000     11.16379400     12.38953700
H          11.70711600     11.17462300     13.24625800
H          10.00995200     11.53651600     12.77213800
C          11.50164700     12.09111500     11.26396700
H          12.13117300     12.88299400     11.72007400
H          12.18482000     11.53345400     10.58159900
C          10.38189400     12.74107500     10.46116400
H          10.79627300     13.48910200      9.75997100
H           9.68659800     13.29871900     11.11079300
S           9.44026100     11.52518500      9.50387300
O           8.66436000     12.28990900      8.51466000
O          10.47502400     10.62982400      8.93683800
O           8.61083000     10.85157100     10.54528000
P           9.86485600      7.44683200      7.39598600
O          10.38010800      6.62326500      8.49035900
O           8.35266900      7.82098800      7.67646700
H           7.95275100      8.35681500      6.86679800
O          10.67643400      8.74213000      7.01070900
H          10.60415700      9.46143100      7.79958900
O           9.78092700      6.70833300      5.97289000
H          10.73552100      6.60700700      5.61769700
O           7.20051600      9.32868800      5.60318700
H           7.76301800      9.20617100      4.83925700
H           7.29589800     10.28333200      5.81739800
O           7.51171200     12.01079900      6.07855200
H           8.04392300     12.10045300      6.91079300
H           6.69506900     12.44898400      6.29576200
O           6.73956600      8.93012800     11.08646200
H           6.03708700      8.96432200     10.44686400
H           7.34496100      9.66157500     10.81985100
          42
 Energy =    -1880.75179160 a.u.  Frame:     7 Step:     7 Geom:     7
C          10.95493900      7.77978800     11.05294200
C          11.73875100      8.88379800     11.36963900
C           9.58162500      9.44852100     11.68518700
N           9.62850500      8.14588000     11.26683000
H          11.24345900      6.81344000     10.66722700
H          12.80184600      9.00834200     11.30772000
H           8.67109600     10.03121300     11.87138400
C           8.46559200      7.30482300     11.05192200
H           7.70116400      7.83993900     10.43289800
H           8.73231700      6.38676600     10.48859500
H           7.99599200      7.02384100     12.00904700
N          10.87235300      9.90405800     11.76872300
C          11.27323700     11.25759800     12.15732900
H          11.90510200     11.18350800     13.07279600
H          10.35742100     11.84065700     12.43777900
C          12.04538400     11.99177200     11.03895300
H          12.82215500     12.63047000     11.50715100
H          12.60775300     11.25899200     10.41376000
C          11.15579400     12.85362900     10.14908200
H          11.76582700     13.39554200      9.40283900
H          10.63603300     13.63457500     10.73073200
S           9.93375700     11.84393500      9.28709600
O           9.36339800     12.63164600      8.18467800
O          10.70856400     10.65731900      8.82090200
O           8.97279800     11.48375900     10.36539800
P           9.75815300      7.49553600      7.44860400
O          10.73029400      6.75351000      8.24278300
O           8.39519200      7.59030600      8.26591400
H           7.74864500      8.29050000      7.88025900
O          10.08123600      8.94754100      6.91991500
H          10.43126500      9.57693100      7.72842100
O           9.39200200      6.73102600      6.09506400
H           9.17434400      7.42301100      5.36974300
O           6.52957700      9.64084800      7.46631900
H           5.77544100      9.51328300      6.90494000
H           7.09767800     10.30633600      6.99567500
O           8.19587300     11.25397500      6.12662700
H           8.91944100     10.61828600      6.13471500
H           8.50949400     11.93982200      6.76915800
O           6.63571800      9.98884600     10.38143700
H           6.48010600      9.86682800      9.44024800
H           7.37069900     10.62962400     10.39958300
          42
 Energy =    -1880.75300780 a.u.  Frame:     8 Step:     8 Geom:     8
C          11.05968400      7.77049600     11.00546500
C          11.81164800      8.92208700     11.21247900
C           9.70243600      9.33512300     11.88590400
N           9.76494400      8.04310500     11.44152600
H          11.34317900      6.82917800     10.56057900
H          12.83726900      9.12221000     10.97037600
H           8.80380700      9.86129700     12.21913900
C           8.65558400      7.10843900     11.42292700
H           7.74520700      7.55202600     11.88203600
H           8.37025500      6.85378300     10.37308800
H           8.91844100      6.17292100     11.94211600
N          10.95958500      9.87479600     11.77289900
C          11.32088500     11.24295100     12.14822600
H          12.03933000     11.19033300     12.99952600
H          10.40318400     11.76718900     12.52177700
C          11.94009900     12.04468700     10.98400600
H          12.67566500     12.76202500     11.40316200
H          12.53387100     11.37220200     10.32249900
C          10.90765400     12.80556800     10.16083500
H          11.40590500     13.41725500      9.38603500
H          10.33977700     13.51990300     10.78122300
S           9.75370900     11.67266200      9.35394500
O           9.08859400     12.40568800      8.27140700
O          10.63144800     10.56553300      8.86478500
O           8.87808600     11.22525600     10.47164500
P           9.38910400      7.54951500      7.48603800
O          10.04300000      6.74202200      8.51261700
O           7.94090300      7.96838800      7.98092000
H           7.43950700      8.52068400      7.24033600
O          10.13495500      8.83190800      6.95430100
H          10.39820200      9.47927200      7.78643200
O           9.06185600      6.79167400      6.11156500
H           9.93066400      6.74606600      5.56876300
O           6.58906200      9.54152800      6.11715500
H           6.59100000      9.11329900      5.26371200
H           7.23203200     10.28761300      6.01422800
O           8.63050200     11.28529900      5.78279700
H           8.68452400     11.85526100      6.58569300
H           9.28660900     10.60580200      5.96795300
O           6.99584200      9.22175700     10.64546100
H           7.09923300      8.83178100      9.77760900
H           7.51277600     10.05143700     10.57683500
          42
 Energy =    -1880.75276090 a.u.  Frame:     9 Step:     9 Geom:     9
C          11.35151400      7.84196600     10.88131100
C          11.96457100      9.06472100     11.13664200
C           9.79786500      9.23451800     11.72497900
N          10.02002100      7.96341800     11.26880000
H          11.75501100      6.94813500     10.43077900
H          12.97206200      9.37805100     10.94295600
H           8.83168500      9.65118200     12.02271600
C           9.01265400      6.92104600     11.19733500
H           8.16199400      7.23916700     10.54139500
H           9.42250700      5.99508100     10.74730000
H           8.60225800      6.69590900     12.19578500
N          10.99165400      9.90922400     11.67217000
C          11.19088900     11.30029300     12.08335400
H          11.86524000     11.30563500     12.97174600
H          10.20644900     11.72295500     12.41400900
C          11.78687600     12.17960300     10.96353100
H          12.42657800     12.95740000     11.42989700
H          12.47624300     11.58019900     10.32499600
C          10.72933100     12.85203300     10.09584600
H          11.20609400     13.50902200      9.34477200
H          10.07513500     13.51166100     10.69199400
S           9.71638400     11.62556500      9.24332200
O           9.01471300     12.29720300      8.14023900
O          10.70096600     10.60758900      8.77171400
O           8.84282100     11.09566100     10.32588800
P           9.57686500      7.50596200      7.45640300
O          10.21391400      6.74667800      8.52902000
O           8.11494100      7.93418900      7.91643600
H           7.66409200      8.59051100      7.24797900
O          10.28001400      8.80061100      6.88959500
H          10.53560000      9.46564200      7.70055300
O           9.40038300      6.61396900      6.14801300
H           9.23304600      7.23333200      5.34459000
O           6.83541900      9.86622100      6.35943600
H           6.46319100     10.47595700      6.99699100
H           7.56244100     10.38574700      5.93766000
O           9.01097100     11.28647500      5.56856800
H           9.00487500     11.83333400      6.38742900
H           9.62420400     10.57887300      5.78959600
O           6.96079900      9.10297900     10.47040600
H           7.13069900      8.71028300      9.61296700
H           7.49704900      9.92201500     10.44089700
          42
 Energy =    -1880.74829500 a.u.  Frame:    10 Step:    10 Geom:    10
C          11.15040000      7.76582900     11.17957000
C          11.69906000      8.97756400     11.58623500
C           9.45781500      9.15964300     11.69698400
N           9.76642200      7.89333700     11.27302500
H          11.63742700      6.87354600     10.81372700
H          12.72604900      9.28196800     11.63447000
H           8.44939700      9.57226600     11.79746100
C           8.78540600      6.88165200     10.92298200
H           9.26901400      6.00109700     10.45017100
H           8.22135800      6.55271500     11.81150800
H           8.06253600      7.27716800     10.16811200
N          10.63628300      9.82492200     11.90890300
C          10.75276300     11.21331600     12.35933900
H          11.29938700     11.21719200     13.33101700
H           9.72531000     11.61375600     12.55735100
C          11.47927500     12.11711400     11.33938600
H          12.11506800     12.83613300     11.89582100
H          12.19162000     11.51713600     10.72520400
C          10.52854800     12.88755100     10.42906600
H          11.08805700     13.62559300      9.82469100
H           9.79424500     13.47330900     11.00663300
S           9.65681200     11.76678000      9.31238300
O           8.83974200     12.55935100      8.38784000
O          10.74284800     10.97012800      8.69667100
O           8.81278400     10.95475700     10.25244000
P          10.22381000      7.66242500      7.49239900
O          10.72031900      7.05546700      8.72716200
O           8.65934700      7.92579800      7.65669200
H           8.26128600      8.42472000      6.83806200
O          10.87647100      8.97198700      6.92255500
H          10.84524000      9.75302300      7.66595300
O          10.36619300      6.64856100      6.26680500
H          10.34698700      7.18878600      5.39190600
O           7.31811900      9.36290600      5.68056400
H           6.46811900      8.99151800      5.46466100
H           7.10064000     10.16449100      6.21934400
O           6.52126000     11.29507900      7.39663700
H           7.27134400     11.88877200      7.62349100
H           6.43208600     10.73404600      8.17923900
O           6.80537200      9.33032300      9.55612600
H           7.31176100      8.81901100      8.92342900
H           7.46403600      9.98927800      9.88400400
          42
 Energy =    -1880.75257590 a.u.  Frame:    11 Step:    11 Geom:    11
C          10.97581900      7.94692300     10.90706600
C          11.61677800      9.11729400     11.29014200
C           9.46574500      9.25554900     11.94745200
N           9.64748500      8.05310200     11.31923800
H          11.36040900      7.09309800     10.36884900
H          12.62426200      9.43819500     11.10948200
H           8.53514600      9.61031100     12.39635300
C           8.56677100      7.14864100     10.97058700
H           8.03280700      6.79409900     11.86577400
H           7.84202600      7.67039900     10.29444900
H           8.94717700      6.27223000     10.40255200
N          10.66895600      9.91387500     11.94182200
C          10.87597900     11.30074300     12.35512200
H          11.68473200     11.32494900     13.12182700
H           9.94830900     11.68434900     12.85423400
C          11.24922400     12.20388100     11.16011400
H          11.76748300     13.10163500     11.56019000
H          12.00196800     11.69583300     10.51473900
C          10.05500200     12.65008600     10.32766400
H          10.35170700     13.47070100      9.64645600
H           9.26329600     13.07894800     10.97143200
S           9.32808500     11.32399100      9.32915700
O           8.74128400     11.97142400      8.14984100
O          10.45117100     10.39551400      9.01115900
O           8.34944800     10.69635500     10.26685600
P           9.73609300      7.28000500      7.30654100
O          10.46462200      6.42734400      8.24262800
O           8.25268100      7.50071800      7.80887500
H           7.69441900      8.03228100      7.09122800
O          10.37166700      8.68180100      6.94419900
H          10.46902700      9.28758100      7.82509200
O           9.51603200      6.67303000      5.83787500
H          10.42270900      6.67500300      5.36094500
O           6.74593900      8.93643400      5.93164900
H           6.83916800      8.49593300      5.08915300
H           7.31034400      9.74560000      5.84075600
O           8.60326400     10.88085100      5.62951300
H           8.53566900     11.43381400      6.44439000
H           9.33409200     10.29275400      5.84598600
O           7.54320800     11.55655900     12.64949300
H           6.62695600     11.80058700     12.63264300
H           7.75305800     11.28759800     11.71649900
          42
 Energy =    -1880.72189280 a.u.  Frame:    12 Step:    12 Geom:    12
C          10.90257100      7.43536400     11.25356000
C          11.64825500      8.59589200     11.41476800
C           9.47462700      9.19560700     11.19303900
N           9.55586600      7.82089300     11.13239800
H          11.24056400      6.40849100     11.14228800
H          12.71444800      8.71049100     11.51532000
H           8.53600800      9.80821400     11.09844300
C           8.42158100      6.92598700     10.87712900
H           7.95715400      7.16399500      9.88321300
H           8.75475600      5.87331600     10.81024000
H           7.65165600      7.02040600     11.66115300
N          10.75091400      9.68215100     11.38392400
C          11.13973000     11.10980200     11.38424600
H          11.87592500     11.27933900     12.20237300
H          10.24032700     11.73454400     11.64580900
C          11.73709100     11.51136800     10.02102700
H          12.79220800     11.82494700     10.16481700
H          11.80862400     10.61503100      9.34704500
C          10.97969400     12.62408000      9.31014600
H          11.46279600     12.82372400      8.32751600
H          11.10096300     13.58478900      9.85510600
S           9.26609800     12.25772000      9.09720000
O           8.76751800     13.00402400      7.93214400
O           9.13590000     10.76051000      8.81172200
O           8.61330900     12.53298800     10.39674700
P          10.47646500      7.51843100      7.92249900
O          11.16995200      6.50224000      8.74456100
O           8.89433500      7.58554800      8.07565300
H           8.28402600      8.37138100      7.46575600
O          11.00540900      9.04111300      8.18957800
H          10.26933300      9.79460000      8.25616500
O          10.70775300      7.37398400      6.29231900
H          11.40445100      6.74825900      5.98845300
O           7.47421900      9.47022600      7.35582100
H           7.83516800     10.03559200      6.58902100
H           7.79325900      9.97744000      8.17165100
O           7.87150200     11.55542100      5.86356500
H           8.40755800     12.19353000      6.41117400
H           6.98180300     11.90418700      5.88884300
O           7.08653900     10.74984500     11.47442100
H           6.48461600     10.72666300     10.73283000
H           7.49504600     11.65788600     11.43633100
          42
 Energy =    -1880.72148790 a.u.  Frame:    13 Step:    13 Geom:    13
C          10.95095600      7.77997700     11.09519000
C          11.65251100      8.91401600     11.48384100
C           9.43745400      9.37372800     11.64350500
N           9.58318500      8.07114300     11.21886200
H          11.31515800      6.83752100     10.68381600
H          12.71598500      9.08018200     11.50719900
H           8.48422600      9.91291300     11.73689400
C           8.47818300      7.15247200     10.93175900
H           7.63016400      7.70022300     10.43649300
H           8.80805300      6.35594600     10.22556600
H           8.09652500      6.68270400     11.85160900
N          10.70568900      9.89867900     11.82940000
C          11.01017500     11.29350500     12.22116000
H          11.63439800     11.26408500     13.14611300
H          10.05547400     11.80744500     12.49184400
C          11.74813800     12.07640500     11.11795700
H          12.41860200     12.81495100     11.60789700
H          12.42820900     11.39732100     10.54695000
C          10.83117700     12.80638200     10.14496800
H          11.42686900     13.51796200      9.53290300
H          10.11254900     13.45947200     10.67877700