 Entering Gaussian System, Link 0=g16
 Initial command:
 /data0/home/software/g16/l1.exe "/data0/home/software/g16/scratch/Gau-2479993.inp" -scrdir="/data0/home/software/g16/scratch/"
 Default is to use a total of  22 processors:
                               22 via shared-memory
                                1 via Linda
 Entering Link 1 = /data0/home/software/g16/l1.exe PID=   2479994.
  
 Copyright (c) 1988,1990,1992,1993,1995,1998,2003,2009,2016,
            Gaussian, Inc.  All Rights Reserved.
  
 This is part of the Gaussian(R) 16 program.  It is based on
 the Gaussian(R) 09 system (copyright 2009, Gaussian, Inc.),
 the Gaussian(R) 03 system (copyright 2003, Gaussian, Inc.),
 the Gaussian(R) 98 system (copyright 1998, Gaussian, Inc.),
 the Gaussian(R) 94 system (copyright 1995, Gaussian, Inc.),
 the Gaussian 92(TM) system (copyright 1992, Gaussian, Inc.),
 the Gaussian 90(TM) system (copyright 1990, Gaussian, Inc.),
 the Gaussian 88(TM) system (copyright 1988, Gaussian, Inc.),
 the Gaussian 86(TM) system (copyright 1986, Carnegie Mellon
 University), and the Gaussian 82(TM) system (copyright 1983,
 Carnegie Mellon University). Gaussian is a federally registered
 trademark of Gaussian, Inc.
  
 This software contains proprietary and confidential information,
 including trade secrets, belonging to Gaussian, Inc.
  
 This software is provided under written license and may be
 used, copied, transmitted, or stored only in accord with that
 written license.
  
 The following legend is applicable only to US Government
 contracts under FAR:
  
                    RESTRICTED RIGHTS LEGEND
  
 Use, reproduction and disclosure by the US Government is
 subject to restrictions as set forth in subparagraphs (a)
 and (c) of the Commercial Computer Software - Restricted
 Rights clause in FAR 52.227-19.
  
 Gaussian, Inc.
 340 Quinnipiac St., Bldg. 40, Wallingford CT 06492
  
  
 ---------------------------------------------------------------
 Warning -- This program may not be used in any manner that
 competes with the business of Gaussian, Inc. or will provide
 assistance to any competitor of Gaussian, Inc.  The licensee
 of this program is prohibited from giving any competitor of
 Gaussian, Inc. access to this program.  By using this program,
 the user acknowledges that Gaussian, Inc. is engaged in the
 business of creating and licensing software in the field of
 computational chemistry and represents and warrants to the
 licensee that it is not a competitor of Gaussian, Inc. and that
 it will not use this program in any manner prohibited above.
 ---------------------------------------------------------------
  

 Cite this work as:
 Gaussian 16, Revision A.03,
 M. J. Frisch, G. W. Trucks, H. B. Schlegel, G. E. Scuseria, 
 M. A. Robb, J. R. Cheeseman, G. Scalmani, V. Barone, 
 G. A. Petersson, H. Nakatsuji, X. Li, M. Caricato, A. V. Marenich, 
 J. Bloino, B. G. Janesko, R. Gomperts, B. Mennucci, H. P. Hratchian, 
 J. V. Ortiz, A. F. Izmaylov, J. L. Sonnenberg, D. Williams-Young, 
 F. Ding, F. Lipparini, F. Egidi, J. Goings, B. Peng, A. Petrone, 
 T. Henderson, D. Ranasinghe, V. G. Zakrzewski, J. Gao, N. Rega, 
 G. Zheng, W. Liang, M. Hada, M. Ehara, K. Toyota, R. Fukuda, 
 J. Hasegawa, M. Ishida, T. Nakajima, Y. Honda, O. Kitao, H. Nakai, 
 T. Vreven, K. Throssell, J. A. Montgomery, Jr., J. E. Peralta, 
 F. Ogliaro, M. J. Bearpark, J. J. Heyd, E. N. Brothers, K. N. Kudin, 
 V. N. Staroverov, T. A. Keith, R. Kobayashi, J. Normand, 
 K. Raghavachari, A. P. Rendell, J. C. Burant, S. S. Iyengar, 
 J. Tomasi, M. Cossi, J. M. Millam, M. Klene, C. Adamo, R. Cammi, 
 J. W. Ochterski, R. L. Martin, K. Morokuma, O. Farkas, 
 J. B. Foresman, and D. J. Fox, Gaussian, Inc., Wallingford CT, 2016.
 
 ******************************************
 Gaussian 16:  ES64L-G16RevA.03 25-Dec-2016
                20-Feb-2023 
 ******************************************
 %nproc=24
 Will use up to   24 processors via shared memory.
 %mem=50GB
 ---------------------------------------------------
 #p M062X/6-311+G(2d,p) nosymm em=GD3 counterpoise=2
 ---------------------------------------------------
 1/38=1,62=2,172=1/1;
 2/12=2,15=1,17=6,18=5,40=1/2;
 1/38=1,53=2,62=2,63=1/22;
 3/5=4,6=6,7=112,11=2,25=1,30=1,74=-55,124=31/1,2,3;
 4//1;
 5/5=2,38=5/2;
 6/7=2,8=2,9=2,10=2,28=1/1;
 1/53=2,62=2,63=1/22;
 3/5=7,6=11,7=112,11=2,25=1,30=1,74=-55,82=7,124=31/1,2,3;
 4//1;
 5/5=2,38=5/2;
 6/7=2,8=2,9=2,10=2,28=1/1;
 1/53=2,62=2,63=1/22(-4);
 99/5=1,9=1/99;
 Leave Link    1 at Mon Feb 20 21:07:59 2023, MaxMem=  6710886400 cpu:               0.7 elap:               0.0
 (Enter /data0/home/software/g16/l101.exe)
 -------------------
 Title Card Required
 -------------------
 Symbolic Z-matrix:
 Charge =  0 Multiplicity = 1 in supermolecule
 Charge =  0 Multiplicity = 1 in fragment      1.
 Charge =  0 Multiplicity = 1 in fragment      2.
 C                     3.58769   10.50464   6.93229    
 C                     4.12743   9.42563   7.61992    
 C                     2.55738   10.37209   8.93087    
 N                     2.6142    11.071    7.75791    
 H                     3.82651   10.8937   5.96022    
 H                     4.9025    8.74071   7.33106    
 H                     1.90946   10.60308   9.80492    
 C                     1.87615   12.28795   7.47098    
 H                     0.92063   12.32314   8.0394     
 H                     2.45765   13.17873   7.81192    
 H                     1.6599    12.38318   6.39542    
 N                     3.46808   9.34761   8.84907    
 C                     3.86252   8.472     9.9582     
 H                     3.99587   7.43951   9.56824    
 H                     3.03078   8.44249   10.7119    
 C                     5.15587   8.98367   10.6311    
 H                     5.7474    8.12135   10.99094    
 H                     5.79262   9.50933   9.88842    
 C                     4.8624    9.93732   11.79089    
 H                     5.77488   10.4702   12.1097    
 H                     4.475     9.40411   12.6757    
 C                     3.82731   10.95835   11.30521    
 O                     2.64685   10.80328   11.66926    
 O                     4.1895    11.79294   10.45126    
 O                     1.78756   12.9999   10.17706    
 H                     2.74872   12.76085   10.22298    
 H                     1.47517   12.64327   11.01517    
 
 ITRead=  0  0  0  0  0  0  0  0  0  0  0  0  0  0  0  0  0  0  0  0
 ITRead=  0  0  0  0  0  0  0
 MicOpt= -1 -1 -1 -1 -1 -1 -1 -1 -1 -1 -1 -1 -1 -1 -1 -1 -1 -1 -1 -1
 MicOpt= -1 -1 -1 -1 -1 -1 -1
 NAtoms=     27 NQM=       27 NQMF=       0 NMMI=      0 NMMIF=      0
                NMic=       0 NMicF=      0.
                    Isotopes and Nuclear Properties:
 (Nuclear quadrupole moments (NQMom) in fm**2, nuclear magnetic moments (NMagM)
  in nuclear magnetons)

  Atom         1           2           3           4           5           6           7           8           9          10
 IAtWgt=          12          12          12          14           1           1           1          12           1           1
 AtmWgt=  12.0000000  12.0000000  12.0000000  14.0030740   1.0078250   1.0078250   1.0078250  12.0000000   1.0078250   1.0078250
 NucSpn=           0           0           0           2           1           1           1           0           1           1
 AtZEff=  -0.0000000  -0.0000000  -0.0000000  -0.0000000  -0.0000000  -0.0000000  -0.0000000  -0.0000000  -0.0000000  -0.0000000
 NQMom=    0.0000000   0.0000000   0.0000000   2.0440000   0.0000000   0.0000000   0.0000000   0.0000000   0.0000000   0.0000000
 NMagM=    0.0000000   0.0000000   0.0000000   0.4037610   2.7928460   2.7928460   2.7928460   0.0000000   2.7928460   2.7928460
 AtZNuc=   6.0000000   6.0000000   6.0000000   7.0000000   1.0000000   1.0000000   1.0000000   6.0000000   1.0000000   1.0000000

  Atom        11          12          13          14          15          16          17          18          19          20
 IAtWgt=           1          14          12           1           1          12           1           1          12           1
 AtmWgt=   1.0078250  14.0030740  12.0000000   1.0078250   1.0078250  12.0000000   1.0078250   1.0078250  12.0000000   1.0078250
 NucSpn=           1           2           0           1           1           0           1           1           0           1
 AtZEff=  -0.0000000  -0.0000000  -0.0000000  -0.0000000  -0.0000000  -0.0000000  -0.0000000  -0.0000000  -0.0000000  -0.0000000
 NQMom=    0.0000000   2.0440000   0.0000000   0.0000000   0.0000000   0.0000000   0.0000000   0.0000000   0.0000000   0.0000000
 NMagM=    2.7928460   0.4037610   0.0000000   2.7928460   2.7928460   0.0000000   2.7928460   2.7928460   0.0000000   2.7928460
 AtZNuc=   1.0000000   7.0000000   6.0000000   1.0000000   1.0000000   6.0000000   1.0000000   1.0000000   6.0000000   1.0000000

  Atom        21          22          23          24          25          26          27
 IAtWgt=           1          12          16          16          16           1           1
 AtmWgt=   1.0078250  12.0000000  15.9949146  15.9949146  15.9949146   1.0078250   1.0078250
 NucSpn=           1           0           0           0           0           1           1
 AtZEff=  -0.0000000  -0.0000000  -0.0000000  -0.0000000  -0.0000000  -0.0000000  -0.0000000
 NQMom=    0.0000000   0.0000000   0.0000000   0.0000000   0.0000000   0.0000000   0.0000000
 NMagM=    2.7928460   0.0000000   0.0000000   0.0000000   0.0000000   2.7928460   2.7928460
 AtZNuc=   1.0000000   6.0000000   8.0000000   8.0000000   8.0000000   1.0000000   1.0000000
 Leave Link  101 at Mon Feb 20 21:07:59 2023, MaxMem=  6710886400 cpu:               2.1 elap:               0.1
 (Enter /data0/home/software/g16/l202.exe)
                          Input orientation:                          
 ---------------------------------------------------------------------
 Center     Atomic      Atomic             Coordinates (Angstroms)
 Number     Number       Type             X           Y           Z
 ---------------------------------------------------------------------
      1          6           0        3.587686   10.504642    6.932294
      2          6           0        4.127428    9.425635    7.619919
      3          6           0        2.557382   10.372089    8.930869
      4          7           0        2.614202   11.071001    7.757913
      5          1           0        3.826510   10.893695    5.960219
      6          1           0        4.902501    8.740710    7.331060
      7          1           0        1.909462   10.603077    9.804924
      8          6           0        1.876150   12.287949    7.470981
      9          1           0        0.920629   12.323139    8.039395
     10          1           0        2.457646   13.178731    7.811915
     11          1           0        1.659902   12.383177    6.395424
     12          7           0        3.468077    9.347611    8.849070
     13          6           0        3.862515    8.471996    9.958198
     14          1           0        3.995874    7.439510    9.568244
     15          1           0        3.030777    8.442487   10.711896
     16          6           0        5.155866    8.983666   10.631097
     17          1           0        5.747400    8.121354   10.990937
     18          1           0        5.792617    9.509325    9.888421
     19          6           0        4.862403    9.937321   11.790894
     20          1           0        5.774881   10.470202   12.109701
     21          1           0        4.475000    9.404106   12.675702
     22          6           0        3.827308   10.958351   11.305206
     23          8           0        2.646846   10.803275   11.669263
     24          8           0        4.189500   11.792945   10.451258
     25          8           0        1.787561   12.999895   10.177063
     26          1           0        2.748715   12.760850   10.222978
     27          1           0        1.475166   12.643268   11.015171
 ---------------------------------------------------------------------
                    Distance matrix (angstroms):
                    1          2          3          4          5
     1  C    0.000000
     2  C    1.388670   0.000000
     3  C    2.252421   2.253755   0.000000
     4  N    1.396453   2.239671   1.366577   0.000000
     5  H    1.073932   2.236148   3.272235   2.175507   0.000000
     6  H    2.235891   1.073918   3.274198   3.293747   2.769893
     7  H    3.328382   3.328662   1.112263   2.214919   4.305960
     8  C    2.529767   3.644623   2.503172   1.451900   2.833770
     9  H    3.412594   4.342240   2.698200   2.124917   3.848432
    10  H    3.033393   4.112270   3.023118   2.114226   3.244065
    11  H    2.744718   4.041674   3.358337   2.118695   2.664986
    12  N    2.242110   1.397012   1.373176   2.211289   3.296105
    13  C    3.655581   2.539125   2.523714   3.626895   4.674373
    14  H    4.063236   2.785313   3.327991   4.286495   4.997792
    15  H    4.341431   3.424842   2.668244   3.976008   5.405557
    16  C    4.295777   3.212509   3.401560   4.367174   5.218477
    17  H    5.178514   3.960962   4.414284   5.382359   6.056717
    18  H    3.819825   2.815308   3.482530   4.132822   4.605739
    19  C    5.054973   4.266034   3.698904   4.754427   5.998708
    20  H    5.620547   4.895239   4.524036   5.411923   6.464644
    21  H    5.914832   5.067762   4.317178   5.515955   6.909206
    22  C    4.402912   4.002578   2.755702   3.750680   5.345378
    23  O    4.838723   4.526279   2.773577   3.920638   5.830349
    24  O    3.795394   3.691137   2.644659   3.202636   4.594545
    25  O    4.471606   4.978885   3.008486   3.202539   5.135676
    26  H    4.077125   4.449767   2.722560   2.991693   4.776926
    27  H    5.070143   5.377303   3.267072   3.791986   5.843147
                    6          7          8          9         10
     6  H    0.000000
     7  H    4.306588   0.000000
     8  C    4.664899   2.878749   0.000000
     9  H    5.402855   2.655842   1.112364   0.000000
    10  H    5.089653   3.302512   1.117079   1.773755   0.000000
    11  H    4.965625   3.854313   1.101206   1.803544   1.809903
    12  N    2.174915   2.217912   3.616483   3.999854   4.095625
    13  C    2.838245   2.894722   4.969245   5.212274   5.360368
    14  H    2.742278   3.797010   5.692021   5.970288   6.195926
    15  H    3.875866   2.597710   5.159871   5.162794   5.583044
    16  C    3.318654   3.720779   5.626825   5.983831   5.729463
    17  H    3.806856   4.721795   6.688586   7.047291   6.819511
    18  H    2.814813   4.035116   5.376196   5.922222   5.375728
    19  C    4.617749   3.620382   5.753678   5.941671   5.667616
    20  H    5.156316   4.502346   6.326297   6.600343   6.067219
    21  H    5.402597   4.032479   6.493050   6.530670   6.478729
    22  C    4.676303   2.460731   4.502902   4.580060   4.359948
    23  O    5.306803   2.014839   4.519270   4.297180   4.534062
    24  O    4.422685   2.651812   3.805085   4.096792   3.447586
    25  O    5.995268   2.428597   2.799570   2.403995   2.464736
    26  H    5.400325   2.352679   2.925490   2.881237   2.464259
    27  H    6.367830   2.411574   3.584456   3.043885   3.393057
                   11         12         13         14         15
    11  H    0.000000
    12  N    4.301690   0.000000
    13  C    5.730811   1.467122   0.000000
    14  H    6.321661   2.106331   1.111700   0.000000
    15  H    6.003355   2.116743   1.122818   1.801476   0.000000
    16  C    6.459053   2.481271   1.545107   2.204463   2.194403
    17  H    7.482614   3.359556   2.177680   2.357289   2.749733
    18  H    6.126939   2.551448   2.192308   2.759517   3.073112
    19  C    6.734190   3.308509   2.550633   3.453998   2.598773
    20  H    7.296951   4.148888   3.504131   4.336930   3.687220
    21  H    7.499435   3.957297   2.937481   3.707492   2.620501
    22  C    5.552813   2.959077   2.828008   3.927810   2.704820
    23  O    5.593168   3.278241   3.136950   4.189161   2.576291
    24  O    4.816329   3.011165   3.373237   4.446302   3.554735
    25  O    3.833723   4.234014   4.985500   6.013750   4.754114
    26  H    3.997289   3.749041   4.439023   5.504611   4.355096
    27  H    4.630749   4.418715   4.920989   5.960425   4.489818
                   16         17         18         19         20
    16  C    0.000000
    17  H    1.105884   0.000000
    18  H    1.110557   1.773147   0.000000
    19  C    1.529937   2.172760   2.160528   0.000000
    20  H    2.186147   2.601821   2.420265   1.103728   0.000000
    21  H    2.195622   2.470402   3.084821   1.103306   1.773868
    22  C    2.473635   3.440068   2.823012   1.532911   2.162994
    23  O    3.268631   4.155269   3.839477   2.381882   3.176401
    24  O    2.976282   4.024784   2.846347   2.385532   2.648304
    25  O    5.261342   6.335841   5.320514   4.630169   5.102270
    26  H    4.497561   5.577347   4.466507   3.859839   4.238452
    27  H    5.204590   6.220955   5.452664   4.404233   4.940421
                   21         22         23         24         25
    21  H    0.000000
    22  C    2.171046   0.000000
    23  O    2.512517   1.245021   0.000000
    24  O    3.276616   1.247781   2.200628   0.000000
    25  O    5.137628   3.098577   2.791088   2.702077   0.000000
    26  H    4.501516   2.362961   2.436025   1.750661   0.991498
    27  H    4.716836   2.907858   2.277333   2.899768   0.962911
                   26         27
    26  H    0.000000
    27  H    1.504434   0.000000
 Symmetry turned off by external request.
 Stoichiometry    C8H14N2O3
 Framework group  C1[X(C8H14N2O3)]
 Deg. of freedom    75
 Full point group                 C1      NOp   1
 Rotational constants (GHZ):           1.0419716           0.7934365           0.5201785
 Leave Link  202 at Mon Feb 20 21:07:59 2023, MaxMem=  6710886400 cpu:               0.1 elap:               0.0
 (Enter /data0/home/software/g16/l122.exe)
 Counterpoise: doing full-system calculation.
 Leave Link  122 at Mon Feb 20 21:07:59 2023, MaxMem=  6710886400 cpu:               0.0 elap:               0.0
 (Enter /data0/home/software/g16/l301.exe)
 Standard basis: 6-311+G(2d,p) (5D, 7F)
 Ernie: Thresh=  0.10000D-02 Tol=  0.10000D-05 Strict=F.
   435 basis functions,   658 primitive gaussians,   461 cartesian basis functions
    50 alpha electrons       50 beta electrons
       nuclear repulsion energy       888.3633436870 Hartrees.
 IExCor= 4336 DFT=T Ex+Corr=M062X ExCW=0 ScaHFX=  0.540000
 ScaDFX=  1.000000  1.000000  1.000000  1.000000 ScalE2=  1.000000  1.000000
 IRadAn=      5 IRanWt=     -1 IRanGd=            0 ICorTp=0 IEmpDi=131
 NAtoms=   27 NActive=   27 NUniq=   27 SFac= 1.00D+00 NAtFMM=   60 NAOKFM=F Big=F
 Integral buffers will be    131072 words long.
 Raffenetti 2 integral format.
 Two-electron integral symmetry is turned off.
 R6Disp:  Grimme-D3 Dispersion energy=       -0.0013269827 Hartrees.
 Nuclear repulsion after empirical dispersion term =      888.3620167043 Hartrees.
 Leave Link  301 at Mon Feb 20 21:07:59 2023, MaxMem=  6710886400 cpu:               1.1 elap:               0.1
 (Enter /data0/home/software/g16/l302.exe)
 NPDir=0 NMtPBC=     1 NCelOv=     1 NCel=       1 NClECP=     1 NCelD=      1
         NCelK=      1 NCelE2=     1 NClLst=     1 CellRange=     0.0.
 One-electron integrals computed using PRISM.
 NBasis=   435 RedAO= T EigKep=  1.10D-05  NBF=   435
 NBsUse=   435 1.00D-06 EigRej= -1.00D+00 NBFU=   435
 Precomputing XC quadrature grid using
 IXCGrd= 4 IRadAn=           5 IRanWt=          -1 IRanGd=           0 AccXCQ= 0.00D+00.
 Generated NRdTot=       0 NPtTot=           0 NUsed=           0 NTot=          32
 NSgBfM=   461   461   461   461   461 MxSgAt=    27 MxSgA2=    27.
 Leave Link  302 at Mon Feb 20 21:07:59 2023, MaxMem=  6710886400 cpu:               9.2 elap:               0.4
 (Enter /data0/home/software/g16/l303.exe)
 DipDrv:  MaxL=1.
 Leave Link  303 at Mon Feb 20 21:08:00 2023, MaxMem=  6710886400 cpu:               1.0 elap:               0.1
 (Enter /data0/home/software/g16/l401.exe)
 ExpMin= 4.38D-02 ExpMax= 8.59D+03 ExpMxC= 1.30D+03 IAcc=3 IRadAn=         5 AccDes= 0.00D+00
 Harris functional with IExCor= 1009 and IRadAn=       5 diagonalized for initial guess.
 HarFok:  IExCor= 1009 AccDes= 0.00D+00 IRadAn=         5 IDoV= 1 UseB2=F ITyADJ=14
 ICtDFT=  3500011 ScaDFX=  1.000000  1.000000  1.000000  1.000000
 FoFCou: FMM=F IPFlag=           0 FMFlag=      100000 FMFlg1=           0
         NFxFlg=           0 DoJE=T BraDBF=F KetDBF=T FulRan=T
         wScrn=  0.000000 ICntrl=       500 IOpCl=  0 I1Cent=   200000004 NGrid=           0
         NMat0=    1 NMatS0=      1 NMatT0=    0 NMatD0=    1 NMtDS0=    0 NMtDT0=    0
 Symmetry not used in FoFCou.
 Harris En= -648.094214009950    
 JPrj=0 DoOrth=F DoCkMO=F.
 Leave Link  401 at Mon Feb 20 21:08:01 2023, MaxMem=  6710886400 cpu:              38.7 elap:               1.6
 (Enter /data0/home/software/g16/l502.exe)
 Two-electron integral symmetry not used.
 Closed shell SCF:
 Using DIIS extrapolation, IDIIS=  1040.
 NGot=  6710886400 LenX=  6710446980 LenY=  6710233998
 Requested convergence on RMS density matrix=1.00D-08 within 128 cycles.
 Requested convergence on MAX density matrix=1.00D-06.
 Requested convergence on             energy=1.00D-06.
 No special actions if energy rises.
 Fock matrices will be formed incrementally for  20 cycles.

 Cycle   1  Pass 1  IDiag  1:
 FoFJK:  IHMeth= 1 ICntrl=       0 DoSepK=F KAlg= 0 I1Cent=           0 FoldK=F
 IRaf= 920000000 NMat=       1 IRICut=       1 DoRegI=T DoRafI=F ISym2E= 0 IDoP0=0 IntGTp=1.
 FoFCou: FMM=F IPFlag=           0 FMFlag=      100000 FMFlg1=           0
         NFxFlg=           0 DoJE=F BraDBF=F KetDBF=F FulRan=T
         wScrn=  0.000000 ICntrl=         0 IOpCl=  0 I1Cent=           0 NGrid=           0
         NMat0=    1 NMatS0=      1 NMatT0=    0 NMatD0=    1 NMtDS0=    0 NMtDT0=    0
 Symmetry not used in FoFCou.
 E= -648.010830267194    
 DIIS: error= 1.92D-02 at cycle   1 NSaved=   1.
 NSaved= 1 IEnMin= 1 EnMin= -648.010830267194     IErMin= 1 ErrMin= 1.92D-02
 ErrMax= 1.92D-02  0.00D+00 EMaxC= 1.00D-01 BMatC= 5.53D-01 BMatP= 5.53D-01
 IDIUse=3 WtCom= 8.08D-01 WtEn= 1.92D-01
 Coeff-Com:  0.100D+01
 Coeff-En:   0.100D+01
 Coeff:      0.100D+01
 Gap=     0.349 Goal=   None    Shift=    0.000
 GapD=    0.349 DampG=1.000 DampE=0.500 DampFc=0.5000 IDamp=-1.
 Damping current iteration by 5.00D-01
 RMSDP=4.98D-03 MaxDP=2.19D-01              OVMax= 1.87D-01

 Cycle   2  Pass 1  IDiag  1:
 RMSU=  2.49D-03    CP:  9.94D-01
 E= -648.188122915549     Delta-E=       -0.177292648356 Rises=F Damp=T
 DIIS: error= 5.52D-03 at cycle   2 NSaved=   2.
 NSaved= 2 IEnMin= 2 EnMin= -648.188122915549     IErMin= 2 ErrMin= 5.52D-03
 ErrMax= 5.52D-03  0.00D+00 EMaxC= 1.00D-01 BMatC= 4.00D-02 BMatP= 5.53D-01
 IDIUse=3 WtCom= 9.45D-01 WtEn= 5.52D-02
 Coeff-Com: -0.237D-01 0.102D+01
 Coeff-En:   0.000D+00 0.100D+01
 Coeff:     -0.224D-01 0.102D+01
 Gap=     0.286 Goal=   None    Shift=    0.000
 RMSDP=2.84D-03 MaxDP=3.78D-01 DE=-1.77D-01 OVMax= 1.07D-01

 Cycle   3  Pass 1  IDiag  1:
 RMSU=  2.27D-03    CP:  8.55D-01  7.28D-01
 E= -648.378837200728     Delta-E=       -0.190714285179 Rises=F Damp=F
 DIIS: error= 3.20D-03 at cycle   3 NSaved=   3.
 NSaved= 3 IEnMin= 3 EnMin= -648.378837200728     IErMin= 3 ErrMin= 3.20D-03
 ErrMax= 3.20D-03  0.00D+00 EMaxC= 1.00D-01 BMatC= 1.12D-02 BMatP= 4.00D-02
 IDIUse=3 WtCom= 9.68D-01 WtEn= 3.20D-02
 Coeff-Com: -0.798D-01 0.325D+00 0.755D+00
 Coeff-En:   0.000D+00 0.000D+00 0.100D+01
 Coeff:     -0.773D-01 0.315D+00 0.763D+00
 Gap=     0.278 Goal=   None    Shift=    0.000
 RMSDP=3.66D-04 MaxDP=3.49D-02 DE=-1.91D-01 OVMax= 1.63D-02

 Cycle   4  Pass 1  IDiag  1:
 RMSU=  3.41D-04    CP:  8.47D-01  7.61D-01  1.02D+00
 E= -648.385214016336     Delta-E=       -0.006376815608 Rises=F Damp=F
 DIIS: error= 1.41D-03 at cycle   4 NSaved=   4.
 NSaved= 4 IEnMin= 4 EnMin= -648.385214016336     IErMin= 4 ErrMin= 1.41D-03
 ErrMax= 1.41D-03  0.00D+00 EMaxC= 1.00D-01 BMatC= 1.80D-03 BMatP= 1.12D-02
 IDIUse=3 WtCom= 9.86D-01 WtEn= 1.41D-02
 Coeff-Com: -0.337D-01 0.839D-01 0.360D+00 0.590D+00
 Coeff-En:   0.000D+00 0.000D+00 0.811D-01 0.919D+00
 Coeff:     -0.332D-01 0.827D-01 0.356D+00 0.595D+00
 Gap=     0.275 Goal=   None    Shift=    0.000
 RMSDP=1.23D-04 MaxDP=6.24D-03 DE=-6.38D-03 OVMax= 6.88D-03

 Cycle   5  Pass 1  IDiag  1:
 RMSU=  1.01D-04    CP:  8.46D-01  7.60D-01  1.02D+00  7.93D-01
 E= -648.386731578045     Delta-E=       -0.001517561709 Rises=F Damp=F
 DIIS: error= 3.02D-04 at cycle   5 NSaved=   5.
 NSaved= 5 IEnMin= 5 EnMin= -648.386731578045     IErMin= 5 ErrMin= 3.02D-04
 ErrMax= 3.02D-04  0.00D+00 EMaxC= 1.00D-01 BMatC= 8.87D-05 BMatP= 1.80D-03
 IDIUse=3 WtCom= 9.97D-01 WtEn= 3.02D-03
 Coeff-Com: -0.106D-01 0.201D-01 0.113D+00 0.258D+00 0.619D+00
 Coeff-En:   0.000D+00 0.000D+00 0.000D+00 0.000D+00 0.100D+01
 Coeff:     -0.105D-01 0.201D-01 0.113D+00 0.258D+00 0.620D+00
 Gap=     0.274 Goal=   None    Shift=    0.000
 RMSDP=4.02D-05 MaxDP=2.51D-03 DE=-1.52D-03 OVMax= 1.92D-03

 Cycle   6  Pass 1  IDiag  1:
 RMSU=  3.10D-05    CP:  8.45D-01  7.55D-01  1.02D+00  8.26D-01  8.43D-01
 E= -648.386799230062     Delta-E=       -0.000067652018 Rises=F Damp=F
 DIIS: error= 1.11D-04 at cycle   6 NSaved=   6.
 NSaved= 6 IEnMin= 6 EnMin= -648.386799230062     IErMin= 6 ErrMin= 1.11D-04
 ErrMax= 1.11D-04  0.00D+00 EMaxC= 1.00D-01 BMatC= 1.02D-05 BMatP= 8.87D-05
 IDIUse=3 WtCom= 9.99D-01 WtEn= 1.11D-03
 Coeff-Com: -0.159D-02 0.139D-02 0.176D-01 0.630D-01 0.290D+00 0.630D+00
 Coeff-En:   0.000D+00 0.000D+00 0.000D+00 0.000D+00 0.000D+00 0.100D+01
 Coeff:     -0.159D-02 0.139D-02 0.176D-01 0.629D-01 0.290D+00 0.630D+00
 Gap=     0.274 Goal=   None    Shift=    0.000
 RMSDP=1.19D-05 MaxDP=8.07D-04 DE=-6.77D-05 OVMax= 8.93D-04

 Cycle   7  Pass 1  IDiag  1:
 RMSU=  1.06D-05    CP:  8.46D-01  7.54D-01  1.02D+00  8.37D-01  8.72D-01
                    CP:  9.77D-01
 E= -648.386807435625     Delta-E=       -0.000008205563 Rises=F Damp=F
 DIIS: error= 4.37D-05 at cycle   7 NSaved=   7.
 NSaved= 7 IEnMin= 7 EnMin= -648.386807435625     IErMin= 7 ErrMin= 4.37D-05
 ErrMax= 4.37D-05  0.00D+00 EMaxC= 1.00D-01 BMatC= 1.36D-06 BMatP= 1.02D-05
 IDIUse=1 WtCom= 1.00D+00 WtEn= 0.00D+00
 Coeff-Com:  0.111D-02-0.285D-02-0.108D-01-0.142D-01 0.331D-01 0.285D+00
 Coeff-Com:  0.708D+00
 Coeff:      0.111D-02-0.285D-02-0.108D-01-0.142D-01 0.331D-01 0.285D+00
 Coeff:      0.708D+00
 Gap=     0.274 Goal=   None    Shift=    0.000
 RMSDP=5.92D-06 MaxDP=3.28D-04 DE=-8.21D-06 OVMax= 3.34D-04

 Cycle   8  Pass 1  IDiag  1:
 RMSU=  4.13D-06    CP:  8.45D-01  7.53D-01  1.02D+00  8.42D-01  8.94D-01
                    CP:  1.04D+00  9.87D-01
 E= -648.386808697680     Delta-E=       -0.000001262056 Rises=F Damp=F
 DIIS: error= 2.06D-05 at cycle   8 NSaved=   8.
 NSaved= 8 IEnMin= 8 EnMin= -648.386808697680     IErMin= 8 ErrMin= 2.06D-05
 ErrMax= 2.06D-05  0.00D+00 EMaxC= 1.00D-01 BMatC= 1.79D-07 BMatP= 1.36D-06
 IDIUse=1 WtCom= 1.00D+00 WtEn= 0.00D+00
 Coeff-Com:  0.673D-03-0.139D-02-0.664D-02-0.141D-01-0.210D-01 0.469D-01
 Coeff-Com:  0.320D+00 0.676D+00
 Coeff:      0.673D-03-0.139D-02-0.664D-02-0.141D-01-0.210D-01 0.469D-01
 Coeff:      0.320D+00 0.676D+00
 Gap=     0.274 Goal=   None    Shift=    0.000
 RMSDP=2.22D-06 MaxDP=2.19D-04 DE=-1.26D-06 OVMax= 1.29D-04

 Cycle   9  Pass 1  IDiag  1:
 RMSU=  1.52D-06    CP:  8.45D-01  7.53D-01  1.02D+00  8.42D-01  9.01D-01
                    CP:  1.06D+00  1.00D+00  9.65D-01
 E= -648.386808867714     Delta-E=       -0.000000170033 Rises=F Damp=F
 DIIS: error= 5.09D-06 at cycle   9 NSaved=   9.
 NSaved= 9 IEnMin= 9 EnMin= -648.386808867714     IErMin= 9 ErrMin= 5.09D-06
 ErrMax= 5.09D-06  0.00D+00 EMaxC= 1.00D-01 BMatC= 1.87D-08 BMatP= 1.79D-07
 IDIUse=1 WtCom= 1.00D+00 WtEn= 0.00D+00
 Coeff-Com:  0.167D-03-0.306D-03-0.166D-02-0.446D-02-0.110D-01-0.698D-02
 Coeff-Com:  0.636D-01 0.290D+00 0.670D+00
 Coeff:      0.167D-03-0.306D-03-0.166D-02-0.446D-02-0.110D-01-0.698D-02
 Coeff:      0.636D-01 0.290D+00 0.670D+00
 Gap=     0.274 Goal=   None    Shift=    0.000
 RMSDP=5.43D-07 MaxDP=2.17D-05 DE=-1.70D-07 OVMax= 3.98D-05

 Cycle  10  Pass 1  IDiag  1:
 RMSU=  4.81D-07    CP:  8.45D-01  7.53D-01  1.02D+00  8.42D-01  9.00D-01
                    CP:  1.06D+00  1.02D+00  9.94D-01  9.59D-01
 E= -648.386808884366     Delta-E=       -0.000000016652 Rises=F Damp=F
 DIIS: error= 1.21D-06 at cycle  10 NSaved=  10.
 NSaved=10 IEnMin=10 EnMin= -648.386808884366     IErMin=10 ErrMin= 1.21D-06
 ErrMax= 1.21D-06  0.00D+00 EMaxC= 1.00D-01 BMatC= 1.41D-09 BMatP= 1.87D-08
 IDIUse=1 WtCom= 1.00D+00 WtEn= 0.00D+00
 Coeff-Com: -0.367D-04 0.823D-04 0.334D-03 0.347D-03-0.705D-03-0.928D-02
 Coeff-Com: -0.258D-01 0.101D-02 0.198D+00 0.836D+00
 Coeff:     -0.367D-04 0.823D-04 0.334D-03 0.347D-03-0.705D-03-0.928D-02
 Coeff:     -0.258D-01 0.101D-02 0.198D+00 0.836D+00
 Gap=     0.274 Goal=   None    Shift=    0.000
 RMSDP=2.60D-07 MaxDP=2.03D-05 DE=-1.67D-08 OVMax= 1.86D-05

 Cycle  11  Pass 1  IDiag  1:
 RMSU=  1.52D-07    CP:  8.45D-01  7.53D-01  1.02D+00  8.42D-01  9.00D-01
                    CP:  1.06D+00  1.02D+00  1.02D+00  1.05D+00  1.06D+00
 E= -648.386808886227     Delta-E=       -0.000000001861 Rises=F Damp=F
 DIIS: error= 4.76D-07 at cycle  11 NSaved=  11.
 NSaved=11 IEnMin=11 EnMin= -648.386808886227     IErMin=11 ErrMin= 4.76D-07
 ErrMax= 4.76D-07  0.00D+00 EMaxC= 1.00D-01 BMatC= 2.09D-10 BMatP= 1.41D-09
 IDIUse=1 WtCom= 1.00D+00 WtEn= 0.00D+00
 Coeff-Com: -0.279D-04 0.575D-04 0.265D-03 0.499D-03 0.739D-03-0.274D-02
 Coeff-Com: -0.153D-01-0.230D-01 0.172D-01 0.330D+00 0.692D+00
 Coeff:     -0.279D-04 0.575D-04 0.265D-03 0.499D-03 0.739D-03-0.274D-02
 Coeff:     -0.153D-01-0.230D-01 0.172D-01 0.330D+00 0.692D+00
 Gap=     0.274 Goal=   None    Shift=    0.000
 RMSDP=6.70D-08 MaxDP=3.48D-06 DE=-1.86D-09 OVMax= 5.72D-06

 Cycle  12  Pass 1  IDiag  1:
 RMSU=  4.73D-08    CP:  8.45D-01  7.53D-01  1.02D+00  8.42D-01  9.00D-01
                    CP:  1.06D+00  1.02D+00  1.03D+00  1.06D+00  1.12D+00
                    CP:  1.01D+00
 E= -648.386808886419     Delta-E=       -0.000000000192 Rises=F Damp=F
 DIIS: error= 1.95D-07 at cycle  12 NSaved=  12.
 NSaved=12 IEnMin=12 EnMin= -648.386808886419     IErMin=12 ErrMin= 1.95D-07
 ErrMax= 1.95D-07  0.00D+00 EMaxC= 1.00D-01 BMatC= 4.84D-11 BMatP= 2.09D-10
 IDIUse=1 WtCom= 1.00D+00 WtEn= 0.00D+00
 Coeff-Com: -0.995D-05 0.203D-04 0.100D-03 0.211D-03 0.433D-03-0.470D-03
 Coeff-Com: -0.506D-02-0.111D-01-0.131D-01 0.691D-01 0.358D+00 0.602D+00
 Coeff:     -0.995D-05 0.203D-04 0.100D-03 0.211D-03 0.433D-03-0.470D-03
 Coeff:     -0.506D-02-0.111D-01-0.131D-01 0.691D-01 0.358D+00 0.602D+00
 Gap=     0.274 Goal=   None    Shift=    0.000
 RMSDP=2.24D-08 MaxDP=8.76D-07 DE=-1.92D-10 OVMax= 2.36D-06

 Cycle  13  Pass 1  IDiag  1:
 RMSU=  1.91D-08    CP:  8.45D-01  7.53D-01  1.02D+00  8.42D-01  9.00D-01
                    CP:  1.06D+00  1.02D+00  1.03D+00  1.07D+00  1.13D+00
                    CP:  1.05D+00  8.80D-01
 E= -648.386808886446     Delta-E=       -0.000000000028 Rises=F Damp=F
 DIIS: error= 9.41D-08 at cycle  13 NSaved=  13.
 NSaved=13 IEnMin=13 EnMin= -648.386808886446     IErMin=13 ErrMin= 9.41D-08
 ErrMax= 9.41D-08  0.00D+00 EMaxC= 1.00D-01 BMatC= 6.13D-12 BMatP= 4.84D-11
 IDIUse=1 WtCom= 1.00D+00 WtEn= 0.00D+00
 Coeff-Com:  0.123D-05-0.245D-05-0.499D-05-0.230D-05 0.577D-04 0.296D-03
 Coeff-Com:  0.574D-03-0.656D-03-0.960D-02-0.338D-01 0.322D-01 0.280D+00
 Coeff-Com:  0.731D+00
 Coeff:      0.123D-05-0.245D-05-0.499D-05-0.230D-05 0.577D-04 0.296D-03
 Coeff:      0.574D-03-0.656D-03-0.960D-02-0.338D-01 0.322D-01 0.280D+00
 Coeff:      0.731D+00
 Gap=     0.274 Goal=   None    Shift=    0.000
 RMSDP=1.21D-08 MaxDP=7.66D-07 DE=-2.75D-11 OVMax= 1.06D-06

 Cycle  14  Pass 1  IDiag  1:
 RMSU=  8.32D-09    CP:  8.45D-01  7.53D-01  1.02D+00  8.42D-01  9.00D-01
                    CP:  1.06D+00  1.02D+00  1.03D+00  1.07D+00  1.14D+00
                    CP:  1.09D+00  9.99D-01  1.07D+00
 E= -648.386808886437     Delta-E=        0.000000000010 Rises=F Damp=F
 DIIS: error= 1.88D-08 at cycle  14 NSaved=  14.
 NSaved=14 IEnMin=13 EnMin= -648.386808886446     IErMin=14 ErrMin= 1.88D-08
 ErrMax= 1.88D-08  0.00D+00 EMaxC= 1.00D-01 BMatC= 3.89D-13 BMatP= 6.13D-12
 IDIUse=1 WtCom= 1.00D+00 WtEn= 0.00D+00
 Coeff-Com:  0.148D-05-0.298D-05-0.110D-04-0.210D-04-0.208D-04 0.156D-03
 Coeff-Com:  0.710D-03 0.827D-03-0.208D-02-0.190D-01-0.253D-01 0.350D-01
 Coeff-Com:  0.245D+00 0.765D+00
 Coeff:      0.148D-05-0.298D-05-0.110D-04-0.210D-04-0.208D-04 0.156D-03
 Coeff:      0.710D-03 0.827D-03-0.208D-02-0.190D-01-0.253D-01 0.350D-01
 Coeff:      0.245D+00 0.765D+00
 Gap=     0.274 Goal=   None    Shift=    0.000
 RMSDP=3.34D-09 MaxDP=1.94D-07 DE= 9.55D-12 OVMax= 3.43D-07

 SCF Done:  E(RM062X) =  -648.386808886     A.U. after   14 cycles
            NFock= 14  Conv=0.33D-08     -V/T= 2.0045
 KE= 6.454997837710D+02 PE=-3.292091128923D+03 EE= 1.109842519562D+03
 Leave Link  502 at Mon Feb 20 21:09:10 2023, MaxMem=  6710886400 cpu:            1641.0 elap:              68.6
 (Enter /data0/home/software/g16/l601.exe)
 Copying SCF densities to generalized density rwf, IOpCl= 0 IROHF=0.

 **********************************************************************

            Population analysis using the SCF density.

 **********************************************************************

 Alpha  occ. eigenvalues --  -19.56082 -19.54369 -19.53932 -14.86079 -14.85858
 Alpha  occ. eigenvalues --  -10.66200 -10.62347 -10.62264 -10.61216 -10.60144
 Alpha  occ. eigenvalues --  -10.59885 -10.55430 -10.52101  -1.18875  -1.14400
 Alpha  occ. eigenvalues --   -1.07735  -1.06962  -1.03775  -0.92121  -0.89175
 Alpha  occ. eigenvalues --   -0.85002  -0.79874  -0.74263  -0.71492  -0.69527
 Alpha  occ. eigenvalues --   -0.64633  -0.59612  -0.57790  -0.57685  -0.55709
 Alpha  occ. eigenvalues --   -0.55058  -0.54497  -0.54107  -0.53021  -0.50593
 Alpha  occ. eigenvalues --   -0.50422  -0.48656  -0.48132  -0.46332  -0.45172
 Alpha  occ. eigenvalues --   -0.44841  -0.42595  -0.40721  -0.40234  -0.37149
 Alpha  occ. eigenvalues --   -0.34718  -0.33144  -0.30199  -0.29336  -0.28621
 Alpha virt. eigenvalues --   -0.01217   0.00075   0.00224   0.01151   0.01924
 Alpha virt. eigenvalues --    0.02437   0.03387   0.03868   0.04542   0.05241
 Alpha virt. eigenvalues --    0.05886   0.06544   0.07007   0.07312   0.07755
 Alpha virt. eigenvalues --    0.08500   0.09690   0.09892   0.10495   0.10782
 Alpha virt. eigenvalues --    0.11577   0.11669   0.11784   0.12633   0.13079
 Alpha virt. eigenvalues --    0.13978   0.14892   0.14988   0.15812   0.16126
 Alpha virt. eigenvalues --    0.16487   0.17099   0.17749   0.17948   0.18244
 Alpha virt. eigenvalues --    0.18947   0.19319   0.20091   0.20490   0.20628
 Alpha virt. eigenvalues --    0.21876   0.22195   0.22493   0.23021   0.23444
 Alpha virt. eigenvalues --    0.24111   0.24326   0.25438   0.25737   0.26221
 Alpha virt. eigenvalues --    0.26831   0.27405   0.28108   0.28836   0.29032
 Alpha virt. eigenvalues --    0.29799   0.30163   0.30827   0.31364   0.31597
 Alpha virt. eigenvalues --    0.32210   0.33049   0.33790   0.33947   0.34583
 Alpha virt. eigenvalues --    0.36372   0.37079   0.37528   0.38200   0.38973
 Alpha virt. eigenvalues --    0.40051   0.40512   0.41491   0.42472   0.44328
 Alpha virt. eigenvalues --    0.44666   0.45663   0.46086   0.46458   0.47177
 Alpha virt. eigenvalues --    0.48241   0.48742   0.51222   0.51880   0.52852
 Alpha virt. eigenvalues --    0.53812   0.54080   0.55227   0.57049   0.57307
 Alpha virt. eigenvalues --    0.57684   0.58405   0.59167   0.59640   0.61458
 Alpha virt. eigenvalues --    0.61980   0.62795   0.63944   0.64040   0.64790
 Alpha virt. eigenvalues --    0.65661   0.66041   0.66694   0.67635   0.68850
 Alpha virt. eigenvalues --    0.69084   0.69849   0.70269   0.71234   0.71364
 Alpha virt. eigenvalues --    0.73020   0.73588   0.74029   0.74701   0.75755
 Alpha virt. eigenvalues --    0.75883   0.77509   0.77899   0.79323   0.79636
 Alpha virt. eigenvalues --    0.80638   0.81802   0.83484   0.86174   0.86563
 Alpha virt. eigenvalues --    0.87609   0.89376   0.90369   0.92240   0.93389
 Alpha virt. eigenvalues --    0.94521   0.95020   0.95912   0.97049   0.98320
 Alpha virt. eigenvalues --    1.01426   1.02723   1.04460   1.05350   1.05995
 Alpha virt. eigenvalues --    1.08206   1.09044   1.11354   1.11846   1.13581
 Alpha virt. eigenvalues --    1.15541   1.16494   1.16814   1.17074   1.19622
 Alpha virt. eigenvalues --    1.21158   1.21300   1.22625   1.22876   1.23810
 Alpha virt. eigenvalues --    1.24069   1.24725   1.25135   1.25374   1.26560
 Alpha virt. eigenvalues --    1.28273   1.29874   1.30727   1.32254   1.32743
 Alpha virt. eigenvalues --    1.34277   1.34614   1.35341   1.36167   1.36846
 Alpha virt. eigenvalues --    1.37464   1.40225   1.40565   1.42022   1.42757
 Alpha virt. eigenvalues --    1.43604   1.44741   1.45400   1.47348   1.48470
 Alpha virt. eigenvalues --    1.49130   1.50235   1.51375   1.51789   1.53206
 Alpha virt. eigenvalues --    1.53743   1.56904   1.58700   1.60109   1.61175
 Alpha virt. eigenvalues --    1.64633   1.66530   1.70672   1.72678   1.76084
 Alpha virt. eigenvalues --    1.77108   1.77840   1.79392   1.79909   1.81329
 Alpha virt. eigenvalues --    1.81903   1.83710   1.84900   1.85135   1.86631
 Alpha virt. eigenvalues --    1.87918   1.89590   1.92239   1.93248   1.95645
 Alpha virt. eigenvalues --    1.97053   1.97917   1.98827   2.02148   2.02670
 Alpha virt. eigenvalues --    2.03286   2.05519   2.08610   2.10689   2.13178
 Alpha virt. eigenvalues --    2.13530   2.15654   2.19421   2.20062   2.21237
 Alpha virt. eigenvalues --    2.23606   2.23883   2.25555   2.26667   2.28396
 Alpha virt. eigenvalues --    2.30600   2.32384   2.33879   2.34396   2.35566
 Alpha virt. eigenvalues --    2.36162   2.38522   2.40167   2.41272   2.42028
 Alpha virt. eigenvalues --    2.43661   2.46899   2.50963   2.51908   2.55106
 Alpha virt. eigenvalues --    2.59105   2.60499   2.63460   2.65709   2.69320
 Alpha virt. eigenvalues --    2.71100   2.73450   2.77201   2.78865   2.80102
 Alpha virt. eigenvalues --    2.80610   2.81952   2.83330   2.84824   2.86449
 Alpha virt. eigenvalues --    2.89183   2.92666   2.94088   2.95198   2.96081
 Alpha virt. eigenvalues --    2.99112   2.99957   3.03906   3.05191   3.07529
 Alpha virt. eigenvalues --    3.08685   3.13271   3.16887   3.20358   3.20861
 Alpha virt. eigenvalues --    3.21571   3.23330   3.26124   3.26477   3.30149
 Alpha virt. eigenvalues --    3.32095   3.33487   3.35067   3.36712   3.38208
 Alpha virt. eigenvalues --    3.39394   3.41177   3.42279   3.43753   3.46089
 Alpha virt. eigenvalues --    3.47081   3.49581   3.51579   3.51920   3.52968
 Alpha virt. eigenvalues --    3.53759   3.54900   3.59118   3.59240   3.60655
 Alpha virt. eigenvalues --    3.61312   3.63251   3.64073   3.65876   3.66717
 Alpha virt. eigenvalues --    3.67677   3.69152   3.70363   3.72040   3.72973
 Alpha virt. eigenvalues --    3.73676   3.75303   3.80853   3.86662   3.88118
 Alpha virt. eigenvalues --    3.88822   3.90233   3.92168   3.95075   3.98746
 Alpha virt. eigenvalues --    4.00455   4.02891   4.05679   4.08743   4.13571
 Alpha virt. eigenvalues --    4.18004   4.19288   4.20430   4.24790   4.29537
 Alpha virt. eigenvalues --    4.38456   4.46806   4.52166   4.53261   4.98005
 Alpha virt. eigenvalues --    5.01120   5.03091   5.06067   5.07515   5.12149
 Alpha virt. eigenvalues --    5.15629   5.19946   5.25337   5.32363   5.35708
 Alpha virt. eigenvalues --    5.40353   5.45968   5.47112   5.48047   5.54156
 Alpha virt. eigenvalues --    5.58893   5.61684   5.69704   5.82148   5.97674
 Alpha virt. eigenvalues --    6.00085   6.27696   6.87810   6.91775   6.93723
 Alpha virt. eigenvalues --    6.95635   6.96134   6.97417   7.00997   7.09016
 Alpha virt. eigenvalues --    7.14280   7.16993   7.20747   7.24199   7.31936
 Alpha virt. eigenvalues --    7.38871   7.43554  23.91005  23.98774  24.03692
 Alpha virt. eigenvalues --   24.04368  24.06642  24.12969  24.16055  24.28618
 Alpha virt. eigenvalues --   35.61970  35.68021  50.09744  50.22953  50.25250
          Condensed to atoms (all electrons):
               1          2          3          4          5          6
     1  C    5.585343   0.287287  -0.586548   0.413128   0.396858  -0.026711
     2  C    0.287287   5.513998  -0.138935  -0.081370  -0.016095   0.405735
     3  C   -0.586548  -0.138935   7.345115   0.078186   0.008215  -0.002836
     4  N    0.413128  -0.081370   0.078186   6.211554  -0.036829   0.012185
     5  H    0.396858  -0.016095   0.008215  -0.036829   0.481641  -0.000974
     6  H   -0.026711   0.405735  -0.002836   0.012185  -0.000974   0.477241
     7  H    0.005363   0.004510   0.330497  -0.027931  -0.000033  -0.000034
     8  C   -0.080425   0.018878  -0.160940   0.201194   0.002118   0.000088
     9  H   -0.000950   0.000153  -0.000687  -0.041693   0.000057   0.000007
    10  H    0.001213  -0.003879  -0.035283  -0.010632   0.000316  -0.000000
    11  H   -0.021426   0.020188   0.036367  -0.070579   0.001186  -0.000011
    12  N    0.021490   0.282994   0.125647   0.007496   0.007511  -0.036266
    13  C    0.019764  -0.045716  -0.357708   0.043810   0.000554   0.011547
    14  H    0.006342  -0.015759   0.011822  -0.002413  -0.000011  -0.000054
    15  H   -0.000647  -0.001932  -0.018741   0.003789   0.000011  -0.000064
    16  C    0.059247  -0.085851  -0.035541  -0.015316  -0.000668   0.001194
    17  H    0.000238   0.003419   0.001556  -0.000530  -0.000000  -0.000071
    18  H    0.001574   0.002144  -0.018333   0.002537   0.000012  -0.000592
    19  C   -0.090188   0.063921   0.348097  -0.001761   0.000074  -0.002894
    20  H   -0.000177   0.001664  -0.002185   0.000151   0.000000   0.000003
    21  H    0.001066  -0.002308  -0.004337  -0.000046   0.000000  -0.000002
    22  C    0.090971  -0.030061  -0.420997   0.012149   0.000224   0.001759
    23  O    0.005659   0.001839  -0.114143   0.020614   0.000013   0.000013
    24  O    0.014113   0.004487  -0.000321   0.004107  -0.000033   0.000215
    25  O    0.019033  -0.002204  -0.022679  -0.012157   0.000013   0.000034
    26  H   -0.003049  -0.000107  -0.008903   0.014478   0.000005  -0.000008
    27  H   -0.001793   0.000100   0.002492  -0.004128   0.000001  -0.000000
               7          8          9         10         11         12
     1  C    0.005363  -0.080425  -0.000950   0.001213  -0.021426   0.021490
     2  C    0.004510   0.018878   0.000153  -0.003879   0.020188   0.282994
     3  C    0.330497  -0.160940  -0.000687  -0.035283   0.036367   0.125647
     4  N   -0.027931   0.201194  -0.041693  -0.010632  -0.070579   0.007496
     5  H   -0.000033   0.002118   0.000057   0.000316   0.001186   0.007511
     6  H   -0.000034   0.000088   0.000007  -0.000000  -0.000011  -0.036266
     7  H    0.379153   0.002693   0.002641  -0.000167  -0.000051  -0.012154
     8  C    0.002693   5.249724   0.415577   0.437595   0.395953  -0.002131
     9  H    0.002641   0.415577   0.453428  -0.023408  -0.015014   0.005727
    10  H   -0.000167   0.437595  -0.023408   0.444545  -0.026429   0.001026
    11  H   -0.000051   0.395953  -0.015014  -0.026429   0.519174  -0.008165
    12  N   -0.012154  -0.002131   0.005727   0.001026  -0.008165   6.214271
    13  C    0.008248   0.013256   0.001520  -0.000337  -0.000259   0.100963
    14  H   -0.000037  -0.000246  -0.000002   0.000001  -0.000003  -0.050725
    15  H    0.001757   0.000289  -0.000008   0.000006  -0.000001  -0.042049
    16  C    0.010333  -0.003565   0.000466  -0.000229  -0.000331   0.034310
    17  H   -0.000068   0.000077  -0.000000   0.000000  -0.000000  -0.007336
    18  H    0.000229  -0.000097  -0.000001   0.000002   0.000001   0.013364
    19  C   -0.015132   0.005974  -0.000370   0.001170   0.000258  -0.070596
    20  H   -0.000083   0.000007   0.000000  -0.000000  -0.000000  -0.001647
    21  H    0.000370  -0.000104   0.000000  -0.000000   0.000000   0.002187
    22  C    0.023826  -0.012312   0.003692  -0.001622  -0.000832   0.105307
    23  O    0.014722   0.010417  -0.000549   0.000145  -0.000081  -0.024649
    24  O   -0.022037   0.006750  -0.002098   0.000700  -0.000037  -0.000573
    25  O    0.006500  -0.058509  -0.019286  -0.009178   0.003926   0.021857
    26  H   -0.005044   0.012130   0.002144   0.002121  -0.000127  -0.009041
    27  H   -0.000476  -0.001632   0.000631   0.000156  -0.000042   0.001296
              13         14         15         16         17         18
     1  C    0.019764   0.006342  -0.000647   0.059247   0.000238   0.001574
     2  C   -0.045716  -0.015759  -0.001932  -0.085851   0.003419   0.002144
     3  C   -0.357708   0.011822  -0.018741  -0.035541   0.001556  -0.018333
     4  N    0.043810  -0.002413   0.003789  -0.015316  -0.000530   0.002537
     5  H    0.000554  -0.000011   0.000011  -0.000668  -0.000000   0.000012
     6  H    0.011547  -0.000054  -0.000064   0.001194  -0.000071  -0.000592
     7  H    0.008248  -0.000037   0.001757   0.010333  -0.000068   0.000229
     8  C    0.013256  -0.000246   0.000289  -0.003565   0.000077  -0.000097
     9  H    0.001520  -0.000002  -0.000008   0.000466  -0.000000  -0.000001
    10  H   -0.000337   0.000001   0.000006  -0.000229   0.000000   0.000002
    11  H   -0.000259  -0.000003  -0.000001  -0.000331  -0.000000   0.000001
    12  N    0.100963  -0.050725  -0.042049   0.034310  -0.007336   0.013364
    13  C    6.221561   0.433899   0.468822  -0.219457  -0.026072  -0.063213
    14  H    0.433899   0.510562  -0.019327  -0.058009  -0.007249   0.000325
    15  H    0.468822  -0.019327   0.422382  -0.037491   0.000792   0.003101
    16  C   -0.219457  -0.058009  -0.037491   5.675508   0.426401   0.497226
    17  H   -0.026072  -0.007249   0.000792   0.426401   0.537710  -0.031376
    18  H   -0.063213   0.000325   0.003101   0.497226  -0.031376   0.486756
    19  C   -0.048979   0.006570  -0.021329  -0.147698  -0.052409  -0.066509
    20  H    0.029877  -0.000151  -0.000081  -0.051755  -0.002182  -0.007676
    21  H   -0.024916  -0.000178   0.001909  -0.001163  -0.008606   0.005122
    22  C   -0.133217   0.007906   0.013106   0.101297   0.013490   0.008325
    23  O   -0.003541   0.001369   0.001282   0.028451  -0.001879   0.000871
    24  O    0.002454  -0.000827  -0.001255   0.026186   0.000383  -0.009278
    25  O   -0.003914   0.000007   0.000327   0.006046  -0.000008   0.000066
    26  H    0.004838   0.000000  -0.000051  -0.003486   0.000001   0.000030
    27  H   -0.000012  -0.000003  -0.000064   0.000878  -0.000000  -0.000011
              19         20         21         22         23         24
     1  C   -0.090188  -0.000177   0.001066   0.090971   0.005659   0.014113
     2  C    0.063921   0.001664  -0.002308  -0.030061   0.001839   0.004487
     3  C    0.348097  -0.002185  -0.004337  -0.420997  -0.114143  -0.000321
     4  N   -0.001761   0.000151  -0.000046   0.012149   0.020614   0.004107
     5  H    0.000074   0.000000   0.000000   0.000224   0.000013  -0.000033
     6  H   -0.002894   0.000003  -0.000002   0.001759   0.000013   0.000215
     7  H   -0.015132  -0.000083   0.000370   0.023826   0.014722  -0.022037
     8  C    0.005974   0.000007  -0.000104  -0.012312   0.010417   0.006750
     9  H   -0.000370   0.000000   0.000000   0.003692  -0.000549  -0.002098
    10  H    0.001170  -0.000000  -0.000000  -0.001622   0.000145   0.000700
    11  H    0.000258  -0.000000   0.000000  -0.000832  -0.000081  -0.000037
    12  N   -0.070596  -0.001647   0.002187   0.105307  -0.024649  -0.000573
    13  C   -0.048979   0.029877  -0.024916  -0.133217  -0.003541   0.002454
    14  H    0.006570  -0.000151  -0.000178   0.007906   0.001369  -0.000827
    15  H   -0.021329  -0.000081   0.001909   0.013106   0.001282  -0.001255
    16  C   -0.147698  -0.051755  -0.001163   0.101297   0.028451   0.026186
    17  H   -0.052409  -0.002182  -0.008606   0.013490  -0.001879   0.000383
    18  H   -0.066509  -0.007676   0.005122   0.008325   0.000871  -0.009278
    19  C    6.562897   0.472941   0.442043  -0.698667  -0.142244  -0.092141
    20  H    0.472941   0.512555  -0.033949  -0.094907   0.007116  -0.001628
    21  H    0.442043  -0.033949   0.505018  -0.055660  -0.008347   0.004112
    22  C   -0.698667  -0.094907  -0.055660   5.848931   0.401007   0.312905
    23  O   -0.142244   0.007116  -0.008347   0.401007   8.507536  -0.046189
    24  O   -0.092141  -0.001628   0.004112   0.312905  -0.046189   8.336644
    25  O   -0.052567   0.000025   0.000088   0.056241  -0.022590  -0.048544
    26  H    0.027038  -0.000014  -0.000035  -0.019967  -0.004735   0.061530
    27  H    0.010642  -0.000012  -0.000007   0.002204   0.007105  -0.003045
              25         26         27
     1  C    0.019033  -0.003049  -0.001793
     2  C   -0.002204  -0.000107   0.000100
     3  C   -0.022679  -0.008903   0.002492
     4  N   -0.012157   0.014478  -0.004128
     5  H    0.000013   0.000005   0.000001
     6  H    0.000034  -0.000008  -0.000000
     7  H    0.006500  -0.005044  -0.000476
     8  C   -0.058509   0.012130  -0.001632
     9  H   -0.019286   0.002144   0.000631
    10  H   -0.009178   0.002121   0.000156
    11  H    0.003926  -0.000127  -0.000042
    12  N    0.021857  -0.009041   0.001296
    13  C   -0.003914   0.004838  -0.000012
    14  H    0.000007   0.000000  -0.000003
    15  H    0.000327  -0.000051  -0.000064
    16  C    0.006046  -0.003486   0.000878
    17  H   -0.000008   0.000001  -0.000000
    18  H    0.000066   0.000030  -0.000011
    19  C   -0.052567   0.027038   0.010642
    20  H    0.000025  -0.000014  -0.000012
    21  H    0.000088  -0.000035  -0.000007
    22  C    0.056241  -0.019967   0.002204
    23  O   -0.022590  -0.004735   0.007105
    24  O   -0.048544   0.061530  -0.003045
    25  O    8.166586   0.267272   0.309107
    26  H    0.267272   0.356389  -0.018647
    27  H    0.309107  -0.018647   0.395481
 Mulliken charges:
               1
     1  C   -0.116775
     2  C   -0.187101
     3  C   -0.358878
     4  N    0.280006
     5  H    0.155835
     6  H    0.160498
     7  H    0.292403
     8  C   -0.452760
     9  H    0.218022
    10  H    0.222167
    11  H    0.166333
    12  N    0.319886
    13  C   -0.433772
    14  H    0.176188
    15  H    0.225467
    16  C   -0.206982
    17  H    0.153721
    18  H    0.175402
    19  C   -0.438143
    20  H    0.172108
    21  H    0.177744
    22  C    0.464901
    23  O   -0.639213
    24  O   -0.546582
    25  O   -0.605491
    26  H    0.325238
    27  H    0.299778
 Sum of Mulliken charges =  -0.00000
 Mulliken charges with hydrogens summed into heavy atoms:
               1
     1  C    0.039060
     2  C   -0.026603
     3  C   -0.066475
     4  N    0.280006
     8  C    0.153763
    12  N    0.319886
    13  C   -0.032117
    16  C    0.122141
    19  C   -0.088291
    22  C    0.464901
    23  O   -0.639213
    24  O   -0.546582
    25  O    0.019524
         Mulliken charges condensed to fragments:
      1     -0.019524
      2      0.019524
 Electronic spatial extent (au):  <R**2>=          79287.6460
 Charge=             -0.0000 electrons
 Dipole moment (field-independent basis, Debye):
    X=              0.9937    Y=             -5.1517    Z=             -6.5789  Tot=              8.4148
 Quadrupole moment (field-independent basis, Debye-Ang):
   XX=            -71.2000   YY=           -189.2825   ZZ=           -197.5789
   XY=            -10.6909   XZ=             -9.4168   YZ=           -125.3206
 Traceless Quadrupole moment (field-independent basis, Debye-Ang):
   XX=             81.4871   YY=            -36.5953   ZZ=            -44.8918
   XY=            -10.6909   XZ=             -9.4168   YZ=           -125.3206
 Octapole moment (field-independent basis, Debye-Ang**2):
  XXX=           -769.6061  YYY=          -4308.9801  ZZZ=          -3902.2499  XYY=           -598.1475
  XXY=           -845.1573  XXZ=           -735.6057  XZZ=           -505.7485  YZZ=          -2670.9946
  YYZ=          -2690.1048  XYZ=           -316.2895
 Hexadecapole moment (field-independent basis, Debye-Ang**3):
 XXXX=          -6027.9484 YYYY=         -80632.8178 ZZZZ=         -65172.1224 XXXY=          -8312.4564
 XXXZ=          -7663.8114 YYYX=         -14059.2236 YYYZ=         -51371.7476 ZZZX=         -11320.3109
 ZZZY=         -47145.8230 XXYY=         -11047.3899 XXZZ=          -8648.2981 YYZZ=         -42243.0538
 XXYZ=          -8666.8465 YYXZ=          -8202.4494 ZZXY=          -7461.5282
 N-N= 8.883620167043D+02 E-N=-3.292091133721D+03  KE= 6.454997837710D+02
 No NMR shielding tensors so no spin-rotation constants.
 Leave Link  601 at Mon Feb 20 21:09:10 2023, MaxMem=  6710886400 cpu:               3.1 elap:               0.2
 (Enter /data0/home/software/g16/l122.exe)
 CPIOFr:  IOpCl= 0 IRwI=-1 IRwCP=  731 ICalc= -1 LCPTot=      292274 Len1MO=      765957 IndFrg=      292274
 CPIOFr:  IOpCl= 0 IRwI=-1 IRwCP=  731 ICalc=  0 LCPTot=      292274 Len1MO=      765957 IndFrg=     1058231
 Counterpoise: doing calculation for fragment   1 using the basis set of the full-system, NewBq=T
 Leave Link  122 at Mon Feb 20 21:09:10 2023, MaxMem=  6710886400 cpu:               0.3 elap:               0.0
 (Enter /data0/home/software/g16/l301.exe)
 Basis read from rwf:  (5D, 7F)
 No pseudopotential information found on rwf file.
   435 basis functions,   658 primitive gaussians,   461 cartesian basis functions
    45 alpha electrons       45 beta electrons
       nuclear repulsion energy       745.8797496934 Hartrees.
 IExCor= 4336 DFT=T Ex+Corr=M062X ExCW=0 ScaHFX=  0.540000
 ScaDFX=  1.000000  1.000000  1.000000  1.000000 ScalE2=  1.000000  1.000000
 IRadAn=      5 IRanWt=     -1 IRanGd=            0 ICorTp=0 IEmpDi=131
 NAtoms=   27 NActive=   27 NUniq=   27 SFac= 1.00D+00 NAtFMM=   60 NAOKFM=F Big=F
 Integral buffers will be    131072 words long.
 Raffenetti 2 integral format.
 Two-electron integral symmetry is turned off.
 R6Disp:  Grimme-D3 Dispersion energy=       -0.0009796268 Hartrees.
 Nuclear repulsion after empirical dispersion term =      745.8787700666 Hartrees.
 No density basis found on file   718.
 Leave Link  301 at Mon Feb 20 21:09:10 2023, MaxMem=  6710886400 cpu:               1.3 elap:               0.1
 (Enter /data0/home/software/g16/l302.exe)
 NPDir=0 NMtPBC=     1 NCelOv=     1 NCel=       1 NClECP=     1 NCelD=      1
         NCelK=      1 NCelE2=     1 NClLst=     1 CellRange=     0.0.
 One-electron integrals computed using PRISM.
 NBasis=   435 RedAO= T EigKep=  1.10D-05  NBF=   435
 NBsUse=   435 1.00D-06 EigRej= -1.00D+00 NBFU=   435
 Precomputing XC quadrature grid using
 IXCGrd= 4 IRadAn=           5 IRanWt=          -1 IRanGd=           0 AccXCQ= 0.00D+00.
 Generated NRdTot=       0 NPtTot=           0 NUsed=           0 NTot=          32
 NSgBfM=   461   461   461   461   461 MxSgAt=    27 MxSgA2=    27.
 Leave Link  302 at Mon Feb 20 21:09:10 2023, MaxMem=  6710886400 cpu:               9.2 elap:               0.4
 (Enter /data0/home/software/g16/l303.exe)
 DipDrv:  MaxL=1.
 Leave Link  303 at Mon Feb 20 21:09:11 2023, MaxMem=  6710886400 cpu:               1.0 elap:               0.1
 (Enter /data0/home/software/g16/l401.exe)
 ExpMin= 4.38D-02 ExpMax= 8.59D+03 ExpMxC= 1.30D+03 IAcc=3 IRadAn=         5 AccDes= 0.00D+00
 Harris functional with IExCor= 1009 and IRadAn=       5 diagonalized for initial guess.
 HarFok:  IExCor= 1009 AccDes= 0.00D+00 IRadAn=         5 IDoV= 1 UseB2=F ITyADJ=14
 ICtDFT=  3500011 ScaDFX=  1.000000  1.000000  1.000000  1.000000
 FoFCou: FMM=F IPFlag=           0 FMFlag=      100000 FMFlg1=           0
         NFxFlg=           0 DoJE=T BraDBF=F KetDBF=T FulRan=T
         wScrn=  0.000000 ICntrl=       500 IOpCl=  0 I1Cent=   200000004 NGrid=           0
         NMat0=    1 NMatS0=      1 NMatT0=    0 NMatD0=    1 NMtDS0=    0 NMtDT0=    0
 Symmetry not used in FoFCou.
 Harris En= -571.682863996490    
 JPrj=0 DoOrth=F DoCkMO=F.
 Leave Link  401 at Mon Feb 20 21:09:12 2023, MaxMem=  6710886400 cpu:              39.1 elap:               1.7
 (Enter /data0/home/software/g16/l502.exe)
 Two-electron integral symmetry not used.
 Closed shell SCF:
 Using DIIS extrapolation, IDIIS=  1040.
 NGot=  6710886400 LenX=  6710446980 LenY=  6710233998
 Requested convergence on RMS density matrix=1.00D-08 within 128 cycles.
 Requested convergence on MAX density matrix=1.00D-06.
 Requested convergence on             energy=1.00D-06.
 No special actions if energy rises.
 Fock matrices will be formed incrementally for  20 cycles.

 Cycle   1  Pass 1  IDiag  1:
 FoFJK:  IHMeth= 1 ICntrl=       0 DoSepK=F KAlg= 0 I1Cent=           0 FoldK=F
 IRaf= 920000000 NMat=       1 IRICut=       1 DoRegI=T DoRafI=F ISym2E= 0 IDoP0=0 IntGTp=1.
 FoFCou: FMM=F IPFlag=           0 FMFlag=      100000 FMFlg1=           0
         NFxFlg=           0 DoJE=F BraDBF=F KetDBF=F FulRan=T
         wScrn=  0.000000 ICntrl=         0 IOpCl=  0 I1Cent=           0 NGrid=           0
         NMat0=    1 NMatS0=      1 NMatT0=    0 NMatD0=    1 NMtDS0=    0 NMtDT0=    0
 Symmetry not used in FoFCou.
 E= -571.608492707782    
 DIIS: error= 1.87D-02 at cycle   1 NSaved=   1.
 NSaved= 1 IEnMin= 1 EnMin= -571.608492707782     IErMin= 1 ErrMin= 1.87D-02
 ErrMax= 1.87D-02  0.00D+00 EMaxC= 1.00D-01 BMatC= 4.57D-01 BMatP= 4.57D-01
 IDIUse=3 WtCom= 8.13D-01 WtEn= 1.87D-01
 Coeff-Com:  0.100D+01
 Coeff-En:   0.100D+01
 Coeff:      0.100D+01
 Gap=     0.349 Goal=   None    Shift=    0.000
 GapD=    0.349 DampG=1.000 DampE=0.500 DampFc=0.5000 IDamp=-1.
 Damping current iteration by 5.00D-01
 RMSDP=7.01D-03 MaxDP=8.79D-01              OVMax= 2.51D-01

 Cycle   2  Pass 1  IDiag  1:
 RMSU=  3.50D-03    CP:  9.85D-01
 E= -571.756239413563     Delta-E=       -0.147746705781 Rises=F Damp=T
 DIIS: error= 5.08D-03 at cycle   2 NSaved=   2.
 NSaved= 2 IEnMin= 2 EnMin= -571.756239413563     IErMin= 2 ErrMin= 5.08D-03
 ErrMax= 5.08D-03  0.00D+00 EMaxC= 1.00D-01 BMatC= 3.85D-02 BMatP= 4.57D-01
 IDIUse=3 WtCom= 9.49D-01 WtEn= 5.08D-02
 Coeff-Com: -0.118D-01 0.101D+01
 Coeff-En:   0.306D-01 0.969D+00
 Coeff:     -0.961D-02 0.101D+01
 Gap=     0.270 Goal=   None    Shift=    0.000
 RMSDP=3.80D-03 MaxDP=6.05D-01 DE=-1.48D-01 OVMax= 1.58D-01

 Cycle   3  Pass 1  IDiag  1:
 RMSU=  2.70D-03    CP:  8.33D-01  3.91D-01
 E= -571.924356408477     Delta-E=       -0.168116994915 Rises=F Damp=F
 DIIS: error= 3.65D-03 at cycle   3 NSaved=   3.
 NSaved= 3 IEnMin= 3 EnMin= -571.924356408477     IErMin= 3 ErrMin= 3.65D-03
 ErrMax= 3.65D-03  0.00D+00 EMaxC= 1.00D-01 BMatC= 1.54D-02 BMatP= 3.85D-02
 IDIUse=3 WtCom= 9.64D-01 WtEn= 3.65D-02
 Coeff-Com: -0.899D-01 0.384D+00 0.705D+00
 Coeff-En:   0.000D+00 0.000D+00 0.100D+01
 Coeff:     -0.866D-01 0.370D+00 0.716D+00
 Gap=     0.260 Goal=   None    Shift=    0.000
 RMSDP=4.41D-04 MaxDP=4.96D-02 DE=-1.68D-01 OVMax= 2.56D-02

 Cycle   4  Pass 1  IDiag  1:
 RMSU=  4.02D-04    CP:  8.19D-01  4.06D-01  1.04D+00
 E= -571.933603675154     Delta-E=       -0.009247266676 Rises=F Damp=F
 DIIS: error= 1.67D-03 at cycle   4 NSaved=   4.
 NSaved= 4 IEnMin= 4 EnMin= -571.933603675154     IErMin= 4 ErrMin= 1.67D-03
 ErrMax= 1.67D-03  0.00D+00 EMaxC= 1.00D-01 BMatC= 2.18D-03 BMatP= 1.54D-02
 IDIUse=3 WtCom= 9.83D-01 WtEn= 1.67D-02
 Coeff-Com: -0.413D-01 0.104D+00 0.341D+00 0.597D+00
 Coeff-En:   0.000D+00 0.000D+00 0.477D-01 0.952D+00
 Coeff:     -0.406D-01 0.102D+00 0.336D+00 0.603D+00
 Gap=     0.249 Goal=   None    Shift=    0.000
 RMSDP=1.50D-04 MaxDP=1.09D-02 DE=-9.25D-03 OVMax= 8.36D-03

 Cycle   5  Pass 1  IDiag  1:
 RMSU=  1.33D-04    CP:  8.20D-01  4.03D-01  1.04D+00  8.31D-01
 E= -571.935398713628     Delta-E=       -0.001795038475 Rises=F Damp=F
 DIIS: error= 3.23D-04 at cycle   5 NSaved=   5.
 NSaved= 5 IEnMin= 5 EnMin= -571.935398713628     IErMin= 5 ErrMin= 3.23D-04
 ErrMax= 3.23D-04  0.00D+00 EMaxC= 1.00D-01 BMatC= 1.28D-04 BMatP= 2.18D-03
 IDIUse=3 WtCom= 9.97D-01 WtEn= 3.23D-03
 Coeff-Com: -0.139D-01 0.263D-01 0.105D+00 0.267D+00 0.616D+00
 Coeff-En:   0.000D+00 0.000D+00 0.000D+00 0.000D+00 0.100D+01
 Coeff:     -0.138D-01 0.262D-01 0.104D+00 0.266D+00 0.617D+00
 Gap=     0.250 Goal=   None    Shift=    0.000
 RMSDP=4.63D-05 MaxDP=2.08D-03 DE=-1.80D-03 OVMax= 3.84D-03

 Cycle   6  Pass 1  IDiag  1:
 RMSU=  4.00D-05    CP:  8.20D-01  3.99D-01  1.04D+00  8.67D-01  9.20D-01
 E= -571.935492245330     Delta-E=       -0.000093531702 Rises=F Damp=F
 DIIS: error= 1.31D-04 at cycle   6 NSaved=   6.
 NSaved= 6 IEnMin= 6 EnMin= -571.935492245330     IErMin= 6 ErrMin= 1.31D-04
 ErrMax= 1.31D-04  0.00D+00 EMaxC= 1.00D-01 BMatC= 1.91D-05 BMatP= 1.28D-04
 IDIUse=3 WtCom= 9.99D-01 WtEn= 1.31D-03
 Coeff-Com: -0.269D-02 0.285D-02 0.156D-01 0.701D-01 0.318D+00 0.596D+00
 Coeff-En:   0.000D+00 0.000D+00 0.000D+00 0.000D+00 0.000D+00 0.100D+01
 Coeff:     -0.268D-02 0.285D-02 0.155D-01 0.700D-01 0.318D+00 0.596D+00
 Gap=     0.249 Goal=   None    Shift=    0.000
 RMSDP=1.98D-05 MaxDP=1.30D-03 DE=-9.35D-05 OVMax= 1.40D-03

 Cycle   7  Pass 1  IDiag  1:
 RMSU=  1.55D-05    CP:  8.20D-01  3.97D-01  1.04D+00  8.82D-01  9.67D-01
                    CP:  9.76D-01
 E= -571.935507350805     Delta-E=       -0.000015105475 Rises=F Damp=F
 DIIS: error= 5.55D-05 at cycle   7 NSaved=   7.
 NSaved= 7 IEnMin= 7 EnMin= -571.935507350805     IErMin= 7 ErrMin= 5.55D-05
 ErrMax= 5.55D-05  0.00D+00 EMaxC= 1.00D-01 BMatC= 2.34D-06 BMatP= 1.91D-05
 IDIUse=1 WtCom= 1.00D+00 WtEn= 0.00D+00
 Coeff-Com:  0.175D-02-0.436D-02-0.150D-01-0.228D-01 0.252D-01 0.277D+00
 Coeff-Com:  0.738D+00
 Coeff:      0.175D-02-0.436D-02-0.150D-01-0.228D-01 0.252D-01 0.277D+00
 Coeff:      0.738D+00
 Gap=     0.249 Goal=   None    Shift=    0.000
 RMSDP=8.90D-06 MaxDP=5.23D-04 DE=-1.51D-05 OVMax= 6.34D-04

 Cycle   8  Pass 1  IDiag  1:
 RMSU=  5.53D-06    CP:  8.20D-01  3.96D-01  1.04D+00  8.89D-01  1.00D+00
                    CP:  1.05D+00  1.01D+00
 E= -571.935509779515     Delta-E=       -0.000002428710 Rises=F Damp=F
 DIIS: error= 1.07D-05 at cycle   8 NSaved=   8.
 NSaved= 8 IEnMin= 8 EnMin= -571.935509779515     IErMin= 8 ErrMin= 1.07D-05
 ErrMax= 1.07D-05  0.00D+00 EMaxC= 1.00D-01 BMatC= 1.36D-07 BMatP= 2.34D-06
 IDIUse=1 WtCom= 1.00D+00 WtEn= 0.00D+00
 Coeff-Com:  0.756D-03-0.151D-02-0.570D-02-0.137D-01-0.233D-01 0.304D-01
 Coeff-Com:  0.240D+00 0.773D+00
 Coeff:      0.756D-03-0.151D-02-0.570D-02-0.137D-01-0.233D-01 0.304D-01
 Coeff:      0.240D+00 0.773D+00
 Gap=     0.249 Goal=   None    Shift=    0.000
 RMSDP=2.13D-06 MaxDP=1.79D-04 DE=-2.43D-06 OVMax= 2.58D-04

 Cycle   9  Pass 1  IDiag  1:
 RMSU=  1.79D-06    CP:  8.20D-01  3.96D-01  1.04D+00  8.89D-01  1.01D+00
                    CP:  1.07D+00  1.03D+00  9.82D-01
 E= -571.935509978971     Delta-E=       -0.000000199456 Rises=F Damp=F
 DIIS: error= 5.35D-06 at cycle   9 NSaved=   9.
 NSaved= 9 IEnMin= 9 EnMin= -571.935509978971     IErMin= 9 ErrMin= 5.35D-06
 ErrMax= 5.35D-06  0.00D+00 EMaxC= 1.00D-01 BMatC= 1.27D-08 BMatP= 1.36D-07
 IDIUse=1 WtCom= 1.00D+00 WtEn= 0.00D+00
 Coeff-Com:  0.120D-03-0.187D-03-0.816D-03-0.293D-02-0.862D-02-0.889D-02
 Coeff-Com:  0.228D-01 0.241D+00 0.757D+00
 Coeff:      0.120D-03-0.187D-03-0.816D-03-0.293D-02-0.862D-02-0.889D-02
 Coeff:      0.228D-01 0.241D+00 0.757D+00
 Gap=     0.249 Goal=   None    Shift=    0.000
 RMSDP=6.66D-07 MaxDP=3.21D-05 DE=-1.99D-07 OVMax= 6.33D-05

 Cycle  10  Pass 1  IDiag  1:
 RMSU=  5.20D-07    CP:  8.20D-01  3.96D-01  1.04D+00  8.89D-01  1.01D+00
                    CP:  1.06D+00  1.03D+00  1.03D+00  1.09D+00
 E= -571.935509995060     Delta-E=       -0.000000016089 Rises=F Damp=F
 DIIS: error= 2.17D-06 at cycle  10 NSaved=  10.
 NSaved=10 IEnMin=10 EnMin= -571.935509995060     IErMin=10 ErrMin= 2.17D-06
 ErrMax= 2.17D-06  0.00D+00 EMaxC= 1.00D-01 BMatC= 2.96D-09 BMatP= 1.27D-08
 IDIUse=1 WtCom= 1.00D+00 WtEn= 0.00D+00
 Coeff-Com: -0.560D-04 0.122D-03 0.416D-03 0.567D-03-0.549D-03-0.917D-02
 Coeff-Com: -0.258D-01-0.289D-03 0.334D+00 0.701D+00
 Coeff:     -0.560D-04 0.122D-03 0.416D-03 0.567D-03-0.549D-03-0.917D-02
 Coeff:     -0.258D-01-0.289D-03 0.334D+00 0.701D+00
 Gap=     0.249 Goal=   None    Shift=    0.000
 RMSDP=2.85D-07 MaxDP=1.82D-05 DE=-1.61D-08 OVMax= 2.55D-05

 Cycle  11  Pass 1  IDiag  1:
 RMSU=  1.75D-07    CP:  8.20D-01  3.96D-01  1.04D+00  8.89D-01  1.01D+00
                    CP:  1.06D+00  1.04D+00  1.05D+00  1.17D+00  1.09D+00
 E= -571.935509998185     Delta-E=       -0.000000003125 Rises=F Damp=F
 DIIS: error= 1.32D-06 at cycle  11 NSaved=  11.
 NSaved=11 IEnMin=11 EnMin= -571.935509998185     IErMin=11 ErrMin= 1.32D-06
 ErrMax= 1.32D-06  0.00D+00 EMaxC= 1.00D-01 BMatC= 4.12D-10 BMatP= 2.96D-09
 IDIUse=1 WtCom= 1.00D+00 WtEn= 0.00D+00
 Coeff-Com: -0.400D-04 0.812D-04 0.274D-03 0.573D-03 0.811D-03-0.311D-02
 Coeff-Com: -0.138D-01-0.261D-01 0.621D-01 0.322D+00 0.657D+00
 Coeff:     -0.400D-04 0.812D-04 0.274D-03 0.573D-03 0.811D-03-0.311D-02
 Coeff:     -0.138D-01-0.261D-01 0.621D-01 0.322D+00 0.657D+00
 Gap=     0.249 Goal=   None    Shift=    0.000
 RMSDP=1.01D-07 MaxDP=5.32D-06 DE=-3.13D-09 OVMax= 7.52D-06

 Cycle  12  Pass 1  IDiag  1:
 RMSU=  5.85D-08    CP:  8.20D-01  3.96D-01  1.04D+00  8.89D-01  1.01D+00
                    CP:  1.06D+00  1.03D+00  1.05D+00  1.19D+00  1.14D+00
                    CP:  9.89D-01
 E= -571.935509998558     Delta-E=       -0.000000000373 Rises=F Damp=F
 DIIS: error= 2.52D-07 at cycle  12 NSaved=  12.
 NSaved=12 IEnMin=12 EnMin= -571.935509998558     IErMin=12 ErrMin= 2.52D-07
 ErrMax= 2.52D-07  0.00D+00 EMaxC= 1.00D-01 BMatC= 5.46D-11 BMatP= 4.12D-10
 IDIUse=1 WtCom= 1.00D+00 WtEn= 0.00D+00
 Coeff-Com: -0.119D-04 0.247D-04 0.790D-04 0.186D-03 0.397D-03-0.611D-03
 Coeff-Com: -0.356D-02-0.110D-01-0.676D-02 0.682D-01 0.305D+00 0.648D+00
 Coeff:     -0.119D-04 0.247D-04 0.790D-04 0.186D-03 0.397D-03-0.611D-03
 Coeff:     -0.356D-02-0.110D-01-0.676D-02 0.682D-01 0.305D+00 0.648D+00
 Gap=     0.249 Goal=   None    Shift=    0.000
 RMSDP=2.87D-08 MaxDP=1.06D-06 DE=-3.73D-10 OVMax= 2.82D-06

 Cycle  13  Pass 1  IDiag  1:
 RMSU=  2.23D-08    CP:  8.20D-01  3.96D-01  1.04D+00  8.89D-01  1.01D+00
                    CP:  1.06D+00  1.03D+00  1.05D+00  1.19D+00  1.16D+00
                    CP:  1.06D+00  9.85D-01
 E= -571.935509998620     Delta-E=       -0.000000000062 Rises=F Damp=F
 DIIS: error= 1.12D-07 at cycle  13 NSaved=  13.
 NSaved=13 IEnMin=13 EnMin= -571.935509998620     IErMin=13 ErrMin= 1.12D-07
 ErrMax= 1.12D-07  0.00D+00 EMaxC= 1.00D-01 BMatC= 7.70D-12 BMatP= 5.46D-11
 IDIUse=1 WtCom= 1.00D+00 WtEn= 0.00D+00
 Coeff-Com:  0.203D-05-0.410D-05-0.117D-04-0.198D-04 0.355D-04 0.208D-03
 Coeff-Com:  0.833D-03-0.254D-03-0.135D-01-0.287D-01 0.142D-01 0.286D+00
 Coeff-Com:  0.741D+00
 Coeff:      0.203D-05-0.410D-05-0.117D-04-0.198D-04 0.355D-04 0.208D-03
 Coeff:      0.833D-03-0.254D-03-0.135D-01-0.287D-01 0.142D-01 0.286D+00
 Coeff:      0.741D+00
 Gap=     0.249 Goal=   None    Shift=    0.000
 RMSDP=1.43D-08 MaxDP=5.49D-07 DE=-6.18D-11 OVMax= 1.28D-06

 Cycle  14  Pass 1  IDiag  1:
 RMSU=  8.59D-09    CP:  8.20D-01  3.96D-01  1.04D+00  8.89D-01  1.01D+00
                    CP:  1.06D+00  1.03D+00  1.05D+00  1.19D+00  1.16D+00
                    CP:  1.09D+00  1.10D+00  1.17D+00
 E= -571.935509998646     Delta-E=       -0.000000000026 Rises=F Damp=F
 DIIS: error= 2.46D-08 at cycle  14 NSaved=  14.
 NSaved=14 IEnMin=14 EnMin= -571.935509998646     IErMin=14 ErrMin= 2.46D-08
 ErrMax= 2.46D-08  0.00D+00 EMaxC= 1.00D-01 BMatC= 7.03D-13 BMatP= 7.70D-12
 IDIUse=1 WtCom= 1.00D+00 WtEn= 0.00D+00
 Coeff-Com:  0.186D-05-0.372D-05-0.102D-04-0.234D-04-0.200D-04 0.121D-03
 Coeff-Com:  0.675D-03 0.832D-03-0.386D-02-0.168D-01-0.263D-01 0.319D-01
 Coeff-Com:  0.263D+00 0.751D+00
 Coeff:      0.186D-05-0.372D-05-0.102D-04-0.234D-04-0.200D-04 0.121D-03
 Coeff:      0.675D-03 0.832D-03-0.386D-02-0.168D-01-0.263D-01 0.319D-01
 Coeff:      0.263D+00 0.751D+00
 Gap=     0.249 Goal=   None    Shift=    0.000
 RMSDP=4.49D-09 MaxDP=1.80D-07 DE=-2.64D-11 OVMax= 4.88D-07

 SCF Done:  E(RM062X) =  -571.935509999     A.U. after   14 cycles
            NFock= 14  Conv=0.45D-08     -V/T= 2.0048
 KE= 5.692018170342D+02 PE=-2.826242144254D+03 EE= 9.392260471542D+02
 Leave Link  502 at Mon Feb 20 21:10:24 2023, MaxMem=  6710886400 cpu:            1709.4 elap:              71.5
 (Enter /data0/home/software/g16/l601.exe)
 Copying SCF densities to generalized density rwf, IOpCl= 0 IROHF=0.

 **********************************************************************

            Population analysis using the SCF density.

 **********************************************************************

 Alpha  occ. eigenvalues --  -19.51645 -19.51444 -14.86366 -14.85764 -10.66437
 Alpha  occ. eigenvalues --  -10.62428 -10.62308 -10.61793 -10.60611 -10.57623
 Alpha  occ. eigenvalues --  -10.54505 -10.50636  -1.18954  -1.11403  -1.07761
 Alpha  occ. eigenvalues --   -1.00904  -0.92037  -0.88891  -0.85242  -0.79521
 Alpha  occ. eigenvalues --   -0.74139  -0.71459  -0.68913  -0.64742  -0.59418
 Alpha  occ. eigenvalues --   -0.57828  -0.56491  -0.55895  -0.54455  -0.54200
 Alpha  occ. eigenvalues --   -0.52522  -0.50627  -0.49458  -0.48645  -0.47115
 Alpha  occ. eigenvalues --   -0.44710  -0.43606  -0.43387  -0.39756  -0.38931
 Alpha  occ. eigenvalues --   -0.36900  -0.33177  -0.27444  -0.26721  -0.26211
 Alpha virt. eigenvalues --   -0.01277  -0.00129   0.00116   0.00978   0.01800
 Alpha virt. eigenvalues --    0.02522   0.03062   0.03912   0.04185   0.05270
 Alpha virt. eigenvalues --    0.05796   0.06430   0.06901   0.07242   0.08088
 Alpha virt. eigenvalues --    0.08767   0.09567   0.10032   0.10712   0.11282
 Alpha virt. eigenvalues --    0.11905   0.12198   0.12590   0.12655   0.13492
 Alpha virt. eigenvalues --    0.14293   0.14647   0.15101   0.15852   0.15937
 Alpha virt. eigenvalues --    0.16301   0.17330   0.17606   0.17976   0.18353
 Alpha virt. eigenvalues --    0.19013   0.19521   0.19633   0.20330   0.20604
 Alpha virt. eigenvalues --    0.20925   0.21736   0.22554   0.23323   0.23504
 Alpha virt. eigenvalues --    0.23920   0.24358   0.25192   0.25451   0.26191
 Alpha virt. eigenvalues --    0.26475   0.27459   0.28110   0.28817   0.29184
 Alpha virt. eigenvalues --    0.29406   0.30780   0.31354   0.31489   0.31937
 Alpha virt. eigenvalues --    0.32790   0.33852   0.34512   0.35387   0.35516
 Alpha virt. eigenvalues --    0.37654   0.38009   0.38133   0.38432   0.40360
 Alpha virt. eigenvalues --    0.40686   0.41390   0.42489   0.43077   0.44472
 Alpha virt. eigenvalues --    0.44810   0.46267   0.46994   0.47475   0.48136
 Alpha virt. eigenvalues --    0.48765   0.49279   0.52206   0.52507   0.53127
 Alpha virt. eigenvalues --    0.54031   0.54824   0.55774   0.57420   0.57644
 Alpha virt. eigenvalues --    0.58724   0.59413   0.59739   0.61006   0.62124
 Alpha virt. eigenvalues --    0.63195   0.63686   0.64126   0.64634   0.65494
 Alpha virt. eigenvalues --    0.65823   0.66249   0.67902   0.68644   0.69645
 Alpha virt. eigenvalues --    0.69777   0.70508   0.71345   0.71550   0.73200
 Alpha virt. eigenvalues --    0.73756   0.74139   0.74631   0.76026   0.76827
 Alpha virt. eigenvalues --    0.77914   0.78269   0.79416   0.80200   0.81082
 Alpha virt. eigenvalues --    0.82204   0.82860   0.85239   0.85506   0.87002
 Alpha virt. eigenvalues --    0.88278   0.89480   0.90785   0.92215   0.92966
 Alpha virt. eigenvalues --    0.93840   0.94728   0.95410   0.95589   0.96158
 Alpha virt. eigenvalues --    0.97987   0.99016   1.02085   1.03229   1.04606
 Alpha virt. eigenvalues --    1.04901   1.07098   1.08003   1.09632   1.10914
 Alpha virt. eigenvalues --    1.13138   1.14147   1.15641   1.16483   1.17564
 Alpha virt. eigenvalues --    1.18544   1.20713   1.21410   1.23440   1.24059
 Alpha virt. eigenvalues --    1.24783   1.25117   1.25922   1.26260   1.26854
 Alpha virt. eigenvalues --    1.29339   1.30256   1.30969   1.31846   1.33210
 Alpha virt. eigenvalues --    1.33725   1.36106   1.37051   1.37846   1.38196
 Alpha virt. eigenvalues --    1.39955   1.41217   1.42223   1.43167   1.44027
 Alpha virt. eigenvalues --    1.45124   1.47132   1.48183   1.49389   1.49851
 Alpha virt. eigenvalues --    1.50876   1.52568   1.53917   1.54756   1.57362
 Alpha virt. eigenvalues --    1.58890   1.59471   1.62903   1.68110   1.70849
 Alpha virt. eigenvalues --    1.73183   1.75646   1.76881   1.77739   1.79929
 Alpha virt. eigenvalues --    1.81883   1.82061   1.84314   1.85192   1.85680
 Alpha virt. eigenvalues --    1.86079   1.88647   1.89275   1.90850   1.91545
 Alpha virt. eigenvalues --    1.93128   1.96050   1.96871   1.98895   2.00034
 Alpha virt. eigenvalues --    2.02860   2.03056   2.04019   2.06379   2.07211
 Alpha virt. eigenvalues --    2.09556   2.11787   2.13704   2.16862   2.19971
 Alpha virt. eigenvalues --    2.20815   2.22200   2.23024   2.25028   2.26939
 Alpha virt. eigenvalues --    2.28005   2.28773   2.30951   2.32476   2.33194
 Alpha virt. eigenvalues --    2.34773   2.36273   2.36397   2.38611   2.39406
 Alpha virt. eigenvalues --    2.41051   2.43155   2.45187   2.48217   2.50247
 Alpha virt. eigenvalues --    2.51498   2.52318   2.54939   2.56894   2.60485
 Alpha virt. eigenvalues --    2.63928   2.65594   2.68112   2.68427   2.70593
 Alpha virt. eigenvalues --    2.72508   2.75677   2.77437   2.80119   2.81084
 Alpha virt. eigenvalues --    2.81883   2.82468   2.84622   2.86822   2.88574
 Alpha virt. eigenvalues --    2.89640   2.91714   2.93624   2.95681   2.96611
 Alpha virt. eigenvalues --    2.98839   2.99642   3.01308   3.04084   3.05061
 Alpha virt. eigenvalues --    3.08502   3.11638   3.12769   3.17585   3.20126
 Alpha virt. eigenvalues --    3.21787   3.23288   3.25848   3.26227   3.30048
 Alpha virt. eigenvalues --    3.32937   3.33664   3.34865   3.37277   3.38428
 Alpha virt. eigenvalues --    3.39649   3.41006   3.42658   3.44142   3.45888
 Alpha virt. eigenvalues --    3.47101   3.50164   3.50948   3.52243   3.53266
 Alpha virt. eigenvalues --    3.54082   3.55431   3.58004   3.58964   3.59571
 Alpha virt. eigenvalues --    3.60626   3.62007   3.63515   3.65220   3.66176
 Alpha virt. eigenvalues --    3.67519   3.68000   3.69666   3.71517   3.72351
 Alpha virt. eigenvalues --    3.73997   3.74443   3.76137   3.80866   3.83025
 Alpha virt. eigenvalues --    3.86917   3.89009   3.89142   3.91532   3.94073
 Alpha virt. eigenvalues --    3.96491   3.99175   4.00666   4.03330   4.07655
 Alpha virt. eigenvalues --    4.09607   4.13926   4.16965   4.18367   4.20561
 Alpha virt. eigenvalues --    4.25641   4.30936   4.39818   4.48251   4.52830
 Alpha virt. eigenvalues --    4.53849   4.63427   4.98316   5.01022   5.03085
 Alpha virt. eigenvalues --    5.06261   5.07665   5.11703   5.13891   5.15854
 Alpha virt. eigenvalues --    5.19922   5.32363   5.38184   5.42416   5.46556
 Alpha virt. eigenvalues --    5.48509   5.50862   5.57094   5.58926   5.61755
 Alpha virt. eigenvalues --    5.82020   6.02723   6.30568   6.93738   6.97411
 Alpha virt. eigenvalues --    6.99012   7.11003   7.16576   7.19677   7.23621
 Alpha virt. eigenvalues --    7.33821   7.40493   7.46321   9.58602   9.62620
 Alpha virt. eigenvalues --    9.65225   9.73507   9.94274  12.55118  12.98998
 Alpha virt. eigenvalues --   13.29787  17.19592  23.90965  23.99462  24.03107
 Alpha virt. eigenvalues --   24.04307  24.07564  24.12953  24.15978  24.31076
 Alpha virt. eigenvalues --   35.61848  35.67973  50.25413  50.27408 130.99562
          Condensed to atoms (all electrons):
               1          2          3          4          5          6
     1  C    5.474701   0.393879  -0.508334   0.421490   0.391926  -0.029010
     2  C    0.393879   5.444189  -0.268063  -0.055775  -0.010734   0.407479
     3  C   -0.508334  -0.268063   7.502898  -0.111550   0.008567  -0.003509
     4  N    0.421490  -0.055775  -0.111550   6.304689  -0.037577   0.013491
     5  H    0.391926  -0.010734   0.008567  -0.037577   0.483563  -0.001007
     6  H   -0.029010   0.407479  -0.003509   0.013491  -0.001007   0.476245
     7  H    0.010070   0.000856   0.328961  -0.031780  -0.000044  -0.000001
     8  C   -0.100256   0.030995  -0.172895   0.195932   0.002100   0.000288
     9  H   -0.002893   0.000048   0.011442  -0.048704  -0.000000   0.000011
    10  H   -0.003791  -0.002588  -0.028395  -0.016092   0.000283   0.000002
    11  H   -0.010005   0.015168   0.025424  -0.069689   0.001487  -0.000013
    12  N   -0.035280   0.309431   0.260044   0.001722   0.007250  -0.036522
    13  C    0.029402  -0.023351  -0.425761   0.077157   0.000736   0.012357
    14  H    0.005520  -0.014421   0.015264  -0.001723  -0.000010  -0.000128
    15  H   -0.001353  -0.000104  -0.019628   0.004319   0.000011  -0.000054
    16  C    0.055547  -0.107771   0.040462  -0.036831  -0.000821   0.000430
    17  H    0.000264   0.003815  -0.000097  -0.000477  -0.000000  -0.000068
    18  H    0.001961   0.004243  -0.022453   0.003948   0.000015  -0.000552
    19  C   -0.059780   0.044522   0.231484  -0.006153   0.000120  -0.002913
    20  H   -0.000502   0.001934  -0.001215   0.000219   0.000000   0.000003
    21  H    0.001132  -0.002316  -0.004937  -0.000088   0.000000  -0.000002
    22  C    0.052453   0.001537  -0.293509   0.025396   0.000153   0.001508
    23  O    0.006336   0.007683  -0.150815   0.037508   0.000023  -0.000001
    24  O    0.015706  -0.004719  -0.008032  -0.004660  -0.000055   0.000186
    25  O    0.002402   0.002942  -0.016640   0.004660   0.000019   0.000003
    26  H   -0.001255  -0.002110   0.007577   0.001052  -0.000005   0.000001
    27  H   -0.000242  -0.000181  -0.000256  -0.000606   0.000001   0.000000
               7          8          9         10         11         12
     1  C    0.010070  -0.100256  -0.002893  -0.003791  -0.010005  -0.035280
     2  C    0.000856   0.030995   0.000048  -0.002588   0.015168   0.309431
     3  C    0.328961  -0.172895   0.011442  -0.028395   0.025424   0.260044
     4  N   -0.031780   0.195932  -0.048704  -0.016092  -0.069689   0.001722
     5  H   -0.000044   0.002100  -0.000000   0.000283   0.001487   0.007250
     6  H   -0.000001   0.000288   0.000011   0.000002  -0.000013  -0.036522
     7  H    0.381009   0.000482   0.002575  -0.000162  -0.000100  -0.007916
     8  C    0.000482   5.249714   0.404228   0.434245   0.404193  -0.000356
     9  H    0.002575   0.404228   0.475206  -0.028240  -0.012657   0.005988
    10  H   -0.000162   0.434245  -0.028240   0.441304  -0.025156   0.002640
    11  H   -0.000100   0.404193  -0.012657  -0.025156   0.503194  -0.007626
    12  N   -0.007916  -0.000356   0.005988   0.002640  -0.007626   6.154612
    13  C    0.003375   0.018693   0.001307  -0.000583  -0.000308   0.077127
    14  H   -0.000154  -0.000203  -0.000002   0.000001  -0.000002  -0.050284
    15  H    0.001878   0.000346  -0.000006   0.000006  -0.000001  -0.043384
    16  C    0.017070  -0.005398   0.000524   0.000045  -0.000286   0.029725
    17  H   -0.000040   0.000088  -0.000000   0.000000  -0.000000  -0.006726
    18  H    0.000258   0.000043  -0.000001   0.000001   0.000001   0.012588
    19  C   -0.015279   0.000730  -0.000757   0.000382   0.000235  -0.018786
    20  H   -0.000165   0.000032  -0.000000  -0.000000  -0.000000  -0.001801
    21  H    0.000488  -0.000138   0.000001  -0.000000  -0.000000   0.001867
    22  C    0.021752  -0.007549   0.002211  -0.002473  -0.000399   0.045709
    23  O    0.018150   0.011709  -0.000493   0.000193  -0.000039  -0.025949
[...]
    23  O   -0.159743   0.009255  -0.012123   0.461695   8.448906  -0.069748
    24  O   -0.147152  -0.007221   0.007068   0.398837  -0.069748   8.320667
 Mulliken charges:
               1
     1  C   -0.116566
     2  C   -0.177476
     3  C   -0.341655
     4  N    0.303755
     5  H    0.154353
     6  H    0.161616
     7  H    0.282973
     8  C   -0.445466
     9  H    0.187716
    10  H    0.221589
    11  H    0.167618
    12  N    0.293964
    13  C   -0.415078
    14  H    0.173655
    15  H    0.226982
    16  C   -0.221454
    17  H    0.149647
    18  H    0.172658
    19  C   -0.364684
    20  H    0.166705
    21  H    0.172546
    22  C    0.388147
    23  O   -0.608799
    24  O   -0.532746
    25  O    0.000000
    26  H    0.000000
    27  H    0.000000
 Sum of Mulliken charges =  -0.00000
 Mulliken charges with hydrogens summed into heavy atoms:
               1
     1  C    0.037787
     2  C   -0.015860
     3  C   -0.058682
     4  N    0.303755
     8  C    0.131457
    12  N    0.293964
    13  C   -0.014440
    16  C    0.100851
    19  C   -0.025433
    22  C    0.388147
    23  O   -0.608799
    24  O   -0.532746
    25  O    0.000000
         Mulliken charges condensed to fragments:
      1     -0.000000
      2      0.000000
 Electronic spatial extent (au):  <R**2>=          69406.1885
 Charge=             -0.0000 electrons
 Dipole moment (field-independent basis, Debye):
    X=             -0.5807    Y=             -3.5993    Z=             -8.4044  Tot=              9.1611
 Quadrupole moment (field-independent basis, Debye-Ang):
   XX=            -73.1379   YY=           -143.1045   ZZ=           -228.8430
   XY=            -27.2052   XZ=            -28.7444   YZ=           -131.7742
 Traceless Quadrupole moment (field-independent basis, Debye-Ang):
   XX=             75.2239   YY=              5.2573   ZZ=            -80.4812
   XY=            -27.2052   XZ=            -28.7444   YZ=           -131.7742
 Octapole moment (field-independent basis, Debye-Ang**2):
  XXX=           -771.7628  YYY=          -3288.6225  ZZZ=          -4293.4042  XYY=           -754.8569
  XXY=           -856.7211  XXZ=           -763.3649  XZZ=           -725.4165  YZZ=          -2884.8830
  YYZ=          -2492.3954  XYZ=           -522.7191
 Hexadecapole moment (field-independent basis, Debye-Ang**3):
 XXXX=          -6061.6717 YYYY=         -60783.8349 ZZZZ=         -69347.4254 XXXY=          -8278.2392
 XXXZ=          -7716.1555 YYYX=         -15226.4946 YYYZ=         -44324.9531 ZZZX=         -13691.6843
 ZZZY=         -50079.2703 XXYY=         -11029.6450 XXZZ=          -8993.6762 YYZZ=         -41966.6243
 XXYZ=          -8869.6492 YYXZ=         -10248.2498 ZZXY=          -9808.1723
 N-N= 7.458787700666D+02 E-N=-2.826245211606D+03  KE= 5.692058105162D+02
 No NMR shielding tensors so no spin-rotation constants.
 Leave Link  601 at Mon Feb 20 21:12:01 2023, MaxMem=  6710886400 cpu:               2.9 elap:               0.2
 (Enter /data0/home/software/g16/l122.exe)
 CPIOFr:  IOpCl= 0 IRwI=-1 IRwCP=  731 ICalc=  3 LCPTot=      292274 Len1MO=      765957 IndFrg=     3356102
 Counterpoise: doing calculation for fragment   2 using the basis set of the fragment.
 Leave Link  122 at Mon Feb 20 21:12:01 2023, MaxMem=  6710886400 cpu:               0.2 elap:               0.0
 (Enter /data0/home/software/g16/l301.exe)
 Basis read from rwf:  (5D, 7F)
 No pseudopotential information found on rwf file.
    39 basis functions,    58 primitive gaussians,    41 cartesian basis functions
     5 alpha electrons        5 beta electrons
       nuclear repulsion energy         9.0179416797 Hartrees.
 IExCor= 4336 DFT=T Ex+Corr=M062X ExCW=0 ScaHFX=  0.540000
 ScaDFX=  1.000000  1.000000  1.000000  1.000000 ScalE2=  1.000000  1.000000
 IRadAn=      5 IRanWt=     -1 IRanGd=            0 ICorTp=0 IEmpDi=131
 NAtoms=   27 NActive=    3 NUniq=    3 SFac= 1.00D+00 NAtFMM=   60 NAOKFM=F Big=F
 Integral buffers will be    131072 words long.
 Raffenetti 2 integral format.
 Two-electron integral symmetry is turned off.
 R6Disp:  Grimme-D3 Dispersion energy=       -0.0000000070 Hartrees.
 Nuclear repulsion after empirical dispersion term =        9.0179416727 Hartrees.
 No density basis found on file   718.
 Leave Link  301 at Mon Feb 20 21:12:01 2023, MaxMem=  6710886400 cpu:               1.2 elap:               0.1
 (Enter /data0/home/software/g16/l302.exe)
 NPDir=0 NMtPBC=     1 NCelOv=     1 NCel=       1 NClECP=     1 NCelD=      1
         NCelK=      1 NCelE2=     1 NClLst=     1 CellRange=     0.0.
 One-electron integrals computed using PRISM.
 NBasis=    39 RedAO= T EigKep=  3.01D-03  NBF=    39
 NBsUse=    39 1.00D-06 EigRej= -1.00D+00 NBFU=    39
 Precomputing XC quadrature grid using
 IXCGrd= 4 IRadAn=           5 IRanWt=          -1 IRanGd=           0 AccXCQ= 0.00D+00.
 Generated NRdTot=       0 NPtTot=           0 NUsed=           0 NTot=          32
 NSgBfM=    41    41    41    41    41 MxSgAt=     3 MxSgA2=     3.
 Leave Link  302 at Mon Feb 20 21:12:01 2023, MaxMem=  6710886400 cpu:               2.3 elap:               0.1
 (Enter /data0/home/software/g16/l303.exe)
 DipDrv:  MaxL=1.
 Leave Link  303 at Mon Feb 20 21:12:01 2023, MaxMem=  6710886400 cpu:               0.4 elap:               0.0
 (Enter /data0/home/software/g16/l401.exe)
 ExpMin= 8.45D-02 ExpMax= 8.59D+03 ExpMxC= 1.30D+03 IAcc=3 IRadAn=         5 AccDes= 0.00D+00
 Harris functional with IExCor= 1009 and IRadAn=       5 diagonalized for initial guess.
 HarFok:  IExCor= 1009 AccDes= 0.00D+00 IRadAn=         5 IDoV= 1 UseB2=F ITyADJ=14
 ICtDFT=  3500011 ScaDFX=  1.000000  1.000000  1.000000  1.000000
 FoFCou: FMM=F IPFlag=           0 FMFlag=      100000 FMFlg1=           0
         NFxFlg=           0 DoJE=T BraDBF=F KetDBF=T FulRan=T
         wScrn=  0.000000 ICntrl=       500 IOpCl=  0 I1Cent=   200000004 NGrid=           0
         NMat0=    1 NMatS0=      1 NMatT0=    0 NMatD0=    1 NMtDS0=    0 NMtDT0=    0
 Symmetry not used in FoFCou.
 Harris En= -76.4146798532072    
 JPrj=0 DoOrth=F DoCkMO=F.
 Leave Link  401 at Mon Feb 20 21:12:01 2023, MaxMem=  6710886400 cpu:               2.9 elap:               0.1
 (Enter /data0/home/software/g16/l502.exe)
 Keep R1 ints in memory in canonical form, NReq=21041112.
 FoFCou: FMM=F IPFlag=           0 FMFlag=           0 FMFlg1=           0
         NFxFlg=           0 DoJE=F BraDBF=F KetDBF=F FulRan=T
         wScrn=  0.000000 ICntrl=       600 IOpCl=  0 I1Cent=           0 NGrid=           0
         NMat0=    1 NMatS0=    780 NMatT0=    0 NMatD0=    1 NMtDS0=    0 NMtDT0=    0
 Symmetry not used in FoFCou.
 Two-electron integral symmetry not used.
 Closed shell SCF:
 Using DIIS extrapolation, IDIIS=  1040.
 NGot=  6710886400 LenX=  6710576250 LenY=  6710574128
 Requested convergence on RMS density matrix=1.00D-08 within 128 cycles.
 Requested convergence on MAX density matrix=1.00D-06.
 Requested convergence on             energy=1.00D-06.
 No special actions if energy rises.
 Integral accuracy reduced to 1.0D-05 until final iterations.

 Cycle   1  Pass 0  IDiag  1:
 E= -76.3466254388881    
 DIIS: error= 6.87D-02 at cycle   1 NSaved=   1.
 NSaved= 1 IEnMin= 1 EnMin= -76.3466254388881     IErMin= 1 ErrMin= 6.87D-02
 ErrMax= 6.87D-02  0.00D+00 EMaxC= 1.00D-01 BMatC= 1.18D-01 BMatP= 1.18D-01
 IDIUse=3 WtCom= 3.13D-01 WtEn= 6.87D-01
 Coeff-Com:  0.100D+01
 Coeff-En:   0.100D+01
 Coeff:      0.100D+01
 Gap=     0.323 Goal=   None    Shift=    0.000
 GapD=    0.323 DampG=1.000 DampE=0.500 DampFc=0.5000 IDamp=-1.
 Damping current iteration by 5.00D-01
 RMSDP=8.10D-03 MaxDP=9.91D-02              OVMax= 1.66D-01

 Cycle   2  Pass 0  IDiag  1:
 E= -76.3771664567367     Delta-E=       -0.030541017849 Rises=F Damp=T
 DIIS: error= 1.08D-02 at cycle   2 NSaved=   2.
 NSaved= 2 IEnMin= 2 EnMin= -76.3771664567367     IErMin= 2 ErrMin= 1.08D-02
 ErrMax= 1.08D-02  0.00D+00 EMaxC= 1.00D-01 BMatC= 4.97D-03 BMatP= 1.18D-01
 IDIUse=3 WtCom= 8.92D-01 WtEn= 1.08D-01
 Coeff-Com:  0.880D-01 0.912D+00
 Coeff-En:   0.196D+00 0.804D+00
 Coeff:      0.997D-01 0.900D+00
 Gap=     0.455 Goal=   None    Shift=    0.000
 RMSDP=9.80D-04 MaxDP=1.46D-02 DE=-3.05D-02 OVMax= 9.99D-02

 Cycle   3  Pass 0  IDiag  1:
 E= -76.4206846574780     Delta-E=       -0.043518200741 Rises=F Damp=F
 DIIS: error= 2.17D-03 at cycle   3 NSaved=   3.
 NSaved= 3 IEnMin= 3 EnMin= -76.4206846574780     IErMin= 3 ErrMin= 2.17D-03
 ErrMax= 2.17D-03  0.00D+00 EMaxC= 1.00D-01 BMatC= 9.20D-05 BMatP= 4.97D-03
 IDIUse=3 WtCom= 9.78D-01 WtEn= 2.17D-02
 Coeff-Com: -0.200D-01 0.396D-01 0.980D+00
 Coeff-En:   0.000D+00 0.000D+00 0.100D+01
 Coeff:     -0.196D-01 0.388D-01 0.981D+00
 Gap=     0.459 Goal=   None    Shift=    0.000
 RMSDP=1.16D-04 MaxDP=1.07D-03 DE=-4.35D-02 OVMax= 3.39D-03

 Cycle   4  Pass 0  IDiag  1:
 E= -76.4207636736945     Delta-E=       -0.000079016217 Rises=F Damp=F
 DIIS: error= 4.26D-04 at cycle   4 NSaved=   4.
 NSaved= 4 IEnMin= 4 EnMin= -76.4207636736945     IErMin= 4 ErrMin= 4.26D-04
 ErrMax= 4.26D-04  0.00D+00 EMaxC= 1.00D-01 BMatC= 3.37D-06 BMatP= 9.20D-05
 IDIUse=3 WtCom= 9.96D-01 WtEn= 4.26D-03
 Coeff-Com: -0.195D-02-0.238D-02 0.162D+00 0.842D+00
 Coeff-En:   0.000D+00 0.000D+00 0.000D+00 0.100D+01
 Coeff:     -0.194D-02-0.237D-02 0.161D+00 0.843D+00
 Gap=     0.459 Goal=   None    Shift=    0.000
 RMSDP=2.27D-05 MaxDP=3.61D-04 DE=-7.90D-05 OVMax= 5.59D-04

 Cycle   5  Pass 0  IDiag  1:
 E= -76.4207657875953     Delta-E=       -0.000002113901 Rises=F Damp=F
 DIIS: error= 9.16D-05 at cycle   5 NSaved=   5.
 NSaved= 5 IEnMin= 5 EnMin= -76.4207657875953     IErMin= 5 ErrMin= 9.16D-05
 ErrMax= 9.16D-05  0.00D+00 EMaxC= 1.00D-01 BMatC= 8.66D-08 BMatP= 3.37D-06
 IDIUse=1 WtCom= 1.00D+00 WtEn= 0.00D+00
 Coeff-Com:  0.122D-02-0.186D-02-0.380D-01-0.634D-01 0.110D+01
 Coeff:      0.122D-02-0.186D-02-0.380D-01-0.634D-01 0.110D+01
 Gap=     0.460 Goal=   None    Shift=    0.000
 RMSDP=9.37D-06 MaxDP=1.02D-04 DE=-2.11D-06 OVMax= 2.13D-04

 Initial convergence to 1.0D-05 achieved.  Increase integral accuracy.
 Cycle   6  Pass 1  IDiag  1:
 E= -76.4207670002305     Delta-E=       -0.000001212635 Rises=F Damp=F
 DIIS: error= 2.80D-05 at cycle   1 NSaved=   1.
 NSaved= 1 IEnMin= 1 EnMin= -76.4207670002305     IErMin= 1 ErrMin= 2.80D-05
 ErrMax= 2.80D-05  0.00D+00 EMaxC= 1.00D-01 BMatC= 2.08D-08 BMatP= 2.08D-08
 IDIUse=1 WtCom= 1.00D+00 WtEn= 0.00D+00
 Coeff-Com:  0.100D+01
 Coeff:      0.100D+01
 Gap=     0.460 Goal=   None    Shift=    0.000
 RMSDP=9.37D-06 MaxDP=1.02D-04 DE=-1.21D-06 OVMax= 5.62D-05

 Cycle   7  Pass 1  IDiag  1:
 E= -76.4207670191485     Delta-E=       -0.000000018918 Rises=F Damp=F
 DIIS: error= 1.33D-05 at cycle   2 NSaved=   2.
 NSaved= 2 IEnMin= 2 EnMin= -76.4207670191485     IErMin= 2 ErrMin= 1.33D-05
 ErrMax= 1.33D-05  0.00D+00 EMaxC= 1.00D-01 BMatC= 2.44D-09 BMatP= 2.08D-08
 IDIUse=1 WtCom= 1.00D+00 WtEn= 0.00D+00
 Coeff-Com:  0.101D+00 0.899D+00
 Coeff:      0.101D+00 0.899D+00
 Gap=     0.460 Goal=   None    Shift=    0.000
 RMSDP=1.05D-06 MaxDP=1.66D-05 DE=-1.89D-08 OVMax= 2.77D-05

 Cycle   8  Pass 1  IDiag  1:
 E= -76.4207670197792     Delta-E=       -0.000000000631 Rises=F Damp=F
 DIIS: error= 8.74D-06 at cycle   3 NSaved=   3.
 NSaved= 3 IEnMin= 3 EnMin= -76.4207670197792     IErMin= 3 ErrMin= 8.74D-06
 ErrMax= 8.74D-06  0.00D+00 EMaxC= 1.00D-01 BMatC= 2.07D-09 BMatP= 2.44D-09
 IDIUse=1 WtCom= 1.00D+00 WtEn= 0.00D+00
 Coeff-Com: -0.552D-01 0.492D+00 0.563D+00
 Coeff:     -0.552D-01 0.492D+00 0.563D+00
 Gap=     0.460 Goal=   None    Shift=    0.000
 RMSDP=5.13D-07 MaxDP=6.65D-06 DE=-6.31D-10 OVMax= 1.25D-05

 Cycle   9  Pass 1  IDiag  1:
 E= -76.4207670211634     Delta-E=       -0.000000001384 Rises=F Damp=F
 DIIS: error= 7.31D-07 at cycle   4 NSaved=   4.
 NSaved= 4 IEnMin= 4 EnMin= -76.4207670211634     IErMin= 4 ErrMin= 7.31D-07
 ErrMax= 7.31D-07  0.00D+00 EMaxC= 1.00D-01 BMatC= 6.23D-12 BMatP= 2.07D-09
 IDIUse=1 WtCom= 1.00D+00 WtEn= 0.00D+00
 Coeff-Com:  0.130D-02-0.581D-01-0.376D-01 0.109D+01
 Coeff:      0.130D-02-0.581D-01-0.376D-01 0.109D+01
 Gap=     0.460 Goal=   None    Shift=    0.000
 RMSDP=1.01D-07 MaxDP=7.80D-07 DE=-1.38D-09 OVMax= 2.14D-06

 Cycle  10  Pass 1  IDiag  1:
 E= -76.4207670211769     Delta-E=       -0.000000000013 Rises=F Damp=F
 DIIS: error= 1.14D-07 at cycle   5 NSaved=   5.
 NSaved= 5 IEnMin= 5 EnMin= -76.4207670211769     IErMin= 5 ErrMin= 1.14D-07
 ErrMax= 1.14D-07  0.00D+00 EMaxC= 1.00D-01 BMatC= 4.91D-13 BMatP= 6.23D-12
 IDIUse=1 WtCom= 1.00D+00 WtEn= 0.00D+00
 Coeff-Com:  0.290D-02-0.356D-01-0.339D-01 0.178D+00 0.888D+00
 Coeff:      0.290D-02-0.356D-01-0.339D-01 0.178D+00 0.888D+00
 Gap=     0.460 Goal=   None    Shift=    0.000
 RMSDP=2.37D-08 MaxDP=2.34D-07 DE=-1.34D-11 OVMax= 4.68D-07

 Cycle  11  Pass 1  IDiag  1:
 E= -76.4207670211777     Delta-E=       -0.000000000001 Rises=F Damp=F
 DIIS: error= 1.90D-08 at cycle   6 NSaved=   6.
 NSaved= 6 IEnMin= 6 EnMin= -76.4207670211777     IErMin= 6 ErrMin= 1.90D-08
 ErrMax= 1.90D-08  0.00D+00 EMaxC= 1.00D-01 BMatC= 9.77D-15 BMatP= 4.91D-13
 IDIUse=1 WtCom= 1.00D+00 WtEn= 0.00D+00
 Coeff-Com:  0.141D-03-0.340D-03-0.511D-03-0.314D-01-0.749D-02 0.104D+01
 Coeff:      0.141D-03-0.340D-03-0.511D-03-0.314D-01-0.749D-02 0.104D+01
 Gap=     0.460 Goal=   None    Shift=    0.000
 RMSDP=5.87D-09 MaxDP=6.90D-08 DE=-7.96D-13 OVMax= 1.19D-07

 SCF Done:  E(RM062X) =  -76.4207670212     A.U. after   11 cycles
            NFock= 11  Conv=0.59D-08     -V/T= 2.0033
 KE= 7.616661767017D+01 PE=-1.988681353005D+02 EE= 3.726280893651D+01
 Leave Link  502 at Mon Feb 20 21:12:02 2023, MaxMem=  6710886400 cpu:               8.8 elap:               0.4
 (Enter /data0/home/software/g16/l601.exe)
 Copying SCF densities to generalized density rwf, IOpCl= 0 IROHF=0.

 **********************************************************************

            Population analysis using the SCF density.

 **********************************************************************

 Alpha  occ. eigenvalues --  -19.62903  -1.13151  -0.59674  -0.48041  -0.39987
 Alpha virt. eigenvalues --    0.05981   0.13173   0.17480   0.17939   0.18853
 Alpha virt. eigenvalues --    0.23660   0.49760   0.53277   0.98517   1.00530
 Alpha virt. eigenvalues --    1.05935   1.15720   1.20441   1.31020   1.34530
 Alpha virt. eigenvalues --    1.71455   1.73807   1.74745   2.05628   2.10292
 Alpha virt. eigenvalues --    2.33436   2.39291   2.55603   2.85613   3.00710
 Alpha virt. eigenvalues --    5.05495   5.49171   5.85711   6.78847   6.79711
 Alpha virt. eigenvalues --    6.87118   6.92443   7.09785  49.94563
          Condensed to atoms (all electrons):
              25         26         27
    25  O    7.927757   0.307701   0.312296
    26  H    0.307701   0.438567  -0.022130
    27  H    0.312296  -0.022130   0.437942
 Mulliken charges:
               1
     1  C    0.000000
     2  C    0.000000
     3  C    0.000000
     4  N    0.000000
     5  H    0.000000
     6  H    0.000000
     7  H    0.000000
     8  C    0.000000
     9  H    0.000000
    10  H    0.000000
    11  H    0.000000
    12  N    0.000000
    13  C    0.000000
    14  H    0.000000
    15  H    0.000000
    16  C    0.000000
    17  H    0.000000
    18  H    0.000000
    19  C    0.000000
    20  H    0.000000
    21  H    0.000000
    22  C    0.000000
    23  O    0.000000
    24  O    0.000000
    25  O   -0.547755
    26  H    0.275862
    27  H    0.271892
 Sum of Mulliken charges =   0.00000
 Mulliken charges with hydrogens summed into heavy atoms:
               1
     1  C    0.000000
     2  C    0.000000
     3  C    0.000000
     4  N    0.000000
     8  C    0.000000
    12  N    0.000000
    13  C    0.000000
    16  C    0.000000
    19  C    0.000000
    22  C    0.000000
    23  O    0.000000
    24  O    0.000000
    25  O    0.000000
         Mulliken charges condensed to fragments:
      1      0.000000
      2      0.000000
 Electronic spatial extent (au):  <R**2>=           9878.8545
 Charge=              0.0000 electrons
 Dipole moment (field-independent basis, Debye):
    X=              1.1172    Y=             -1.0414    Z=              1.5530  Tot=              2.1782
 Quadrupole moment (field-independent basis, Debye-Ang):
   XX=             -0.9195   YY=            -34.3477   ZZ=             25.7923
   XY=             12.3806   XZ=             13.4454   YZ=              8.7612
 Traceless Quadrupole moment (field-independent basis, Debye-Ang):
   XX=              2.2388   YY=            -31.1894   ZZ=             28.9506
   XY=             12.3806   XZ=             13.4454   YZ=              8.7612
 Octapole moment (field-independent basis, Debye-Ang**2):
  XXX=            -14.8315  YYY=           -810.8830  ZZZ=            304.9300  XYY=            119.8128
  XXY=            -16.5344  XXZ=             -7.0424  XZZ=            146.8081  YZZ=            210.3127
  YYZ=           -108.8407  XYZ=            151.6681
 Hexadecapole moment (field-independent basis, Debye-Ang**3):
 XXXX=            -69.0687 YYYY=         -16496.6443 ZZZZ=           2926.1791 XXXY=           -203.1417
 XXXZ=           -149.5456 YYYX=            851.5500 YYYZ=          -5267.6372 ZZZX=           1481.6710
 ZZZY=           2601.0285 XXYY=           -301.2024 XXZZ=            -71.8969 YYZZ=            350.3328
 XXYZ=           -140.2487 YYXZ=           1535.5967 ZZXY=           1659.6288
 N-N= 9.017941672685D+00 E-N=-1.988681354616D+02  KE= 7.616661767017D+01
 No NMR shielding tensors so no spin-rotation constants.
 Leave Link  601 at Mon Feb 20 21:12:02 2023, MaxMem=  6710886400 cpu:               1.8 elap:               0.1
 (Enter /data0/home/software/g16/l122.exe)
 CPIOFr:  IOpCl= 0 IRwI=-1 IRwCP=  731 ICalc=  4 LCPTot=      292274 Len1MO=      765957 IndFrg=     4122059
 Restoring MOs from calculation   1 to rwf.
 CPIOFr:  IOpCl= 0 IRwI=-2 IRwCP=  731 ICalc=  0 LCPTot=      292274 Len1MO=      765957 IndFrg=     1058231
 Counterpoise corrected energy =    -648.384981225193
                   BSSE energy =       0.001827661244
              sum of fragments =    -648.355871371287
           complexation energy =     -19.41 kcal/mole (raw)
           complexation energy =     -18.27 kcal/mole (corrected)
 Leave Link  122 at Mon Feb 20 21:12:02 2023, MaxMem=  6710886400 cpu:               0.3 elap:               0.0
 (Enter /data0/home/software/g16/l9999.exe)
 1\1\GINC-LOCALHOST\SP\RM062X\6-311+G(2d,p)\C8H14N2O3\WUHANYU\20-Feb-20
 23\0\\#p M062X/6-311+G(2d,p) nosymm em=GD3 counterpoise=2\\Title Card 
 Required\\0,1\C,0,3.587686,10.504642,6.932294\C,0,4.127428,9.425635,7.
 619919\C,0,2.557382,10.372089,8.930869\N,0,2.614202,11.071001,7.757913
 \H,0,3.82651,10.893695,5.960219\H,0,4.902501,8.74071,7.33106\H,0,1.909
 462,10.603077,9.804924\C,0,1.87615,12.287949,7.470981\H,0,0.920629,12.
 323139,8.039395\H,0,2.457646,13.178731,7.811915\H,0,1.659902,12.383177
 ,6.395424\N,0,3.468077,9.347611,8.84907\C,0,3.862515,8.471996,9.958198
 \H,0,3.995874,7.43951,9.568244\H,0,3.030777,8.442487,10.711896\C,0,5.1
 55866,8.983666,10.631097\H,0,5.7474,8.121354,10.990937\H,0,5.792617,9.
 509325,9.888421\C,0,4.862403,9.937321,11.790894\H,0,5.774881,10.470202
 ,12.109701\H,0,4.475,9.404106,12.675702\C,0,3.827308,10.958351,11.3052
 06\O,0,2.646846,10.803275,11.669263\O,0,4.1895,11.792945,10.451258\O,0
 ,1.787561,12.999895,10.177063\H,0,2.748715,12.76085,10.222978\H,0,1.47
 5166,12.643268,11.015171\\Version=ES64L-G16RevA.03\HF=-76.420767\RMSD=
 5.871e-09\Dipole=0.4194154,-2.0582568,-2.5531519\Quadrupole=60.7806675
 ,-28.7430243,-32.0376432,-7.3794193,-6.3272483,-92.9201498\PG=C01 [X(C
 8H14N2O3)]\\@


 NEVER LOSE YOUR IGNORANCE, IT CAN'T BE REPLACED.
   -- ANDY CAPP
 Job cpu time:       0 days  1 hours 36 minutes 29.1 seconds.
 Elapsed time:       0 days  0 hours  4 minutes  2.9 seconds.
 File lengths (MBytes):  RWF=    150 Int=      0 D2E=      0 Chk=     43 Scr=      1
 Normal termination of Gaussian 16 at Mon Feb 20 21:12:02 2023.
