 Entering Gaussian System, Link 0=g16
 Initial command:
 /data0/home/software/g16/l1.exe "/data0/home/software/g16/scratch/Gau-3365275.inp" -scrdir="/data0/home/software/g16/scratch/"
 Default is to use a total of  22 processors:
                               22 via shared-memory
                                1 via Linda
 Entering Link 1 = /data0/home/software/g16/l1.exe PID=   3365276.
  
 Copyright (c) 1988,1990,1992,1993,1995,1998,2003,2009,2016,
            Gaussian, Inc.  All Rights Reserved.
  
 This is part of the Gaussian(R) 16 program.  It is based on
 the Gaussian(R) 09 system (copyright 2009, Gaussian, Inc.),
 the Gaussian(R) 03 system (copyright 2003, Gaussian, Inc.),
 the Gaussian(R) 98 system (copyright 1998, Gaussian, Inc.),
 the Gaussian(R) 94 system (copyright 1995, Gaussian, Inc.),
 the Gaussian 92(TM) system (copyright 1992, Gaussian, Inc.),
 the Gaussian 90(TM) system (copyright 1990, Gaussian, Inc.),
 the Gaussian 88(TM) system (copyright 1988, Gaussian, Inc.),
 the Gaussian 86(TM) system (copyright 1986, Carnegie Mellon
 University), and the Gaussian 82(TM) system (copyright 1983,
 Carnegie Mellon University). Gaussian is a federally registered
 trademark of Gaussian, Inc.
  
 This software contains proprietary and confidential information,
 including trade secrets, belonging to Gaussian, Inc.
  
 This software is provided under written license and may be
 used, copied, transmitted, or stored only in accord with that
 written license.
  
 The following legend is applicable only to US Government
 contracts under FAR:
  
                    RESTRICTED RIGHTS LEGEND
  
 Use, reproduction and disclosure by the US Government is
 subject to restrictions as set forth in subparagraphs (a)
 and (c) of the Commercial Computer Software - Restricted
 Rights clause in FAR 52.227-19.
  
 Gaussian, Inc.
 340 Quinnipiac St., Bldg. 40, Wallingford CT 06492
  
  
 ---------------------------------------------------------------
 Warning -- This program may not be used in any manner that
 competes with the business of Gaussian, Inc. or will provide
 assistance to any competitor of Gaussian, Inc.  The licensee
 of this program is prohibited from giving any competitor of
 Gaussian, Inc. access to this program.  By using this program,
 the user acknowledges that Gaussian, Inc. is engaged in the
 business of creating and licensing software in the field of
 computational chemistry and represents and warrants to the
 licensee that it is not a competitor of Gaussian, Inc. and that
 it will not use this program in any manner prohibited above.
 ---------------------------------------------------------------
  

 Cite this work as:
 Gaussian 16, Revision A.03,
 M. J. Frisch, G. W. Trucks, H. B. Schlegel, G. E. Scuseria, 
 M. A. Robb, J. R. Cheeseman, G. Scalmani, V. Barone, 
 G. A. Petersson, H. Nakatsuji, X. Li, M. Caricato, A. V. Marenich, 
 J. Bloino, B. G. Janesko, R. Gomperts, B. Mennucci, H. P. Hratchian, 
 J. V. Ortiz, A. F. Izmaylov, J. L. Sonnenberg, D. Williams-Young, 
 F. Ding, F. Lipparini, F. Egidi, J. Goings, B. Peng, A. Petrone, 
 T. Henderson, D. Ranasinghe, V. G. Zakrzewski, J. Gao, N. Rega, 
 G. Zheng, W. Liang, M. Hada, M. Ehara, K. Toyota, R. Fukuda, 
 J. Hasegawa, M. Ishida, T. Nakajima, Y. Honda, O. Kitao, H. Nakai, 
 T. Vreven, K. Throssell, J. A. Montgomery, Jr., J. E. Peralta, 
 F. Ogliaro, M. J. Bearpark, J. J. Heyd, E. N. Brothers, K. N. Kudin, 
 V. N. Staroverov, T. A. Keith, R. Kobayashi, J. Normand, 
 K. Raghavachari, A. P. Rendell, J. C. Burant, S. S. Iyengar, 
 J. Tomasi, M. Cossi, J. M. Millam, M. Klene, C. Adamo, R. Cammi, 
 J. W. Ochterski, R. L. Martin, K. Morokuma, O. Farkas, 
 J. B. Foresman, and D. J. Fox, Gaussian, Inc., Wallingford CT, 2016.
 
 ******************************************
 Gaussian 16:  ES64L-G16RevA.03 25-Dec-2016
                15-Dec-2022 
 ******************************************
 %nproc=16
 Will use up to   16 processors via shared memory.
 %mem=10GB
 ---------------------------------------------------
 #p M062X/6-311+G(2d,p) nosymm em=GD3 counterpoise=3
 ---------------------------------------------------
 1/38=1,62=3,172=1/1;
 2/12=2,15=1,17=6,18=5,40=1/2;
 1/38=1,53=2,62=3,63=1/22;
 3/5=4,6=6,7=112,11=2,25=1,30=1,74=-55,124=31/1,2,3;
 4//1;
 5/5=2,38=5/2;
 6/7=2,8=2,9=2,10=2,28=1/1;
 1/53=2,62=3,63=1/22;
 3/5=7,6=11,7=112,11=2,25=1,30=1,74=-55,82=7,124=31/1,2,3;
 4//1;
 5/5=2,38=5/2;
 6/7=2,8=2,9=2,10=2,28=1/1;
 1/53=2,62=3,63=1/22(-4);
 99/5=1,9=1/99;
 Leave Link    1 at Thu Dec 15 14:33:49 2022, MaxMem=  1342177280 cpu:               0.5 elap:               0.0
 (Enter /data0/home/software/g16/l101.exe)
 -------------------
 Title Card Required
 -------------------
 Symbolic Z-matrix:
 Charge =  0 Multiplicity = 1 in supermolecule
 Charge =  0 Multiplicity = 1 in fragment      1.
 Charge =  0 Multiplicity = 1 in fragment      2.
 Charge =  0 Multiplicity = 1 in fragment      3.
 C                     18.47173   9.64128   1.23101    
 C                     17.62885   9.97707   2.29018    
 C                     19.23475   8.73238   3.14053    
 N                     19.48887   8.85255   1.77495    
 H                     20.24663   8.45616   1.26783    
 H                     18.42561   9.89053   0.19287    
 H                     16.72906   10.57079   2.30023    
 H                     19.85361   8.17688   3.82366    
 N                     18.11747   9.40763   3.45589    
 P                     15.18329   10.27622   5.69556    
 O                     14.26441   9.17081   5.93727    
 O                     15.10375   10.9321   4.23318    
 H                     14.17667   10.74921   3.82927    
 O                     14.88647   11.48217   6.69488    
 H                     15.62382   12.18764   6.58645    
 O                     16.73648   10.05643   5.88207    
 H                     17.15055   9.71126   4.96465    
 O                     12.39699   10.15197   3.36216    
 H                     12.54636   9.22606   3.58658    
 H                     11.90462   10.50088   4.1108     
 
 ITRead=  0  0  0  0  0  0  0  0  0  0  0  0  0  0  0  0  0  0  0  0
 MicOpt= -1 -1 -1 -1 -1 -1 -1 -1 -1 -1 -1 -1 -1 -1 -1 -1 -1 -1 -1 -1
 NAtoms=     20 NQM=       20 NQMF=       0 NMMI=      0 NMMIF=      0
                NMic=       0 NMicF=      0.
                    Isotopes and Nuclear Properties:
 (Nuclear quadrupole moments (NQMom) in fm**2, nuclear magnetic moments (NMagM)
  in nuclear magnetons)

  Atom         1           2           3           4           5           6           7           8           9          10
 IAtWgt=          12          12          12          14           1           1           1           1          14          31
 AtmWgt=  12.0000000  12.0000000  12.0000000  14.0030740   1.0078250   1.0078250   1.0078250   1.0078250  14.0030740  30.9737634
 NucSpn=           0           0           0           2           1           1           1           1           2           1
 AtZEff=  -0.0000000  -0.0000000  -0.0000000  -0.0000000  -0.0000000  -0.0000000  -0.0000000  -0.0000000  -0.0000000  -0.0000000
 NQMom=    0.0000000   0.0000000   0.0000000   2.0440000   0.0000000   0.0000000   0.0000000   0.0000000   2.0440000   0.0000000
 NMagM=    0.0000000   0.0000000   0.0000000   0.4037610   2.7928460   2.7928460   2.7928460   2.7928460   0.4037610   1.1316000
 AtZNuc=   6.0000000   6.0000000   6.0000000   7.0000000   1.0000000   1.0000000   1.0000000   1.0000000   7.0000000  15.0000000

  Atom        11          12          13          14          15          16          17          18          19          20
 IAtWgt=          16          16           1          16           1          16           1          16           1           1
 AtmWgt=  15.9949146  15.9949146   1.0078250  15.9949146   1.0078250  15.9949146   1.0078250  15.9949146   1.0078250   1.0078250
 NucSpn=           0           0           1           0           1           0           1           0           1           1
 AtZEff=  -0.0000000  -0.0000000  -0.0000000  -0.0000000  -0.0000000  -0.0000000  -0.0000000  -0.0000000  -0.0000000  -0.0000000
 NQMom=    0.0000000   0.0000000   0.0000000   0.0000000   0.0000000   0.0000000   0.0000000   0.0000000   0.0000000   0.0000000
 NMagM=    0.0000000   0.0000000   2.7928460   0.0000000   2.7928460   0.0000000   2.7928460   0.0000000   2.7928460   2.7928460
 AtZNuc=   8.0000000   8.0000000   1.0000000   8.0000000   1.0000000   8.0000000   1.0000000   8.0000000   1.0000000   1.0000000
 Leave Link  101 at Thu Dec 15 14:33:50 2022, MaxMem=  1342177280 cpu:               1.4 elap:               0.1
 (Enter /data0/home/software/g16/l202.exe)
                          Input orientation:                          
 ---------------------------------------------------------------------
 Center     Atomic      Atomic             Coordinates (Angstroms)
 Number     Number       Type             X           Y           Z
 ---------------------------------------------------------------------
      1          6           0       18.471733    9.641280    1.231013
      2          6           0       17.628852    9.977074    2.290181
      3          6           0       19.234755    8.732381    3.140530
      4          7           0       19.488874    8.852546    1.774946
      5          1           0       20.246626    8.456164    1.267828
      6          1           0       18.425614    9.890534    0.192874
      7          1           0       16.729060   10.570785    2.300229
      8          1           0       19.853612    8.176880    3.823659
      9          7           0       18.117474    9.407633    3.455889
     10         15           0       15.183291   10.276219    5.695563
     11          8           0       14.264406    9.170809    5.937269
     12          8           0       15.103750   10.932095    4.233175
     13          1           0       14.176667   10.749212    3.829267
     14          8           0       14.886470   11.482170    6.694877
     15          1           0       15.623823   12.187639    6.586446
     16          8           0       16.736481   10.056426    5.882074
     17          1           0       17.150546    9.711258    4.964646
     18          8           0       12.396993   10.151970    3.362158
     19          1           0       12.546365    9.226058    3.586579
     20          1           0       11.904624   10.500878    4.110797
 ---------------------------------------------------------------------
                    Distance matrix (angstroms):
                    1          2          3          4          5
     1  C    0.000000
     2  C    1.394648   0.000000
     3  C    2.248234   2.202562   0.000000
     4  N    1.397333   2.233766   1.394215   0.000000
     5  H    2.134502   3.195483   2.146437   0.994221   0.000000
     6  H    1.068638   2.245221   3.268746   2.170459   2.555196
     7  H    2.245910   1.078063   3.219370   3.293151   4.232109
     8  H    3.282662   3.246815   1.076211   2.187872   2.600910
     9  N    2.264986   1.386322   1.343031   2.239292   3.197842
    10  P    5.581147   4.203199   5.032493   5.994675   6.968127
    11  O    6.330228   5.027008   5.719995   6.687398   7.622424
    12  O    4.692813   3.326174   4.806019   5.440287   6.432161
    13  H    5.140625   3.857793   5.488736   6.003093   6.975919
    14  O    6.789462   5.402529   6.253184   7.232065   8.206147
    15  H    6.578389   5.231121   6.070583   7.015126   7.973827
    16  O    4.981547   3.701934   3.938341   5.088565   6.014418
    17  H    3.961117   2.729871   2.937606   4.047141   4.982714
    18  O    6.457945   5.343414   6.987084   7.382582   8.299320
    19  H    6.389921   5.298712   6.721401   7.184703   8.078574
    20  H    7.222118   6.029577   7.602619   8.105186   9.047228
                    6          7          8          9         10
     6  H    0.000000
     7  H    2.789620   0.000000
     8  H    4.261266   4.220716   0.000000
     9  N    3.312916   2.148526   2.159672   0.000000
    10  P    6.398515   3.742254   5.451894   3.792099   0.000000
    11  O    7.129637   4.611129   6.057596   4.589059   1.457636
    12  O    5.333260   2.551168   5.506369   3.465644   1.604705
    13  H    5.658112   2.980688   6.232546   4.179618   2.172573
    14  O    7.571980   4.851669   6.621279   5.023359   1.594067
    15  H    7.348775   4.712475   6.450604   4.873101   2.154360
    16  O    5.936976   3.618596   4.181659   2.866086   1.579713
    17  H    4.942443   2.831176   3.311002   1.817549   2.173364
    18  O    6.815936   4.479945   7.727557   5.769465   3.636437
    19  H    6.820875   4.577983   7.385989   5.575599   3.536104
    20  H    7.631903   5.153467   8.286726   6.342207   3.648508
                   11         12         13         14         15
    11  O    0.000000
    12  O    2.590475   0.000000
    13  H    2.634905   1.027653   0.000000
    14  O    2.510642   2.531752   3.041836   0.000000
    15  H    3.372048   2.717490   3.430068   1.026223   0.000000
    16  O    2.626503   2.480217   3.353598   2.473042   2.505238
    17  H    3.093200   2.492963   3.348192   3.354977   3.330703
    18  O    3.328829   2.948525   1.934458   4.367373   4.995239
    19  H    2.912123   3.141475   2.244277   4.497516   5.219283
    20  H    3.267056   3.230376   2.302848   4.065933   4.775609
                   16         17         18         19         20
    16  O    0.000000
    17  H    1.064079   0.000000
    18  O    5.018990   5.035719   0.000000
    19  H    4.849318   4.830421   0.964360   0.000000
    20  H    5.165443   5.373291   0.961574   1.520461   0.000000
 Symmetry turned off by external request.
 Stoichiometry    C3H9N2O5P
 Framework group  C1[X(C3H9N2O5P)]
 Deg. of freedom    54
 Full point group                 C1      NOp   1
 Rotational constants (GHZ):           1.4114489           0.4070003           0.3468447
 Leave Link  202 at Thu Dec 15 14:33:50 2022, MaxMem=  1342177280 cpu:               0.0 elap:               0.0
 (Enter /data0/home/software/g16/l122.exe)
 Counterpoise: doing full-system calculation.
 Leave Link  122 at Thu Dec 15 14:33:50 2022, MaxMem=  1342177280 cpu:               0.0 elap:               0.0
 (Enter /data0/home/software/g16/l301.exe)
 Standard basis: 6-311+G(2d,p) (5D, 7F)
 Ernie: Thresh=  0.10000D-02 Tol=  0.10000D-05 Strict=F.
   359 basis functions,   548 primitive gaussians,   381 cartesian basis functions
    48 alpha electrons       48 beta electrons
       nuclear repulsion energy       751.6941298111 Hartrees.
 IExCor= 4336 DFT=T Ex+Corr=M062X ExCW=0 ScaHFX=  0.540000
 ScaDFX=  1.000000  1.000000  1.000000  1.000000 ScalE2=  1.000000  1.000000
 IRadAn=      5 IRanWt=     -1 IRanGd=            0 ICorTp=0 IEmpDi=131
 NAtoms=   20 NActive=   20 NUniq=   20 SFac= 1.00D+00 NAtFMM=   60 NAOKFM=F Big=F
 Integral buffers will be    131072 words long.
 Raffenetti 2 integral format.
 Two-electron integral symmetry is turned off.
 R6Disp:  Grimme-D3 Dispersion energy=       -0.0007132917 Hartrees.
 Nuclear repulsion after empirical dispersion term =      751.6934165193 Hartrees.
 Leave Link  301 at Thu Dec 15 14:33:50 2022, MaxMem=  1342177280 cpu:               0.8 elap:               0.1
 (Enter /data0/home/software/g16/l302.exe)
 NPDir=0 NMtPBC=     1 NCelOv=     1 NCel=       1 NClECP=     1 NCelD=      1
         NCelK=      1 NCelE2=     1 NClLst=     1 CellRange=     0.0.
 One-electron integrals computed using PRISM.
 NBasis=   359 RedAO= T EigKep=  1.88D-05  NBF=   359
 NBsUse=   359 1.00D-06 EigRej= -1.00D+00 NBFU=   359
 Precomputing XC quadrature grid using
 IXCGrd= 4 IRadAn=           5 IRanWt=          -1 IRanGd=           0 AccXCQ= 0.00D+00.
 Generated NRdTot=       0 NPtTot=           0 NUsed=           0 NTot=          32
 NSgBfM=   380   380   380   380   380 MxSgAt=    20 MxSgA2=    20.
 Leave Link  302 at Thu Dec 15 14:33:50 2022, MaxMem=  1342177280 cpu:               3.7 elap:               0.2
 (Enter /data0/home/software/g16/l303.exe)
 DipDrv:  MaxL=1.
 Leave Link  303 at Thu Dec 15 14:33:50 2022, MaxMem=  1342177280 cpu:               0.5 elap:               0.1
 (Enter /data0/home/software/g16/l401.exe)
 ExpMin= 3.48D-02 ExpMax= 7.75D+04 ExpMxC= 2.65D+03 IAcc=3 IRadAn=         5 AccDes= 0.00D+00
 Harris functional with IExCor= 1009 and IRadAn=       5 diagonalized for initial guess.
 HarFok:  IExCor= 1009 AccDes= 0.00D+00 IRadAn=         5 IDoV= 1 UseB2=F ITyADJ=14
 ICtDFT=  3500011 ScaDFX=  1.000000  1.000000  1.000000  1.000000
 FoFCou: FMM=F IPFlag=           0 FMFlag=      100000 FMFlg1=           0
         NFxFlg=           0 DoJE=T BraDBF=F KetDBF=T FulRan=T
         wScrn=  0.000000 ICntrl=       500 IOpCl=  0 I1Cent=   200000004 NGrid=           0
         NMat0=    1 NMatS0=      1 NMatT0=    0 NMatD0=    1 NMtDS0=    0 NMtDT0=    0
 Symmetry not used in FoFCou.
 Harris En= -946.429607941928    
 JPrj=0 DoOrth=F DoCkMO=F.
 Leave Link  401 at Thu Dec 15 14:33:51 2022, MaxMem=  1342177280 cpu:              14.3 elap:               0.9
 (Enter /data0/home/software/g16/l502.exe)
 Two-electron integral symmetry not used.
 Closed shell SCF:
 Using DIIS extrapolation, IDIIS=  1040.
 NGot=  1342177280 LenX=  1341878165 LenY=  1341732563
 Requested convergence on RMS density matrix=1.00D-08 within 128 cycles.
 Requested convergence on MAX density matrix=1.00D-06.
 Requested convergence on             energy=1.00D-06.
 No special actions if energy rises.
 Fock matrices will be formed incrementally for  20 cycles.

 Cycle   1  Pass 1  IDiag  1:
 FoFJK:  IHMeth= 1 ICntrl=       0 DoSepK=F KAlg= 0 I1Cent=           0 FoldK=F
 IRaf= 840000000 NMat=       1 IRICut=       1 DoRegI=T DoRafI=F ISym2E= 0 IDoP0=0 IntGTp=1.
 FoFCou: FMM=F IPFlag=           0 FMFlag=      100000 FMFlg1=           0
         NFxFlg=           0 DoJE=F BraDBF=F KetDBF=F FulRan=T
         wScrn=  0.000000 ICntrl=         0 IOpCl=  0 I1Cent=           0 NGrid=           0
         NMat0=    1 NMatS0=      1 NMatT0=    0 NMatD0=    1 NMtDS0=    0 NMtDT0=    0
 Symmetry not used in FoFCou.
 E= -946.384861016232    
 DIIS: error= 3.25D-02 at cycle   1 NSaved=   1.
 NSaved= 1 IEnMin= 1 EnMin= -946.384861016232     IErMin= 1 ErrMin= 3.25D-02
 ErrMax= 3.25D-02  0.00D+00 EMaxC= 1.00D-01 BMatC= 7.27D-01 BMatP= 7.27D-01
 IDIUse=3 WtCom= 6.75D-01 WtEn= 3.25D-01
 Coeff-Com:  0.100D+01
 Coeff-En:   0.100D+01
 Coeff:      0.100D+01
 Gap=     0.309 Goal=   None    Shift=    0.000
 GapD=    0.309 DampG=1.000 DampE=0.500 DampFc=0.5000 IDamp=-1.
 Damping current iteration by 5.00D-01
 RMSDP=4.17D-03 MaxDP=1.45D-01              OVMax= 2.28D-01

 Cycle   2  Pass 1  IDiag  1:
 RMSU=  2.08D-03    CP:  1.00D+00
 E= -946.572624310902     Delta-E=       -0.187763294669 Rises=F Damp=T
 DIIS: error= 8.75D-03 at cycle   2 NSaved=   2.
 NSaved= 2 IEnMin= 2 EnMin= -946.572624310902     IErMin= 2 ErrMin= 8.75D-03
 ErrMax= 8.75D-03  0.00D+00 EMaxC= 1.00D-01 BMatC= 4.20D-02 BMatP= 7.27D-01
 IDIUse=3 WtCom= 9.13D-01 WtEn= 8.75D-02
 Coeff-Com:  0.252D-01 0.975D+00
 Coeff-En:   0.117D+00 0.883D+00
 Coeff:      0.332D-01 0.967D+00
 Gap=     0.354 Goal=   None    Shift=    0.000
 RMSDP=1.31D-03 MaxDP=1.59D-01 DE=-1.88D-01 OVMax= 1.16D-01

 Cycle   3  Pass 1  IDiag  1:
 RMSU=  1.17D-03    CP:  9.61D-01  8.18D-01
 E= -946.799481777221     Delta-E=       -0.226857466319 Rises=F Damp=F
 DIIS: error= 4.39D-03 at cycle   3 NSaved=   3.
 NSaved= 3 IEnMin= 3 EnMin= -946.799481777221     IErMin= 3 ErrMin= 4.39D-03
 ErrMax= 4.39D-03  0.00D+00 EMaxC= 1.00D-01 BMatC= 1.29D-02 BMatP= 4.20D-02
 IDIUse=3 WtCom= 9.56D-01 WtEn= 4.39D-02
 Coeff-Com: -0.453D-01 0.314D+00 0.732D+00
 Coeff-En:   0.000D+00 0.000D+00 0.100D+01
 Coeff:     -0.433D-01 0.300D+00 0.743D+00
 Gap=     0.305 Goal=   None    Shift=    0.000
 RMSDP=3.83D-04 MaxDP=1.80D-02 DE=-2.27D-01 OVMax= 3.70D-02

 Cycle   4  Pass 1  IDiag  1:
 RMSU=  3.33D-04    CP:  9.63D-01  8.87D-01  8.95D-01
 E= -946.805387657261     Delta-E=       -0.005905880041 Rises=F Damp=F
 DIIS: error= 2.69D-03 at cycle   4 NSaved=   4.
 NSaved= 4 IEnMin= 4 EnMin= -946.805387657261     IErMin= 4 ErrMin= 2.69D-03
 ErrMax= 2.69D-03  0.00D+00 EMaxC= 1.00D-01 BMatC= 4.92D-03 BMatP= 1.29D-02
 IDIUse=3 WtCom= 9.73D-01 WtEn= 2.69D-02
 Coeff-Com: -0.280D-01 0.750D-01 0.422D+00 0.531D+00
 Coeff-En:   0.000D+00 0.000D+00 0.265D+00 0.735D+00
 Coeff:     -0.272D-01 0.730D-01 0.418D+00 0.536D+00
 Gap=     0.302 Goal=   None    Shift=    0.000
 RMSDP=1.85D-04 MaxDP=1.53D-02 DE=-5.91D-03 OVMax= 1.35D-02

 Cycle   5  Pass 1  IDiag  1:
 RMSU=  9.36D-05    CP:  9.59D-01  8.68D-01  9.84D-01  6.86D-01
 E= -946.808715323942     Delta-E=       -0.003327666680 Rises=F Damp=F
 DIIS: error= 2.88D-04 at cycle   5 NSaved=   5.
 NSaved= 5 IEnMin= 5 EnMin= -946.808715323942     IErMin= 5 ErrMin= 2.88D-04
 ErrMax= 2.88D-04  0.00D+00 EMaxC= 1.00D-01 BMatC= 6.99D-05 BMatP= 4.92D-03
 IDIUse=3 WtCom= 9.97D-01 WtEn= 2.88D-03
 Coeff-Com: -0.672D-02 0.112D-01 0.109D+00 0.187D+00 0.699D+00
 Coeff-En:   0.000D+00 0.000D+00 0.000D+00 0.000D+00 0.100D+01
 Coeff:     -0.670D-02 0.112D-01 0.109D+00 0.187D+00 0.700D+00
 Gap=     0.299 Goal=   None    Shift=    0.000
 RMSDP=2.57D-05 MaxDP=1.79D-03 DE=-3.33D-03 OVMax= 1.88D-03

 Cycle   6  Pass 1  IDiag  1:
 RMSU=  1.91D-05    CP:  9.59D-01  8.69D-01  9.80D-01  6.98D-01  8.31D-01
 E= -946.808766044159     Delta-E=       -0.000050720218 Rises=F Damp=F
 DIIS: error= 1.16D-04 at cycle   6 NSaved=   6.
 NSaved= 6 IEnMin= 6 EnMin= -946.808766044159     IErMin= 6 ErrMin= 1.16D-04
 ErrMax= 1.16D-04  0.00D+00 EMaxC= 1.00D-01 BMatC= 6.27D-06 BMatP= 6.99D-05
 IDIUse=3 WtCom= 9.99D-01 WtEn= 1.16D-03
 Coeff-Com: -0.117D-02 0.516D-03 0.208D-01 0.448D-01 0.283D+00 0.652D+00
 Coeff-En:   0.000D+00 0.000D+00 0.000D+00 0.000D+00 0.000D+00 0.100D+01
 Coeff:     -0.117D-02 0.515D-03 0.207D-01 0.448D-01 0.283D+00 0.653D+00
 Gap=     0.300 Goal=   None    Shift=    0.000
 RMSDP=8.41D-06 MaxDP=3.24D-04 DE=-5.07D-05 OVMax= 7.24D-04

 Cycle   7  Pass 1  IDiag  1:
 RMSU=  7.54D-06    CP:  9.59D-01  8.68D-01  9.81D-01  7.01D-01  8.59D-01
                    CP:  9.80D-01
 E= -946.808771296667     Delta-E=       -0.000005252508 Rises=F Damp=F
 DIIS: error= 6.70D-05 at cycle   7 NSaved=   7.
 NSaved= 7 IEnMin= 7 EnMin= -946.808771296667     IErMin= 7 ErrMin= 6.70D-05
 ErrMax= 6.70D-05  0.00D+00 EMaxC= 1.00D-01 BMatC= 6.11D-07 BMatP= 6.27D-06
 IDIUse=1 WtCom= 1.00D+00 WtEn= 0.00D+00
 Coeff-Com:  0.404D-03-0.113D-02-0.594D-02-0.750D-02 0.164D-01 0.218D+00
 Coeff-Com:  0.780D+00
 Coeff:      0.404D-03-0.113D-02-0.594D-02-0.750D-02 0.164D-01 0.218D+00
 Coeff:      0.780D+00
 Gap=     0.300 Goal=   None    Shift=    0.000
 RMSDP=3.51D-06 MaxDP=1.71D-04 DE=-5.25D-06 OVMax= 4.47D-04

 Cycle   8  Pass 1  IDiag  1:
 RMSU=  2.71D-06    CP:  9.59D-01  8.67D-01  9.82D-01  7.00D-01  8.65D-01
                    CP:  1.05D+00  1.02D+00
 E= -946.808771732975     Delta-E=       -0.000000436308 Rises=F Damp=F
 DIIS: error= 3.54D-05 at cycle   8 NSaved=   8.
 NSaved= 8 IEnMin= 8 EnMin= -946.808771732975     IErMin= 8 ErrMin= 3.54D-05
 ErrMax= 3.54D-05  0.00D+00 EMaxC= 1.00D-01 BMatC= 2.64D-07 BMatP= 6.11D-07
 IDIUse=1 WtCom= 1.00D+00 WtEn= 0.00D+00
 Coeff-Com:  0.396D-03-0.727D-03-0.646D-02-0.110D-01-0.321D-01 0.229D-01
 Coeff-Com:  0.456D+00 0.571D+00
 Coeff:      0.396D-03-0.727D-03-0.646D-02-0.110D-01-0.321D-01 0.229D-01
 Coeff:      0.456D+00 0.571D+00
 Gap=     0.300 Goal=   None    Shift=    0.000
 RMSDP=1.40D-06 MaxDP=5.00D-05 DE=-4.36D-07 OVMax= 1.34D-04

 Cycle   9  Pass 1  IDiag  1:
 RMSU=  8.68D-07    CP:  9.59D-01  8.67D-01  9.82D-01  7.01D-01  8.69D-01
                    CP:  1.07D+00  1.13D+00  8.53D-01
 E= -946.808771960988     Delta-E=       -0.000000228013 Rises=F Damp=F
 DIIS: error= 7.03D-06 at cycle   9 NSaved=   9.
 NSaved= 9 IEnMin= 9 EnMin= -946.808771960988     IErMin= 9 ErrMin= 7.03D-06
 ErrMax= 7.03D-06  0.00D+00 EMaxC= 1.00D-01 BMatC= 5.62D-09 BMatP= 2.64D-07
 IDIUse=1 WtCom= 1.00D+00 WtEn= 0.00D+00
 Coeff-Com:  0.843D-04-0.134D-03-0.150D-02-0.270D-02-0.967D-02-0.531D-02
 Coeff-Com:  0.941D-01 0.161D+00 0.764D+00
 Coeff:      0.843D-04-0.134D-03-0.150D-02-0.270D-02-0.967D-02-0.531D-02
 Coeff:      0.941D-01 0.161D+00 0.764D+00
 Gap=     0.300 Goal=   None    Shift=    0.000
 RMSDP=3.69D-07 MaxDP=1.62D-05 DE=-2.28D-07 OVMax= 5.00D-05

 Cycle  10  Pass 1  IDiag  1:
 RMSU=  2.48D-07    CP:  9.59D-01  8.67D-01  9.82D-01  7.01D-01  8.68D-01
                    CP:  1.08D+00  1.15D+00  9.13D-01  1.06D+00
 E= -946.808771965602     Delta-E=       -0.000000004615 Rises=F Damp=F
 DIIS: error= 4.21D-06 at cycle  10 NSaved=  10.
 NSaved=10 IEnMin=10 EnMin= -946.808771965602     IErMin=10 ErrMin= 4.21D-06
 ErrMax= 4.21D-06  0.00D+00 EMaxC= 1.00D-01 BMatC= 2.47D-09 BMatP= 5.62D-09
 IDIUse=1 WtCom= 1.00D+00 WtEn= 0.00D+00
 Coeff-Com: -0.239D-04 0.516D-04 0.295D-03 0.385D-03-0.157D-03-0.800D-02
 Coeff-Com: -0.276D-01-0.183D-01 0.405D+00 0.648D+00
 Coeff:     -0.239D-04 0.516D-04 0.295D-03 0.385D-03-0.157D-03-0.800D-02
 Coeff:     -0.276D-01-0.183D-01 0.405D+00 0.648D+00
 Gap=     0.300 Goal=   None    Shift=    0.000
 RMSDP=1.84D-07 MaxDP=8.61D-06 DE=-4.61D-09 OVMax= 1.68D-05

 Cycle  11  Pass 1  IDiag  1:
 RMSU=  1.02D-07    CP:  9.59D-01  8.67D-01  9.82D-01  7.01D-01  8.68D-01
                    CP:  1.08D+00  1.16D+00  9.40D-01  1.16D+00  7.93D-01
 E= -946.808771967837     Delta-E=       -0.000000002235 Rises=F Damp=F
 DIIS: error= 9.04D-07 at cycle  11 NSaved=  11.
 NSaved=11 IEnMin=11 EnMin= -946.808771967837     IErMin=11 ErrMin= 9.04D-07
 ErrMax= 9.04D-07  0.00D+00 EMaxC= 1.00D-01 BMatC= 9.06D-11 BMatP= 2.47D-09
 IDIUse=1 WtCom= 1.00D+00 WtEn= 0.00D+00
 Coeff-Com: -0.135D-04 0.265D-04 0.214D-03 0.326D-03 0.645D-03-0.240D-02
 Coeff-Com: -0.161D-01-0.214D-01 0.635D-01 0.204D+00 0.771D+00
 Coeff:     -0.135D-04 0.265D-04 0.214D-03 0.326D-03 0.645D-03-0.240D-02
 Coeff:     -0.161D-01-0.214D-01 0.635D-01 0.204D+00 0.771D+00
 Gap=     0.300 Goal=   None    Shift=    0.000
 RMSDP=4.29D-08 MaxDP=1.63D-06 DE=-2.23D-09 OVMax= 5.59D-06

 Cycle  12  Pass 1  IDiag  1:
 RMSU=  2.45D-08    CP:  9.59D-01  8.67D-01  9.82D-01  7.01D-01  8.68D-01
                    CP:  1.08D+00  1.16D+00  9.45D-01  1.19D+00  8.62D-01
                    CP:  9.97D-01
 E= -946.808771967985     Delta-E=       -0.000000000148 Rises=F Damp=F
 DIIS: error= 2.54D-07 at cycle  12 NSaved=  12.
 NSaved=12 IEnMin=12 EnMin= -946.808771967985     IErMin=12 ErrMin= 2.54D-07
 ErrMax= 2.54D-07  0.00D+00 EMaxC= 1.00D-01 BMatC= 8.68D-12 BMatP= 9.06D-11
 IDIUse=1 WtCom= 1.00D+00 WtEn= 0.00D+00
 Coeff-Com: -0.349D-06 0.515D-06 0.231D-04 0.373D-04 0.187D-03 0.237D-03
 Coeff-Com: -0.715D-03-0.381D-02-0.247D-01-0.181D-01 0.207D+00 0.840D+00
 Coeff:     -0.349D-06 0.515D-06 0.231D-04 0.373D-04 0.187D-03 0.237D-03
 Coeff:     -0.715D-03-0.381D-02-0.247D-01-0.181D-01 0.207D+00 0.840D+00
 Gap=     0.300 Goal=   None    Shift=    0.000
 RMSDP=1.36D-08 MaxDP=6.30D-07 DE=-1.48D-10 OVMax= 1.38D-06

 Cycle  13  Pass 1  IDiag  1:
 RMSU=  8.89D-09    CP:  9.59D-01  8.67D-01  9.82D-01  7.01D-01  8.68D-01
                    CP:  1.08D+00  1.16D+00  9.46D-01  1.19D+00  8.72D-01
                    CP:  1.08D+00  9.72D-01
 E= -946.808771967981     Delta-E=        0.000000000004 Rises=F Damp=F
 DIIS: error= 7.89D-08 at cycle  13 NSaved=  13.
 NSaved=13 IEnMin=12 EnMin= -946.808771967985     IErMin=13 ErrMin= 7.89D-08
 ErrMax= 7.89D-08  0.00D+00 EMaxC= 1.00D-01 BMatC= 9.55D-13 BMatP= 8.68D-12
 IDIUse=1 WtCom= 1.00D+00 WtEn= 0.00D+00
 Coeff-Com:  0.102D-05-0.201D-05-0.901D-05-0.146D-04 0.449D-05 0.239D-03
 Coeff-Com:  0.111D-02 0.429D-03-0.127D-01-0.241D-01 0.542D-02 0.299D+00
 Coeff-Com:  0.730D+00
 Coeff:      0.102D-05-0.201D-05-0.901D-05-0.146D-04 0.449D-05 0.239D-03
 Coeff:      0.111D-02 0.429D-03-0.127D-01-0.241D-01 0.542D-02 0.299D+00
 Coeff:      0.730D+00
 Gap=     0.300 Goal=   None    Shift=    0.000
 RMSDP=3.65D-09 MaxDP=1.58D-07 DE= 4.32D-12 OVMax= 4.54D-07

 SCF Done:  E(RM062X) =  -946.808771968     A.U. after   13 cycles
            NFock= 13  Conv=0.36D-08     -V/T= 2.0032
 KE= 9.438178390675D+02 PE=-3.739133274086D+03 EE= 1.096813246531D+03
 Leave Link  502 at Thu Dec 15 14:34:30 2022, MaxMem=  1342177280 cpu:             630.1 elap:              39.5
 (Enter /data0/home/software/g16/l601.exe)
 Copying SCF densities to generalized density rwf, IOpCl= 0 IROHF=0.

 **********************************************************************

            Population analysis using the SCF density.

 **********************************************************************

 Alpha  occ. eigenvalues --  -78.13455 -19.64551 -19.64451 -19.64067 -19.62977
 Alpha  occ. eigenvalues --  -19.56401 -14.83656 -14.77214 -10.63353 -10.59834
 Alpha  occ. eigenvalues --  -10.58046  -6.94213  -5.06132  -5.06093  -5.05921
 Alpha  occ. eigenvalues --   -1.20411  -1.15546  -1.14289  -1.13069  -1.11936
 Alpha  occ. eigenvalues --   -1.06965  -1.00019  -0.86101  -0.73204  -0.69365
 Alpha  occ. eigenvalues --   -0.68763  -0.66628  -0.62695  -0.62205  -0.60421
 Alpha  occ. eigenvalues --   -0.53978  -0.53012  -0.52887  -0.52689  -0.51554
 Alpha  occ. eigenvalues --   -0.50164  -0.49716  -0.47130  -0.45626  -0.44919
 Alpha  occ. eigenvalues --   -0.41999  -0.41498  -0.40414  -0.38102  -0.37389
 Alpha  occ. eigenvalues --   -0.36124  -0.35530  -0.30792
 Alpha virt. eigenvalues --   -0.00796   0.00880   0.01528   0.01665   0.02723
 Alpha virt. eigenvalues --    0.03349   0.04435   0.05030   0.05335   0.05857
 Alpha virt. eigenvalues --    0.06924   0.07295   0.08607   0.08814   0.11120
 Alpha virt. eigenvalues --    0.11720   0.12048   0.13006   0.13194   0.14401
 Alpha virt. eigenvalues --    0.15464   0.15621   0.17276   0.17835   0.18244
 Alpha virt. eigenvalues --    0.18416   0.18931   0.19308   0.19692   0.19965
 Alpha virt. eigenvalues --    0.20424   0.20904   0.21397   0.21793   0.22508
 Alpha virt. eigenvalues --    0.23148   0.23946   0.24022   0.24794   0.25676
 Alpha virt. eigenvalues --    0.26360   0.26528   0.26641   0.27827   0.28166
 Alpha virt. eigenvalues --    0.29186   0.29976   0.30712   0.31053   0.31818
 Alpha virt. eigenvalues --    0.32735   0.33079   0.33238   0.33984   0.35989
 Alpha virt. eigenvalues --    0.37404   0.37947   0.39120   0.39747   0.40230
 Alpha virt. eigenvalues --    0.41826   0.43045   0.43695   0.45204   0.46178
 Alpha virt. eigenvalues --    0.46641   0.49338   0.50976   0.52572   0.53199
 Alpha virt. eigenvalues --    0.54192   0.56144   0.56688   0.57756   0.58455
 Alpha virt. eigenvalues --    0.58952   0.60434   0.61753   0.62987   0.63620
 Alpha virt. eigenvalues --    0.66765   0.68287   0.69755   0.71157   0.72544
 Alpha virt. eigenvalues --    0.73589   0.76159   0.76634   0.77301   0.79185
 Alpha virt. eigenvalues --    0.79899   0.81693   0.81958   0.83998   0.84176
 Alpha virt. eigenvalues --    0.86721   0.88920   0.89853   0.90357   0.91312
 Alpha virt. eigenvalues --    0.91839   0.96802   0.97261   0.98282   0.99924
 Alpha virt. eigenvalues --    1.01225   1.02609   1.04422   1.07019   1.08864
 Alpha virt. eigenvalues --    1.09780   1.12013   1.12804   1.14233   1.14694
 Alpha virt. eigenvalues --    1.15636   1.16992   1.19365   1.21666   1.22495
 Alpha virt. eigenvalues --    1.23346   1.25082   1.25571   1.26090   1.27379
 Alpha virt. eigenvalues --    1.28092   1.29836   1.29913   1.30810   1.32872
 Alpha virt. eigenvalues --    1.34211   1.34857   1.36969   1.37439   1.38407
 Alpha virt. eigenvalues --    1.39122   1.39450   1.40405   1.42486   1.43613
 Alpha virt. eigenvalues --    1.45246   1.46734   1.47322   1.49055   1.49688
 Alpha virt. eigenvalues --    1.50634   1.54468   1.55172   1.61825   1.64026
 Alpha virt. eigenvalues --    1.65940   1.67536   1.68147   1.69628   1.70410
 Alpha virt. eigenvalues --    1.71098   1.71522   1.71821   1.73775   1.74654
 Alpha virt. eigenvalues --    1.75335   1.77344   1.79830   1.81174   1.85205
 Alpha virt. eigenvalues --    1.86816   1.88085   1.88417   1.89986   1.90938
 Alpha virt. eigenvalues --    1.97215   1.98555   1.99725   2.01055   2.02804
 Alpha virt. eigenvalues --    2.04664   2.08370   2.08997   2.12792   2.13252
 Alpha virt. eigenvalues --    2.17387   2.18887   2.20185   2.21957   2.23915
 Alpha virt. eigenvalues --    2.27363   2.29158   2.32952   2.35064   2.39354
 Alpha virt. eigenvalues --    2.40632   2.41241   2.44649   2.48619   2.51816
 Alpha virt. eigenvalues --    2.53821   2.55331   2.57159   2.63506   2.65368
 Alpha virt. eigenvalues --    2.69906   2.71019   2.72914   2.76273   2.77729
 Alpha virt. eigenvalues --    2.79089   2.80738   2.84201   2.85652   2.86954
 Alpha virt. eigenvalues --    2.88881   2.92813   2.94778   2.96781   2.97071
 Alpha virt. eigenvalues --    2.99382   3.03591   3.06275   3.13718   3.16497
 Alpha virt. eigenvalues --    3.25277   3.26039   3.29802   3.33433   3.36541
 Alpha virt. eigenvalues --    3.38419   3.40788   3.41288   3.46250   3.51750
 Alpha virt. eigenvalues --    3.55566   3.56657   3.65303   3.65936   3.69740
 Alpha virt. eigenvalues --    3.73391   3.92599   3.94291   3.98076   3.99699
 Alpha virt. eigenvalues --    4.00939   4.47659   4.64127   4.86669   4.94472
 Alpha virt. eigenvalues --    4.96784   4.97987   4.99103   5.01650   5.09203
 Alpha virt. eigenvalues --    5.09685   5.11008   5.12307   5.13443   5.15424
 Alpha virt. eigenvalues --    5.17364   5.19074   5.22198   5.24524   5.25369
 Alpha virt. eigenvalues --    5.28818   5.34925   5.39561   5.40571   5.49929
 Alpha virt. eigenvalues --    5.50956   5.57430   5.58030   5.63853   5.78481
 Alpha virt. eigenvalues --    5.92751   6.76468   6.77004   6.77557   6.78558
 Alpha virt. eigenvalues --    6.78730   6.80877   6.83561   6.85573   6.88265
 Alpha virt. eigenvalues --    6.89476   6.90481   6.92493   6.93589   6.96985
 Alpha virt. eigenvalues --    7.00497   7.01860   7.04904   7.08110   7.11792
 Alpha virt. eigenvalues --    7.14218   7.26412   7.31995   7.35281   7.37661
 Alpha virt. eigenvalues --    7.43524   7.69040  14.26012  14.28485  14.41008
 Alpha virt. eigenvalues --   23.89982  24.07671  24.12237  35.65754  35.67875
 Alpha virt. eigenvalues --   49.98774  50.05138  50.06042  50.07764  50.13887
 Alpha virt. eigenvalues --  163.91320
          Condensed to atoms (all electrons):
               1          2          3          4          5          6
     1  C    6.371294  -0.608913  -0.114752   0.349481  -0.032435   0.364292
     2  C   -0.608913   6.025555  -0.174204  -0.102369   0.008054   0.012470
     3  C   -0.114752  -0.174204   4.982647   0.361842  -0.022626   0.009657
     4  N    0.349481  -0.102369   0.361842   6.316397   0.374665  -0.031509
     5  H   -0.032435   0.008054  -0.022626   0.374665   0.392109  -0.002642
     6  H    0.364292   0.012470   0.009657  -0.031509  -0.002642   0.497541
     7  H   -0.060491   0.422427   0.014782   0.006058  -0.000080  -0.000034
     8  H   -0.006477   0.020724   0.432084  -0.043102  -0.000607  -0.000013
     9  N    0.031199   0.265245   0.442172  -0.005203   0.004291   0.004004
    10  P    0.007888  -0.019239  -0.000833  -0.000951   0.000004   0.000001
    11  O    0.005726  -0.001060  -0.001207  -0.000077   0.000000  -0.000001
    12  O    0.030448  -0.003331  -0.003100  -0.000137  -0.000007   0.000006
    13  H    0.003231  -0.003075   0.000812  -0.000047   0.000000   0.000004
    14  O   -0.000697   0.002355  -0.001195  -0.000016  -0.000000  -0.000000
    15  H   -0.000760  -0.000901  -0.000052   0.000011   0.000000   0.000000
    16  O   -0.026796   0.017596   0.003026   0.002232   0.000001   0.000018
    17  H    0.011360  -0.019170  -0.008745   0.000191  -0.000016  -0.000013
    18  O    0.000360   0.000979  -0.000242   0.000003  -0.000000  -0.000001
    19  H    0.000313   0.000166  -0.000049   0.000000  -0.000000  -0.000000
    20  H    0.000042  -0.000021   0.000006   0.000000  -0.000000   0.000000
               7          8          9         10         11         12
     1  C   -0.060491  -0.006477   0.031199   0.007888   0.005726   0.030448
     2  C    0.422427   0.020724   0.265245  -0.019239  -0.001060  -0.003331
     3  C    0.014782   0.432084   0.442172  -0.000833  -0.001207  -0.003100
     4  N    0.006058  -0.043102  -0.005203  -0.000951  -0.000077  -0.000137
     5  H   -0.000080  -0.000607   0.004291   0.000004   0.000000  -0.000007
     6  H   -0.000034  -0.000013   0.004004   0.000001  -0.000001   0.000006
     7  H    0.485267  -0.000083  -0.039108   0.002373   0.000109  -0.005142
     8  H   -0.000083   0.485831  -0.044408  -0.000100   0.000004  -0.000008
     9  N   -0.039108  -0.044408   6.741828  -0.015748  -0.007349   0.001088
    10  P    0.002373  -0.000100  -0.015748  12.477185   0.562365   0.269313
    11  O    0.000109   0.000004  -0.007349   0.562365   8.146915  -0.022999
    12  O   -0.005142  -0.000008   0.001088   0.269313  -0.022999   8.158303
    13  H    0.000814   0.000002  -0.000479  -0.006941  -0.019224   0.263241
    14  O    0.000147  -0.000002  -0.002655   0.159879  -0.011549   0.025284
    15  H   -0.000026   0.000000   0.000695   0.031254   0.003207  -0.011231
    16  O   -0.000136   0.000503   0.025857   0.242518  -0.038496  -0.014555
    17  H    0.000379  -0.001241   0.049703   0.029765   0.000239  -0.010335
    18  O    0.000117  -0.000000  -0.000044   0.012404   0.010957   0.021649
    19  H   -0.000047  -0.000000  -0.000174  -0.000193   0.000843  -0.004936
    20  H   -0.000000   0.000000   0.000003  -0.003691  -0.002385  -0.002468
              13         14         15         16         17         18
     1  C    0.003231  -0.000697  -0.000760  -0.026796   0.011360   0.000360
     2  C   -0.003075   0.002355  -0.000901   0.017596  -0.019170   0.000979
     3  C    0.000812  -0.001195  -0.000052   0.003026  -0.008745  -0.000242
     4  N   -0.000047  -0.000016   0.000011   0.002232   0.000191   0.000003
     5  H    0.000000  -0.000000   0.000000   0.000001  -0.000016  -0.000000
     6  H    0.000004  -0.000000   0.000000   0.000018  -0.000013  -0.000001
     7  H    0.000814   0.000147  -0.000026  -0.000136   0.000379   0.000117
     8  H    0.000002  -0.000002   0.000000   0.000503  -0.001241  -0.000000
     9  N   -0.000479  -0.002655   0.000695   0.025857   0.049703  -0.000044
    10  P   -0.006941   0.159879   0.031254   0.242518   0.029765   0.012404
    11  O   -0.019224  -0.011549   0.003207  -0.038496   0.000239   0.010957
    12  O    0.263241   0.025284  -0.011231  -0.014555  -0.010335   0.021649
    13  H    0.337851   0.003004  -0.001624   0.003067   0.000216   0.007631
    14  O    0.003004   8.110769   0.236351  -0.019820   0.005157  -0.009508
    15  H   -0.001624   0.236351   0.452332  -0.015625   0.000049   0.000585
    16  O    0.003067  -0.019820  -0.015625   8.256044   0.204407   0.003288
    17  H    0.000216   0.005157   0.000049   0.204407   0.265706  -0.000256
    18  O    0.007631  -0.009508   0.000585   0.003288  -0.000256   7.818424
    19  H    0.000234   0.000295  -0.000071  -0.000173   0.000047   0.355296
    20  H   -0.002051   0.000772  -0.000026  -0.000230   0.000005   0.356302
              19         20
     1  C    0.000313   0.000042
     2  C    0.000166  -0.000021
     3  C   -0.000049   0.000006
     4  N    0.000000   0.000000
     5  H   -0.000000  -0.000000
     6  H   -0.000000   0.000000
     7  H   -0.000047  -0.000000
     8  H   -0.000000   0.000000
     9  N   -0.000174   0.000003
    10  P   -0.000193  -0.003691
    11  O    0.000843  -0.002385
    12  O   -0.004936  -0.002468
    13  H    0.000234  -0.002051
    14  O    0.000295   0.000772
    15  H   -0.000071  -0.000026
    16  O   -0.000173  -0.000230
    17  H    0.000047   0.000005
    18  O    0.355296   0.356302
    19  H    0.368738  -0.026164
    20  H   -0.026164   0.382969
 Mulliken charges:
               1
     1  C   -0.324314
     2  C    0.156713
     3  C    0.079977
     4  N   -0.227470
     5  H    0.279289
     6  H    0.146221
     7  H    0.172674
     8  H    0.156895
     9  N   -0.450915
    10  P    1.252748
    11  O   -0.626020
    12  O   -0.691084
    13  H    0.413333
    14  O   -0.498571
    15  H    0.305832
    16  O   -0.642726
    17  H    0.472551
    18  O   -0.577945
    19  H    0.305874
    20  H    0.296938
 Sum of Mulliken charges =  -0.00000
 Mulliken charges with hydrogens summed into heavy atoms:
               1
     1  C   -0.178093
     2  C    0.329387
     3  C    0.236872
     4  N    0.051819
     9  N   -0.450915
    10  P    1.252748
    11  O   -0.626020
    12  O   -0.277751
    14  O   -0.192739
    16  O   -0.170175
    18  O    0.024867
         Mulliken charges condensed to fragments:
      1     -0.010930
      2     -0.013937
      3      0.024867
 Electronic spatial extent (au):  <R**2>=         133136.1115
 Charge=             -0.0000 electrons
 Dipole moment (field-independent basis, Debye):
    X=              4.7783    Y=             -0.1495    Z=             -5.6202  Tot=              7.3785
 Quadrupole moment (field-independent basis, Debye-Ang):
   XX=            104.5188   YY=            -70.4929   ZZ=           -117.0767
   XY=             34.9779   XZ=            -80.4874   YZ=            -47.4154
 Traceless Quadrupole moment (field-independent basis, Debye-Ang):
   XX=            132.2024   YY=            -42.8093   ZZ=            -89.3931
   XY=             34.9779   XZ=            -80.4874   YZ=            -47.4154
 Octapole moment (field-independent basis, Debye-Ang**2):
  XXX=           1337.8509  YYY=          -2046.3787  ZZZ=          -1226.2897  XYY=           -867.0976
  XXY=            630.7257  XXZ=          -1383.2240  XZZ=          -1833.5044  YZZ=          -1089.8951
  YYZ=           -661.5580  XYZ=           -693.6517
 Hexadecapole moment (field-independent basis, Debye-Ang**3):
 XXXX=           1794.7400 YYYY=         -40480.1639 ZZZZ=         -11169.1870 XXXY=           2713.5997
 XXXZ=         -27442.3124 YYYX=         -31147.6981 YYYZ=         -11261.5848 ZZZX=         -18918.5221
 ZZZY=         -11833.6542 XXYY=         -15731.3257 XXZZ=         -30400.4527 YYZZ=         -11487.2898
 XXYZ=         -12643.1247 YYXZ=         -10107.5578 ZZXY=         -17082.0750
 N-N= 7.516934165193D+02 E-N=-3.739133278096D+03  KE= 9.438178390675D+02
 No NMR shielding tensors so no spin-rotation constants.
 Leave Link  601 at Thu Dec 15 14:34:31 2022, MaxMem=  1342177280 cpu:               1.5 elap:               0.1
 (Enter /data0/home/software/g16/l122.exe)
 CPIOFr:  IOpCl= 0 IRwI=-1 IRwCP=  731 ICalc= -1 LCPTot=      198987 Len1MO=      522907 IndFrg=      198987
 CPIOFr:  IOpCl= 0 IRwI=-1 IRwCP=  731 ICalc=  0 LCPTot=      198987 Len1MO=      522907 IndFrg=      721894
 Counterpoise: doing calculation for fragment   1 using the basis set of the full-system, NewBq=T
 Leave Link  122 at Thu Dec 15 14:34:31 2022, MaxMem=  1342177280 cpu:               0.1 elap:               0.0
 (Enter /data0/home/software/g16/l301.exe)
 Basis read from rwf:  (5D, 7F)
 No pseudopotential information found on rwf file.
   359 basis functions,   548 primitive gaussians,   381 cartesian basis functions
    18 alpha electrons       18 beta electrons
       nuclear repulsion energy       161.0498956694 Hartrees.
 IExCor= 4336 DFT=T Ex+Corr=M062X ExCW=0 ScaHFX=  0.540000
 ScaDFX=  1.000000  1.000000  1.000000  1.000000 ScalE2=  1.000000  1.000000
 IRadAn=      5 IRanWt=     -1 IRanGd=            0 ICorTp=0 IEmpDi=131
 NAtoms=   20 NActive=   20 NUniq=   20 SFac= 1.00D+00 NAtFMM=   60 NAOKFM=F Big=F
 Integral buffers will be    131072 words long.
 Raffenetti 2 integral format.
 Two-electron integral symmetry is turned off.
 R6Disp:  Grimme-D3 Dispersion energy=       -0.0000417151 Hartrees.
 Nuclear repulsion after empirical dispersion term =      161.0498539542 Hartrees.
 No density basis found on file   718.
 Leave Link  301 at Thu Dec 15 14:34:31 2022, MaxMem=  1342177280 cpu:               0.8 elap:               0.1
 (Enter /data0/home/software/g16/l302.exe)
 NPDir=0 NMtPBC=     1 NCelOv=     1 NCel=       1 NClECP=     1 NCelD=      1
         NCelK=      1 NCelE2=     1 NClLst=     1 CellRange=     0.0.
 One-electron integrals computed using PRISM.
 NBasis=   359 RedAO= T EigKep=  1.88D-05  NBF=   359
 NBsUse=   359 1.00D-06 EigRej= -1.00D+00 NBFU=   359
 Precomputing XC quadrature grid using
 IXCGrd= 4 IRadAn=           5 IRanWt=          -1 IRanGd=           0 AccXCQ= 0.00D+00.
 Generated NRdTot=       0 NPtTot=           0 NUsed=           0 NTot=          32
 NSgBfM=   380   380   380   380   380 MxSgAt=    20 MxSgA2=    20.
 Leave Link  302 at Thu Dec 15 14:34:31 2022, MaxMem=  1342177280 cpu:               3.7 elap:               0.2
 (Enter /data0/home/software/g16/l303.exe)
 DipDrv:  MaxL=1.
 Leave Link  303 at Thu Dec 15 14:34:31 2022, MaxMem=  1342177280 cpu:               0.5 elap:               0.0
 (Enter /data0/home/software/g16/l401.exe)
 ExpMin= 3.48D-02 ExpMax= 7.75D+04 ExpMxC= 2.65D+03 IAcc=3 IRadAn=         5 AccDes= 0.00D+00
 Harris functional with IExCor= 1009 and IRadAn=       5 diagonalized for initial guess.
 HarFok:  IExCor= 1009 AccDes= 0.00D+00 IRadAn=         5 IDoV= 1 UseB2=F ITyADJ=14
 ICtDFT=  3500011 ScaDFX=  1.000000  1.000000  1.000000  1.000000
 FoFCou: FMM=F IPFlag=           0 FMFlag=      100000 FMFlg1=           0
         NFxFlg=           0 DoJE=T BraDBF=F KetDBF=T FulRan=T
         wScrn=  0.000000 ICntrl=       500 IOpCl=  0 I1Cent=   200000004 NGrid=           0
         NMat0=    1 NMatS0=      1 NMatT0=    0 NMatD0=    1 NMtDS0=    0 NMtDT0=    0
 Symmetry not used in FoFCou.
 Harris En= -226.053553252365    
 JPrj=0 DoOrth=F DoCkMO=F.
 Leave Link  401 at Thu Dec 15 14:34:32 2022, MaxMem=  1342177280 cpu:              13.7 elap:               0.9
 (Enter /data0/home/software/g16/l502.exe)
 Two-electron integral symmetry not used.
 Closed shell SCF:
 Using DIIS extrapolation, IDIIS=  1040.
 NGot=  1342177280 LenX=  1341878165 LenY=  1341732563
 Requested convergence on RMS density matrix=1.00D-08 within 128 cycles.
 Requested convergence on MAX density matrix=1.00D-06.
 Requested convergence on             energy=1.00D-06.
 No special actions if energy rises.
 Fock matrices will be formed incrementally for  20 cycles.

 Cycle   1  Pass 1  IDiag  1:
 FoFJK:  IHMeth= 1 ICntrl=       0 DoSepK=F KAlg= 0 I1Cent=           0 FoldK=F
 IRaf= 840000000 NMat=       1 IRICut=       1 DoRegI=T DoRafI=F ISym2E= 0 IDoP0=0 IntGTp=1.
 FoFCou: FMM=F IPFlag=           0 FMFlag=      100000 FMFlg1=           0
         NFxFlg=           0 DoJE=F BraDBF=F KetDBF=F FulRan=T
         wScrn=  0.000000 ICntrl=         0 IOpCl=  0 I1Cent=           0 NGrid=           0
         NMat0=    1 NMatS0=      1 NMatT0=    0 NMatD0=    1 NMtDS0=    0 NMtDT0=    0
 Symmetry not used in FoFCou.
 E= -226.088044095084    
 DIIS: error= 2.00D-02 at cycle   1 NSaved=   1.
 NSaved= 1 IEnMin= 1 EnMin= -226.088044095084     IErMin= 1 ErrMin= 2.00D-02
 ErrMax= 2.00D-02  0.00D+00 EMaxC= 1.00D-01 BMatC= 1.33D-01 BMatP= 1.33D-01
 IDIUse=3 WtCom= 8.00D-01 WtEn= 2.00D-01
 Coeff-Com:  0.100D+01
 Coeff-En:   0.100D+01
 Coeff:      0.100D+01
 Gap=     0.312 Goal=   None    Shift=    0.000
 GapD=    0.312 DampG=1.000 DampE=0.500 DampFc=0.5000 IDamp=-1.
 Damping current iteration by 5.00D-01
 RMSDP=2.09D-03 MaxDP=1.69D-01              OVMax= 1.72D-01

 Cycle   2  Pass 1  IDiag  1:
 RMSU=  1.05D-03    CP:  1.01D+00
 E= -226.135107140602     Delta-E=       -0.047063045518 Rises=F Damp=T
 DIIS: error= 5.65D-03 at cycle   2 NSaved=   2.
 NSaved= 2 IEnMin= 2 EnMin= -226.135107140602     IErMin= 2 ErrMin= 5.65D-03
 ErrMax= 5.65D-03  0.00D+00 EMaxC= 1.00D-01 BMatC= 1.57D-02 BMatP= 1.33D-01
 IDIUse=3 WtCom= 9.44D-01 WtEn= 5.65D-02
 Coeff-Com: -0.992D-01 0.110D+01
 Coeff-En:   0.000D+00 0.100D+01
 Coeff:     -0.936D-01 0.109D+01
 Gap=     0.292 Goal=   None    Shift=    0.000
 RMSDP=6.30D-04 MaxDP=3.85D-02 DE=-4.71D-02 OVMax= 1.14D-01

 Cycle   3  Pass 1  IDiag  1:
 RMSU=  5.82D-04    CP:  9.91D-01  7.87D-01
 E= -226.179427808664     Delta-E=       -0.044320668062 Rises=F Damp=F
 DIIS: error= 7.23D-03 at cycle   3 NSaved=   3.
 NSaved= 3 IEnMin= 3 EnMin= -226.179427808664     IErMin= 2 ErrMin= 5.65D-03
 ErrMax= 7.23D-03  0.00D+00 EMaxC= 1.00D-01 BMatC= 1.02D-02 BMatP= 1.57D-02
 IDIUse=3 WtCom= 9.28D-01 WtEn= 7.23D-02
 Coeff-Com: -0.154D+00 0.543D+00 0.611D+00
 Coeff-En:   0.000D+00 0.000D+00 0.100D+01
 Coeff:     -0.143D+00 0.504D+00 0.639D+00
 Gap=     0.295 Goal=   None    Shift=    0.000
 RMSDP=2.51D-04 MaxDP=1.43D-02 DE=-4.43D-02 OVMax= 4.40D-02

 Cycle   4  Pass 1  IDiag  1:
 RMSU=  2.25D-04    CP:  9.89D-01  8.57D-01  8.57D-01
 E= -226.187083818631     Delta-E=       -0.007656009966 Rises=F Damp=F
 DIIS: error= 2.41D-03 at cycle   4 NSaved=   4.
 NSaved= 4 IEnMin= 4 EnMin= -226.187083818631     IErMin= 4 ErrMin= 2.41D-03
 ErrMax= 2.41D-03  0.00D+00 EMaxC= 1.00D-01 BMatC= 1.50D-03 BMatP= 1.02D-02
 IDIUse=3 WtCom= 9.76D-01 WtEn= 2.41D-02
 Coeff-Com: -0.640D-01 0.159D+00 0.342D+00 0.563D+00
 Coeff-En:   0.000D+00 0.000D+00 0.932D-01 0.907D+00
 Coeff:     -0.625D-01 0.155D+00 0.336D+00 0.572D+00
 Gap=     0.289 Goal=   None    Shift=    0.000
 RMSDP=9.17D-05 MaxDP=4.33D-03 DE=-7.66D-03 OVMax= 1.15D-02

 Cycle   5  Pass 1  IDiag  1:
 RMSU=  6.04D-05    CP:  9.85D-01  8.17D-01  9.15D-01  8.30D-01
 E= -226.188357562439     Delta-E=       -0.001273743808 Rises=F Damp=F
 DIIS: error= 4.43D-04 at cycle   5 NSaved=   5.
 NSaved= 5 IEnMin= 5 EnMin= -226.188357562439     IErMin= 5 ErrMin= 4.43D-04
 ErrMax= 4.43D-04  0.00D+00 EMaxC= 1.00D-01 BMatC= 2.74D-05 BMatP= 1.50D-03
 IDIUse=3 WtCom= 9.96D-01 WtEn= 4.43D-03
 Coeff-Com: -0.152D-01 0.305D-01 0.856D-01 0.201D+00 0.698D+00
 Coeff-En:   0.000D+00 0.000D+00 0.000D+00 0.000D+00 0.100D+01
 Coeff:     -0.151D-01 0.303D-01 0.852D-01 0.200D+00 0.699D+00
 Gap=     0.289 Goal=   None    Shift=    0.000
 RMSDP=1.40D-05 MaxDP=8.26D-04 DE=-1.27D-03 OVMax= 2.25D-03

 Cycle   6  Pass 1  IDiag  1:
 RMSU=  1.22D-05    CP:  9.86D-01  8.18D-01  9.18D-01  8.37D-01  8.99D-01
 E= -226.188379079517     Delta-E=       -0.000021517078 Rises=F Damp=F
 DIIS: error= 1.66D-04 at cycle   6 NSaved=   6.
 NSaved= 6 IEnMin= 6 EnMin= -226.188379079517     IErMin= 6 ErrMin= 1.66D-04
 ErrMax= 1.66D-04  0.00D+00 EMaxC= 1.00D-01 BMatC= 4.35D-06 BMatP= 2.74D-05
 IDIUse=3 WtCom= 9.98D-01 WtEn= 1.66D-03
 Coeff-Com: -0.399D-02 0.608D-02 0.237D-01 0.654D-01 0.348D+00 0.561D+00
 Coeff-En:   0.000D+00 0.000D+00 0.000D+00 0.000D+00 0.150D-01 0.985D+00
 Coeff:     -0.398D-02 0.607D-02 0.236D-01 0.652D-01 0.348D+00 0.561D+00
 Gap=     0.289 Goal=   None    Shift=    0.000
 RMSDP=6.11D-06 MaxDP=3.53D-04 DE=-2.15D-05 OVMax= 9.30D-04

 Cycle   7  Pass 1  IDiag  1:
 RMSU=  4.60D-06    CP:  9.86D-01  8.15D-01  9.21D-01  8.39D-01  9.27D-01
                    CP:  9.34D-01
 E= -226.188383114509     Delta-E=       -0.000004034992 Rises=F Damp=F
 DIIS: error= 2.27D-05 at cycle   7 NSaved=   7.
 NSaved= 7 IEnMin= 7 EnMin= -226.188383114509     IErMin= 7 ErrMin= 2.27D-05
 ErrMax= 2.27D-05  0.00D+00 EMaxC= 1.00D-01 BMatC= 1.46D-07 BMatP= 4.35D-06
 IDIUse=1 WtCom= 1.00D+00 WtEn= 0.00D+00
 Coeff-Com:  0.183D-02-0.388D-02-0.847D-02-0.219D-01-0.524D-01 0.775D-01
 Coeff-Com:  0.101D+01
 Coeff:      0.183D-02-0.388D-02-0.847D-02-0.219D-01-0.524D-01 0.775D-01
 Coeff:      0.101D+01
 Gap=     0.289 Goal=   None    Shift=    0.000
 RMSDP=3.29D-06 MaxDP=2.10D-04 DE=-4.03D-06 OVMax= 2.29D-04

 Cycle   8  Pass 1  IDiag  1:
 RMSU=  1.12D-06    CP:  9.86D-01  8.13D-01  9.23D-01  8.39D-01  9.40D-01
                    CP:  1.07D+00  1.16D+00
 E= -226.188383325445     Delta-E=       -0.000000210935 Rises=F Damp=F
 DIIS: error= 9.04D-06 at cycle   8 NSaved=   8.
 NSaved= 8 IEnMin= 8 EnMin= -226.188383325445     IErMin= 8 ErrMin= 9.04D-06
 ErrMax= 9.04D-06  0.00D+00 EMaxC= 1.00D-01 BMatC= 1.34D-08 BMatP= 1.46D-07
 IDIUse=1 WtCom= 1.00D+00 WtEn= 0.00D+00
 Coeff-Com:  0.732D-03-0.149D-02-0.324D-02-0.926D-02-0.260D-01 0.125D-01
 Coeff-Com:  0.354D+00 0.673D+00
 Coeff:      0.732D-03-0.149D-02-0.324D-02-0.926D-02-0.260D-01 0.125D-01
 Coeff:      0.354D+00 0.673D+00
 Gap=     0.289 Goal=   None    Shift=    0.000
 RMSDP=4.72D-07 MaxDP=2.61D-05 DE=-2.11D-07 OVMax= 5.50D-05

 Cycle   9  Pass 1  IDiag  1:
 RMSU=  3.19D-07    CP:  9.86D-01  8.13D-01  9.23D-01  8.38D-01  9.39D-01
                    CP:  1.07D+00  1.21D+00  1.11D+00
 E= -226.188383337905     Delta-E=       -0.000000012460 Rises=F Damp=F
 DIIS: error= 4.10D-06 at cycle   9 NSaved=   9.
 NSaved= 9 IEnMin= 9 EnMin= -226.188383337905     IErMin= 9 ErrMin= 4.10D-06
 ErrMax= 4.10D-06  0.00D+00 EMaxC= 1.00D-01 BMatC= 2.92D-09 BMatP= 1.34D-08
 IDIUse=1 WtCom= 1.00D+00 WtEn= 0.00D+00
 Coeff-Com: -0.105D-03 0.232D-03 0.687D-03 0.999D-03 0.918D-03-0.128D-01
 Coeff-Com: -0.851D-01 0.295D+00 0.800D+00
 Coeff:     -0.105D-03 0.232D-03 0.687D-03 0.999D-03 0.918D-03-0.128D-01
 Coeff:     -0.851D-01 0.295D+00 0.800D+00
 Gap=     0.289 Goal=   None    Shift=    0.000
 RMSDP=2.86D-07 MaxDP=2.40D-05 DE=-1.25D-08 OVMax= 2.14D-05

 Cycle  10  Pass 1  IDiag  1:
 RMSU=  1.03D-07    CP:  9.86D-01  8.13D-01  9.23D-01  8.37D-01  9.38D-01
                    CP:  1.07D+00  1.22D+00  1.26D+00  1.03D+00
 E= -226.188383340888     Delta-E=       -0.000000002983 Rises=F Damp=F
 DIIS: error= 3.79D-07 at cycle  10 NSaved=  10.
 NSaved=10 IEnMin=10 EnMin= -226.188383340888     IErMin=10 ErrMin= 3.79D-07
 ErrMax= 3.79D-07  0.00D+00 EMaxC= 1.00D-01 BMatC= 6.31D-11 BMatP= 2.92D-09
 IDIUse=1 WtCom= 1.00D+00 WtEn= 0.00D+00
 Coeff-Com: -0.467D-04 0.101D-03 0.276D-03 0.534D-03 0.127D-02-0.179D-02
 Coeff-Com: -0.297D-01 0.174D-01 0.102D+00 0.910D+00
 Coeff:     -0.467D-04 0.101D-03 0.276D-03 0.534D-03 0.127D-02-0.179D-02
 Coeff:     -0.297D-01 0.174D-01 0.102D+00 0.910D+00
 Gap=     0.289 Goal=   None    Shift=    0.000
 RMSDP=4.80D-08 MaxDP=3.70D-06 DE=-2.98D-09 OVMax= 4.47D-06

 Cycle  11  Pass 1  IDiag  1:
 RMSU=  2.20D-08    CP:  9.86D-01  8.13D-01  9.23D-01  8.37D-01  9.38D-01
                    CP:  1.07D+00  1.22D+00  1.27D+00  1.08D+00  1.11D+00
 E= -226.188383340952     Delta-E=       -0.000000000064 Rises=F Damp=F
 DIIS: error= 4.05D-07 at cycle  11 NSaved=  11.
 NSaved=11 IEnMin=11 EnMin= -226.188383340952     IErMin=10 ErrMin= 3.79D-07
 ErrMax= 4.05D-07  0.00D+00 EMaxC= 1.00D-01 BMatC= 1.57D-11 BMatP= 6.31D-11
 IDIUse=1 WtCom= 1.00D+00 WtEn= 0.00D+00
 Coeff-Com: -0.682D-05 0.143D-04 0.478D-04 0.951D-04 0.339D-03 0.456D-03
 Coeff-Com: -0.453D-02-0.160D-01-0.306D-01 0.393D+00 0.657D+00
 Coeff:     -0.682D-05 0.143D-04 0.478D-04 0.951D-04 0.339D-03 0.456D-03
 Coeff:     -0.453D-02-0.160D-01-0.306D-01 0.393D+00 0.657D+00
 Gap=     0.289 Goal=   None    Shift=    0.000
 RMSDP=1.17D-08 MaxDP=6.94D-07 DE=-6.41D-11 OVMax= 1.88D-06

 Cycle  12  Pass 1  IDiag  1:
 RMSU=  8.94D-09    CP:  9.86D-01  8.13D-01  9.23D-01  8.37D-01  9.38D-01
                    CP:  1.07D+00  1.22D+00  1.28D+00  1.08D+00  1.15D+00
                    CP:  9.16D-01
 E= -226.188383340965     Delta-E=       -0.000000000013 Rises=F Damp=F
 DIIS: error= 7.18D-08 at cycle  12 NSaved=  12.
 NSaved=12 IEnMin=12 EnMin= -226.188383340965     IErMin=12 ErrMin= 7.18D-08
 ErrMax= 7.18D-08  0.00D+00 EMaxC= 1.00D-01 BMatC= 1.66D-12 BMatP= 1.57D-11
 IDIUse=1 WtCom= 1.00D+00 WtEn= 0.00D+00
 Coeff-Com:  0.350D-05-0.752D-05-0.148D-04-0.305D-04-0.213D-04 0.429D-03
 Coeff-Com:  0.203D-02-0.652D-02-0.259D-01-0.103D-02 0.250D+00 0.781D+00
 Coeff:      0.350D-05-0.752D-05-0.148D-04-0.305D-04-0.213D-04 0.429D-03
 Coeff:      0.203D-02-0.652D-02-0.259D-01-0.103D-02 0.250D+00 0.781D+00
 Gap=     0.289 Goal=   None    Shift=    0.000
 RMSDP=4.17D-09 MaxDP=2.08D-07 DE=-1.28D-11 OVMax= 4.01D-07

 SCF Done:  E(RM062X) =  -226.188383341     A.U. after   12 cycles
            NFock= 12  Conv=0.42D-08     -V/T= 2.0051
 KE= 2.250316265849D+02 PE=-8.485628564743D+02 EE= 2.362929925942D+02
 Leave Link  502 at Thu Dec 15 14:35:05 2022, MaxMem=  1342177280 cpu:             528.3 elap:              33.1
 (Enter /data0/home/software/g16/l601.exe)
 Copying SCF densities to generalized density rwf, IOpCl= 0 IROHF=0.

 **********************************************************************

            Population analysis using the SCF density.

 **********************************************************************

 Alpha  occ. eigenvalues --  -14.81264 -14.73485 -10.60472 -10.57751 -10.55885
 Alpha  occ. eigenvalues --   -1.11673  -0.97066  -0.83759  -0.70494  -0.66898
 Alpha  occ. eigenvalues --   -0.64338  -0.51428  -0.50558  -0.50208  -0.48038
 Alpha  occ. eigenvalues --   -0.34453  -0.34101  -0.28574
 Alpha virt. eigenvalues --    0.00367   0.02408   0.02649   0.03436   0.04681
 Alpha virt. eigenvalues --    0.04821   0.05003   0.06377   0.07458   0.07653
 Alpha virt. eigenvalues --    0.08025   0.08493   0.09972   0.10087   0.12444
 Alpha virt. eigenvalues --    0.13005   0.13493   0.14351   0.14748   0.15011
 Alpha virt. eigenvalues --    0.16859   0.18553   0.18862   0.19481   0.20038
 Alpha virt. eigenvalues --    0.20779   0.20882   0.21646   0.21778   0.22379
 Alpha virt. eigenvalues --    0.23176   0.23629   0.24745   0.25046   0.25887
 Alpha virt. eigenvalues --    0.26122   0.26862   0.27530   0.27898   0.28959
 Alpha virt. eigenvalues --    0.29423   0.29910   0.31618   0.31867   0.32858
 Alpha virt. eigenvalues --    0.33204   0.33625   0.34616   0.36451   0.37187
 Alpha virt. eigenvalues --    0.38045   0.39491   0.39780   0.40781   0.41390
 Alpha virt. eigenvalues --    0.41547   0.43454   0.44195   0.45615   0.46113
 Alpha virt. eigenvalues --    0.48222   0.48948   0.49996   0.50579   0.51260
 Alpha virt. eigenvalues --    0.55966   0.58391   0.58961   0.60563   0.61951
 Alpha virt. eigenvalues --    0.64041   0.65053   0.67866   0.68876   0.70089
 Alpha virt. eigenvalues --    0.71970   0.72434   0.73496   0.74316   0.76108
 Alpha virt. eigenvalues --    0.76406   0.77015   0.78051   0.78259   0.79126
 Alpha virt. eigenvalues --    0.80162   0.80844   0.81708   0.82217   0.83630
 Alpha virt. eigenvalues --    0.85045   0.86160   0.86504   0.87914   0.89094
 Alpha virt. eigenvalues --    0.89572   0.90392   0.91849   0.92159   0.93070
 Alpha virt. eigenvalues --    0.95315   0.95765   0.97130   0.98531   0.99320
 Alpha virt. eigenvalues --    0.99871   1.01666   1.02486   1.04728   1.05521
 Alpha virt. eigenvalues --    1.05818   1.08579   1.10185   1.11904   1.13688
 Alpha virt. eigenvalues --    1.17410   1.18022   1.18842   1.21541   1.22678
 Alpha virt. eigenvalues --    1.25088   1.27615   1.29372   1.29749   1.31159
 Alpha virt. eigenvalues --    1.32127   1.33070   1.36507   1.39371   1.39928
 Alpha virt. eigenvalues --    1.41470   1.43132   1.44773   1.45714   1.47504
 Alpha virt. eigenvalues --    1.48149   1.51021   1.52050   1.53744   1.61457
 Alpha virt. eigenvalues --    1.68844   1.69988   1.73391   1.73883   1.79443
 Alpha virt. eigenvalues --    1.83967   1.88283   1.89870   1.92040   1.93823
 Alpha virt. eigenvalues --    1.96286   1.97497   1.99761   2.02187   2.04302
 Alpha virt. eigenvalues --    2.05049   2.07476   2.11282   2.14773   2.15188
 Alpha virt. eigenvalues --    2.22705   2.23992   2.25013   2.27623   2.29224
 Alpha virt. eigenvalues --    2.32456   2.32763   2.38030   2.40268   2.42005
 Alpha virt. eigenvalues --    2.43086   2.44713   2.46286   2.49913   2.50780
 Alpha virt. eigenvalues --    2.53023   2.56060   2.57666   2.59017   2.62117
 Alpha virt. eigenvalues --    2.64039   2.65054   2.65524   2.66201   2.69064
 Alpha virt. eigenvalues --    2.71506   2.72089   2.73744   2.74410   2.76052
 Alpha virt. eigenvalues --    2.77327   2.78669   2.79871   2.80944   2.82224
 Alpha virt. eigenvalues --    2.82941   2.84513   2.85267   2.85949   2.88451
 Alpha virt. eigenvalues --    2.88831   2.90113   2.91842   2.94923   2.96728
 Alpha virt. eigenvalues --    2.97612   3.00272   3.01340   3.04243   3.06044
 Alpha virt. eigenvalues --    3.07286   3.09428   3.11354   3.11834   3.14354
 Alpha virt. eigenvalues --    3.16244   3.16980   3.19341   3.24263   3.26071
 Alpha virt. eigenvalues --    3.26927   3.27496   3.29176   3.31878   3.32591
 Alpha virt. eigenvalues --    3.35711   3.36440   3.38979   3.39163   3.41039
 Alpha virt. eigenvalues --    3.43435   3.43593   3.47301   3.49094   3.53897
 Alpha virt. eigenvalues --    3.57643   3.59071   3.64090   3.68129   3.68951
 Alpha virt. eigenvalues --    3.71701   3.74965   3.76044   3.77104   3.84603
 Alpha virt. eigenvalues --    3.87886   3.94955   3.96944   4.00254   4.02342
 Alpha virt. eigenvalues --    4.04906   4.45480   4.46342   4.50035   4.51257
 Alpha virt. eigenvalues --    4.62752   4.67308   4.71103   4.73370   4.84548
 Alpha virt. eigenvalues --    4.89266   4.93066   4.96842   4.97145   4.99108
 Alpha virt. eigenvalues --    5.01883   5.02455   5.03045   5.04949   5.20037
 Alpha virt. eigenvalues --    5.23415   5.28095   5.29953   5.37744   5.51731
 Alpha virt. eigenvalues --    5.60056   5.63879   9.72496   9.81119   9.84648
 Alpha virt. eigenvalues --    9.95908  10.05706  10.09462  10.13468  10.14420
 Alpha virt. eigenvalues --   10.18893  10.19718  10.21874  10.25704  10.26541
 Alpha virt. eigenvalues --   10.28231  10.32765  10.35316  10.38447  10.40300
 Alpha virt. eigenvalues --   10.40910  10.42188  10.43843  10.45563  10.56732
 Alpha virt. eigenvalues --   10.57469  10.64074  10.69141  10.77324  10.83825
 Alpha virt. eigenvalues --   12.69135  12.82516  13.17617  13.20979  13.31119
 Alpha virt. eigenvalues --   13.42339  13.42727  13.46180  13.47284  13.58574
 Alpha virt. eigenvalues --   13.70504  13.75860  13.83415  13.95895  14.09271
 Alpha virt. eigenvalues --   14.30694  17.49361  18.16039  18.46484  18.47643
 Alpha virt. eigenvalues --   18.50792  23.92242  24.10361  24.14433  35.68515
 Alpha virt. eigenvalues --   35.71276  52.19902  52.23597  52.35241  69.74447
 Alpha virt. eigenvalues --  129.74255 136.78916 139.61215 139.68308 139.73741
 Alpha virt. eigenvalues --  475.73970
          Condensed to atoms (all electrons):
               1          2          3          4          5          6
     1  C    5.658396   0.179445  -0.186747   0.451141  -0.043341   0.366494
     2  C    0.179445   5.144428  -0.067490  -0.218975   0.016906   0.010610
     3  C   -0.186747  -0.067490   5.016238   0.325097  -0.018249   0.009336
     4  N    0.451141  -0.218975   0.325097   6.352370   0.372888  -0.032028
     5  H   -0.043341   0.016906  -0.018249   0.372888   0.401470  -0.002325
     6  H    0.366494   0.010610   0.009336  -0.032028  -0.002325   0.505412
     7  H   -0.064666   0.429354   0.017331   0.006042  -0.000061   0.000158
     8  H   -0.006522   0.022859   0.436048  -0.052231   0.000141  -0.000030
     9  N   -0.007236   0.317808   0.392475   0.031537   0.002918   0.003949
    10  P   -0.005282   0.001292   0.000416   0.000088  -0.000016   0.000031
    11  O   -0.000065   0.000251  -0.000004  -0.000048   0.000000   0.000001
    12  O    0.000201   0.000542  -0.000761   0.000031  -0.000004   0.000009
    13  H   -0.000070   0.000342  -0.000038  -0.000003  -0.000000   0.000001
    14  O   -0.000024   0.000245  -0.000104   0.000005  -0.000000  -0.000000
    15  H    0.000015  -0.000032   0.000009   0.000000   0.000000  -0.000000
    16  O    0.001687  -0.001451  -0.002953   0.000751  -0.000031  -0.000009
    17  H   -0.003269   0.006407   0.007227  -0.002002   0.000074   0.000032
    18  O   -0.000051  -0.000030   0.000001   0.000001   0.000000   0.000000
    19  H    0.000019  -0.000014   0.000001   0.000000  -0.000000  -0.000000
    20  H    0.000001  -0.000003  -0.000000   0.000000  -0.000000  -0.000000
               7          8          9         10         11         12
     1  C   -0.064666  -0.006522  -0.007236  -0.005282  -0.000065   0.000201
     2  C    0.429354   0.022859   0.317808   0.001292   0.000251   0.000542
     3  C    0.017331   0.436048   0.392475   0.000416  -0.000004  -0.000761
     4  N    0.006042  -0.052231   0.031537   0.000088  -0.000048   0.000031
     5  H   -0.000061   0.000141   0.002918  -0.000016   0.000000  -0.000004
     6  H    0.000158  -0.000030   0.003949   0.000031   0.000001   0.000009
     7  H    0.524309  -0.000022  -0.050142   0.001057   0.000019  -0.001006
     8  H   -0.000022   0.502046  -0.046965   0.000090   0.000010  -0.000019
     9  N   -0.050142  -0.046965   6.782256  -0.007924  -0.003195   0.004712
    10  P    0.001057   0.000090  -0.007924   0.010469  -0.002408  -0.002202
    11  O    0.000019   0.000010  -0.003195  -0.002408   0.006884   0.000161
    12  O   -0.001006  -0.000019   0.004712  -0.002202   0.000161   0.002885
    13  H    0.000733   0.000000  -0.000009   0.000103  -0.000877  -0.001659
    14  O    0.000048  -0.000002   0.000640  -0.002423  -0.002384   0.000216
    15  H   -0.000005   0.000000  -0.000000   0.000005   0.000030  -0.000030
    16  O   -0.000365  -0.000157   0.045128  -0.004197  -0.003197   0.001944
    17  H    0.000897   0.000051  -0.085345   0.002504   0.001950  -0.001396
    18  O   -0.000034   0.000000  -0.000039  -0.000080   0.000204   0.000313
    19  H   -0.000003  -0.000000   0.000025   0.000026  -0.000109  -0.000093
    20  H    0.000002   0.000000   0.000002   0.000001  -0.000018  -0.000051
              13         14         15         16         17         18
     1  C   -0.000070  -0.000024   0.000015   0.001687  -0.003269  -0.000051
     2  C    0.000342   0.000245  -0.000032  -0.001451   0.006407  -0.000030
     3  C   -0.000038  -0.000104   0.000009  -0.002953   0.007227   0.000001
     4  N   -0.000003   0.000005   0.000000   0.000751  -0.002002   0.000001
     5  H   -0.000000  -0.000000   0.000000  -0.000031   0.000074   0.000000
     6  H    0.000001  -0.000000  -0.000000  -0.000009   0.000032   0.000000
     7  H    0.000733   0.000048  -0.000005  -0.000365   0.000897  -0.000034
     8  H    0.000000  -0.000002   0.000000  -0.000157   0.000051   0.000000
     9  N   -0.000009   0.000640  -0.000000   0.045128  -0.085345  -0.000039
    10  P    0.000103  -0.002423   0.000005  -0.004197   0.002504  -0.000080
    11  O   -0.000877  -0.002384   0.000030  -0.003197   0.001950   0.000204
    12  O   -0.001659   0.000216  -0.000030   0.001944  -0.001396   0.000313
    13  H    0.001921   0.000432  -0.000000   0.000133  -0.000035  -0.000385
    14  O    0.000432   0.003337  -0.000080   0.001822  -0.000794  -0.000035
    15  H   -0.000000  -0.000080   0.000075  -0.000088   0.000053   0.000000
    16  O    0.000133   0.001822  -0.000088   0.013342  -0.012768  -0.000027
    17  H   -0.000035  -0.000794   0.000053  -0.012768   0.016063   0.000012
    18  O   -0.000385  -0.000035   0.000000  -0.000027   0.000012   0.000260
    19  H    0.000120   0.000010  -0.000000   0.000016  -0.000008  -0.000120
    20  H    0.000075   0.000001  -0.000000   0.000001  -0.000000  -0.000078
              19         20
     1  C    0.000019   0.000001
     2  C   -0.000014  -0.000003
     3  C    0.000001  -0.000000
     4  N    0.000000   0.000000
     5  H   -0.000000  -0.000000
     6  H   -0.000000  -0.000000
     7  H   -0.000003   0.000002
     8  H   -0.000000   0.000000
     9  N    0.000025   0.000002
    10  P    0.000026   0.000001
    11  O   -0.000109  -0.000018
    12  O   -0.000093  -0.000051
    13  H    0.000120   0.000075
    14  O    0.000010   0.000001
    15  H   -0.000000  -0.000000
    16  O    0.000016   0.000001
    17  H   -0.000008  -0.000000
    18  O   -0.000120  -0.000078
    19  H    0.000089   0.000027
    20  H    0.000027   0.000040
 Mulliken charges:
               1
     1  C   -0.340124
     2  C    0.157504
     3  C    0.072167
     4  N   -0.234666
     5  H    0.269629
     6  H    0.138356
     7  H    0.136353
     8  H    0.144701
     9  N   -0.380594
    10  P    0.008451
    11  O    0.002796
    12  O   -0.003793
    13  H   -0.000782
    14  O   -0.000910
    15  H    0.000048
    16  O   -0.039583
    17  H    0.070349
    18  O    0.000086
    19  H    0.000012
    20  H    0.000000
 Sum of Mulliken charges =  -0.00000
 Mulliken charges with hydrogens summed into heavy atoms:
               1
     1  C   -0.201768
     2  C    0.293857
     3  C    0.216868
     4  N    0.034963
     9  N   -0.380594
    10  P    0.008451
    11  O    0.002796
    12  O   -0.004575
    14  O   -0.000862
    16  O    0.030766
    18  O    0.000099
         Mulliken charges condensed to fragments:
      1     -0.036675
      2      0.036576
      3      0.000099
 Electronic spatial extent (au):  <R**2>=          56684.4926
 Charge=             -0.0000 electrons
 Dipole moment (field-independent basis, Debye):
    X=              2.3001    Y=             -0.9554    Z=             -2.7230  Tot=              3.6903
 Quadrupole moment (field-independent basis, Debye-Ang):
   XX=             59.6958   YY=            -47.1854   ZZ=            -42.1764
   XY=             -1.0683   XZ=            -44.4998   YZ=            -28.8368
 Traceless Quadrupole moment (field-independent basis, Debye-Ang):
   XX=             69.5845   YY=            -37.2967   ZZ=            -32.2877
   XY=             -1.0683   XZ=            -44.4998   YZ=            -28.8368
 Octapole moment (field-independent basis, Debye-Ang**2):
  XXX=            948.2233  YYY=          -1072.1701  ZZZ=           -264.3884  XYY=           -764.9309
  XXY=             47.9724  XXZ=           -776.9915  XZZ=           -760.4442  YZZ=           -406.4648
  YYZ=           -369.5047  XYZ=           -489.4254
 Hexadecapole moment (field-independent basis, Debye-Ang**3):
 XXXX=           5714.9702 YYYY=         -18560.0319 ZZZZ=          -1401.4287 XXXY=          -2302.3916
 XXXZ=         -14683.2661 YYYX=         -19252.0987 YYYZ=          -5013.1647 ZZZX=          -4809.7098
 ZZZY=          -2509.1972 XXYY=         -14439.1252 XXZZ=         -13902.9021 YYZZ=          -4114.4143
 XXYZ=          -8821.6889 YYXZ=          -6526.9814 ZZXY=          -7353.9489
 N-N= 1.610498539542D+02 E-N=-8.485628598770D+02  KE= 2.250316265849D+02
 No NMR shielding tensors so no spin-rotation constants.
 Leave Link  601 at Thu Dec 15 14:35:05 2022, MaxMem=  1342177280 cpu:               1.5 elap:               0.1
 (Enter /data0/home/software/g16/l122.exe)
 CPIOFr:  IOpCl= 0 IRwI=-1 IRwCP=  731 ICalc=  1 LCPTot=      198987 Len1MO=      522907 IndFrg=     1244801
 Counterpoise: doing calculation for fragment   2 using the basis set of the full-system, NewBq=T
 Leave Link  122 at Thu Dec 15 14:35:05 2022, MaxMem=  1342177280 cpu:               0.1 elap:               0.0
 (Enter /data0/home/software/g16/l301.exe)
 Basis read from rwf:  (5D, 7F)
 No pseudopotential information found on rwf file.
   359 basis functions,   548 primitive gaussians,   381 cartesian basis functions
    25 alpha electrons       25 beta electrons
       nuclear repulsion energy       280.1320296192 Hartrees.
 IExCor= 4336 DFT=T Ex+Corr=M062X ExCW=0 ScaHFX=  0.540000
 ScaDFX=  1.000000  1.000000  1.000000  1.000000 ScalE2=  1.000000  1.000000
 IRadAn=      5 IRanWt=     -1 IRanGd=            0 ICorTp=0 IEmpDi=131
 NAtoms=   20 NActive=   20 NUniq=   20 SFac= 1.00D+00 NAtFMM=   60 NAOKFM=F Big=F
 Integral buffers will be    131072 words long.
 Raffenetti 2 integral format.
 Two-electron integral symmetry is turned off.
 R6Disp:  Grimme-D3 Dispersion energy=       -0.0000436423 Hartrees.
 Nuclear repulsion after empirical dispersion term =      280.1319859769 Hartrees.
 No density basis found on file   718.
 Leave Link  301 at Thu Dec 15 14:35:05 2022, MaxMem=  1342177280 cpu:               0.8 elap:               0.1
 (Enter /data0/home/software/g16/l302.exe)
 NPDir=0 NMtPBC=     1 NCelOv=     1 NCel=       1 NClECP=     1 NCelD=      1
         NCelK=      1 NCelE2=     1 NClLst=     1 CellRange=     0.0.
 One-electron integrals computed using PRISM.
 NBasis=   359 RedAO= T EigKep=  1.88D-05  NBF=   359
 NBsUse=   359 1.00D-06 EigRej= -1.00D+00 NBFU=   359
 Precomputing XC quadrature grid using
 IXCGrd= 4 IRadAn=           5 IRanWt=          -1 IRanGd=           0 AccXCQ= 0.00D+00.
 Generated NRdTot=       0 NPtTot=           0 NUsed=           0 NTot=          32
 NSgBfM=   380   380   380   380   380 MxSgAt=    20 MxSgA2=    20.
 Leave Link  302 at Thu Dec 15 14:35:05 2022, MaxMem=  1342177280 cpu:               3.7 elap:               0.3
 (Enter /data0/home/software/g16/l303.exe)
 DipDrv:  MaxL=1.
 Leave Link  303 at Thu Dec 15 14:35:05 2022, MaxMem=  1342177280 cpu:               0.5 elap:               0.1
 (Enter /data0/home/software/g16/l401.exe)
 ExpMin= 3.48D-02 ExpMax= 7.75D+04 ExpMxC= 2.65D+03 IAcc=3 IRadAn=         5 AccDes= 0.00D+00
 Harris functional with IExCor= 1009 and IRadAn=       5 diagonalized for initial guess.
 HarFok:  IExCor= 1009 AccDes= 0.00D+00 IRadAn=         5 IDoV= 1 UseB2=F ITyADJ=14
 ICtDFT=  3500011 ScaDFX=  1.000000  1.000000  1.000000  1.000000
 FoFCou: FMM=F IPFlag=           0 FMFlag=      100000 FMFlg1=           0
         NFxFlg=           0 DoJE=T BraDBF=F KetDBF=T FulRan=T
         wScrn=  0.000000 ICntrl=       500 IOpCl=  0 I1Cent=   200000004 NGrid=           0
         NMat0=    1 NMatS0=      1 NMatT0=    0 NMatD0=    1 NMtDS0=    0 NMtDT0=    0
 Symmetry not used in FoFCou.
 Harris En= -643.944585700175    
 JPrj=0 DoOrth=F DoCkMO=F.
 Leave Link  401 at Thu Dec 15 14:35:06 2022, MaxMem=  1342177280 cpu:              13.9 elap:               0.9
 (Enter /data0/home/software/g16/l502.exe)
 Two-electron integral symmetry not used.
 Closed shell SCF:
 Using DIIS extrapolation, IDIIS=  1040.
 NGot=  1342177280 LenX=  1341878165 LenY=  1341732563
 Requested convergence on RMS density matrix=1.00D-08 within 128 cycles.
 Requested convergence on MAX density matrix=1.00D-06.
 Requested convergence on             energy=1.00D-06.
 No special actions if energy rises.
 Fock matrices will be formed incrementally for  20 cycles.

 Cycle   1  Pass 1  IDiag  1:
 FoFJK:  IHMeth= 1 ICntrl=       0 DoSepK=F KAlg= 0 I1Cent=           0 FoldK=F
 IRaf= 840000000 NMat=       1 IRICut=       1 DoRegI=T DoRafI=F ISym2E= 0 IDoP0=0 IntGTp=1.
 FoFCou: FMM=F IPFlag=           0 FMFlag=      100000 FMFlg1=           0
         NFxFlg=           0 DoJE=F BraDBF=F KetDBF=F FulRan=T
         wScrn=  0.000000 ICntrl=         0 IOpCl=  0 I1Cent=           0 NGrid=           0
         NMat0=    1 NMatS0=      1 NMatT0=    0 NMatD0=    1 NMtDS0=    0 NMtDT0=    0
 Symmetry not used in FoFCou.
 E= -643.869197157487    
 DIIS: error= 2.70D-02 at cycle   1 NSaved=   1.
 NSaved= 1 IEnMin= 1 EnMin= -643.869197157487     IErMin= 1 ErrMin= 2.70D-02
 ErrMax= 2.70D-02  0.00D+00 EMaxC= 1.00D-01 BMatC= 5.04D-01 BMatP= 5.04D-01
 IDIUse=3 WtCom= 7.30D-01 WtEn= 2.70D-01
 Coeff-Com:  0.100D+01
 Coeff-En:   0.100D+01
 Coeff:      0.100D+01
 Gap=     0.293 Goal=   None    Shift=    0.000
 GapD=    0.293 DampG=1.000 DampE=0.500 DampFc=0.5000 IDamp=-1.
 Damping current iteration by 5.00D-01
 RMSDP=3.91D-03 MaxDP=1.44D-01              OVMax= 2.48D-01

 Cycle   2  Pass 1  IDiag  1:
 RMSU=  1.95D-03    CP:  9.95D-01
 E= -643.985680188413     Delta-E=       -0.116483030926 Rises=F Damp=T
 DIIS: error= 5.35D-03 at cycle   2 NSaved=   2.
 NSaved= 2 IEnMin= 2 EnMin= -643.985680188413     IErMin= 2 ErrMin= 5.35D-03
 ErrMax= 5.35D-03  0.00D+00 EMaxC= 1.00D-01 BMatC= 2.62D-02 BMatP= 5.04D-01
 IDIUse=3 WtCom= 9.46D-01 WtEn= 5.35D-02
 Coeff-Com:  0.658D-01 0.934D+00
 Coeff-En:   0.193D+00 0.807D+00
 Coeff:      0.726D-01 0.927D+00
 Gap=     0.361 Goal=   None    Shift=    0.000
 RMSDP=1.10D-03 MaxDP=1.24D-01 DE=-1.16D-01 OVMax= 1.53D-01

 Cycle   3  Pass 1  IDiag  1:
 RMSU=  9.50D-04    CP:  9.55D-01  7.92D-01
 E= -644.146415513923     Delta-E=       -0.160735325511 Rises=F Damp=F
 DIIS: error= 4.36D-03 at cycle   3 NSaved=   3.
 NSaved= 3 IEnMin= 3 EnMin= -644.146415513923     IErMin= 3 ErrMin= 4.36D-03
 ErrMax= 4.36D-03  0.00D+00 EMaxC= 1.00D-01 BMatC= 1.01D-02 BMatP= 2.62D-02
 IDIUse=3 WtCom= 9.56D-01 WtEn= 4.36D-02
 Coeff-Com: -0.208D-01 0.341D+00 0.679D+00
 Coeff-En:   0.000D+00 0.000D+00 0.100D+01
 Coeff:     -0.199D-01 0.327D+00 0.693D+00
 Gap=     0.352 Goal=   None    Shift=    0.000
 RMSDP=3.47D-04 MaxDP=2.18D-02 DE=-1.61D-01 OVMax= 3.39D-02

 Cycle   4  Pass 1  IDiag  1:
 RMSU=  2.67D-04    CP:  9.61D-01  8.60D-01  8.25D-01
 E= -644.151139977763     Delta-E=       -0.004724463840 Rises=F Damp=F
 DIIS: error= 2.42D-03 at cycle   4 NSaved=   4.
 NSaved= 4 IEnMin= 4 EnMin= -644.151139977763     IErMin= 4 ErrMin= 2.42D-03
 ErrMax= 2.42D-03  0.00D+00 EMaxC= 1.00D-01 BMatC= 3.57D-03 BMatP= 1.01D-02
 IDIUse=3 WtCom= 9.76D-01 WtEn= 2.42D-02
 Coeff-Com: -0.234D-01 0.531D-01 0.399D+00 0.571D+00
 Coeff-En:   0.000D+00 0.000D+00 0.258D+00 0.742D+00
 Coeff:     -0.229D-01 0.518D-01 0.396D+00 0.576D+00
 Gap=     0.357 Goal=   None    Shift=    0.000
 RMSDP=1.33D-04 MaxDP=7.24D-03 DE=-4.72D-03 OVMax= 1.08D-02

 Cycle   5  Pass 1  IDiag  1:
 RMSU=  4.25D-05    CP:  9.58D-01  8.53D-01  9.06D-01  6.39D-01
 E= -644.153496014922     Delta-E=       -0.002356037159 Rises=F Damp=F
 DIIS: error= 1.18D-04 at cycle   5 NSaved=   5.
 NSaved= 5 IEnMin= 5 EnMin= -644.153496014922     IErMin= 5 ErrMin= 1.18D-04
 ErrMax= 1.18D-04  0.00D+00 EMaxC= 1.00D-01 BMatC= 1.37D-05 BMatP= 3.57D-03
 IDIUse=3 WtCom= 9.99D-01 WtEn= 1.18D-03
 Coeff-Com: -0.309D-02 0.202D-02 0.614D-01 0.121D+00 0.819D+00
 Coeff-En:   0.000D+00 0.000D+00 0.000D+00 0.000D+00 0.100D+01
 Coeff:     -0.309D-02 0.202D-02 0.614D-01 0.121D+00 0.819D+00
 Gap=     0.355 Goal=   None    Shift=    0.000
 RMSDP=1.22D-05 MaxDP=8.62D-04 DE=-2.36D-03 OVMax= 7.20D-04

 Cycle   6  Pass 1  IDiag  1:
 RMSU=  1.00D-05    CP:  9.58D-01  8.51D-01  9.06D-01  6.59D-01  1.06D+00
 E= -644.153505410548     Delta-E=       -0.000009395626 Rises=F Damp=F
 DIIS: error= 3.88D-05 at cycle   6 NSaved=   6.
 NSaved= 6 IEnMin= 6 EnMin= -644.153505410548     IErMin= 6 ErrMin= 3.88D-05
 ErrMax= 3.88D-05  0.00D+00 EMaxC= 1.00D-01 BMatC= 9.93D-07 BMatP= 1.37D-05
 IDIUse=1 WtCom= 1.00D+00 WtEn= 0.00D+00
 Coeff-Com: -0.445D-04-0.121D-02 0.214D-02 0.105D-01 0.209D+00 0.779D+00
 Coeff:     -0.445D-04-0.121D-02 0.214D-02 0.105D-01 0.209D+00 0.779D+00
 Gap=     0.356 Goal=   None    Shift=    0.000
 RMSDP=4.71D-06 MaxDP=2.35D-04 DE=-9.40D-06 OVMax= 2.01D-04

 Cycle   7  Pass 1  IDiag  1:
 RMSU=  2.54D-06    CP:  9.58D-01  8.50D-01  9.05D-01  6.62D-01  1.13D+00
                    CP:  8.99D-01
 E= -644.153506157860     Delta-E=       -0.000000747312 Rises=F Damp=F
 DIIS: error= 1.59D-05 at cycle   7 NSaved=   7.
 NSaved= 7 IEnMin= 7 EnMin= -644.153506157860     IErMin= 7 ErrMin= 1.59D-05
 ErrMax= 1.59D-05  0.00D+00 EMaxC= 1.00D-01 BMatC= 1.44D-07 BMatP= 9.93D-07
 IDIUse=1 WtCom= 1.00D+00 WtEn= 0.00D+00
 Coeff-Com:  0.381D-03-0.653D-03-0.756D-02-0.122D-01-0.222D-01 0.258D+00
 Coeff-Com:  0.784D+00
 Coeff:      0.381D-03-0.653D-03-0.756D-02-0.122D-01-0.222D-01 0.258D+00
 Coeff:      0.784D+00
 Gap=     0.356 Goal=   None    Shift=    0.000
 RMSDP=1.63D-06 MaxDP=1.06D-04 DE=-7.47D-07 OVMax= 8.08D-05

 Cycle   8  Pass 1  IDiag  1:
 RMSU=  1.24D-06    CP:  9.58D-01  8.49D-01  9.06D-01  6.63D-01  1.14D+00
                    CP:  9.49D-01  1.08D+00
 E= -644.153506253611     Delta-E=       -0.000000095751 Rises=F Damp=F
 DIIS: error= 8.03D-06 at cycle   8 NSaved=   8.
 NSaved= 8 IEnMin= 8 EnMin= -644.153506253611     IErMin= 8 ErrMin= 8.03D-06
 ErrMax= 8.03D-06  0.00D+00 EMaxC= 1.00D-01 BMatC= 3.09D-08 BMatP= 1.44D-07
 IDIUse=1 WtCom= 1.00D+00 WtEn= 0.00D+00
 Coeff-Com:  0.177D-03-0.251D-03-0.377D-02-0.619D-02-0.181D-01 0.860D-01
 Coeff-Com:  0.399D+00 0.543D+00
 Coeff:      0.177D-03-0.251D-03-0.377D-02-0.619D-02-0.181D-01 0.860D-01
 Coeff:      0.399D+00 0.543D+00
 Gap=     0.356 Goal=   None    Shift=    0.000
 RMSDP=4.65D-07 MaxDP=2.99D-05 DE=-9.58D-08 OVMax= 3.17D-05

 Cycle   9  Pass 1  IDiag  1:
[...]
    14  O    0.177808  -0.015241   0.018777  -0.005665   8.093779   0.235665
    15  H    0.039524   0.004872  -0.014313   0.001012   0.235665   0.444395
    16  O    0.239133  -0.020053  -0.003553   0.004164  -0.008110  -0.018478
    17  H    0.007481  -0.009114  -0.010373   0.001249   0.000176   0.001751
              16         17
    10  P    0.239133   0.007481
    11  O   -0.020053  -0.009114
    12  O   -0.003553  -0.010373
    13  H    0.004164   0.001249
    14  O   -0.008110   0.000176
    15  H   -0.018478   0.001751
    16  O    8.101383   0.258658
    17  H    0.258658   0.413700
 Mulliken charges:
               1
     1  C    0.000000
     2  C    0.000000
     3  C    0.000000
     4  N    0.000000
     5  H    0.000000
     6  H    0.000000
     7  H    0.000000
     8  H    0.000000
     9  N    0.000000
    10  P    1.259210
    11  O   -0.600753
    12  O   -0.587842
    13  H    0.337677
    14  O   -0.497190
    15  H    0.305572
    16  O   -0.553145
    17  H    0.336470
    18  O    0.000000
    19  H    0.000000
    20  H    0.000000
 Sum of Mulliken charges =  -0.00000
 Mulliken charges with hydrogens summed into heavy atoms:
               1
     1  C    0.000000
     2  C    0.000000
     3  C    0.000000
     4  N    0.000000
     9  N    0.000000
    10  P    1.259210
    11  O   -0.600753
    12  O   -0.250165
    14  O   -0.191618
    16  O   -0.216675
    18  O    0.000000
         Mulliken charges condensed to fragments:
      1      0.000000
      2     -0.000000
      3      0.000000
 Electronic spatial extent (au):  <R**2>=          66893.8147
 Charge=              0.0000 electrons
 Dipole moment (field-independent basis, Debye):
    X=              2.3546    Y=              2.3102    Z=             -2.8617  Tot=              4.3670
 Quadrupole moment (field-independent basis, Debye-Ang):
   XX=             38.3623   YY=             11.9289   ZZ=            -66.4061
   XY=             56.8245   XZ=            -28.0069   YZ=            -13.4487
 Traceless Quadrupole moment (field-independent basis, Debye-Ang):
   XX=             43.7339   YY=             17.3006   ZZ=            -61.0345
   XY=             56.8245   XZ=            -28.0069   YZ=            -13.4487
 Octapole moment (field-independent basis, Debye-Ang**2):
  XXX=            118.8574  YYY=           -362.9326  ZZZ=           -859.6578  XYY=            386.2203
  XXY=            849.3129  XXZ=           -390.6229  XZZ=           -914.2468  YZZ=           -580.6038
  YYZ=           -172.8954  XYZ=            -53.5893
 Hexadecapole moment (field-independent basis, Debye-Ang**3):
 XXXX=         -13023.3547 YYYY=         -12587.1562 ZZZZ=          -8922.6036 XXXY=           7456.6532
 XXXZ=          -8448.7964 YYYX=          -3520.7787 YYYZ=          -4157.0975 ZZZX=         -12498.0751
 ZZZY=          -8222.2629 XXYY=           5362.4274 XXZZ=         -13695.8717 YYZZ=          -6081.7488
 XXYZ=           -595.6037 YYXZ=          -1117.2877 ZZXY=          -7866.4231
 N-N= 2.801319859769D+02 E-N=-2.087979333975D+03  KE= 6.425542529157D+02
 No NMR shielding tensors so no spin-rotation constants.
 Leave Link  601 at Thu Dec 15 14:36:16 2022, MaxMem=  1342177280 cpu:               1.1 elap:               0.1
 (Enter /data0/home/software/g16/l122.exe)
 CPIOFr:  IOpCl= 0 IRwI=-1 IRwCP=  731 ICalc=  5 LCPTot=      198987 Len1MO=      522907 IndFrg=     3336429
 Counterpoise: doing calculation for fragment   3 using the basis set of the fragment.
 Leave Link  122 at Thu Dec 15 14:36:16 2022, MaxMem=  1342177280 cpu:               0.1 elap:               0.0
 (Enter /data0/home/software/g16/l301.exe)
 Basis read from rwf:  (5D, 7F)
 No pseudopotential information found on rwf file.
    39 basis functions,    58 primitive gaussians,    41 cartesian basis functions
     5 alpha electrons        5 beta electrons
       nuclear repulsion energy         9.1405031126 Hartrees.
 IExCor= 4336 DFT=T Ex+Corr=M062X ExCW=0 ScaHFX=  0.540000
 ScaDFX=  1.000000  1.000000  1.000000  1.000000 ScalE2=  1.000000  1.000000
 IRadAn=      5 IRanWt=     -1 IRanGd=            0 ICorTp=0 IEmpDi=131
 NAtoms=   20 NActive=    3 NUniq=    3 SFac= 1.00D+00 NAtFMM=   60 NAOKFM=F Big=F
 Integral buffers will be    131072 words long.
 Raffenetti 2 integral format.
 Two-electron integral symmetry is turned off.
 R6Disp:  Grimme-D3 Dispersion energy=       -0.0000000075 Hartrees.
 Nuclear repulsion after empirical dispersion term =        9.1405031051 Hartrees.
 No density basis found on file   718.
 Leave Link  301 at Thu Dec 15 14:36:16 2022, MaxMem=  1342177280 cpu:               0.8 elap:               0.1
 (Enter /data0/home/software/g16/l302.exe)
 NPDir=0 NMtPBC=     1 NCelOv=     1 NCel=       1 NClECP=     1 NCelD=      1
         NCelK=      1 NCelE2=     1 NClLst=     1 CellRange=     0.0.
 One-electron integrals computed using PRISM.
 NBasis=    39 RedAO= T EigKep=  3.00D-03  NBF=    39
 NBsUse=    39 1.00D-06 EigRej= -1.00D+00 NBFU=    39
 Precomputing XC quadrature grid using
 IXCGrd= 4 IRadAn=           5 IRanWt=          -1 IRanGd=           0 AccXCQ= 0.00D+00.
 Generated NRdTot=       0 NPtTot=           0 NUsed=           0 NTot=          32
 NSgBfM=    41    41    41    41    41 MxSgAt=     3 MxSgA2=     3.
 Leave Link  302 at Thu Dec 15 14:36:17 2022, MaxMem=  1342177280 cpu:               1.3 elap:               0.1
 (Enter /data0/home/software/g16/l303.exe)
 DipDrv:  MaxL=1.
 Leave Link  303 at Thu Dec 15 14:36:17 2022, MaxMem=  1342177280 cpu:               0.3 elap:               0.0
 (Enter /data0/home/software/g16/l401.exe)
 ExpMin= 8.45D-02 ExpMax= 8.59D+03 ExpMxC= 1.30D+03 IAcc=3 IRadAn=         5 AccDes= 0.00D+00
 Harris functional with IExCor= 1009 and IRadAn=       5 diagonalized for initial guess.
 HarFok:  IExCor= 1009 AccDes= 0.00D+00 IRadAn=         5 IDoV= 1 UseB2=F ITyADJ=14
 ICtDFT=  3500011 ScaDFX=  1.000000  1.000000  1.000000  1.000000
 FoFCou: FMM=F IPFlag=           0 FMFlag=      100000 FMFlg1=           0
         NFxFlg=           0 DoJE=T BraDBF=F KetDBF=T FulRan=T
         wScrn=  0.000000 ICntrl=       500 IOpCl=  0 I1Cent=   200000004 NGrid=           0
         NMat0=    1 NMatS0=      1 NMatT0=    0 NMatD0=    1 NMtDS0=    0 NMtDT0=    0
 Symmetry not used in FoFCou.
 Harris En= -76.4170053319835    
 JPrj=0 DoOrth=F DoCkMO=F.
 Leave Link  401 at Thu Dec 15 14:36:17 2022, MaxMem=  1342177280 cpu:               1.7 elap:               0.1
 (Enter /data0/home/software/g16/l502.exe)
 Keep R1 ints in memory in canonical form, NReq=14128213.
 FoFCou: FMM=F IPFlag=           0 FMFlag=           0 FMFlg1=           0
         NFxFlg=           0 DoJE=F BraDBF=F KetDBF=F FulRan=T
         wScrn=  0.000000 ICntrl=       600 IOpCl=  0 I1Cent=           0 NGrid=           0
         NMat0=    1 NMatS0=    780 NMatT0=    0 NMatD0=    1 NMtDS0=    0 NMtDT0=    0
 Symmetry not used in FoFCou.
 Two-electron integral symmetry not used.
 Closed shell SCF:
 Using DIIS extrapolation, IDIIS=  1040.
 NGot=  1342177280 LenX=  1341867675 LenY=  1341865553
 Requested convergence on RMS density matrix=1.00D-08 within 128 cycles.
 Requested convergence on MAX density matrix=1.00D-06.
 Requested convergence on             energy=1.00D-06.
 No special actions if energy rises.
 Integral accuracy reduced to 1.0D-05 until final iterations.

 Cycle   1  Pass 0  IDiag  1:
 E= -76.3461985760485    
 DIIS: error= 7.06D-02 at cycle   1 NSaved=   1.
 NSaved= 1 IEnMin= 1 EnMin= -76.3461985760485     IErMin= 1 ErrMin= 7.06D-02
 ErrMax= 7.06D-02  0.00D+00 EMaxC= 1.00D-01 BMatC= 1.22D-01 BMatP= 1.22D-01
 IDIUse=3 WtCom= 2.94D-01 WtEn= 7.06D-01
 Coeff-Com:  0.100D+01
 Coeff-En:   0.100D+01
 Coeff:      0.100D+01
 Gap=     0.326 Goal=   None    Shift=    0.000
 GapD=    0.326 DampG=1.000 DampE=0.500 DampFc=0.5000 IDamp=-1.
 Damping current iteration by 5.00D-01
 RMSDP=7.91D-03 MaxDP=1.02D-01              OVMax= 1.69D-01

 Cycle   2  Pass 0  IDiag  1:
 E= -76.3779257892456     Delta-E=       -0.031727213197 Rises=F Damp=T
 DIIS: error= 1.16D-02 at cycle   2 NSaved=   2.
 NSaved= 2 IEnMin= 2 EnMin= -76.3779257892456     IErMin= 2 ErrMin= 1.16D-02
 ErrMax= 1.16D-02  0.00D+00 EMaxC= 1.00D-01 BMatC= 4.77D-03 BMatP= 1.22D-01
 IDIUse=3 WtCom= 8.84D-01 WtEn= 1.16D-01
 Coeff-Com:  0.803D-01 0.920D+00
 Coeff-En:   0.184D+00 0.816D+00
 Coeff:      0.923D-01 0.908D+00
 Gap=     0.459 Goal=   None    Shift=    0.000
 RMSDP=9.33D-04 MaxDP=1.38D-02 DE=-3.17D-02 OVMax= 1.00D-01

 Cycle   3  Pass 0  IDiag  1:
 E= -76.4219368351112     Delta-E=       -0.044011045866 Rises=F Damp=F
 DIIS: error= 2.16D-03 at cycle   3 NSaved=   3.
 NSaved= 3 IEnMin= 3 EnMin= -76.4219368351112     IErMin= 3 ErrMin= 2.16D-03
 ErrMax= 2.16D-03  0.00D+00 EMaxC= 1.00D-01 BMatC= 8.95D-05 BMatP= 4.77D-03
 IDIUse=3 WtCom= 9.78D-01 WtEn= 2.16D-02
 Coeff-Com: -0.199D-01 0.389D-01 0.981D+00
 Coeff-En:   0.000D+00 0.000D+00 0.100D+01
 Coeff:     -0.195D-01 0.380D-01 0.981D+00
 Gap=     0.463 Goal=   None    Shift=    0.000
 RMSDP=1.14D-04 MaxDP=1.01D-03 DE=-4.40D-02 OVMax= 3.28D-03

 Cycle   4  Pass 0  IDiag  1:
 E= -76.4220130850207     Delta-E=       -0.000076249910 Rises=F Damp=F
 DIIS: error= 4.07D-04 at cycle   4 NSaved=   4.
 NSaved= 4 IEnMin= 4 EnMin= -76.4220130850207     IErMin= 4 ErrMin= 4.07D-04
 ErrMax= 4.07D-04  0.00D+00 EMaxC= 1.00D-01 BMatC= 3.20D-06 BMatP= 8.95D-05
 IDIUse=3 WtCom= 9.96D-01 WtEn= 4.07D-03
 Coeff-Com: -0.182D-02-0.223D-02 0.161D+00 0.843D+00
 Coeff-En:   0.000D+00 0.000D+00 0.000D+00 0.100D+01
 Coeff:     -0.182D-02-0.222D-02 0.160D+00 0.844D+00
 Gap=     0.464 Goal=   None    Shift=    0.000
 RMSDP=2.19D-05 MaxDP=3.51D-04 DE=-7.62D-05 OVMax= 5.26D-04

 Cycle   5  Pass 0  IDiag  1:
 E= -76.4220150562315     Delta-E=       -0.000001971211 Rises=F Damp=F
 DIIS: error= 8.68D-05 at cycle   5 NSaved=   5.
 NSaved= 5 IEnMin= 5 EnMin= -76.4220150562315     IErMin= 5 ErrMin= 8.68D-05
 ErrMax= 8.68D-05  0.00D+00 EMaxC= 1.00D-01 BMatC= 7.98D-08 BMatP= 3.20D-06
 IDIUse=1 WtCom= 1.00D+00 WtEn= 0.00D+00
 Coeff-Com:  0.116D-02-0.176D-02-0.361D-01-0.625D-01 0.110D+01
 Coeff:      0.116D-02-0.176D-02-0.361D-01-0.625D-01 0.110D+01
 Gap=     0.464 Goal=   None    Shift=    0.000
 RMSDP=8.79D-06 MaxDP=1.01D-04 DE=-1.97D-06 OVMax= 1.96D-04

 Initial convergence to 1.0D-05 achieved.  Increase integral accuracy.
 Cycle   6  Pass 1  IDiag  1:
 E= -76.4220088943826     Delta-E=        0.000006161849 Rises=F Damp=F
 DIIS: error= 3.19D-05 at cycle   1 NSaved=   1.
 NSaved= 1 IEnMin= 1 EnMin= -76.4220088943826     IErMin= 1 ErrMin= 3.19D-05
 ErrMax= 3.19D-05  0.00D+00 EMaxC= 1.00D-01 BMatC= 2.54D-08 BMatP= 2.54D-08
 IDIUse=1 WtCom= 1.00D+00 WtEn= 0.00D+00
 Coeff-Com:  0.100D+01
 Coeff:      0.100D+01
 Gap=     0.464 Goal=   None    Shift=    0.000
 RMSDP=8.79D-06 MaxDP=1.01D-04 DE= 6.16D-06 OVMax= 4.60D-05

 Cycle   7  Pass 1  IDiag  1:
 E= -76.4220089165773     Delta-E=       -0.000000022195 Rises=F Damp=F
 DIIS: error= 7.83D-06 at cycle   2 NSaved=   2.
 NSaved= 2 IEnMin= 2 EnMin= -76.4220089165773     IErMin= 2 ErrMin= 7.83D-06
 ErrMax= 7.83D-06  0.00D+00 EMaxC= 1.00D-01 BMatC= 1.22D-09 BMatP= 2.54D-08
 IDIUse=1 WtCom= 1.00D+00 WtEn= 0.00D+00
 Coeff-Com: -0.716D-02 0.101D+01
 Coeff:     -0.716D-02 0.101D+01
 Gap=     0.464 Goal=   None    Shift=    0.000
 RMSDP=1.03D-06 MaxDP=1.24D-05 DE=-2.22D-08 OVMax= 2.13D-05

 Cycle   8  Pass 1  IDiag  1:
 E= -76.4220089168221     Delta-E=       -0.000000000245 Rises=F Damp=F
 DIIS: error= 7.51D-06 at cycle   3 NSaved=   3.
 NSaved= 3 IEnMin= 3 EnMin= -76.4220089168221     IErMin= 3 ErrMin= 7.51D-06
 ErrMax= 7.51D-06  0.00D+00 EMaxC= 1.00D-01 BMatC= 1.34D-09 BMatP= 1.22D-09
 IDIUse=1 WtCom= 1.00D+00 WtEn= 0.00D+00
 Coeff-Com: -0.482D-01 0.541D+00 0.507D+00
 Coeff:     -0.482D-01 0.541D+00 0.507D+00
 Gap=     0.464 Goal=   None    Shift=    0.000
 RMSDP=4.16D-07 MaxDP=5.59D-06 DE=-2.45D-10 OVMax= 9.35D-06

 Cycle   9  Pass 1  IDiag  1:
 E= -76.4220089176991     Delta-E=       -0.000000000877 Rises=F Damp=F
 DIIS: error= 5.56D-07 at cycle   4 NSaved=   4.
 NSaved= 4 IEnMin= 4 EnMin= -76.4220089176991     IErMin= 4 ErrMin= 5.56D-07
 ErrMax= 5.56D-07  0.00D+00 EMaxC= 1.00D-01 BMatC= 6.86D-12 BMatP= 1.22D-09
 IDIUse=1 WtCom= 1.00D+00 WtEn= 0.00D+00
 Coeff-Com: -0.343D-02-0.578D-02 0.246D-01 0.985D+00
 Coeff:     -0.343D-02-0.578D-02 0.246D-01 0.985D+00
 Gap=     0.464 Goal=   None    Shift=    0.000
 RMSDP=1.11D-07 MaxDP=7.65D-07 DE=-8.77D-10 OVMax= 1.66D-06

 Cycle  10  Pass 1  IDiag  1:
 E= -76.4220089177093     Delta-E=       -0.000000000010 Rises=F Damp=F
 DIIS: error= 1.07D-07 at cycle   5 NSaved=   5.
 NSaved= 5 IEnMin= 5 EnMin= -76.4220089177093     IErMin= 5 ErrMin= 1.07D-07
 ErrMax= 1.07D-07  0.00D+00 EMaxC= 1.00D-01 BMatC= 3.32D-13 BMatP= 6.86D-12
 IDIUse=1 WtCom= 1.00D+00 WtEn= 0.00D+00
 Coeff-Com:  0.320D-02-0.390D-01-0.337D-01 0.494D-01 0.102D+01
 Coeff:      0.320D-02-0.390D-01-0.337D-01 0.494D-01 0.102D+01
 Gap=     0.464 Goal=   None    Shift=    0.000
 RMSDP=4.56D-08 MaxDP=3.41D-07 DE=-1.02D-11 OVMax= 6.51D-07

 Cycle  11  Pass 1  IDiag  1:
 E= -76.4220089177103     Delta-E=       -0.000000000001 Rises=F Damp=F
 DIIS: error= 1.71D-08 at cycle   6 NSaved=   6.
 NSaved= 6 IEnMin= 6 EnMin= -76.4220089177103     IErMin= 6 ErrMin= 1.71D-08
 ErrMax= 1.71D-08  0.00D+00 EMaxC= 1.00D-01 BMatC= 7.84D-15 BMatP= 3.32D-13
 IDIUse=1 WtCom= 1.00D+00 WtEn= 0.00D+00
 Coeff-Com:  0.532D-05 0.120D-02 0.130D-02-0.276D-01-0.747D-01 0.110D+01
 Coeff:      0.532D-05 0.120D-02 0.130D-02-0.276D-01-0.747D-01 0.110D+01
 Gap=     0.464 Goal=   None    Shift=    0.000
 RMSDP=6.87D-09 MaxDP=5.47D-08 DE=-1.04D-12 OVMax= 1.31D-07

 SCF Done:  E(RM062X) =  -76.4220089177     A.U. after   11 cycles
            NFock= 11  Conv=0.69D-08     -V/T= 2.0028
 KE= 7.620962399872D+01 PE=-1.991381200031D+02 EE= 3.736598398160D+01
 Leave Link  502 at Thu Dec 15 14:36:17 2022, MaxMem=  1342177280 cpu:               5.8 elap:               0.4
 (Enter /data0/home/software/g16/l601.exe)
 Copying SCF densities to generalized density rwf, IOpCl= 0 IROHF=0.

 **********************************************************************

            Population analysis using the SCF density.

 **********************************************************************

 Alpha  occ. eigenvalues --  -19.62538  -1.13517  -0.60941  -0.47543  -0.40016
 Alpha virt. eigenvalues --    0.06357   0.13387   0.17383   0.17942   0.18939
 Alpha virt. eigenvalues --    0.23256   0.51599   0.53544   0.97858   1.00116
 Alpha virt. eigenvalues --    1.06043   1.18513   1.20026   1.32463   1.33678
 Alpha virt. eigenvalues --    1.69993   1.74354   1.75885   2.08530   2.09120
 Alpha virt. eigenvalues --    2.35728   2.42044   2.54611   2.89101   3.01677
 Alpha virt. eigenvalues --    5.05710   5.48609   5.93993   6.78278   6.80212
 Alpha virt. eigenvalues --    6.87100   6.91541   7.09227  49.96226
          Condensed to atoms (all electrons):
              18         19         20
    18  O    7.912208   0.321478   0.321949
    19  H    0.321478   0.425152  -0.024660
    20  H    0.321949  -0.024660   0.425106
 Mulliken charges:
               1
     1  C    0.000000
     2  C    0.000000
     3  C    0.000000
     4  N    0.000000
     5  H    0.000000
     6  H    0.000000
     7  H    0.000000
     8  H    0.000000
     9  N    0.000000
    10  P    0.000000
    11  O    0.000000
    12  O    0.000000
    13  H    0.000000
    14  O    0.000000
    15  H    0.000000
    16  O    0.000000
    17  H    0.000000
    18  O   -0.555635
    19  H    0.278030
    20  H    0.277606
 Sum of Mulliken charges =  -0.00000
 Mulliken charges with hydrogens summed into heavy atoms:
               1
     1  C    0.000000
     2  C    0.000000
     3  C    0.000000
     4  N    0.000000
     9  N    0.000000
    10  P    0.000000
    11  O    0.000000
    12  O    0.000000
    14  O    0.000000
    16  O    0.000000
    18  O   -0.000000
         Mulliken charges condensed to fragments:
      1      0.000000
      2      0.000000
      3     -0.000000
 Electronic spatial extent (au):  <R**2>=           9561.6302
 Charge=             -0.0000 electrons
 Dipole moment (field-independent basis, Debye):
    X=             -0.6136    Y=             -1.0296    Z=              1.7392  Tot=              2.1122
 Quadrupole moment (field-independent basis, Debye-Ang):
   XX=            -22.1917   YY=            -25.8457   ZZ=              5.6215
   XY=            -19.9128   XZ=             18.5673   YZ=             14.4164
 Traceless Quadrupole moment (field-independent basis, Debye-Ang):
   XX=             -8.0530   YY=            -11.7071   ZZ=             19.7602
   XY=            -19.9128   XZ=             18.5673   YZ=             14.4164
 Octapole moment (field-independent basis, Debye-Ang**2):
  XXX=           -542.2275  YYY=           -469.6045  ZZZ=             -2.6677  XYY=           -402.0341
  XXY=           -405.9461  XXZ=            169.5596  XZZ=             56.0935  YZZ=             47.4823
  YYZ=             97.0040  XYZ=            144.9013
 Hexadecapole moment (field-independent basis, Debye-Ang**3):
 XXXX=         -11108.1374 YYYY=          -7402.4430 ZZZZ=           -159.8669 XXXY=          -7876.1697
 XXXZ=           1059.8229 YYYX=          -6739.5484 YYYZ=            313.8050 ZZZX=            -92.3348
 ZZZY=            -52.6413 XXYY=          -6709.7990 XXZZ=            445.4718 YYZZ=            327.5432
 XXYZ=           1139.9635 YYXZ=            825.4634 ZZXY=            437.7623
 N-N= 9.140503105076D+00 E-N=-1.991381202273D+02  KE= 7.620962399872D+01
 No NMR shielding tensors so no spin-rotation constants.
 Leave Link  601 at Thu Dec 15 14:36:17 2022, MaxMem=  1342177280 cpu:               1.0 elap:               0.1
 (Enter /data0/home/software/g16/l122.exe)
 CPIOFr:  IOpCl= 0 IRwI=-1 IRwCP=  731 ICalc=  6 LCPTot=      198987 Len1MO=      522907 IndFrg=     3859336
 Restoring MOs from calculation   1 to rwf.
 CPIOFr:  IOpCl= 0 IRwI=-2 IRwCP=  731 ICalc=  0 LCPTot=      198987 Len1MO=      522907 IndFrg=      721894
 Counterpoise corrected energy =    -946.806583662680
                   BSSE energy =       0.002188305301
              sum of fragments =    -946.762672570249
           complexation energy =     -28.93 kcal/mole (raw)
           complexation energy =     -27.55 kcal/mole (corrected)
 Leave Link  122 at Thu Dec 15 14:36:17 2022, MaxMem=  1342177280 cpu:               0.2 elap:               0.0
 (Enter /data0/home/software/g16/l9999.exe)
 1\1\GINC-LOCALHOST\SP\RM062X\6-311+G(2d,p)\C3H9N2O5P1\WUHANYU\15-Dec-2
 022\0\\#p M062X/6-311+G(2d,p) nosymm em=GD3 counterpoise=3\\Title Card
  Required\\0,1\C,0,18.471733,9.64128,1.231013\C,0,17.628852,9.977074,2
 .290181\C,0,19.234755,8.732381,3.14053\N,0,19.488874,8.852546,1.774946
 \H,0,20.246626,8.456164,1.267828\H,0,18.425614,9.890534,0.192874\H,0,1
 6.72906,10.570785,2.300229\H,0,19.853612,8.17688,3.823659\N,0,18.11747
 4,9.407633,3.455889\P,0,15.183291,10.276219,5.695563\O,0,14.264406,9.1
 70809,5.937269\O,0,15.10375,10.932095,4.233175\H,0,14.176667,10.749212
 ,3.829267\O,0,14.88647,11.48217,6.694877\H,0,15.623823,12.187639,6.586
 446\O,0,16.736481,10.056426,5.882074\H,0,17.150546,9.711258,4.964646\O
 ,0,12.396993,10.15197,3.362158\H,0,12.546365,9.226058,3.586579\H,0,11.
 904624,10.500878,4.110797\\Version=ES64L-G16RevA.03\HF=-76.4220089\RMS
 D=6.873e-09\Dipole=1.8710976,-0.078113,-2.1975129\Quadrupole=98.286988
 ,-32.2632883,-66.0236997,25.3564939,-59.6369293,-35.1062823\PG=C01 [X(
 C3H9N2O5P1)]\\@


 NOT WHAT WE DID SHALL BE THE TEST
 WHEN ACT AND WILL ARE DONE,
 BUT WHAT OUR LORD INFERS WE WOULD-
 HAD WE DIVINER BEEN.
           EMILY DICKINSON  POEMS NO. CLXXV
 Job cpu time:       0 days  0 hours 38 minutes 18.4 seconds.
 Elapsed time:       0 days  0 hours  2 minutes 27.7 seconds.
 File lengths (MBytes):  RWF=    111 Int=      0 D2E=      0 Chk=     38 Scr=      1
 Normal termination of Gaussian 16 at Thu Dec 15 14:36:17 2022.
