 Entering Gaussian System, Link 0=g16
 Initial command:
 /data0/home/software/g16/l1.exe "/data0/home/software/g16/scratch/Gau-338984.inp" -scrdir="/data0/home/software/g16/scratch/"
 Default is to use a total of  22 processors:
                               22 via shared-memory
                                1 via Linda
 Entering Link 1 = /data0/home/software/g16/l1.exe PID=    338985.
  
 Copyright (c) 1988,1990,1992,1993,1995,1998,2003,2009,2016,
            Gaussian, Inc.  All Rights Reserved.
  
 This is part of the Gaussian(R) 16 program.  It is based on
 the Gaussian(R) 09 system (copyright 2009, Gaussian, Inc.),
 the Gaussian(R) 03 system (copyright 2003, Gaussian, Inc.),
 the Gaussian(R) 98 system (copyright 1998, Gaussian, Inc.),
 the Gaussian(R) 94 system (copyright 1995, Gaussian, Inc.),
 the Gaussian 92(TM) system (copyright 1992, Gaussian, Inc.),
 the Gaussian 90(TM) system (copyright 1990, Gaussian, Inc.),
 the Gaussian 88(TM) system (copyright 1988, Gaussian, Inc.),
 the Gaussian 86(TM) system (copyright 1986, Carnegie Mellon
 University), and the Gaussian 82(TM) system (copyright 1983,
 Carnegie Mellon University). Gaussian is a federally registered
 trademark of Gaussian, Inc.
  
 This software contains proprietary and confidential information,
 including trade secrets, belonging to Gaussian, Inc.
  
 This software is provided under written license and may be
 used, copied, transmitted, or stored only in accord with that
 written license.
  
 The following legend is applicable only to US Government
 contracts under FAR:
  
                    RESTRICTED RIGHTS LEGEND
  
 Use, reproduction and disclosure by the US Government is
 subject to restrictions as set forth in subparagraphs (a)
 and (c) of the Commercial Computer Software - Restricted
 Rights clause in FAR 52.227-19.
  
 Gaussian, Inc.
 340 Quinnipiac St., Bldg. 40, Wallingford CT 06492
  
  
 ---------------------------------------------------------------
 Warning -- This program may not be used in any manner that
 competes with the business of Gaussian, Inc. or will provide
 assistance to any competitor of Gaussian, Inc.  The licensee
 of this program is prohibited from giving any competitor of
 Gaussian, Inc. access to this program.  By using this program,
 the user acknowledges that Gaussian, Inc. is engaged in the
 business of creating and licensing software in the field of
 computational chemistry and represents and warrants to the
 licensee that it is not a competitor of Gaussian, Inc. and that
 it will not use this program in any manner prohibited above.
 ---------------------------------------------------------------
  

 Cite this work as:
 Gaussian 16, Revision A.03,
 M. J. Frisch, G. W. Trucks, H. B. Schlegel, G. E. Scuseria, 
 M. A. Robb, J. R. Cheeseman, G. Scalmani, V. Barone, 
 G. A. Petersson, H. Nakatsuji, X. Li, M. Caricato, A. V. Marenich, 
 J. Bloino, B. G. Janesko, R. Gomperts, B. Mennucci, H. P. Hratchian, 
 J. V. Ortiz, A. F. Izmaylov, J. L. Sonnenberg, D. Williams-Young, 
 F. Ding, F. Lipparini, F. Egidi, J. Goings, B. Peng, A. Petrone, 
 T. Henderson, D. Ranasinghe, V. G. Zakrzewski, J. Gao, N. Rega, 
 G. Zheng, W. Liang, M. Hada, M. Ehara, K. Toyota, R. Fukuda, 
 J. Hasegawa, M. Ishida, T. Nakajima, Y. Honda, O. Kitao, H. Nakai, 
 T. Vreven, K. Throssell, J. A. Montgomery, Jr., J. E. Peralta, 
 F. Ogliaro, M. J. Bearpark, J. J. Heyd, E. N. Brothers, K. N. Kudin, 
 V. N. Staroverov, T. A. Keith, R. Kobayashi, J. Normand, 
 K. Raghavachari, A. P. Rendell, J. C. Burant, S. S. Iyengar, 
 J. Tomasi, M. Cossi, J. M. Millam, M. Klene, C. Adamo, R. Cammi, 
 J. W. Ochterski, R. L. Martin, K. Morokuma, O. Farkas, 
 J. B. Foresman, and D. J. Fox, Gaussian, Inc., Wallingford CT, 2016.
 
 ******************************************
 Gaussian 16:  ES64L-G16RevA.03 25-Dec-2016
                19-Feb-2023 
 ******************************************
 %nproc=24
 Will use up to   24 processors via shared memory.
 %mem=50GB
 ---------------------------------------------------
 #p M062X/6-311+G(2d,p) nosymm em=GD3 counterpoise=2
 ---------------------------------------------------
 1/38=1,62=2,172=1/1;
 2/12=2,15=1,17=6,18=5,40=1/2;
 1/38=1,53=2,62=2,63=1/22;
 3/5=4,6=6,7=112,11=2,25=1,30=1,74=-55,124=31/1,2,3;
 4//1;
 5/5=2,38=5/2;
 6/7=2,8=2,9=2,10=2,28=1/1;
 1/53=2,62=2,63=1/22;
 3/5=7,6=11,7=112,11=2,25=1,30=1,74=-55,82=7,124=31/1,2,3;
 4//1;
 5/5=2,38=5/2;
 6/7=2,8=2,9=2,10=2,28=1/1;
 1/53=2,62=2,63=1/22(-4);
 99/5=1,9=1/99;
 Leave Link    1 at Sun Feb 19 23:22:43 2023, MaxMem=  6710886400 cpu:               0.7 elap:               0.0
 (Enter /data0/home/software/g16/l101.exe)
 -------------------
 Title Card Required
 -------------------
 Symbolic Z-matrix:
 Charge =  0 Multiplicity = 1 in supermolecule
 Charge =  0 Multiplicity = 1 in fragment      1.
 Charge =  0 Multiplicity = 1 in fragment      2.
 C                     8.17535   10.46677   11.16925    
 C                     9.07256   10.40825   12.23516    
 C                     9.83792   9.26603   12.443     
 C                     9.7077    8.18938   11.55271    
 C                     8.82069   8.29422   10.48062    
 H                     10.54226   9.21239   13.28081    
 H                     7.55567   11.36547   10.9911    
 H                     9.18484   11.28729   12.87931    
 H                     8.75034   7.49968   9.72822    
 C                     10.52816   6.96032   11.69328    
 H                     9.92286   6.05006   11.77148    
 H                     11.201    6.83992   10.81828    
 H                     11.19783   6.9942    12.56729    
 N                     8.04692   9.40856   10.31922    
 C                     7.07876   9.49502   9.19841    
 H                     6.21539   8.83478   9.44372    
 H                     6.67378   10.54332   9.1461     
 C                     7.65419   9.11391   7.82002    
 H                     8.24635   8.17473   7.88233    
 H                     6.79724   8.86726   7.15453    
 C                     8.48382   10.21385   7.16529    
 H                     7.88295   11.13382   7.02434    
 H                     8.79617   9.90999   6.14922    
 S                     9.94044   10.61047   8.14798    
 O                     10.93148   11.29547   7.32109    
 O                     10.3601   9.30226   8.72161    
 O                     9.36153   11.50691   9.21148    
 P                     13.06715   9.93405   11.01217    
 O                     11.95602   10.56747   11.7358    
 O                     14.06462   10.85555   10.20384    
 H                     13.53585   11.62322   9.70219    
 O                     14.05078   9.21134   12.04363    
 H                     14.84823   8.84377   11.50298    
 O                     12.69943   8.73947   10.04213    
 H                     11.80387   8.96269   9.51951    
 
 ITRead=  0  0  0  0  0  0  0  0  0  0  0  0  0  0  0  0  0  0  0  0
 ITRead=  0  0  0  0  0  0  0  0  0  0  0  0  0  0  0
 MicOpt= -1 -1 -1 -1 -1 -1 -1 -1 -1 -1 -1 -1 -1 -1 -1 -1 -1 -1 -1 -1
 MicOpt= -1 -1 -1 -1 -1 -1 -1 -1 -1 -1 -1 -1 -1 -1 -1
 NAtoms=     35 NQM=       35 NQMF=       0 NMMI=      0 NMMIF=      0
                NMic=       0 NMicF=      0.
                    Isotopes and Nuclear Properties:
 (Nuclear quadrupole moments (NQMom) in fm**2, nuclear magnetic moments (NMagM)
  in nuclear magnetons)

  Atom         1           2           3           4           5           6           7           8           9          10
 IAtWgt=          12          12          12          12          12           1           1           1           1          12
 AtmWgt=  12.0000000  12.0000000  12.0000000  12.0000000  12.0000000   1.0078250   1.0078250   1.0078250   1.0078250  12.0000000
 NucSpn=           0           0           0           0           0           1           1           1           1           0
 AtZEff=  -0.0000000  -0.0000000  -0.0000000  -0.0000000  -0.0000000  -0.0000000  -0.0000000  -0.0000000  -0.0000000  -0.0000000
 NQMom=    0.0000000   0.0000000   0.0000000   0.0000000   0.0000000   0.0000000   0.0000000   0.0000000   0.0000000   0.0000000
 NMagM=    0.0000000   0.0000000   0.0000000   0.0000000   0.0000000   2.7928460   2.7928460   2.7928460   2.7928460   0.0000000
 AtZNuc=   6.0000000   6.0000000   6.0000000   6.0000000   6.0000000   1.0000000   1.0000000   1.0000000   1.0000000   6.0000000

  Atom        11          12          13          14          15          16          17          18          19          20
 IAtWgt=           1           1           1          14          12           1           1          12           1           1
 AtmWgt=   1.0078250   1.0078250   1.0078250  14.0030740  12.0000000   1.0078250   1.0078250  12.0000000   1.0078250   1.0078250
 NucSpn=           1           1           1           2           0           1           1           0           1           1
 AtZEff=  -0.0000000  -0.0000000  -0.0000000  -0.0000000  -0.0000000  -0.0000000  -0.0000000  -0.0000000  -0.0000000  -0.0000000
 NQMom=    0.0000000   0.0000000   0.0000000   2.0440000   0.0000000   0.0000000   0.0000000   0.0000000   0.0000000   0.0000000
 NMagM=    2.7928460   2.7928460   2.7928460   0.4037610   0.0000000   2.7928460   2.7928460   0.0000000   2.7928460   2.7928460
 AtZNuc=   1.0000000   1.0000000   1.0000000   7.0000000   6.0000000   1.0000000   1.0000000   6.0000000   1.0000000   1.0000000

  Atom        21          22          23          24          25          26          27          28          29          30
 IAtWgt=          12           1           1          32          16          16          16          31          16          16
 AtmWgt=  12.0000000   1.0078250   1.0078250  31.9720718  15.9949146  15.9949146  15.9949146  30.9737634  15.9949146  15.9949146
 NucSpn=           0           1           1           0           0           0           0           1           0           0
 AtZEff=  -0.0000000  -0.0000000  -0.0000000  -0.0000000  -0.0000000  -0.0000000  -0.0000000  -0.0000000  -0.0000000  -0.0000000
 NQMom=    0.0000000   0.0000000   0.0000000   0.0000000   0.0000000   0.0000000   0.0000000   0.0000000   0.0000000   0.0000000
 NMagM=    0.0000000   2.7928460   2.7928460   0.0000000   0.0000000   0.0000000   0.0000000   1.1316000   0.0000000   0.0000000
 AtZNuc=   6.0000000   1.0000000   1.0000000  16.0000000   8.0000000   8.0000000   8.0000000  15.0000000   8.0000000   8.0000000

  Atom        31          32          33          34          35
 IAtWgt=           1          16           1          16           1
 AtmWgt=   1.0078250  15.9949146   1.0078250  15.9949146   1.0078250
 NucSpn=           1           0           1           0           1
 AtZEff=  -0.0000000  -0.0000000  -0.0000000  -0.0000000  -0.0000000
 NQMom=    0.0000000   0.0000000   0.0000000   0.0000000   0.0000000
 NMagM=    2.7928460   0.0000000   2.7928460   0.0000000   2.7928460
 AtZNuc=   1.0000000   8.0000000   1.0000000   8.0000000   1.0000000
 Leave Link  101 at Sun Feb 19 23:22:43 2023, MaxMem=  6710886400 cpu:               2.2 elap:               0.1
 (Enter /data0/home/software/g16/l202.exe)
                          Input orientation:                          
 ---------------------------------------------------------------------
 Center     Atomic      Atomic             Coordinates (Angstroms)
 Number     Number       Type             X           Y           Z
 ---------------------------------------------------------------------
      1          6           0        8.175345   10.466769   11.169255
      2          6           0        9.072563   10.408252   12.235161
      3          6           0        9.837915    9.266034   12.443004
      4          6           0        9.707700    8.189379   11.552713
      5          6           0        8.820692    8.294221   10.480620
      6          1           0       10.542256    9.212386   13.280805
      7          1           0        7.555671   11.365472   10.991104
      8          1           0        9.184838   11.287287   12.879314
      9          1           0        8.750344    7.499684    9.728224
     10          6           0       10.528162    6.960324   11.693283
     11          1           0        9.922861    6.050058   11.771480
     12          1           0       11.200996    6.839920   10.818276
     13          1           0       11.197826    6.994199   12.567287
     14          7           0        8.046919    9.408556   10.319220
     15          6           0        7.078757    9.495020    9.198412
     16          1           0        6.215387    8.834780    9.443723
     17          1           0        6.673783   10.543322    9.146104
     18          6           0        7.654190    9.113907    7.820019
     19          1           0        8.246355    8.174729    7.882331
     20          1           0        6.797244    8.867256    7.154531
     21          6           0        8.483817   10.213852    7.165290
     22          1           0        7.882947   11.133817    7.024340
     23          1           0        8.796165    9.909985    6.149224
     24         16           0        9.940442   10.610466    8.147975
     25          8           0       10.931477   11.295469    7.321094
     26          8           0       10.360100    9.302262    8.721606
     27          8           0        9.361534   11.506914    9.211485
     28         15           0       13.067150    9.934052   11.012170
     29          8           0       11.956018   10.567469   11.735798
     30          8           0       14.064622   10.855554   10.203841
     31          1           0       13.535845   11.623217    9.702193
     32          8           0       14.050778    9.211341   12.043625
     33          1           0       14.848232    8.843774   11.502980
     34          8           0       12.699427    8.739469   10.042133
     35          1           0       11.803868    8.962693    9.519510
 ---------------------------------------------------------------------
                    Distance matrix (angstroms):
                    1          2          3          4          5
     1  C    0.000000
     2  C    1.394482   0.000000
     3  C    2.414196   1.390548   0.000000
     4  C    2.771580   2.406768   1.403125   0.000000
     5  C    2.368682   2.758800   2.414563   1.395406   0.000000
     6  H    3.410922   2.164131   1.095849   2.174702   3.412894
     7  H    1.106074   2.182867   3.424075   3.877396   3.360574
     8  H    2.148634   1.095555   2.168488   3.410321   3.852892
     9  H    3.348251   3.853353   3.416553   2.172779   1.096512
    10  C    4.255057   3.781614   2.520877   1.484417   2.483000
    11  H    4.787883   4.464511   3.286436   2.161214   2.813781
    12  H    4.736220   4.389850   3.222384   2.142515   2.809778
    13  H    4.811302   4.035196   2.650668   2.162936   3.419796
    14  N    1.363403   2.392105   2.781805   2.401269   1.366205
    15  C    2.455814   3.745811   4.265298   3.762814   2.473927
    16  H    3.079332   4.293180   4.722751   4.130452   2.855691
    17  H    2.520652   3.913395   4.744760   4.531828   3.383579
    18  C    3.649551   4.814623   5.115055   4.359433   3.018511
    19  H    4.007787   4.961691   4.952146   3.950626   2.663690
    20  H    4.536035   5.776205   6.113317   5.317356   3.935172
    21  C    4.023786   5.107642   5.530480   4.984562   3.845761
    22  H    4.208417   5.393912   6.055777   5.701368   4.570399
    23  H    5.088825   6.112552   6.411831   5.743612   4.623017
    24  S    3.502049   4.183204   4.501698   4.184265   3.472760
    25  O    4.805346   5.328299   5.616800   5.389993   4.842056
    26  O    3.481410   3.902055   3.758030   3.111158   2.545595
    27  O    2.514321   3.230043   3.961212   4.075195   3.496371
    28  P    4.923233   4.204438   3.594648   3.823869   4.583012
    29  O    3.824212   2.930704   2.584615   3.277768   4.071044
    30  O    5.980532   5.408049   5.040385   5.283059   5.842588
    31  H    5.676672   5.273799   5.171368   5.465378   5.824159
    32  O    6.071354   5.123661   4.232105   4.488622   5.535151
    33  H    6.875530   6.028435   5.115196   5.182256   6.138279
    34  O    4.972051   4.555036   3.772228   3.396304   3.928753
    35  H    4.260291   4.113931   3.536072   3.020902   3.204673
                    6          7          8          9         10
     6  H    0.000000
     7  H    4.335689   0.000000
     8  H    2.511771   2.495122   0.000000
     9  H    4.331874   4.238682   4.946119   0.000000
    10  C    2.755396   5.360419   4.683353   2.704256   0.000000
    11  H    3.558375   5.870792   5.403753   2.766063   1.095942
    12  H    3.482324   5.813681   5.300174   2.762100   1.110333
    13  H    2.420585   5.904039   4.751851   3.782322   1.101581
    14  N    3.877651   2.126564   3.373214   2.118461   3.746793
    15  C    5.361123   2.634347   4.604002   2.656364   4.954539
    16  H    5.795479   3.255019   5.160980   2.879137   5.212882
    17  H    5.816548   2.204015   4.560234   3.730241   5.846557
    18  C    6.178253   3.890377   5.715149   2.729197   5.282027
    19  H    5.957467   4.508032   5.961427   2.029042   4.604865
    20  H    7.188565   4.640645   6.658100   3.508383   6.177087
    21  C    6.529903   4.101772   5.856088   3.742509   5.938646
    22  H    7.064501   3.986978   5.999933   4.611972   6.798105
    23  H    7.375292   5.205869   6.880562   4.315193   6.514361
    24  S    5.353761   3.786892   4.838863   3.686527   5.122320
    25  O    6.325258   4.986977   5.826202   4.995958   6.170266
    26  O    4.563722   4.155993   4.754798   2.617992   3.787319
    27  O    4.818540   2.539329   3.678645   4.086375   5.309597
    28  P    3.470244   5.694366   4.515509   5.119519   3.969059
    29  O    2.494398   4.533700   3.083051   4.870113   3.879700
    30  O    4.957295   6.576188   5.581831   6.303144   5.467888
    31  H    5.251680   6.122925   5.397982   6.317058   5.895182
    32  O    3.720261   6.923474   5.355866   6.032035   4.195073
    33  H    4.673111   7.733203   6.319738   6.491577   4.716631
    34  O    3.919953   5.852748   5.185876   4.151007   3.256692
    35  H    3.975091   5.097658   4.852972   3.392339   3.219037
                   11         12         13         14         15
    11  H    0.000000
    12  H    1.779356   0.000000
    13  H    1.774893   1.755805   0.000000
    14  N    4.111901   4.098189   4.561923   0.000000
    15  C    5.155324   5.163949   5.879639   1.483585   0.000000
    16  H    5.188303   5.543028   6.161906   2.109555   1.114227
    17  H    6.135025   6.083338   6.690869   2.132932   1.125023
    18  C    5.490727   5.171112   6.291826   2.546971   1.541537
    19  H    4.738183   4.373945   5.661594   2.738710   2.199664
    20  H    6.246784   6.076689   7.222977   3.445279   2.156568
    21  C    6.373776   5.666638   6.849349   3.284304   2.573810
    22  H    7.248530   6.621250   7.671318   3.722855   2.838832
    23  H    6.912181   6.083466   7.447235   4.266341   3.524093
    24  S    5.824725   4.789209   5.847112   3.121590   3.246056
    25  O    6.952523   5.670524   6.789286   4.568356   4.648590
    26  O    4.479926   3.341595   4.562697   2.813268   3.321402
    27  O    6.053589   5.267469   5.915908   2.712636   3.042854
    28  P    5.054554   3.618533   3.815167   5.095002   6.272425
    29  O    4.953989   3.912356   3.746263   4.316344   5.601442
    30  O    6.534866   4.970231   5.358587   6.190304   7.187785
    31  H    6.956702   5.438482   5.924770   5.950946   6.817404
    32  O    5.206484   3.904661   3.650928   6.249703   7.535568
    33  H    5.668882   4.217414   4.228373   6.926624   8.130184
    34  O    4.234724   2.540862   3.417188   4.708533   5.733642
    35  H    4.134368   2.560549   3.678478   3.866910   4.765832
                   16         17         18         19         20
    16  H    0.000000
    17  H    1.793828   0.000000
    18  C    2.187346   2.182413   0.000000
    19  H    2.645457   3.111324   1.112024   0.000000
    20  H    2.362205   2.605917   1.112685   1.763295   0.000000
    21  C    3.498410   2.703405   1.525395   2.174525   2.158232
    22  H    3.730917   2.512498   2.182996   3.102324   2.516545
    23  H    4.320903   3.726515   2.174719   2.513377   2.468524
    24  S    4.325281   3.416406   2.752125   2.978811   3.728995
    25  O    5.727307   4.693010   3.968469   4.154983   4.797483
    26  O    4.233041   3.912718   2.858371   2.538431   3.916490
    27  O    4.134305   2.856009   3.252335   3.756825   4.215974
    28  P    7.114428   6.687941   6.337397   6.010921   7.438491
    29  O    6.419553   5.882950   5.995990   5.859694   7.105750
    30  O    8.140749   7.472670   7.057590   6.813843   8.128124
    31  H    7.837812   6.968738   6.665814   6.571352   7.713277
    32  O    8.264057   8.036781   7.665812   7.216804   8.754164
    33  H    8.875057   8.675537   8.086496   7.559200   9.150299
    34  O    6.512292   6.353357   5.525614   4.981318   6.571936
    35  H    5.590458   5.381040   4.486754   3.994639   5.537916
                   21         22         23         24         25
    21  C    0.000000
    22  H    1.107812   0.000000
    23  H    1.105571   1.759989   0.000000
    24  S    1.801313   2.402028   2.407291   0.000000
    25  O    2.680524   3.067202   2.802214   1.461202   0.000000
    26  O    2.602605   3.517327   3.071216   1.488813   2.502155
    27  O    2.574745   2.666275   3.499610   1.506588   2.466376
    28  P    5.990302   6.649676   6.472259   4.293885   4.476449
    29  O    5.750719   6.253678   6.451881   4.115443   4.590129
    30  O    6.386702   6.956994   6.714958   4.614706   4.280228
    31  H    5.826249   6.274206   6.166305   4.045761   3.543979
    32  O    7.469554   8.181154   7.927359   5.833395   6.031246
    33  H    7.822944   8.591723   8.150278   6.201908   6.232170
    34  O    5.312382   6.167532   5.635628   3.834118   4.130719
    35  H    4.257991   5.129647   4.615460   2.840532   3.322039
                   26         27         28         29         30
    26  O    0.000000
    27  O    2.469333   0.000000
    28  P    3.601939   4.409983   0.000000
    29  O    3.637727   3.739794   1.469513   0.000000
    30  O    4.281731   4.850575   1.580352   2.622231   0.000000
    31  H    4.053855   4.204663   2.188377   2.783165   1.058566
    32  O    4.966405   5.939670   1.598041   2.514331   2.467475
    33  H    5.299961   6.515145   2.145193   3.374942   2.519735
    34  O    2.744627   4.414777   1.582157   2.600527   2.523435
    35  H    1.684169   3.540189   2.183450   2.740509   3.026919
                   31         32         33         34         35
    31  H    0.000000
    32  O    3.400677   0.000000
    33  H    3.562372   1.031182   0.000000
    34  O    3.021780   2.460647   2.600445   0.000000
    35  H    3.179859   3.388449   3.635443   1.060655   0.000000
 Symmetry turned off by external request.
 Stoichiometry    C9H16NO7PS
 Framework group  C1[X(C9H16NO7PS)]
 Deg. of freedom    99
 Full point group                 C1      NOp   1
 Rotational constants (GHZ):           0.4812483           0.2741910           0.2165341
 Leave Link  202 at Sun Feb 19 23:22:43 2023, MaxMem=  6710886400 cpu:               0.1 elap:               0.0
 (Enter /data0/home/software/g16/l122.exe)
 Counterpoise: doing full-system calculation.
 Leave Link  122 at Sun Feb 19 23:22:43 2023, MaxMem=  6710886400 cpu:               0.1 elap:               0.0
 (Enter /data0/home/software/g16/l301.exe)
 Standard basis: 6-311+G(2d,p) (5D, 7F)
 Ernie: Thresh=  0.10000D-02 Tol=  0.10000D-05 Strict=F.
   625 basis functions,   954 primitive gaussians,   663 cartesian basis functions
    82 alpha electrons       82 beta electrons
       nuclear repulsion energy      2059.2680189610 Hartrees.
 IExCor= 4336 DFT=T Ex+Corr=M062X ExCW=0 ScaHFX=  0.540000
 ScaDFX=  1.000000  1.000000  1.000000  1.000000 ScalE2=  1.000000  1.000000
 IRadAn=      5 IRanWt=     -1 IRanGd=            0 ICorTp=0 IEmpDi=131
 NAtoms=   35 NActive=   35 NUniq=   35 SFac= 1.00D+00 NAtFMM=   60 NAOKFM=F Big=F
 Integral buffers will be    131072 words long.
 Raffenetti 2 integral format.
 Two-electron integral symmetry is turned off.
 R6Disp:  Grimme-D3 Dispersion energy=       -0.0026960071 Hartrees.
 Nuclear repulsion after empirical dispersion term =     2059.2653229538 Hartrees.
 Leave Link  301 at Sun Feb 19 23:22:43 2023, MaxMem=  6710886400 cpu:               1.1 elap:               0.1
 (Enter /data0/home/software/g16/l302.exe)
 NPDir=0 NMtPBC=     1 NCelOv=     1 NCel=       1 NClECP=     1 NCelD=      1
         NCelK=      1 NCelE2=     1 NClLst=     1 CellRange=     0.0.
 One-electron integrals computed using PRISM.
 NBasis=   625 RedAO= T EigKep=  1.63D-06  NBF=   625
 NBsUse=   625 1.00D-06 EigRej= -1.00D+00 NBFU=   625
 Precomputing XC quadrature grid using
 IXCGrd= 4 IRadAn=           5 IRanWt=          -1 IRanGd=           0 AccXCQ= 0.00D+00.
 Generated NRdTot=       0 NPtTot=           0 NUsed=           0 NTot=          32
 NSgBfM=   662   662   662   662   662 MxSgAt=    35 MxSgA2=    35.
 Leave Link  302 at Sun Feb 19 23:22:44 2023, MaxMem=  6710886400 cpu:              17.8 elap:               0.8
 (Enter /data0/home/software/g16/l303.exe)
 DipDrv:  MaxL=1.
 Leave Link  303 at Sun Feb 19 23:22:44 2023, MaxMem=  6710886400 cpu:               1.6 elap:               0.1
 (Enter /data0/home/software/g16/l401.exe)
 ExpMin= 3.48D-02 ExpMax= 9.34D+04 ExpMxC= 3.17D+03 IAcc=3 IRadAn=         5 AccDes= 0.00D+00
 Harris functional with IExCor= 1009 and IRadAn=       5 diagonalized for initial guess.
 HarFok:  IExCor= 1009 AccDes= 0.00D+00 IRadAn=         5 IDoV= 1 UseB2=F ITyADJ=14
 ICtDFT=  3500011 ScaDFX=  1.000000  1.000000  1.000000  1.000000
 FoFCou: FMM=F IPFlag=           0 FMFlag=      100000 FMFlg1=           0
         NFxFlg=           0 DoJE=T BraDBF=F KetDBF=T FulRan=T
         wScrn=  0.000000 ICntrl=       500 IOpCl=  0 I1Cent=   200000004 NGrid=           0
         NMat0=    1 NMatS0=      1 NMatT0=    0 NMatD0=    1 NMtDS0=    0 NMtDT0=    0
 Symmetry not used in FoFCou.
 Harris En= -1672.82715386131    
 JPrj=0 DoOrth=F DoCkMO=F.
 Leave Link  401 at Sun Feb 19 23:22:47 2023, MaxMem=  6710886400 cpu:              70.8 elap:               3.0
 (Enter /data0/home/software/g16/l502.exe)
 Two-electron integral symmetry not used.
 Closed shell SCF:
 Using DIIS extrapolation, IDIIS=  1040.
 NGot=  6710886400 LenX=  6709986778 LenY=  6709546546
 Requested convergence on RMS density matrix=1.00D-08 within 128 cycles.
 Requested convergence on MAX density matrix=1.00D-06.
 Requested convergence on             energy=1.00D-06.
 No special actions if energy rises.
 Fock matrices will be formed incrementally for  20 cycles.

 Cycle   1  Pass 1  IDiag  1:
 FoFJK:  IHMeth= 1 ICntrl=       0 DoSepK=F KAlg= 0 I1Cent=           0 FoldK=F
 IRaf= 840000000 NMat=       1 IRICut=       1 DoRegI=T DoRafI=F ISym2E= 0 IDoP0=0 IntGTp=1.
 FoFCou: FMM=F IPFlag=           0 FMFlag=      100000 FMFlg1=           0
         NFxFlg=           0 DoJE=F BraDBF=F KetDBF=F FulRan=T
         wScrn=  0.000000 ICntrl=         0 IOpCl=  0 I1Cent=           0 NGrid=           0
         NMat0=    1 NMatS0=      1 NMatT0=    0 NMatD0=    1 NMtDS0=    0 NMtDT0=    0
 Symmetry not used in FoFCou.
 E= -1672.67476715761    
 DIIS: error= 2.38D-02 at cycle   1 NSaved=   1.
 NSaved= 1 IEnMin= 1 EnMin= -1672.67476715761     IErMin= 1 ErrMin= 2.38D-02
 ErrMax= 2.38D-02  0.00D+00 EMaxC= 1.00D-01 BMatC= 1.27D+00 BMatP= 1.27D+00
 IDIUse=3 WtCom= 7.62D-01 WtEn= 2.38D-01
 Coeff-Com:  0.100D+01
 Coeff-En:   0.100D+01
 Coeff:      0.100D+01
 Gap=     0.211 Goal=   None    Shift=    0.000
 GapD=    0.211 DampG=1.000 DampE=0.500 DampFc=0.5000 IDamp=-1.
 Damping current iteration by 5.00D-01
 RMSDP=1.17D-02 MaxDP=1.47D+00              OVMax= 2.48D-01

 Cycle   2  Pass 1  IDiag  1:
 RMSU=  5.84D-03    CP:  1.01D+00
 E= -1672.99730304593     Delta-E=       -0.322535888319 Rises=F Damp=T
 DIIS: error= 5.16D-03 at cycle   2 NSaved=   2.
 NSaved= 2 IEnMin= 2 EnMin= -1672.99730304593     IErMin= 2 ErrMin= 5.16D-03
 ErrMax= 5.16D-03  0.00D+00 EMaxC= 1.00D-01 BMatC= 8.70D-02 BMatP= 1.27D+00
 IDIUse=3 WtCom= 9.48D-01 WtEn= 5.16D-02
 Coeff-Com:  0.582D-01 0.942D+00
 Coeff-En:   0.174D+00 0.826D+00
 Coeff:      0.642D-01 0.936D+00
 Gap=     0.346 Goal=   None    Shift=    0.000
 RMSDP=6.87D-03 MaxDP=1.74D+00 DE=-3.23D-01 OVMax= 1.57D-01

 Cycle   3  Pass 1  IDiag  1:
 RMSU=  3.90D-03    CP:  8.01D-01  9.46D-01
 E= -1673.42058330762     Delta-E=       -0.423280261691 Rises=F Damp=F
 DIIS: error= 4.94D-03 at cycle   3 NSaved=   3.
 NSaved= 3 IEnMin= 3 EnMin= -1673.42058330762     IErMin= 3 ErrMin= 4.94D-03
 ErrMax= 4.94D-03  0.00D+00 EMaxC= 1.00D-01 BMatC= 4.66D-02 BMatP= 8.70D-02
 IDIUse=3 WtCom= 9.51D-01 WtEn= 4.94D-02
 Coeff-Com: -0.378D-01 0.404D+00 0.634D+00
 Coeff-En:   0.000D+00 0.000D+00 0.100D+01
 Coeff:     -0.360D-01 0.384D+00 0.652D+00
 Gap=     0.247 Goal=   None    Shift=    0.000
 RMSDP=1.43D-03 MaxDP=2.76D-01 DE=-4.23D-01 OVMax= 4.95D-02

 Cycle   4  Pass 1  IDiag  1:
 RMSU=  1.22D-03    CP:  7.89D-01  9.92D-01  8.36D-01
 E= -1673.45029351502     Delta-E=       -0.029710207395 Rises=F Damp=F
 DIIS: error= 2.37D-03 at cycle   4 NSaved=   4.
 NSaved= 4 IEnMin= 4 EnMin= -1673.45029351502     IErMin= 4 ErrMin= 2.37D-03
 ErrMax= 2.37D-03  0.00D+00 EMaxC= 1.00D-01 BMatC= 1.06D-02 BMatP= 4.66D-02
 IDIUse=3 WtCom= 9.76D-01 WtEn= 2.37D-02
 Coeff-Com: -0.279D-01 0.875D-01 0.359D+00 0.581D+00
 Coeff-En:   0.000D+00 0.000D+00 0.179D+00 0.821D+00
 Coeff:     -0.272D-01 0.855D-01 0.355D+00 0.587D+00
 Gap=     0.248 Goal=   None    Shift=    0.000
 RMSDP=7.18D-04 MaxDP=1.16D-01 DE=-2.97D-02 OVMax= 1.79D-02

 Cycle   5  Pass 1  IDiag  1:
 RMSU=  3.91D-04    CP:  7.84D-01  9.57D-01  9.21D-01  6.38D-01
 E= -1673.45860521740     Delta-E=       -0.008311702383 Rises=F Damp=F
 DIIS: error= 5.35D-04 at cycle   5 NSaved=   5.
 NSaved= 5 IEnMin= 5 EnMin= -1673.45860521740     IErMin= 5 ErrMin= 5.35D-04
 ErrMax= 5.35D-04  0.00D+00 EMaxC= 1.00D-01 BMatC= 3.88D-04 BMatP= 1.06D-02
 IDIUse=3 WtCom= 9.95D-01 WtEn= 5.35D-03
 Coeff-Com: -0.938D-02 0.195D-01 0.123D+00 0.261D+00 0.605D+00
 Coeff-En:   0.000D+00 0.000D+00 0.000D+00 0.000D+00 0.100D+01
 Coeff:     -0.933D-02 0.194D-01 0.123D+00 0.260D+00 0.608D+00
 Gap=     0.247 Goal=   None    Shift=    0.000
 RMSDP=1.48D-04 MaxDP=3.04D-02 DE=-8.31D-03 OVMax= 4.12D-03

 Cycle   6  Pass 1  IDiag  1:
 RMSU=  7.55D-05    CP:  7.86D-01  9.68D-01  9.13D-01  6.62D-01  7.60D-01
 E= -1673.45891310403     Delta-E=       -0.000307886630 Rises=F Damp=F
 DIIS: error= 1.36D-04 at cycle   6 NSaved=   6.
 NSaved= 6 IEnMin= 6 EnMin= -1673.45891310403     IErMin= 6 ErrMin= 1.36D-04
 ErrMax= 1.36D-04  0.00D+00 EMaxC= 1.00D-01 BMatC= 4.34D-05 BMatP= 3.88D-04
 IDIUse=3 WtCom= 9.99D-01 WtEn= 1.36D-03
 Coeff-Com: -0.177D-02 0.896D-03 0.246D-01 0.678D-01 0.298D+00 0.611D+00
 Coeff-En:   0.000D+00 0.000D+00 0.000D+00 0.000D+00 0.000D+00 0.100D+01
 Coeff:     -0.176D-02 0.894D-03 0.245D-01 0.677D-01 0.297D+00 0.611D+00
 Gap=     0.247 Goal=   None    Shift=    0.000
 RMSDP=4.36D-05 MaxDP=6.66D-03 DE=-3.08D-04 OVMax= 1.23D-03

 Cycle   7  Pass 1  IDiag  1:
 RMSU=  2.78D-05    CP:  7.85D-01  9.65D-01  9.15D-01  6.70D-01  7.95D-01
                    CP:  8.81D-01
 E= -1673.45894736016     Delta-E=       -0.000034256124 Rises=F Damp=F
 DIIS: error= 3.70D-05 at cycle   7 NSaved=   7.
 NSaved= 7 IEnMin= 7 EnMin= -1673.45894736016     IErMin= 7 ErrMin= 3.70D-05
 ErrMax= 3.70D-05  0.00D+00 EMaxC= 1.00D-01 BMatC= 2.82D-06 BMatP= 4.34D-05
 IDIUse=1 WtCom= 1.00D+00 WtEn= 0.00D+00
 Coeff-Com:  0.217D-03-0.144D-02-0.247D-02 0.864D-03 0.688D-01 0.241D+00
 Coeff-Com:  0.693D+00
 Coeff:      0.217D-03-0.144D-02-0.247D-02 0.864D-03 0.688D-01 0.241D+00
 Coeff:      0.693D+00
 Gap=     0.247 Goal=   None    Shift=    0.000
 RMSDP=1.95D-05 MaxDP=4.49D-03 DE=-3.43D-05 OVMax= 3.15D-04

 Cycle   8  Pass 1  IDiag  1:
 RMSU=  1.39D-05    CP:  7.85D-01  9.66D-01  9.16D-01  6.65D-01  7.99D-01
                    CP:  9.72D-01  9.72D-01
 E= -1673.45894954835     Delta-E=       -0.000002188192 Rises=F Damp=F
 DIIS: error= 1.20D-05 at cycle   8 NSaved=   8.
 NSaved= 8 IEnMin= 8 EnMin= -1673.45894954835     IErMin= 8 ErrMin= 1.20D-05
 ErrMax= 1.20D-05  0.00D+00 EMaxC= 1.00D-01 BMatC= 4.18D-07 BMatP= 2.82D-06
 IDIUse=1 WtCom= 1.00D+00 WtEn= 0.00D+00
 Coeff-Com:  0.318D-03-0.716D-03-0.448D-02-0.906D-02-0.808D-02 0.133D-01
 Coeff-Com:  0.292D+00 0.716D+00
 Coeff:      0.318D-03-0.716D-03-0.448D-02-0.906D-02-0.808D-02 0.133D-01
 Coeff:      0.292D+00 0.716D+00
 Gap=     0.247 Goal=   None    Shift=    0.000
 RMSDP=1.03D-05 MaxDP=2.58D-03 DE=-2.19D-06 OVMax= 1.11D-04

 Cycle   9  Pass 1  IDiag  1:
 RMSU=  4.28D-06    CP:  7.85D-01  9.65D-01  9.16D-01  6.66D-01  8.07D-01
                    CP:  9.50D-01  1.01D+00  7.45D-01
 E= -1673.45894989043     Delta-E=       -0.000000342081 Rises=F Damp=F
 DIIS: error= 5.91D-06 at cycle   9 NSaved=   9.
 NSaved= 9 IEnMin= 9 EnMin= -1673.45894989043     IErMin= 9 ErrMin= 5.91D-06
 ErrMax= 5.91D-06  0.00D+00 EMaxC= 1.00D-01 BMatC= 6.25D-08 BMatP= 4.18D-07
 IDIUse=1 WtCom= 1.00D+00 WtEn= 0.00D+00
 Coeff-Com:  0.132D-03-0.219D-03-0.206D-02-0.472D-02-0.949D-02-0.148D-01
 Coeff-Com:  0.880D-01 0.357D+00 0.586D+00
 Coeff:      0.132D-03-0.219D-03-0.206D-02-0.472D-02-0.949D-02-0.148D-01
 Coeff:      0.880D-01 0.357D+00 0.586D+00
 Gap=     0.247 Goal=   None    Shift=    0.000
 RMSDP=2.36D-06 MaxDP=5.19D-04 DE=-3.42D-07 OVMax= 4.31D-05

 Cycle  10  Pass 1  IDiag  1:
 RMSU=  1.00D-06    CP:  7.85D-01  9.65D-01  9.16D-01  6.65D-01  8.06D-01
                    CP:  9.60D-01  1.02D+00  8.04D-01  8.07D-01
 E= -1673.45894993932     Delta-E=       -0.000000048894 Rises=F Damp=F
 DIIS: error= 1.57D-06 at cycle  10 NSaved=  10.
 NSaved=10 IEnMin=10 EnMin= -1673.45894993932     IErMin=10 ErrMin= 1.57D-06
 ErrMax= 1.57D-06  0.00D+00 EMaxC= 1.00D-01 BMatC= 5.35D-09 BMatP= 6.25D-08
 IDIUse=1 WtCom= 1.00D+00 WtEn= 0.00D+00
 Coeff-Com:  0.135D-04-0.300D-05-0.316D-03-0.859D-03-0.281D-02-0.831D-02
 Coeff-Com:  0.369D-03 0.560D-01 0.243D+00 0.713D+00
 Coeff:      0.135D-04-0.300D-05-0.316D-03-0.859D-03-0.281D-02-0.831D-02
 Coeff:      0.369D-03 0.560D-01 0.243D+00 0.713D+00
 Gap=     0.247 Goal=   None    Shift=    0.000
 RMSDP=6.29D-07 MaxDP=9.28D-05 DE=-4.89D-08 OVMax= 1.82D-05

 Cycle  11  Pass 1  IDiag  1:
 RMSU=  4.30D-07    CP:  7.85D-01  9.65D-01  9.16D-01  6.65D-01  8.06D-01
                    CP:  9.59D-01  1.02D+00  8.10D-01  8.78D-01  8.99D-01
 E= -1673.45894994417     Delta-E=       -0.000000004850 Rises=F Damp=F
 DIIS: error= 5.52D-07 at cycle  11 NSaved=  11.
 NSaved=11 IEnMin=11 EnMin= -1673.45894994417     IErMin=11 ErrMin= 5.52D-07
 ErrMax= 5.52D-07  0.00D+00 EMaxC= 1.00D-01 BMatC= 5.91D-10 BMatP= 5.35D-09
 IDIUse=1 WtCom= 1.00D+00 WtEn= 0.00D+00
 Coeff-Com: -0.123D-04 0.274D-04 0.169D-03 0.318D-03 0.270D-03-0.129D-02
 Coeff-Com: -0.122D-01-0.317D-01 0.212D-02 0.254D+00 0.788D+00
 Coeff:     -0.123D-04 0.274D-04 0.169D-03 0.318D-03 0.270D-03-0.129D-02
 Coeff:     -0.122D-01-0.317D-01 0.212D-02 0.254D+00 0.788D+00
 Gap=     0.247 Goal=   None    Shift=    0.000
 RMSDP=3.01D-07 MaxDP=5.31D-05 DE=-4.85D-09 OVMax= 6.45D-06

 Cycle  12  Pass 1  IDiag  1:
 RMSU=  1.52D-07    CP:  7.85D-01  9.65D-01  9.16D-01  6.65D-01  8.06D-01
                    CP:  9.58D-01  1.02D+00  8.07D-01  9.09D-01  9.65D-01
                    CP:  9.95D-01
 E= -1673.45894994475     Delta-E=       -0.000000000573 Rises=F Damp=F
 DIIS: error= 1.32D-07 at cycle  12 NSaved=  12.
 NSaved=12 IEnMin=12 EnMin= -1673.45894994475     IErMin=12 ErrMin= 1.32D-07
 ErrMax= 1.32D-07  0.00D+00 EMaxC= 1.00D-01 BMatC= 5.71D-11 BMatP= 5.91D-10
 IDIUse=1 WtCom= 1.00D+00 WtEn= 0.00D+00
 Coeff-Com: -0.404D-05 0.788D-05 0.783D-04 0.158D-03 0.326D-03 0.249D-03
 Coeff-Com: -0.355D-02-0.142D-01-0.207D-01 0.234D-01 0.270D+00 0.744D+00
 Coeff:     -0.404D-05 0.788D-05 0.783D-04 0.158D-03 0.326D-03 0.249D-03
 Coeff:     -0.355D-02-0.142D-01-0.207D-01 0.234D-01 0.270D+00 0.744D+00
 Gap=     0.247 Goal=   None    Shift=    0.000
 RMSDP=6.62D-08 MaxDP=9.72D-06 DE=-5.73D-10 OVMax= 3.16D-06

 Cycle  13  Pass 1  IDiag  1:
 RMSU=  4.53D-08    CP:  7.85D-01  9.65D-01  9.16D-01  6.65D-01  8.06D-01
                    CP:  9.59D-01  1.02D+00  8.08D-01  9.06D-01  9.80D-01
                    CP:  1.01D+00  1.01D+00
 E= -1673.45894994494     Delta-E=       -0.000000000197 Rises=F Damp=F
 DIIS: error= 9.51D-08 at cycle  13 NSaved=  13.
 NSaved=13 IEnMin=13 EnMin= -1673.45894994494     IErMin=13 ErrMin= 9.51D-08
 ErrMax= 9.51D-08  0.00D+00 EMaxC= 1.00D-01 BMatC= 1.24D-11 BMatP= 5.71D-11
 IDIUse=1 WtCom= 1.00D+00 WtEn= 0.00D+00
 Coeff-Com: -0.986D-07-0.440D-06 0.159D-04 0.324D-04 0.124D-03 0.275D-03
 Coeff-Com: -0.173D-03-0.262D-02-0.103D-01-0.236D-01 0.121D-01 0.339D+00
 Coeff-Com:  0.685D+00
 Coeff:     -0.986D-07-0.440D-06 0.159D-04 0.324D-04 0.124D-03 0.275D-03
 Coeff:     -0.173D-03-0.262D-02-0.103D-01-0.236D-01 0.121D-01 0.339D+00
 Coeff:      0.685D+00
 Gap=     0.247 Goal=   None    Shift=    0.000
 RMSDP=3.78D-08 MaxDP=5.59D-06 DE=-1.97D-10 OVMax= 1.22D-06

 Cycle  14  Pass 1  IDiag  1:
 RMSU=  1.85D-08    CP:  7.85D-01  9.65D-01  9.16D-01  6.65D-01  8.06D-01
                    CP:  9.59D-01  1.02D+00  8.08D-01  9.07D-01  9.80D-01
                    CP:  1.03D+00  1.11D+00  9.22D-01
 E= -1673.45894994493     Delta-E=        0.000000000019 Rises=F Damp=F
 DIIS: error= 3.15D-08 at cycle  14 NSaved=  14.
 NSaved=14 IEnMin=13 EnMin= -1673.45894994494     IErMin=14 ErrMin= 3.15D-08
 ErrMax= 3.15D-08  0.00D+00 EMaxC= 1.00D-01 BMatC= 1.47D-12 BMatP= 1.24D-11
 IDIUse=1 WtCom= 1.00D+00 WtEn= 0.00D+00
 Coeff-Com:  0.596D-06-0.132D-05-0.421D-05-0.966D-05 0.818D-05 0.803D-04
 Coeff-Com:  0.465D-03 0.104D-02-0.145D-02-0.140D-01-0.359D-01 0.546D-01
 Coeff-Com:  0.304D+00 0.691D+00
 Coeff:      0.596D-06-0.132D-05-0.421D-05-0.966D-05 0.818D-05 0.803D-04
 Coeff:      0.465D-03 0.104D-02-0.145D-02-0.140D-01-0.359D-01 0.546D-01
 Coeff:      0.304D+00 0.691D+00
 Gap=     0.247 Goal=   None    Shift=    0.000
 RMSDP=1.35D-08 MaxDP=2.30D-06 DE= 1.86D-11 OVMax= 5.67D-07

 Cycle  15  Pass 1  IDiag  1:
 RMSU=  6.70D-09    CP:  7.85D-01  9.65D-01  9.16D-01  6.65D-01  8.06D-01
                    CP:  9.59D-01  1.02D+00  8.08D-01  9.06D-01  9.79D-01
                    CP:  1.03D+00  1.15D+00  1.08D+00  9.70D-01
 E= -1673.45894994489     Delta-E=        0.000000000034 Rises=F Damp=F
 DIIS: error= 7.80D-09 at cycle  15 NSaved=  15.
 NSaved=15 IEnMin=13 EnMin= -1673.45894994494     IErMin=15 ErrMin= 7.80D-09
 ErrMax= 7.80D-09  0.00D+00 EMaxC= 1.00D-01 BMatC= 1.56D-13 BMatP= 1.47D-12
 IDIUse=1 WtCom= 1.00D+00 WtEn= 0.00D+00
 Coeff-Com:  0.183D-06-0.376D-06-0.310D-05-0.656D-05-0.102D-04-0.715D-05
 Coeff-Com:  0.169D-03 0.637D-03 0.828D-03-0.162D-02-0.142D-01-0.240D-01
 Coeff-Com:  0.512D-02 0.251D+00 0.782D+00
 Coeff:      0.183D-06-0.376D-06-0.310D-05-0.656D-05-0.102D-04-0.715D-05
 Coeff:      0.169D-03 0.637D-03 0.828D-03-0.162D-02-0.142D-01-0.240D-01
 Coeff:      0.512D-02 0.251D+00 0.782D+00
 Gap=     0.247 Goal=   None    Shift=    0.000
 RMSDP=5.15D-09 MaxDP=1.04D-06 DE= 3.41D-11 OVMax= 2.64D-07

 Cycle  16  Pass 1  IDiag  1:
 RMSU=  1.84D-09    CP:  7.85D-01  9.65D-01  9.16D-01  6.65D-01  8.06D-01
                    CP:  9.59D-01  1.02D+00  8.08D-01  9.06D-01  9.78D-01
                    CP:  1.03D+00  1.16D+00  1.11D+00  1.07D+00  1.12D+00
 E= -1673.45894994484     Delta-E=        0.000000000048 Rises=F Damp=F
 DIIS: error= 4.58D-09 at cycle  16 NSaved=  16.
 NSaved=16 IEnMin=13 EnMin= -1673.45894994494     IErMin=16 ErrMin= 4.58D-09
 ErrMax= 4.58D-09  0.00D+00 EMaxC= 1.00D-01 BMatC= 1.85D-14 BMatP= 1.56D-13
 IDIUse=1 WtCom= 1.00D+00 WtEn= 0.00D+00
 Coeff-Com: -0.244D-07 0.560D-07-0.429D-06-0.885D-06-0.362D-05-0.127D-04
 Coeff-Com: -0.282D-06 0.768D-04 0.480D-03 0.122D-02-0.248D-03-0.142D-01
 Coeff-Com: -0.408D-01 0.234D-02 0.259D+00 0.792D+00
 Coeff:     -0.244D-07 0.560D-07-0.429D-06-0.885D-06-0.362D-05-0.127D-04
 Coeff:     -0.282D-06 0.768D-04 0.480D-03 0.122D-02-0.248D-03-0.142D-01
 Coeff:     -0.408D-01 0.234D-02 0.259D+00 0.792D+00
 Gap=     0.247 Goal=   None    Shift=    0.000
 RMSDP=1.92D-09 MaxDP=2.54D-07 DE= 4.82D-11 OVMax= 7.92D-08

 SCF Done:  E(RM062X) =  -1673.45894994     A.U. after   16 cycles
            NFock= 16  Conv=0.19D-08     -V/T= 2.0030
 KE= 1.668403529901D+03 PE=-8.067009551426D+03 EE= 2.665881748627D+03
 Leave Link  502 at Sun Feb 19 23:25:58 2023, MaxMem=  6710886400 cpu:            4562.4 elap:             190.7
 (Enter /data0/home/software/g16/l601.exe)
 Copying SCF densities to generalized density rwf, IOpCl= 0 IROHF=0.

 **********************************************************************

            Population analysis using the SCF density.

 **********************************************************************

 Alpha  occ. eigenvalues --  -90.07074 -78.14259 -19.65869 -19.65172 -19.62968
 Alpha  occ. eigenvalues --  -19.59440 -19.57495 -19.57078 -19.56223 -14.87122
 Alpha  occ. eigenvalues --  -10.63503 -10.63450 -10.62850 -10.59114 -10.58719
 Alpha  occ. eigenvalues --  -10.58040 -10.57726 -10.56633 -10.55129  -8.40527
 Alpha  occ. eigenvalues --   -6.95000  -6.32822  -6.32761  -6.32745  -5.06926
 Alpha  occ. eigenvalues --   -5.06851  -5.06733  -1.21532  -1.21120  -1.14653
 Alpha  occ. eigenvalues --   -1.13878  -1.12492  -1.08633  -1.07323  -1.05915
 Alpha  occ. eigenvalues --   -0.96988  -0.92452  -0.90892  -0.84029  -0.82249
 Alpha  occ. eigenvalues --   -0.76749  -0.73502  -0.71661  -0.69939  -0.65601
 Alpha  occ. eigenvalues --   -0.63933  -0.62055  -0.61108  -0.60481  -0.59424
 Alpha  occ. eigenvalues --   -0.58240  -0.56637  -0.55327  -0.54327  -0.53900
 Alpha  occ. eigenvalues --   -0.52745  -0.52230  -0.51089  -0.50130  -0.49744
 Alpha  occ. eigenvalues --   -0.49263  -0.48699  -0.48441  -0.47226  -0.46891
 Alpha  occ. eigenvalues --   -0.45274  -0.44593  -0.44424  -0.44049  -0.43725
 Alpha  occ. eigenvalues --   -0.43222  -0.40067  -0.39540  -0.39197  -0.37851
 Alpha  occ. eigenvalues --   -0.37087  -0.36317  -0.34695  -0.34489  -0.34226
 Alpha  occ. eigenvalues --   -0.33126  -0.29838
 Alpha virt. eigenvalues --   -0.05092  -0.01438  -0.00757   0.00524   0.00791
 Alpha virt. eigenvalues --    0.01235   0.02195   0.02631   0.02915   0.03622
 Alpha virt. eigenvalues --    0.04141   0.05073   0.05450   0.05688   0.06195
 Alpha virt. eigenvalues --    0.06555   0.07705   0.08043   0.08123   0.08356
 Alpha virt. eigenvalues --    0.09061   0.09495   0.10204   0.10598   0.11316
 Alpha virt. eigenvalues --    0.11374   0.11798   0.12046   0.12526   0.12911
 Alpha virt. eigenvalues --    0.13523   0.13821   0.14349   0.14694   0.15002
 Alpha virt. eigenvalues --    0.15097   0.15659   0.15773   0.16222   0.16425
 Alpha virt. eigenvalues --    0.16849   0.16920   0.17686   0.18098   0.18371
 Alpha virt. eigenvalues --    0.18853   0.19075   0.19322   0.19946   0.20263
 Alpha virt. eigenvalues --    0.20571   0.20963   0.20997   0.21548   0.21775
 Alpha virt. eigenvalues --    0.21983   0.22272   0.22502   0.22798   0.23026
 Alpha virt. eigenvalues --    0.23564   0.24288   0.24503   0.24691   0.25250
 Alpha virt. eigenvalues --    0.25495   0.26052   0.26555   0.26831   0.27287
 Alpha virt. eigenvalues --    0.27693   0.27875   0.28267   0.28472   0.28821
 Alpha virt. eigenvalues --    0.29039   0.29636   0.29949   0.30273   0.30814
 Alpha virt. eigenvalues --    0.31600   0.32179   0.32506   0.32741   0.33023
 Alpha virt. eigenvalues --    0.33391   0.34104   0.34379   0.34656   0.34985
 Alpha virt. eigenvalues --    0.35608   0.35925   0.36189   0.36591   0.37343
 Alpha virt. eigenvalues --    0.37861   0.38038   0.38426   0.38994   0.39000
 Alpha virt. eigenvalues --    0.39421   0.40384   0.40761   0.41120   0.41738
 Alpha virt. eigenvalues --    0.42474   0.43160   0.43700   0.44564   0.45270
 Alpha virt. eigenvalues --    0.45660   0.45924   0.47298   0.47901   0.48284
 Alpha virt. eigenvalues --    0.48744   0.49682   0.50051   0.50353   0.51178
 Alpha virt. eigenvalues --    0.51918   0.53096   0.53437   0.55131   0.55605
 Alpha virt. eigenvalues --    0.56006   0.56539   0.56903   0.57643   0.58149
 Alpha virt. eigenvalues --    0.58993   0.60280   0.60612   0.60834   0.61485
 Alpha virt. eigenvalues --    0.61738   0.62606   0.63935   0.64401   0.65142
 Alpha virt. eigenvalues --    0.65317   0.66196   0.67004   0.67457   0.67909
 Alpha virt. eigenvalues --    0.68506   0.68741   0.69648   0.70014   0.71561
 Alpha virt. eigenvalues --    0.71957   0.72218   0.72999   0.73559   0.73953
 Alpha virt. eigenvalues --    0.74263   0.75373   0.76217   0.76910   0.77221
 Alpha virt. eigenvalues --    0.77545   0.79713   0.80308   0.81200   0.81689
 Alpha virt. eigenvalues --    0.82241   0.82458   0.83872   0.84182   0.84946
 Alpha virt. eigenvalues --    0.84977   0.86389   0.86878   0.87694   0.87990
 Alpha virt. eigenvalues --    0.88667   0.90045   0.90847   0.90981   0.91791
 Alpha virt. eigenvalues --    0.93300   0.94269   0.94683   0.96111   0.96768
 Alpha virt. eigenvalues --    0.97228   0.98292   0.99697   1.00812   1.02125
 Alpha virt. eigenvalues --    1.03040   1.04527   1.04883   1.07193   1.07803
 Alpha virt. eigenvalues --    1.08877   1.09767   1.09996   1.10614   1.12448
 Alpha virt. eigenvalues --    1.13762   1.15091   1.15630   1.16151   1.17613
 Alpha virt. eigenvalues --    1.18274   1.19081   1.19441   1.20501   1.22073
 Alpha virt. eigenvalues --    1.22257   1.22994   1.23173   1.23933   1.25221
 Alpha virt. eigenvalues --    1.26218   1.27033   1.27328   1.27681   1.28178
 Alpha virt. eigenvalues --    1.29662   1.30572   1.30897   1.31543   1.32741
 Alpha virt. eigenvalues --    1.33380   1.33612   1.34039   1.34378   1.35782
 Alpha virt. eigenvalues --    1.36193   1.36506   1.36981   1.38174   1.38776
 Alpha virt. eigenvalues --    1.40184   1.40382   1.40965   1.41306   1.42511
 Alpha virt. eigenvalues --    1.42889   1.43160   1.43506   1.44616   1.45822
 Alpha virt. eigenvalues --    1.46487   1.47094   1.48200   1.48940   1.50338
 Alpha virt. eigenvalues --    1.51975   1.52312   1.52584   1.54098   1.56037
 Alpha virt. eigenvalues --    1.56931   1.57554   1.57926   1.58481   1.59843
 Alpha virt. eigenvalues --    1.60071   1.61564   1.62161   1.63013   1.64257
 Alpha virt. eigenvalues --    1.64628   1.65967   1.67210   1.67530   1.68211
 Alpha virt. eigenvalues --    1.68845   1.70517   1.71223   1.72832   1.73483
 Alpha virt. eigenvalues --    1.75526   1.76057   1.76872   1.77196   1.77772
 Alpha virt. eigenvalues --    1.79618   1.80832   1.82452   1.83535   1.83633
 Alpha virt. eigenvalues --    1.85818   1.86083   1.86509   1.87956   1.89422
 Alpha virt. eigenvalues --    1.89988   1.90744   1.91740   1.93062   1.93705
 Alpha virt. eigenvalues --    1.95363   1.95796   1.96553   1.97017   1.98257
 Alpha virt. eigenvalues --    1.98559   2.00017   2.01079   2.02711   2.03746
 Alpha virt. eigenvalues --    2.04540   2.06190   2.08268   2.09930   2.10432
 Alpha virt. eigenvalues --    2.12040   2.13019   2.13935   2.15399   2.16131
 Alpha virt. eigenvalues --    2.16467   2.17418   2.18073   2.19997   2.21709
 Alpha virt. eigenvalues --    2.22399   2.22872   2.23292   2.24749   2.25482
 Alpha virt. eigenvalues --    2.29515   2.30316   2.31475   2.32210   2.32739
 Alpha virt. eigenvalues --    2.33399   2.35868   2.36722   2.37086   2.38191
 Alpha virt. eigenvalues --    2.38577   2.40432   2.40984   2.42444   2.44057
 Alpha virt. eigenvalues --    2.44630   2.46595   2.47345   2.48720   2.51390
 Alpha virt. eigenvalues --    2.52340   2.54377   2.56478   2.57947   2.59470
 Alpha virt. eigenvalues --    2.64426   2.65945   2.66615   2.71658   2.73021
 Alpha virt. eigenvalues --    2.73968   2.75540   2.76511   2.77969   2.79108
 Alpha virt. eigenvalues --    2.80830   2.80987   2.81904   2.83747   2.84591
 Alpha virt. eigenvalues --    2.85717   2.88030   2.88491   2.89649   2.90583
 Alpha virt. eigenvalues --    2.92506   2.93008   2.93411   2.94593   2.96175
 Alpha virt. eigenvalues --    2.97706   2.98395   3.00034   3.01096   3.02339
 Alpha virt. eigenvalues --    3.05209   3.05874   3.10029   3.12528   3.13895
 Alpha virt. eigenvalues --    3.15745   3.16988   3.20703   3.22133   3.24169
 Alpha virt. eigenvalues --    3.26935   3.28304   3.29247   3.32088   3.32632
 Alpha virt. eigenvalues --    3.33922   3.34471   3.36222   3.37987   3.39358
 Alpha virt. eigenvalues --    3.42914   3.44508   3.44841   3.47217   3.48131
 Alpha virt. eigenvalues --    3.49857   3.50706   3.51303   3.52453   3.54502
 Alpha virt. eigenvalues --    3.55876   3.56685   3.57989   3.58950   3.60305
 Alpha virt. eigenvalues --    3.61398   3.61862   3.63026   3.63633   3.65931
 Alpha virt. eigenvalues --    3.67766   3.69348   3.69798   3.71596   3.73119
 Alpha virt. eigenvalues --    3.74587   3.76317   3.76673   3.80384   3.83097
 Alpha virt. eigenvalues --    3.84326   3.86793   3.87537   3.90795   3.94899
 Alpha virt. eigenvalues --    3.96748   4.00285   4.04686   4.07869   4.09547
 Alpha virt. eigenvalues --    4.15621   4.17160   4.17353   4.19683   4.20618
 Alpha virt. eigenvalues --    4.23703   4.32392   4.36922   4.48058   4.53682
 Alpha virt. eigenvalues --    4.65526   4.73246   4.97583   5.05473   5.07382
 Alpha virt. eigenvalues --    5.09517   5.12435   5.13505   5.14138   5.17787
 Alpha virt. eigenvalues --    5.20428   5.22653   5.25976   5.26924   5.28085
 Alpha virt. eigenvalues --    5.30311   5.33083   5.33624   5.35093   5.38759
 Alpha virt. eigenvalues --    5.43053   5.47395   5.47832   5.49957   5.50892
 Alpha virt. eigenvalues --    5.56308   5.56841   5.57764   5.59125   5.68055
 Alpha virt. eigenvalues --    5.78620   6.76376   6.78452   6.79005   6.80308
 Alpha virt. eigenvalues --    6.81684   6.81910   6.84031   6.84832   6.86138
 Alpha virt. eigenvalues --    6.89601   6.90150   6.90741   6.90893   6.93196
 Alpha virt. eigenvalues --    6.95864   6.96870   6.98137   6.99990   7.00762
 Alpha virt. eigenvalues --    7.02654   7.03416   7.06063   7.10127   7.11813
 Alpha virt. eigenvalues --    7.17438   7.20122   7.25702   7.27996   7.29764
 Alpha virt. eigenvalues --    7.30490   7.34418   7.38422   7.42620   7.44457
 Alpha virt. eigenvalues --    7.46283   7.72050   8.63546  14.28490  14.33236
 Alpha virt. eigenvalues --   14.42546  17.76797  17.80753  17.87967  23.87134
 Alpha virt. eigenvalues --   23.94948  23.99559  24.01203  24.05111  24.08570
 Alpha virt. eigenvalues --   24.12601  24.13102  24.27287  35.71457  50.03811
 Alpha virt. eigenvalues --   50.05695  50.09409  50.10960  50.13272  50.15584
 Alpha virt. eigenvalues --   50.21085 163.97675 189.94594
          Condensed to atoms (all electrons):
               1          2          3          4          5          6
     1  C    8.735981  -2.928702   1.732715  -0.819875  -0.710164   0.018568
     2  C   -2.928702   9.610385  -2.655132   1.837060  -0.429106  -0.022265
     3  C    1.732715  -2.655132  11.461251  -4.320850   0.234816   0.388819
     4  C   -0.819875   1.837060  -4.320850  15.508419  -7.367921  -0.027895
     5  C   -0.710164  -0.429106   0.234816  -7.367921  15.865115   0.021740
     6  H    0.018568  -0.022265   0.388819  -0.027895   0.021740   0.484300
     7  H    0.330941   0.081621  -0.000625   0.006710   0.004365  -0.000251
     8  H    0.039758   0.287971   0.022336   0.004383  -0.017112  -0.003394
     9  H    0.003963   0.003554  -0.005033   0.159637   0.166503  -0.000189
    10  C    0.085112  -0.044276  -0.309670   0.661654  -1.031182  -0.020424
    11  H    0.001414  -0.007141   0.082992  -0.079439  -0.026674  -0.000094
    12  H    0.000066  -0.000416  -0.066392   0.074248  -0.019491   0.000274
    13  H    0.006645   0.017926   0.036976  -0.199527   0.072906   0.003257
    14  N   -0.052391   0.165802  -0.147101  -0.068192   0.038918  -0.000091
    15  C   -0.082638  -0.046299  -0.036547  -0.163013  -0.070905  -0.000351
    16  H    0.002455   0.003024   0.002999   0.007004  -0.005700   0.000000
    17  H    0.010811   0.015684   0.009189   0.010530  -0.026127  -0.000005
    18  C    0.040761  -0.043375   0.098181   0.039455  -0.229580  -0.000177
    19  H   -0.000870  -0.000421  -0.003398   0.012543  -0.039984  -0.000001
    20  H   -0.001524   0.003248  -0.002285  -0.006037   0.011452   0.000000
    21  C    0.019174  -0.049337  -0.007848  -0.280887   0.583141   0.000227
    22  H    0.005004  -0.003026  -0.000017  -0.000447  -0.011010  -0.000000
    23  H   -0.001198   0.001059  -0.001092   0.000949   0.000714   0.000000
    24  S   -0.320865   0.367090  -0.168602   0.558356  -0.802929  -0.000241
    25  O   -0.015115   0.013056  -0.001927   0.017637   0.012906   0.000015
    26  O    0.091686  -0.049954   0.013366   0.067421  -0.139591  -0.000503
    27  O    0.045597  -0.049267   0.035273  -0.050931   0.035516  -0.000070
    28  P    0.069333  -0.084483  -0.013155   0.038748  -0.019576   0.003885
    29  O   -0.050091   0.025195   0.034073   0.010544  -0.034638  -0.017572
    30  O   -0.003793  -0.004430   0.008931  -0.003872   0.003153  -0.000246
    31  H   -0.000219  -0.001882  -0.000922   0.005203  -0.001764  -0.000004
    32  O   -0.003375   0.029581  -0.033941   0.021602  -0.012760   0.000291
    33  H    0.001001  -0.003300  -0.000796  -0.000164   0.000873   0.000106
    34  O    0.004556   0.006755   0.005764  -0.013855  -0.041577  -0.000987
    35  H   -0.005924   0.003917  -0.074277   0.056203   0.059474   0.000598
               7          8          9         10         11         12
     1  C    0.330941   0.039758   0.003963   0.085112   0.001414   0.000066
     2  C    0.081621   0.287971   0.003554  -0.044276  -0.007141  -0.000416
     3  C   -0.000625   0.022336  -0.005033  -0.309670   0.082992  -0.066392
     4  C    0.006710   0.004383   0.159637   0.661654  -0.079439   0.074248
     5  C    0.004365  -0.017112   0.166503  -1.031182  -0.026674  -0.019491
     6  H   -0.000251  -0.003394  -0.000189  -0.020424  -0.000094   0.000274
     7  H    0.493274  -0.004847  -0.000071   0.000117  -0.000000   0.000001
     8  H   -0.004847   0.510670   0.000032   0.001992   0.000006   0.000006
     9  H   -0.000071   0.000032   0.493525   0.030725   0.001014   0.000403
    10  C    0.000117   0.001992   0.030725   6.326330   0.381970   0.382040
    11  H   -0.000000   0.000006   0.001014   0.381970   0.507130  -0.031820
    12  H    0.000001   0.000006   0.000403   0.382040  -0.031820   0.463205
    13  H   -0.000003  -0.000021  -0.000305   0.429826  -0.018214  -0.020951
    14  N   -0.067331   0.007503  -0.038661  -0.042017   0.002852   0.000035
    15  C   -0.011294   0.002566   0.019070  -0.056392   0.000995  -0.000125
    16  H    0.000861   0.000012   0.000931   0.000569  -0.000021   0.000004
    17  H    0.006323  -0.000069   0.000092   0.000066  -0.000001  -0.000000
    18  C   -0.001067   0.000151  -0.002229   0.000929   0.000399  -0.000934
    19  H    0.000096  -0.000001   0.005705   0.004051   0.000025   0.000012
    20  H   -0.000041  -0.000001  -0.000682  -0.000324  -0.000000   0.000001
    21  C   -0.005585  -0.000150  -0.009663  -0.000379   0.000002   0.000229
    22  H    0.000013  -0.000000   0.000052  -0.000002   0.000000   0.000000
    23  H    0.000007   0.000000   0.000082   0.000246  -0.000000  -0.000000
    24  S    0.012571  -0.000354   0.011461   0.000795  -0.000327  -0.000255
    25  O    0.000212   0.000007  -0.000117   0.001958   0.000002  -0.000016
    26  O    0.000346  -0.000216  -0.007694  -0.021955  -0.000382   0.001683
    27  O   -0.019480  -0.000497   0.000799   0.001325   0.000009  -0.000085
    28  P   -0.000533   0.000192  -0.000058   0.000721   0.002242  -0.007295
    29  O   -0.000053  -0.001625   0.000062   0.008787  -0.000170  -0.000524
    30  O    0.000002   0.000087  -0.000004  -0.000877   0.000004   0.000054
    31  H   -0.000001   0.000005  -0.000000   0.000849  -0.000000  -0.000022
    32  O   -0.000002  -0.000046  -0.000012   0.002974  -0.000051   0.000721
    33  H   -0.000000   0.000002  -0.000001   0.001476  -0.000004   0.000080
    34  O    0.000027  -0.000148   0.000587   0.025176   0.000735  -0.005173
    35  H   -0.000046   0.000032  -0.000967  -0.010853   0.000003   0.002278
              13         14         15         16         17         18
     1  C    0.006645  -0.052391  -0.082638   0.002455   0.010811   0.040761
     2  C    0.017926   0.165802  -0.046299   0.003024   0.015684  -0.043375
     3  C    0.036976  -0.147101  -0.036547   0.002999   0.009189   0.098181
     4  C   -0.199527  -0.068192  -0.163013   0.007004   0.010530   0.039455
     5  C    0.072906   0.038918  -0.070905  -0.005700  -0.026127  -0.229580
     6  H    0.003257  -0.000091  -0.000351   0.000000  -0.000005  -0.000177
     7  H   -0.000003  -0.067331  -0.011294   0.000861   0.006323  -0.001067
     8  H   -0.000021   0.007503   0.002566   0.000012  -0.000069   0.000151
     9  H   -0.000305  -0.038661   0.019070   0.000931   0.000092  -0.002229
    10  C    0.429826  -0.042017  -0.056392   0.000569   0.000066   0.000929
    11  H   -0.018214   0.002852   0.000995  -0.000021  -0.000001   0.000399
    12  H   -0.020951   0.000035  -0.000125   0.000004  -0.000000  -0.000934
    13  H    0.493198  -0.000510   0.001230  -0.000002  -0.000000  -0.000087
    14  N   -0.000510   6.698416   0.174293  -0.063218  -0.078001   0.053529
    15  C    0.001230   0.174293   6.108448   0.436959   0.435459  -0.447185
    16  H   -0.000002  -0.063218   0.436959   0.509328  -0.023360  -0.057874
    17  H   -0.000000  -0.078001   0.435459  -0.023360   0.474924  -0.008905
    18  C   -0.000087   0.053529  -0.447185  -0.057874  -0.008905   6.535380
    19  H   -0.000001  -0.001980  -0.040788  -0.002500   0.004125   0.472715
    20  H   -0.000000   0.004864  -0.017728  -0.006844  -0.001965   0.398469
    21  C    0.000129   0.045340  -0.024276   0.008680  -0.027656  -0.454167
    22  H   -0.000000   0.000498  -0.018332  -0.000189   0.002213   0.009749
    23  H   -0.000000   0.000884   0.032341  -0.000106  -0.000134  -0.125440
    24  S   -0.000497  -0.063580   0.063736   0.001487   0.008446   0.045956
    25  O   -0.000003  -0.031421  -0.009406  -0.000028   0.000344  -0.030941
    26  O   -0.000112  -0.015091   0.065714   0.000312  -0.000845  -0.024353
    27  O   -0.000029   0.018353   0.023149   0.002093  -0.002517  -0.025696
    28  P    0.000626   0.002901  -0.003020  -0.000029  -0.000120  -0.001725
    29  O   -0.001455  -0.003589  -0.002750   0.000004  -0.000033   0.004830
    30  O    0.000009  -0.000522   0.000241   0.000000   0.000001  -0.000031
    31  H   -0.000004  -0.000022  -0.000138   0.000000   0.000000  -0.000086
    32  O    0.000475  -0.000124  -0.000153  -0.000000  -0.000000  -0.000119
    33  H    0.000020   0.000032   0.000042  -0.000000  -0.000000  -0.000048
    34  O   -0.002026  -0.002262  -0.000910   0.000003   0.000005   0.001819
    35  H   -0.000290   0.001005   0.005118  -0.000001  -0.000010  -0.008890
              19         20         21         22         23         24
     1  C   -0.000870  -0.001524   0.019174   0.005004  -0.001198  -0.320865
     2  C   -0.000421   0.003248  -0.049337  -0.003026   0.001059   0.367090
     3  C   -0.003398  -0.002285  -0.007848  -0.000017  -0.001092  -0.168602
     4  C    0.012543  -0.006037  -0.280887  -0.000447   0.000949   0.558356
     5  C   -0.039984   0.011452   0.583141  -0.011010   0.000714  -0.802929
     6  H   -0.000001   0.000000   0.000227  -0.000000   0.000000  -0.000241
     7  H    0.000096  -0.000041  -0.005585   0.000013   0.000007   0.012571
     8  H   -0.000001  -0.000001  -0.000150  -0.000000   0.000000  -0.000354
     9  H    0.005705  -0.000682  -0.009663   0.000052   0.000082   0.011461
    10  C    0.004051  -0.000324  -0.000379  -0.000002   0.000246   0.000795
    11  H    0.000025  -0.000000   0.000002   0.000000  -0.000000  -0.000327
    12  H    0.000012   0.000001   0.000229   0.000000  -0.000000  -0.000255
    13  H   -0.000001  -0.000000   0.000129  -0.000000  -0.000000  -0.000497
    14  N   -0.001980   0.004864   0.045340   0.000498   0.000884  -0.063580
    15  C   -0.040788  -0.017728  -0.024276  -0.018332   0.032341   0.063736
    16  H   -0.002500  -0.006844   0.008680  -0.000189  -0.000106   0.001487
    17  H    0.004125  -0.001965  -0.027656   0.002213  -0.000134   0.008446
    18  C    0.472715   0.398469  -0.454167   0.009749  -0.125440   0.045956
    19  H    0.501765  -0.030644  -0.062974   0.004948  -0.004085   0.016759
    20  H   -0.030644   0.515187  -0.026992  -0.005399  -0.003556  -0.005247
    21  C   -0.062974  -0.026992   6.860115   0.413811   0.459106  -0.609162
    22  H    0.004948  -0.005399   0.413811   0.465123  -0.028350  -0.047785
    23  H   -0.004085  -0.003556   0.459106  -0.028350   0.473711  -0.031105
    24  S    0.016759  -0.005247  -0.609162  -0.047785  -0.031105  14.730173
    25  O    0.000108  -0.000333  -0.108220  -0.000037   0.011725   0.510440
    26  O   -0.009232   0.001723  -0.165538  -0.004125   0.009246   0.221169
    27  O    0.002395  -0.000801  -0.135599   0.013456  -0.000156   0.387063
    28  P    0.000019  -0.000027   0.002146  -0.000050   0.000326  -0.010443
    29  O   -0.000022  -0.000000  -0.009581   0.000011  -0.000003   0.022504
    30  O    0.000001  -0.000000   0.000890   0.000004  -0.000004   0.001652
    31  H   -0.000000   0.000000   0.001082  -0.000001   0.000000  -0.002164
    32  O   -0.000001   0.000000   0.000352  -0.000000  -0.000000   0.002611
    33  H    0.000000   0.000000   0.000094  -0.000000  -0.000000  -0.000404
    34  O    0.000024  -0.000018   0.004370  -0.000020  -0.000043  -0.033519
    35  H   -0.000236   0.000041   0.001574   0.000054   0.000057   0.006873
              25         26         27         28         29         30
     1  C   -0.015115   0.091686   0.045597   0.069333  -0.050091  -0.003793
     2  C    0.013056  -0.049954  -0.049267  -0.084483   0.025195  -0.004430
     3  C   -0.001927   0.013366   0.035273  -0.013155   0.034073   0.008931
     4  C    0.017637   0.067421  -0.050931   0.038748   0.010544  -0.003872
     5  C    0.012906  -0.139591   0.035516  -0.019576  -0.034638   0.003153
     6  H    0.000015  -0.000503  -0.000070   0.003885  -0.017572  -0.000246
     7  H    0.000212   0.000346  -0.019480  -0.000533  -0.000053   0.000002
     8  H    0.000007  -0.000216  -0.000497   0.000192  -0.001625   0.000087
     9  H   -0.000117  -0.007694   0.000799  -0.000058   0.000062  -0.000004
    10  C    0.001958  -0.021955   0.001325   0.000721   0.008787  -0.000877
    11  H    0.000002  -0.000382   0.000009   0.002242  -0.000170   0.000004
    12  H   -0.000016   0.001683  -0.000085  -0.007295  -0.000524   0.000054
    13  H   -0.000003  -0.000112  -0.000029   0.000626  -0.001455   0.000009
    14  N   -0.031421  -0.015091   0.018353   0.002901  -0.003589  -0.000522
    15  C   -0.009406   0.065714   0.023149  -0.003020  -0.002750   0.000241
    16  H   -0.000028   0.000312   0.002093  -0.000029   0.000004   0.000000
    17  H    0.000344  -0.000845  -0.002517  -0.000120  -0.000033   0.000001
    18  C   -0.030941  -0.024353  -0.025696  -0.001725   0.004830  -0.000031
    19  H    0.000108  -0.009232   0.002395   0.000019  -0.000022   0.000001
    20  H   -0.000333   0.001723  -0.000801  -0.000027  -0.000000  -0.000000
    21  C   -0.108220  -0.165538  -0.135599   0.002146  -0.009581   0.000890
    22  H   -0.000037  -0.004125   0.013456  -0.000050   0.000011   0.000004
    23  H    0.011725   0.009246  -0.000156   0.000326  -0.000003  -0.000004
    24  S    0.510440   0.221169   0.387063  -0.010443   0.022504   0.001652
    25  O    8.267513  -0.095418  -0.101485   0.006227  -0.009271  -0.001653
    26  O   -0.095418   8.772212  -0.016734   0.009982   0.013872  -0.010249
    27  O   -0.101485  -0.016734   8.494258  -0.007620   0.010915  -0.000015
    28  P    0.006227   0.009982  -0.007620  12.695941   0.450171   0.224846
    29  O   -0.009271   0.013872   0.010915   0.450171   8.242462   0.004005
    30  O   -0.001653  -0.010249  -0.000015   0.224846   0.004005   8.015533
    31  H    0.001158  -0.000570  -0.000393   0.006942  -0.004864   0.268017
    32  O    0.000239   0.000501  -0.000268   0.198606  -0.005058  -0.027736
    33  H    0.000046   0.000163  -0.000014   0.008590  -0.008175  -0.008423
    34  O   -0.004383   0.041909  -0.001288   0.264235  -0.068088  -0.007125
    35  H    0.017560   0.032803  -0.000633   0.023309  -0.014894   0.004905
              31         32         33         34         35
     1  C   -0.000219  -0.003375   0.001001   0.004556  -0.005924
     2  C   -0.001882   0.029581  -0.003300   0.006755   0.003917
     3  C   -0.000922  -0.033941  -0.000796   0.005764  -0.074277
     4  C    0.005203   0.021602  -0.000164  -0.013855   0.056203
     5  C   -0.001764  -0.012760   0.000873  -0.041577   0.059474
     6  H   -0.000004   0.000291   0.000106  -0.000987   0.000598
     7  H   -0.000001  -0.000002  -0.000000   0.000027  -0.000046
     8  H    0.000005  -0.000046   0.000002  -0.000148   0.000032
     9  H   -0.000000  -0.000012  -0.000001   0.000587  -0.000967
    10  C    0.000849   0.002974   0.001476   0.025176  -0.010853
    11  H   -0.000000  -0.000051  -0.000004   0.000735   0.000003
    12  H   -0.000022   0.000721   0.000080  -0.005173   0.002278
    13  H   -0.000004   0.000475   0.000020  -0.002026  -0.000290
    14  N   -0.000022  -0.000124   0.000032  -0.002262   0.001005
    15  C   -0.000138  -0.000153   0.000042  -0.000910   0.005118
    16  H    0.000000  -0.000000  -0.000000   0.000003  -0.000001
    17  H    0.000000  -0.000000  -0.000000   0.000005  -0.000010
    18  C   -0.000086  -0.000119  -0.000048   0.001819  -0.008890
    19  H   -0.000000  -0.000001   0.000000   0.000024  -0.000236
    20  H    0.000000   0.000000   0.000000  -0.000018   0.000041
    21  C    0.001082   0.000352   0.000094   0.004370   0.001574
    22  H   -0.000001  -0.000000  -0.000000  -0.000020   0.000054
    23  H    0.000000  -0.000000  -0.000000  -0.000043   0.000057
    24  S   -0.002164   0.002611  -0.000404  -0.033519   0.006873
    25  O    0.001158   0.000239   0.000046  -0.004383   0.017560
    26  O   -0.000570   0.000501   0.000163   0.041909   0.032803
    27  O   -0.000393  -0.000268  -0.000014  -0.001288  -0.000633
    28  P    0.006942   0.198606   0.008590   0.264235   0.023309
    29  O   -0.004864  -0.005058  -0.008175  -0.068088  -0.014894
    30  O    0.268017  -0.027736  -0.008423  -0.007125   0.004905
    31  H    0.379880   0.004523   0.001332  -0.005100  -0.000199
    32  O    0.004523   8.063540   0.235580   0.027919   0.005581
    33  H    0.001332   0.235580   0.466283  -0.002940   0.000633
    34  O   -0.005100   0.027919  -0.002940   8.171525   0.183538
    35  H   -0.000199   0.005581   0.000633   0.183538   0.277858
 Mulliken charges:
               1
     1  C   -0.248799
     2  C   -0.050117
     3  C   -0.318069
     4  C    0.304597
     5  C   -0.073802
     6  H    0.172681
     7  H    0.173743
     8  H    0.150771
     9  H    0.167491
    10  C   -0.811339
    11  H    0.182546
    12  H    0.228162
    13  H    0.180812
    14  N    0.460879
    15  C   -0.337110
    16  H    0.183144
    17  H    0.191536
    18  C   -0.239414
    19  H    0.171848
    20  H    0.175462
    21  C   -0.422448
    22  H    0.203857
    23  H    0.204818
    24  S    1.128335
    25  O   -0.451377
    26  O   -0.781546
    27  O   -0.656623
    28  P    1.138146
    29  O   -0.594978
    30  O   -0.463355
    31  H    0.349363
    32  O   -0.511449
    33  H    0.307915
    34  O   -0.549484
    35  H    0.433805
 Sum of Mulliken charges =  -0.00000
 Mulliken charges with hydrogens summed into heavy atoms:
               1
     1  C   -0.075056
     2  C    0.100653
     3  C   -0.145388
     4  C    0.304597
     5  C    0.093689
    10  C   -0.219820
    14  N    0.460879
    15  C    0.037569
    18  C    0.107897
    21  C   -0.013773
    24  S    1.128335
    25  O   -0.451377
    26  O   -0.781546
    27  O   -0.656623
    28  P    1.138146
    29  O   -0.594978
    30  O   -0.113992
    32  O   -0.203534
    34  O   -0.115679
         Mulliken charges condensed to fragments:
      1     -0.109963
      2      0.109963
 Electronic spatial extent (au):  <R**2>=         183396.2977
 Charge=             -0.0000 electrons
 Dipole moment (field-independent basis, Debye):
    X=             -6.7829    Y=             -4.7284    Z=              1.7449  Tot=              8.4504
 Quadrupole moment (field-independent basis, Debye-Ang):
   XX=           -244.3198   YY=           -217.1354   ZZ=            -93.8930
   XY=           -116.1510   XZ=            -44.5090   YZ=            -26.4518
 Traceless Quadrupole moment (field-independent basis, Debye-Ang):
   XX=            -59.2037   YY=            -32.0194   ZZ=             91.2231
   XY=           -116.1510   XZ=            -44.5090   YZ=            -26.4518
 Octapole moment (field-independent basis, Debye-Ang**2):
  XXX=          -5411.2464  YYY=          -5007.7062  ZZZ=          -3349.9172  XYY=          -2908.4248
  XXY=          -2910.7504  XXZ=          -2178.6478  XZZ=          -1585.4489  YZZ=          -1323.1984
  YYZ=          -1918.4790  XYZ=           -910.1880
 Hexadecapole moment (field-independent basis, Debye-Ang**3):
 XXXX=        -100083.3874 YYYY=         -90104.8721 ZZZZ=         -72944.6301 XXXY=         -58500.3695
 XXXZ=         -51810.6558 YYYX=         -58304.7890 YYYZ=         -46731.2561 ZZZX=         -41488.0793
 ZZZY=         -36275.7761 XXYY=         -47516.2714 XXZZ=         -34747.7136 YYZZ=         -29707.9805
 XXYZ=         -26380.3987 YYXZ=         -26423.3449 ZZXY=         -20158.2802
 N-N= 2.059265322954D+03 E-N=-8.067009552255D+03  KE= 1.668403529901D+03
 No NMR shielding tensors so no spin-rotation constants.
 Leave Link  601 at Sun Feb 19 23:25:58 2023, MaxMem=  6710886400 cpu:               4.4 elap:               0.2
 (Enter /data0/home/software/g16/l122.exe)
 CPIOFr:  IOpCl= 0 IRwI=-1 IRwCP=  731 ICalc= -1 LCPTot=      598137 Len1MO=     1575263 IndFrg=      598137
 CPIOFr:  IOpCl= 0 IRwI=-1 IRwCP=  731 ICalc=  0 LCPTot=      598137 Len1MO=     1575263 IndFrg=     2173400
 Counterpoise: doing calculation for fragment   1 using the basis set of the full-system, NewBq=T
 Leave Link  122 at Sun Feb 19 23:25:58 2023, MaxMem=  6710886400 cpu:               0.6 elap:               0.0
 (Enter /data0/home/software/g16/l301.exe)
 Basis read from rwf:  (5D, 7F)
 No pseudopotential information found on rwf file.
   625 basis functions,   954 primitive gaussians,   663 cartesian basis functions
    57 alpha electrons       57 beta electrons
       nuclear repulsion energy      1128.5026052197 Hartrees.
 IExCor= 4336 DFT=T Ex+Corr=M062X ExCW=0 ScaHFX=  0.540000
 ScaDFX=  1.000000  1.000000  1.000000  1.000000 ScalE2=  1.000000  1.000000
 IRadAn=      5 IRanWt=     -1 IRanGd=            0 ICorTp=0 IEmpDi=131
 NAtoms=   35 NActive=   35 NUniq=   35 SFac= 1.00D+00 NAtFMM=   60 NAOKFM=F Big=F
 Integral buffers will be    131072 words long.
 Raffenetti 2 integral format.
 Two-electron integral symmetry is turned off.
 R6Disp:  Grimme-D3 Dispersion energy=       -0.0014392261 Hartrees.
 Nuclear repulsion after empirical dispersion term =     1128.5011659936 Hartrees.
 No density basis found on file   718.
 Leave Link  301 at Sun Feb 19 23:25:58 2023, MaxMem=  6710886400 cpu:               1.3 elap:               0.1
 (Enter /data0/home/software/g16/l302.exe)
 NPDir=0 NMtPBC=     1 NCelOv=     1 NCel=       1 NClECP=     1 NCelD=      1
         NCelK=      1 NCelE2=     1 NClLst=     1 CellRange=     0.0.
 One-electron integrals computed using PRISM.
 NBasis=   625 RedAO= T EigKep=  1.63D-06  NBF=   625
 NBsUse=   625 1.00D-06 EigRej= -1.00D+00 NBFU=   625
 Precomputing XC quadrature grid using
 IXCGrd= 4 IRadAn=           5 IRanWt=          -1 IRanGd=           0 AccXCQ= 0.00D+00.
 Generated NRdTot=       0 NPtTot=           0 NUsed=           0 NTot=          32
 NSgBfM=   662   662   662   662   662 MxSgAt=    35 MxSgA2=    35.
 Leave Link  302 at Sun Feb 19 23:25:59 2023, MaxMem=  6710886400 cpu:              17.7 elap:               0.8
 (Enter /data0/home/software/g16/l303.exe)
 DipDrv:  MaxL=1.
 Leave Link  303 at Sun Feb 19 23:25:59 2023, MaxMem=  6710886400 cpu:               1.6 elap:               0.1
 (Enter /data0/home/software/g16/l401.exe)
 ExpMin= 3.48D-02 ExpMax= 9.34D+04 ExpMxC= 3.17D+03 IAcc=3 IRadAn=         5 AccDes= 0.00D+00
 Harris functional with IExCor= 1009 and IRadAn=       5 diagonalized for initial guess.
 HarFok:  IExCor= 1009 AccDes= 0.00D+00 IRadAn=         5 IDoV= 1 UseB2=F ITyADJ=14
 ICtDFT=  3500011 ScaDFX=  1.000000  1.000000  1.000000  1.000000
 FoFCou: FMM=F IPFlag=           0 FMFlag=      100000 FMFlg1=           0
         NFxFlg=           0 DoJE=T BraDBF=F KetDBF=T FulRan=T
         wScrn=  0.000000 ICntrl=       500 IOpCl=  0 I1Cent=   200000004 NGrid=           0
         NMat0=    1 NMatS0=      1 NMatT0=    0 NMatD0=    1 NMtDS0=    0 NMtDT0=    0
 Symmetry not used in FoFCou.
 Harris En= -1028.88640900330    
 JPrj=0 DoOrth=F DoCkMO=F.
 Leave Link  401 at Sun Feb 19 23:26:02 2023, MaxMem=  6710886400 cpu:              66.0 elap:               2.8
 (Enter /data0/home/software/g16/l502.exe)
 Two-electron integral symmetry not used.
 Closed shell SCF:
 Using DIIS extrapolation, IDIIS=  1040.
 NGot=  6710886400 LenX=  6709986778 LenY=  6709546546
 Requested convergence on RMS density matrix=1.00D-08 within 128 cycles.
 Requested convergence on MAX density matrix=1.00D-06.
 Requested convergence on             energy=1.00D-06.
 No special actions if energy rises.
 Fock matrices will be formed incrementally for  20 cycles.

 Cycle   1  Pass 1  IDiag  1:
 FoFJK:  IHMeth= 1 ICntrl=       0 DoSepK=F KAlg= 0 I1Cent=           0 FoldK=F
 IRaf= 840000000 NMat=       1 IRICut=       1 DoRegI=T DoRafI=F ISym2E= 0 IDoP0=0 IntGTp=1.
 FoFCou: FMM=F IPFlag=           0 FMFlag=      100000 FMFlg1=           0
         NFxFlg=           0 DoJE=F BraDBF=F KetDBF=F FulRan=T
         wScrn=  0.000000 ICntrl=         0 IOpCl=  0 I1Cent=           0 NGrid=           0
         NMat0=    1 NMatS0=      1 NMatT0=    0 NMatD0=    1 NMtDS0=    0 NMtDT0=    0
 Symmetry not used in FoFCou.
 E= -1028.76029509596    
 DIIS: error= 1.58D-02 at cycle   1 NSaved=   1.
 NSaved= 1 IEnMin= 1 EnMin= -1028.76029509596     IErMin= 1 ErrMin= 1.58D-02
 ErrMax= 1.58D-02  0.00D+00 EMaxC= 1.00D-01 BMatC= 7.82D-01 BMatP= 7.82D-01
 IDIUse=3 WtCom= 8.42D-01 WtEn= 1.58D-01
 Coeff-Com:  0.100D+01
 Coeff-En:   0.100D+01
 Coeff:      0.100D+01
 Gap=     0.181 Goal=   None    Shift=    0.000
 GapD=    0.181 DampG=1.000 DampE=0.500 DampFc=0.5000 IDamp=-1.
 Damping current iteration by 5.00D-01
 RMSDP=1.07D-02 MaxDP=1.26D+00              OVMax= 1.90D-01

 Cycle   2  Pass 1  IDiag  1:
 RMSU=  5.24D-03    CP:  1.05D+00
 E= -1028.98043191269     Delta-E=       -0.220136816727 Rises=F Damp=T
 DIIS: error= 5.28D-03 at cycle   2 NSaved=   2.
 NSaved= 2 IEnMin= 2 EnMin= -1028.98043191269     IErMin= 2 ErrMin= 5.28D-03
 ErrMax= 5.28D-03  0.00D+00 EMaxC= 1.00D-01 BMatC= 5.59D-02 BMatP= 7.82D-01
 IDIUse=3 WtCom= 9.47D-01 WtEn= 5.28D-02
 Coeff-Com:  0.435D-01 0.956D+00
 Coeff-En:   0.129D+00 0.871D+00
 Coeff:      0.480D-01 0.952D+00
 Gap=     0.241 Goal=   None    Shift=    0.000
 RMSDP=5.32D-03 MaxDP=1.41D+00 DE=-2.20D-01 OVMax= 1.31D-01

 Cycle   3  Pass 1  IDiag  1:
 RMSU=  3.00D-03    CP:  8.28D-01  8.82D-01
 E= -1029.24995339623     Delta-E=       -0.269521483539 Rises=F Damp=F
 DIIS: error= 3.24D-03 at cycle   3 NSaved=   3.
 NSaved= 3 IEnMin= 3 EnMin= -1029.24995339623     IErMin= 3 ErrMin= 3.24D-03
 ErrMax= 3.24D-03  0.00D+00 EMaxC= 1.00D-01 BMatC= 2.57D-02 BMatP= 5.59D-02
 IDIUse=3 WtCom= 9.68D-01 WtEn= 3.24D-02
 Coeff-Com: -0.542D-01 0.385D+00 0.669D+00
 Coeff-En:   0.000D+00 0.000D+00 0.100D+01
 Coeff:     -0.524D-01 0.372D+00 0.680D+00
 Gap=     0.213 Goal=   None    Shift=    0.000
 RMSDP=1.36D-03 MaxDP=1.52D-01 DE=-2.70D-01 OVMax= 3.65D-02

 Cycle   4  Pass 1  IDiag  1:
 RMSU=  1.06D-03    CP:  8.51D-01  1.01D+00  9.14D-01
 E= -1029.26734512367     Delta-E=       -0.017391727438 Rises=F Damp=F
 DIIS: error= 1.43D-03 at cycle   4 NSaved=   4.
 NSaved= 4 IEnMin= 4 EnMin= -1029.26734512367     IErMin= 4 ErrMin= 1.43D-03
 ErrMax= 1.43D-03  0.00D+00 EMaxC= 1.00D-01 BMatC= 3.90D-03 BMatP= 2.57D-02
 IDIUse=3 WtCom= 9.86D-01 WtEn= 1.43D-02
 Coeff-Com: -0.278D-01 0.842D-01 0.332D+00 0.612D+00
 Coeff-En:   0.000D+00 0.000D+00 0.109D+00 0.891D+00
 Coeff:     -0.274D-01 0.830D-01 0.328D+00 0.616D+00
 Gap=     0.215 Goal=   None    Shift=    0.000
 RMSDP=6.09D-04 MaxDP=1.22D-01 DE=-1.74D-02 OVMax= 1.46D-02

 Cycle   5  Pass 1  IDiag  1:
 RMSU=  2.49D-04    CP:  8.32D-01  9.62D-01  9.50D-01  7.07D-01
 E= -1029.27082881586     Delta-E=       -0.003483692190 Rises=F Damp=F
 DIIS: error= 5.04D-04 at cycle   5 NSaved=   5.
 NSaved= 5 IEnMin= 5 EnMin= -1029.27082881586     IErMin= 5 ErrMin= 5.04D-04
 ErrMax= 5.04D-04  0.00D+00 EMaxC= 1.00D-01 BMatC= 2.18D-04 BMatP= 3.90D-03
 IDIUse=3 WtCom= 9.95D-01 WtEn= 5.04D-03
 Coeff-Com: -0.957D-02 0.216D-01 0.119D+00 0.287D+00 0.582D+00
 Coeff-En:   0.000D+00 0.000D+00 0.000D+00 0.000D+00 0.100D+01
 Coeff:     -0.952D-02 0.215D-01 0.119D+00 0.285D+00 0.584D+00
 Gap=     0.216 Goal=   None    Shift=    0.000
 RMSDP=1.39D-04 MaxDP=2.92D-02 DE=-3.48D-03 OVMax= 4.81D-03

 Cycle   6  Pass 1  IDiag  1:
 RMSU=  7.65D-05    CP:  8.36D-01  9.71D-01  9.48D-01  7.24D-01  7.55D-01
 E= -1029.27100125684     Delta-E=       -0.000172440980 Rises=F Damp=F
 DIIS: error= 1.75D-04 at cycle   6 NSaved=   6.
 NSaved= 6 IEnMin= 6 EnMin= -1029.27100125684     IErMin= 6 ErrMin= 1.75D-04
 ErrMax= 1.75D-04  0.00D+00 EMaxC= 1.00D-01 BMatC= 3.08D-05 BMatP= 2.18D-04
 IDIUse=3 WtCom= 9.98D-01 WtEn= 1.75D-03
 Coeff-Com: -0.158D-02 0.909D-03 0.224D-01 0.765D-01 0.311D+00 0.591D+00
 Coeff-En:   0.000D+00 0.000D+00 0.000D+00 0.000D+00 0.502D-01 0.950D+00
 Coeff:     -0.158D-02 0.907D-03 0.223D-01 0.764D-01 0.310D+00 0.592D+00
 Gap=     0.216 Goal=   None    Shift=    0.000
 RMSDP=2.35D-05 MaxDP=3.06D-03 DE=-1.72D-04 OVMax= 1.33D-03

 Cycle   7  Pass 1  IDiag  1:
 RMSU=  2.05D-05    CP:  8.36D-01  9.71D-01  9.49D-01  7.30D-01  7.70D-01
                    CP:  9.03D-01
 E= -1029.27102645384     Delta-E=       -0.000025197007 Rises=F Damp=F
 DIIS: error= 2.21D-05 at cycle   7 NSaved=   7.
 NSaved= 7 IEnMin= 7 EnMin= -1029.27102645384     IErMin= 7 ErrMin= 2.21D-05
 ErrMax= 2.21D-05  0.00D+00 EMaxC= 1.00D-01 BMatC= 1.17D-06 BMatP= 3.08D-05
 IDIUse=1 WtCom= 1.00D+00 WtEn= 0.00D+00
 Coeff-Com:  0.389D-03-0.171D-02-0.379D-02-0.512D-03 0.615D-01 0.196D+00
 Coeff-Com:  0.748D+00
 Coeff:      0.389D-03-0.171D-02-0.379D-02-0.512D-03 0.615D-01 0.196D+00
 Coeff:      0.748D+00
 Gap=     0.216 Goal=   None    Shift=    0.000
 RMSDP=1.14D-05 MaxDP=2.39D-03 DE=-2.52D-05 OVMax= 2.77D-04

 Cycle   8  Pass 1  IDiag  1:
 RMSU=  8.92D-06    CP:  8.36D-01  9.71D-01  9.49D-01  7.30D-01  7.73D-01
                    CP:  9.05D-01  1.02D+00
 E= -1029.27102748488     Delta-E=       -0.000001031033 Rises=F Damp=F
 DIIS: error= 8.89D-06 at cycle   8 NSaved=   8.
 NSaved= 8 IEnMin= 8 EnMin= -1029.27102748488     IErMin= 8 ErrMin= 8.89D-06
 ErrMax= 8.89D-06  0.00D+00 EMaxC= 1.00D-01 BMatC= 1.98D-07 BMatP= 1.17D-06
 IDIUse=1 WtCom= 1.00D+00 WtEn= 0.00D+00
 Coeff-Com:  0.329D-03-0.743D-03-0.431D-02-0.945D-02-0.898D-02 0.326D-02
 Coeff-Com:  0.303D+00 0.717D+00
[...]
 Generated NRdTot=       0 NPtTot=           0 NUsed=           0 NTot=          32
 NSgBfM=   171   171   171   171   171 MxSgAt=     8 MxSgA2=     8.
 Leave Link  302 at Sun Feb 19 23:32:32 2023, MaxMem=  6710886400 cpu:               2.9 elap:               0.1
 (Enter /data0/home/software/g16/l303.exe)
 DipDrv:  MaxL=1.
 Leave Link  303 at Sun Feb 19 23:32:32 2023, MaxMem=  6710886400 cpu:               0.5 elap:               0.0
 (Enter /data0/home/software/g16/l401.exe)
 ExpMin= 3.48D-02 ExpMax= 7.75D+04 ExpMxC= 2.65D+03 IAcc=3 IRadAn=         5 AccDes= 0.00D+00
 Harris functional with IExCor= 1009 and IRadAn=       5 diagonalized for initial guess.
 HarFok:  IExCor= 1009 AccDes= 0.00D+00 IRadAn=         5 IDoV= 1 UseB2=F ITyADJ=14
 ICtDFT=  3500011 ScaDFX=  1.000000  1.000000  1.000000  1.000000
 FoFCou: FMM=F IPFlag=           0 FMFlag=      100000 FMFlg1=           0
         NFxFlg=           0 DoJE=T BraDBF=F KetDBF=T FulRan=T
         wScrn=  0.000000 ICntrl=       500 IOpCl=  0 I1Cent=   200000004 NGrid=           0
         NMat0=    1 NMatS0=      1 NMatT0=    0 NMatD0=    1 NMtDS0=    0 NMtDT0=    0
 Symmetry not used in FoFCou.
 Harris En= -643.939838057110    
 JPrj=0 DoOrth=F DoCkMO=F.
 Leave Link  401 at Sun Feb 19 23:32:33 2023, MaxMem=  6710886400 cpu:               5.9 elap:               0.3
 (Enter /data0/home/software/g16/l502.exe)
 Keep R1 ints in memory in canonical form, NReq=108966875.
 FoFCou: FMM=F IPFlag=           0 FMFlag=           0 FMFlg1=           0
         NFxFlg=           0 DoJE=F BraDBF=F KetDBF=F FulRan=T
         wScrn=  0.000000 ICntrl=       600 IOpCl=  0 I1Cent=           0 NGrid=           0
         NMat0=    1 NMatS0=  13041 NMatT0=    0 NMatD0=    1 NMtDS0=    0 NMtDT0=    0
 Symmetry not used in FoFCou.
 Two-electron integral symmetry not used.
 Closed shell SCF:
 Using DIIS extrapolation, IDIIS=  1040.
 NGot=  6710886400 LenX=  6625781341 LenY=  6625751659
 Requested convergence on RMS density matrix=1.00D-08 within 128 cycles.
 Requested convergence on MAX density matrix=1.00D-06.
 Requested convergence on             energy=1.00D-06.
 No special actions if energy rises.

 Cycle   1  Pass 1  IDiag  1:
 E= -643.856440951048    
 DIIS: error= 4.77D-02 at cycle   1 NSaved=   1.
 NSaved= 1 IEnMin= 1 EnMin= -643.856440951048     IErMin= 1 ErrMin= 4.77D-02
 ErrMax= 4.77D-02  0.00D+00 EMaxC= 1.00D-01 BMatC= 5.07D-01 BMatP= 5.07D-01
 IDIUse=3 WtCom= 5.23D-01 WtEn= 4.77D-01
 Coeff-Com:  0.100D+01
 Coeff-En:   0.100D+01
 Coeff:      0.100D+01
 Gap=     0.294 Goal=   None    Shift=    0.000
 GapD=    0.294 DampG=1.000 DampE=0.500 DampFc=0.5000 IDamp=-1.
 Damping current iteration by 5.00D-01
 RMSDP=6.85D-03 MaxDP=1.58D-01              OVMax= 2.66D-01

 Cycle   2  Pass 1  IDiag  1:
 E= -643.972647063452     Delta-E=       -0.116206112404 Rises=F Damp=T
 DIIS: error= 1.07D-02 at cycle   2 NSaved=   2.
 NSaved= 2 IEnMin= 2 EnMin= -643.972647063452     IErMin= 2 ErrMin= 1.07D-02
 ErrMax= 1.07D-02  0.00D+00 EMaxC= 1.00D-01 BMatC= 2.71D-02 BMatP= 5.07D-01
 IDIUse=3 WtCom= 8.93D-01 WtEn= 1.07D-01
 Coeff-Com:  0.722D-01 0.928D+00
 Coeff-En:   0.204D+00 0.796D+00
 Coeff:      0.863D-01 0.914D+00
 Gap=     0.358 Goal=   None    Shift=    0.000
 RMSDP=1.60D-03 MaxDP=5.11D-02 DE=-1.16D-01 OVMax= 1.75D-01

 Cycle   3  Pass 1  IDiag  1:
 E= -644.138152735764     Delta-E=       -0.165505672312 Rises=F Damp=F
 DIIS: error= 6.37D-03 at cycle   3 NSaved=   3.
 NSaved= 3 IEnMin= 3 EnMin= -644.138152735764     IErMin= 3 ErrMin= 6.37D-03
 ErrMax= 6.37D-03  0.00D+00 EMaxC= 1.00D-01 BMatC= 9.93D-03 BMatP= 2.71D-02
 IDIUse=3 WtCom= 9.36D-01 WtEn= 6.37D-02
 Coeff-Com: -0.136D-01 0.336D+00 0.678D+00
 Coeff-En:   0.000D+00 0.000D+00 0.100D+01
 Coeff:     -0.128D-01 0.314D+00 0.699D+00
 Gap=     0.350 Goal=   None    Shift=    0.000
 RMSDP=6.44D-04 MaxDP=1.48D-02 DE=-1.66D-01 OVMax= 3.51D-02

 Cycle   4  Pass 1  IDiag  1:
 E= -644.142487748400     Delta-E=       -0.004335012637 Rises=F Damp=F
 DIIS: error= 3.89D-03 at cycle   4 NSaved=   4.
 NSaved= 4 IEnMin= 4 EnMin= -644.142487748400     IErMin= 4 ErrMin= 3.89D-03
 ErrMax= 3.89D-03  0.00D+00 EMaxC= 1.00D-01 BMatC= 3.98D-03 BMatP= 9.93D-03
 IDIUse=3 WtCom= 9.61D-01 WtEn= 3.89D-02
 Coeff-Com: -0.203D-01 0.472D-01 0.408D+00 0.565D+00
 Coeff-En:   0.000D+00 0.000D+00 0.289D+00 0.711D+00
 Coeff:     -0.195D-01 0.453D-01 0.403D+00 0.571D+00
 Gap=     0.353 Goal=   None    Shift=    0.000
 RMSDP=2.56D-04 MaxDP=6.22D-03 DE=-4.34D-03 OVMax= 1.16D-02

 Cycle   5  Pass 1  IDiag  1:
 E= -644.145138613679     Delta-E=       -0.002650865279 Rises=F Damp=F
 DIIS: error= 2.27D-04 at cycle   5 NSaved=   5.
 NSaved= 5 IEnMin= 5 EnMin= -644.145138613679     IErMin= 5 ErrMin= 2.27D-04
 ErrMax= 2.27D-04  0.00D+00 EMaxC= 1.00D-01 BMatC= 1.57D-05 BMatP= 3.98D-03
 IDIUse=3 WtCom= 9.98D-01 WtEn= 2.27D-03
 Coeff-Com: -0.219D-02-0.148D-03 0.594D-01 0.117D+00 0.825D+00
 Coeff-En:   0.000D+00 0.000D+00 0.000D+00 0.000D+00 0.100D+01
 Coeff:     -0.218D-02-0.148D-03 0.592D-01 0.117D+00 0.826D+00
 Gap=     0.352 Goal=   None    Shift=    0.000
 RMSDP=2.64D-05 MaxDP=8.00D-04 DE=-2.65D-03 OVMax= 7.56D-04

 Cycle   6  Pass 1  IDiag  1:
 E= -644.145149210686     Delta-E=       -0.000010597007 Rises=F Damp=F
 DIIS: error= 7.25D-05 at cycle   6 NSaved=   6.
 NSaved= 6 IEnMin= 6 EnMin= -644.145149210686     IErMin= 6 ErrMin= 7.25D-05
 ErrMax= 7.25D-05  0.00D+00 EMaxC= 1.00D-01 BMatC= 1.20D-06 BMatP= 1.57D-05
 IDIUse=1 WtCom= 1.00D+00 WtEn= 0.00D+00
 Coeff-Com:  0.453D-04-0.159D-02 0.252D-02 0.119D-01 0.224D+00 0.763D+00
 Coeff:      0.453D-04-0.159D-02 0.252D-02 0.119D-01 0.224D+00 0.763D+00
 Gap=     0.352 Goal=   None    Shift=    0.000
 RMSDP=9.58D-06 MaxDP=2.01D-04 DE=-1.06D-05 OVMax= 2.71D-04

 Cycle   7  Pass 1  IDiag  1:
 E= -644.145150039130     Delta-E=       -0.000000828443 Rises=F Damp=F
 DIIS: error= 3.70D-05 at cycle   7 NSaved=   7.
 NSaved= 7 IEnMin= 7 EnMin= -644.145150039130     IErMin= 7 ErrMin= 3.70D-05
 ErrMax= 3.70D-05  0.00D+00 EMaxC= 1.00D-01 BMatC= 2.79D-07 BMatP= 1.20D-06
 IDIUse=1 WtCom= 1.00D+00 WtEn= 0.00D+00
 Coeff-Com:  0.360D-03-0.629D-03-0.866D-02-0.136D-01-0.258D-01 0.321D+00
 Coeff-Com:  0.727D+00
 Coeff:      0.360D-03-0.629D-03-0.866D-02-0.136D-01-0.258D-01 0.321D+00
 Coeff:      0.727D+00
 Gap=     0.352 Goal=   None    Shift=    0.000
 RMSDP=3.74D-06 MaxDP=8.55D-05 DE=-8.28D-07 OVMax= 1.05D-04

 Cycle   8  Pass 1  IDiag  1:
 E= -644.145150227865     Delta-E=       -0.000000188736 Rises=F Damp=F
 DIIS: error= 1.17D-05 at cycle   8 NSaved=   8.
 NSaved= 8 IEnMin= 8 EnMin= -644.145150227865     IErMin= 8 ErrMin= 1.17D-05
 ErrMax= 1.17D-05  0.00D+00 EMaxC= 1.00D-01 BMatC= 3.33D-08 BMatP= 2.79D-07
 IDIUse=1 WtCom= 1.00D+00 WtEn= 0.00D+00
 Coeff-Com:  0.143D-03-0.182D-03-0.389D-02-0.618D-02-0.190D-01 0.971D-01
 Coeff-Com:  0.337D+00 0.595D+00
 Coeff:      0.143D-03-0.182D-03-0.389D-02-0.618D-02-0.190D-01 0.971D-01
 Coeff:      0.337D+00 0.595D+00
 Gap=     0.352 Goal=   None    Shift=    0.000
 RMSDP=8.75D-07 MaxDP=2.31D-05 DE=-1.89D-07 OVMax= 3.71D-05

 Cycle   9  Pass 1  IDiag  1:
 E= -644.145150252174     Delta-E=       -0.000000024309 Rises=F Damp=F
 DIIS: error= 1.47D-06 at cycle   9 NSaved=   9.
 NSaved= 9 IEnMin= 9 EnMin= -644.145150252174     IErMin= 9 ErrMin= 1.47D-06
 ErrMax= 1.47D-06  0.00D+00 EMaxC= 1.00D-01 BMatC= 7.70D-10 BMatP= 3.33D-08
 IDIUse=1 WtCom= 1.00D+00 WtEn= 0.00D+00
 Coeff-Com: -0.243D-04 0.477D-04 0.257D-03 0.545D-03-0.544D-03-0.189D-01
 Coeff-Com: -0.258D-01 0.715D-01 0.973D+00
 Coeff:     -0.243D-04 0.477D-04 0.257D-03 0.545D-03-0.544D-03-0.189D-01
 Coeff:     -0.258D-01 0.715D-01 0.973D+00
 Gap=     0.352 Goal=   None    Shift=    0.000
 RMSDP=3.32D-07 MaxDP=7.96D-06 DE=-2.43D-08 OVMax= 1.01D-05

 Cycle  10  Pass 1  IDiag  1:
 E= -644.145150253115     Delta-E=       -0.000000000941 Rises=F Damp=F
 DIIS: error= 3.67D-07 at cycle  10 NSaved=  10.
 NSaved=10 IEnMin=10 EnMin= -644.145150253115     IErMin=10 ErrMin= 3.67D-07
 ErrMax= 3.67D-07  0.00D+00 EMaxC= 1.00D-01 BMatC= 1.65D-11 BMatP= 7.70D-10
 IDIUse=1 WtCom= 1.00D+00 WtEn= 0.00D+00
 Coeff-Com: -0.355D-05 0.573D-05 0.112D-03 0.178D-03 0.462D-03-0.425D-02
 Coeff-Com: -0.133D-01-0.150D-01 0.422D-01 0.990D+00
 Coeff:     -0.355D-05 0.573D-05 0.112D-03 0.178D-03 0.462D-03-0.425D-02
 Coeff:     -0.133D-01-0.150D-01 0.422D-01 0.990D+00
 Gap=     0.352 Goal=   None    Shift=    0.000
 RMSDP=6.42D-08 MaxDP=8.49D-07 DE=-9.41D-10 OVMax= 2.51D-06

 Cycle  11  Pass 1  IDiag  1:
 E= -644.145150253145     Delta-E=       -0.000000000031 Rises=F Damp=F
 DIIS: error= 2.34D-07 at cycle  11 NSaved=  11.
 NSaved=11 IEnMin=11 EnMin= -644.145150253145     IErMin=11 ErrMin= 2.34D-07
 ErrMax= 2.34D-07  0.00D+00 EMaxC= 1.00D-01 BMatC= 6.57D-12 BMatP= 1.65D-11
 IDIUse=1 WtCom= 1.00D+00 WtEn= 0.00D+00
 Coeff-Com:  0.113D-06-0.618D-06 0.344D-04 0.461D-04 0.234D-03-0.762D-03
 Coeff-Com: -0.415D-02-0.103D-01-0.405D-01 0.442D+00 0.614D+00
 Coeff:      0.113D-06-0.618D-06 0.344D-04 0.461D-04 0.234D-03-0.762D-03
 Coeff:     -0.415D-02-0.103D-01-0.405D-01 0.442D+00 0.614D+00
 Gap=     0.352 Goal=   None    Shift=    0.000
 RMSDP=1.48D-08 MaxDP=4.14D-07 DE=-3.07D-11 OVMax= 5.10D-07

 Cycle  12  Pass 1  IDiag  1:
 E= -644.145150253146     Delta-E=       -0.000000000001 Rises=F Damp=F
 DIIS: error= 7.47D-08 at cycle  12 NSaved=  12.
 NSaved=12 IEnMin=12 EnMin= -644.145150253146     IErMin=12 ErrMin= 7.47D-08
 ErrMax= 7.47D-08  0.00D+00 EMaxC= 1.00D-01 BMatC= 7.26D-13 BMatP= 6.57D-12
 IDIUse=1 WtCom= 1.00D+00 WtEn= 0.00D+00
 Coeff-Com:  0.745D-06-0.137D-05-0.545D-05-0.119D-04 0.134D-04 0.468D-03
 Coeff-Com:  0.869D-03-0.127D-02-0.255D-01 0.370D-02 0.248D+00 0.774D+00
 Coeff:      0.745D-06-0.137D-05-0.545D-05-0.119D-04 0.134D-04 0.468D-03
 Coeff:      0.869D-03-0.127D-02-0.255D-01 0.370D-02 0.248D+00 0.774D+00
 Gap=     0.352 Goal=   None    Shift=    0.000
 RMSDP=6.27D-09 MaxDP=1.14D-07 DE=-6.82D-13 OVMax= 2.70D-07

 SCF Done:  E(RM062X) =  -644.145150253     A.U. after   12 cycles
            NFock= 12  Conv=0.63D-08     -V/T= 2.0025
 KE= 6.425128254156D+02 PE=-2.087797016694D+03 EE= 5.211121174476D+02
 Leave Link  502 at Sun Feb 19 23:32:38 2023, MaxMem=  6710886400 cpu:             100.8 elap:               5.5
 (Enter /data0/home/software/g16/l601.exe)
 Copying SCF densities to generalized density rwf, IOpCl= 0 IROHF=0.

 **********************************************************************

            Population analysis using the SCF density.

 **********************************************************************

 Alpha  occ. eigenvalues --  -78.16752 -19.68915 -19.68485 -19.67125 -19.58901
 Alpha  occ. eigenvalues --   -6.97531  -5.09433  -5.09401  -5.09248  -1.24200
 Alpha  occ. eigenvalues --   -1.17078  -1.15860  -1.08988  -0.72920  -0.64814
 Alpha  occ. eigenvalues --   -0.63779  -0.58083  -0.53132  -0.51475  -0.49330
 Alpha  occ. eigenvalues --   -0.46818  -0.45976  -0.42810  -0.38698  -0.37825
 Alpha virt. eigenvalues --   -0.02597   0.01436   0.02068   0.04680   0.08667
 Alpha virt. eigenvalues --    0.10342   0.10658   0.11839   0.16225   0.16826
 Alpha virt. eigenvalues --    0.18247   0.19149   0.20146   0.20630   0.21613
 Alpha virt. eigenvalues --    0.22347   0.23624   0.24907   0.26446   0.26985
 Alpha virt. eigenvalues --    0.28143   0.29768   0.30281   0.31715   0.32449
 Alpha virt. eigenvalues --    0.35599   0.36087   0.37583   0.39778   0.42175
 Alpha virt. eigenvalues --    0.45933   0.49159   0.50035   0.57092   0.58322
 Alpha virt. eigenvalues --    0.74423   0.76468   0.77518   0.85934   0.96579
 Alpha virt. eigenvalues --    1.00532   1.03150   1.04988   1.08200   1.09774
 Alpha virt. eigenvalues --    1.11047   1.15388   1.17680   1.19006   1.20266
 Alpha virt. eigenvalues --    1.22715   1.25510   1.26719   1.27441   1.33306
 Alpha virt. eigenvalues --    1.37412   1.42436   1.43339   1.47324   1.52883
 Alpha virt. eigenvalues --    1.53396   1.53669   1.56850   1.63438   1.64626
 Alpha virt. eigenvalues --    1.64962   1.68292   1.70991   1.75221   1.80467
 Alpha virt. eigenvalues --    1.84410   1.86390   1.87427   1.92400   1.94890
 Alpha virt. eigenvalues --    1.96611   2.07079   2.08361   2.10192   2.11938
 Alpha virt. eigenvalues --    2.20742   2.23744   2.28927   2.39152   2.43370
 Alpha virt. eigenvalues --    2.47291   2.55592   2.60013   2.62529   2.72967
 Alpha virt. eigenvalues --    2.74156   2.77821   2.85177   2.91468   2.95090
 Alpha virt. eigenvalues --    5.01332   5.06475   5.06843   5.07003   5.10961
 Alpha virt. eigenvalues --    5.11689   5.17737   5.22779   5.34688   5.45137
 Alpha virt. eigenvalues --    5.48007   5.52896   6.72138   6.74659   6.74950
 Alpha virt. eigenvalues --    6.75597   6.78782   6.79800   6.83396   6.86506
 Alpha virt. eigenvalues --    6.91787   6.92841   6.96994   6.97919   6.98153
 Alpha virt. eigenvalues --    7.05928   7.10721   7.24424   7.25140   7.27074
 Alpha virt. eigenvalues --    7.31160   7.39745   7.64370  14.22517  14.24958
 Alpha virt. eigenvalues --   14.35166  49.98855  49.99714  50.00980  50.09436
 Alpha virt. eigenvalues --  163.85675
          Condensed to atoms (all electrons):
              28         29         30         31         32         33
    28  P   12.437121   0.550697   0.267945   0.001565   0.202254   0.039816
    29  O    0.550697   8.138099  -0.013576  -0.006417  -0.050400   0.001604
    30  O    0.267945  -0.013576   8.019484   0.264856  -0.001813  -0.013033
    31  H    0.001565  -0.006417   0.264856   0.409262   0.005082   0.000865
    32  O    0.202254  -0.050400  -0.001813   0.005082   8.121307   0.231514
    33  H    0.039816   0.001604  -0.013033   0.000865   0.231514   0.444345
    34  O    0.279686  -0.017724   0.024033  -0.005589  -0.001355  -0.011813
    35  H    0.001783  -0.007984  -0.006085  -0.002034   0.004621   0.001094
              34         35
    28  P    0.279686   0.001783
    29  O   -0.017724  -0.007984
    30  O    0.024033  -0.006085
    31  H   -0.005589  -0.002034
    32  O   -0.001355   0.004621
    33  H   -0.011813   0.001094
    34  O    8.008851   0.265042
    35  H    0.265042   0.412257
 Mulliken charges:
               1
     1  C    0.000000
     2  C    0.000000
     3  C    0.000000
     4  C    0.000000
     5  C    0.000000
     6  H    0.000000
     7  H    0.000000
     8  H    0.000000
     9  H    0.000000
    10  C    0.000000
    11  H    0.000000
    12  H    0.000000
    13  H    0.000000
    14  N    0.000000
    15  C    0.000000
    16  H    0.000000
    17  H    0.000000
    18  C    0.000000
    19  H    0.000000
    20  H    0.000000
    21  C    0.000000
    22  H    0.000000
    23  H    0.000000
    24  S    0.000000
    25  O    0.000000
    26  O    0.000000
    27  O    0.000000
    28  P    1.219131
    29  O   -0.594300
    30  O   -0.541812
    31  H    0.332410
    32  O   -0.511211
    33  H    0.305607
    34  O   -0.541133
    35  H    0.331307
 Sum of Mulliken charges =  -0.00000
 Mulliken charges with hydrogens summed into heavy atoms:
               1
     1  C    0.000000
     2  C    0.000000
     3  C    0.000000
     4  C    0.000000
     5  C    0.000000
    10  C    0.000000
    14  N    0.000000
    15  C    0.000000
    18  C    0.000000
    21  C    0.000000
    24  S    0.000000
    25  O    0.000000
    26  O    0.000000
    27  O    0.000000
    28  P    1.219131
    29  O   -0.594300
    30  O   -0.209402
    32  O   -0.205604
    34  O   -0.209826
         Mulliken charges condensed to fragments:
      1      0.000000
      2     -0.000000
 Electronic spatial extent (au):  <R**2>=          70254.3419
 Charge=             -0.0000 electrons
 Dipole moment (field-independent basis, Debye):
    X=              1.1169    Y=             -0.1066    Z=             -4.3001  Tot=              4.4440
 Quadrupole moment (field-independent basis, Debye-Ang):
   XX=             -4.7543   YY=            -35.6727   ZZ=           -129.5782
   XY=              9.9935   XZ=            -38.6420   YZ=            -47.1776
 Traceless Quadrupole moment (field-independent basis, Debye-Ang):
   XX=             51.9141   YY=             20.9957   ZZ=            -72.9098
   XY=              9.9935   XZ=            -38.6420   YZ=            -47.1776
 Octapole moment (field-independent basis, Debye-Ang**2):
  XXX=           -760.9591  YYY=          -1016.3464  ZZZ=          -2723.1805  XYY=           -349.2907
  XXY=            -68.5113  XXZ=           -653.6876  XZZ=          -1451.7563  YZZ=          -1366.3670
  YYZ=           -888.1713  XYZ=           -440.5016
 Hexadecapole moment (field-independent basis, Debye-Ang**3):
 XXXX=         -25081.5459 YYYY=         -19827.4016 ZZZZ=         -48787.1950 XXXY=          -8073.4458
 XXXZ=         -15436.1423 YYYX=         -12072.6737 YYYZ=         -16566.2087 ZZZX=         -32490.2156
 ZZZY=         -28189.4217 XXYY=          -6646.0168 XXZZ=         -20074.3129 YYZZ=         -18597.0901
 XXYZ=          -7326.8767 YYXZ=          -9829.1048 ZZXY=         -15445.8140
 N-N= 2.800269235780D+02 E-N=-2.087797019781D+03  KE= 6.425128254156D+02
 No NMR shielding tensors so no spin-rotation constants.
 Leave Link  601 at Sun Feb 19 23:32:38 2023, MaxMem=  6710886400 cpu:               2.0 elap:               0.1
 (Enter /data0/home/software/g16/l122.exe)
 CPIOFr:  IOpCl= 0 IRwI=-1 IRwCP=  731 ICalc=  4 LCPTot=      598137 Len1MO=     1575263 IndFrg=     8474452
 Restoring MOs from calculation   1 to rwf.
 CPIOFr:  IOpCl= 0 IRwI=-2 IRwCP=  731 ICalc=  0 LCPTot=      598137 Len1MO=     1575263 IndFrg=     2173400
 Counterpoise corrected energy =   -1673.456125448838
                   BSSE energy =       0.002824496005
              sum of fragments =   -1673.415325405605
           complexation energy =     -27.37 kcal/mole (raw)
           complexation energy =     -25.60 kcal/mole (corrected)
 Leave Link  122 at Sun Feb 19 23:32:38 2023, MaxMem=  6710886400 cpu:               0.6 elap:               0.0
 (Enter /data0/home/software/g16/l9999.exe)
 1\1\GINC-LOCALHOST\SP\RM062X\6-311+G(2d,p)\C9H16N1O7P1S1\WUHANYU\19-Fe
 b-2023\0\\#p M062X/6-311+G(2d,p) nosymm em=GD3 counterpoise=2\\Title C
 ard Required\\0,1\C,0,8.175345,10.466769,11.169255\C,0,9.072563,10.408
 252,12.235161\C,0,9.837915,9.266034,12.443004\C,0,9.7077,8.189379,11.5
 52713\C,0,8.820692,8.294221,10.48062\H,0,10.542256,9.212386,13.280805\
 H,0,7.555671,11.365472,10.991104\H,0,9.184838,11.287287,12.879314\H,0,
 8.750344,7.499684,9.728224\C,0,10.528162,6.960324,11.693283\H,0,9.9228
 61,6.050058,11.77148\H,0,11.200996,6.83992,10.818276\H,0,11.197826,6.9
 94199,12.567287\N,0,8.046919,9.408556,10.31922\C,0,7.078757,9.49502,9.
 198412\H,0,6.215387,8.83478,9.443723\H,0,6.673783,10.543322,9.146104\C
 ,0,7.65419,9.113907,7.820019\H,0,8.246355,8.174729,7.882331\H,0,6.7972
 44,8.867256,7.154531\C,0,8.483817,10.213852,7.16529\H,0,7.882947,11.13
 3817,7.02434\H,0,8.796165,9.909985,6.149224\S,0,9.940442,10.610466,8.1
 47975\O,0,10.931477,11.295469,7.321094\O,0,10.3601,9.302262,8.721606\O
 ,0,9.361534,11.506914,9.211485\P,0,13.06715,9.934052,11.01217\O,0,11.9
 56018,10.567469,11.735798\O,0,14.064622,10.855554,10.203841\H,0,13.535
 845,11.623217,9.702193\O,0,14.050778,9.211341,12.043625\H,0,14.848232,
 8.843774,11.50298\O,0,12.699427,8.739469,10.042133\H,0,11.803868,8.962
 693,9.51951\\Version=ES64L-G16RevA.03\HF=-644.1451503\RMSD=6.273e-09\D
 ipole=-2.6888182,-1.8552122,0.6728186\Quadrupole=-44.4826664,-23.20440
 71,67.6870736,-86.6058394,-33.7759795,-19.8154879\PG=C01 [X(C9H16N1O7P
 1S1)]\\@


 I KNOW YOU BELIEVE YOU UNDERSTAND WHAT YOU THINK I SAID,
 BUT I AM NOT SURE YOU REALIZE THAT WHAT YOU HEARD IS NOT WHAT I MEANT.
 Job cpu time:       0 days  3 hours 56 minutes 36.6 seconds.
 Elapsed time:       0 days  0 hours  9 minutes 55.5 seconds.
 File lengths (MBytes):  RWF=    293 Int=      0 D2E=      0 Chk=     87 Scr=      1
 Normal termination of Gaussian 16 at Sun Feb 19 23:32:38 2023.
