          35
 G =       -0.442373 Gcorr = 0.204020 a.u. Nimag =   0 Frame:     1 Step:     1 Geom:     1
C          13.15415700      6.44068800     10.27162600
C          11.98002400      5.75412100     10.57190800
C          13.70385200      4.32984000     10.83043900
N          14.20406500      5.54321400     10.44057700
H          13.29857700      7.47904200     10.01004400
H          10.96608900      6.11811000     10.63499700
H          14.29004300      3.45193900     11.09066100
C          15.61624100      5.85034600     10.30919300
H          15.78699100      6.95030200     10.33703700
H          16.19350900      5.43218700     11.16469900
H          16.02416200      5.44651900      9.36722000
N          12.33953700      4.44701500     10.89567400
C          11.40309100      3.39001200     11.28130500
H          11.39991000      2.61195700     10.48332200
H          10.37491500      3.83501300     11.32304100
C          11.73602100      2.76048200     12.64641500
H          11.36653500      1.71566200     12.66222300
H          12.83517400      2.68679800     12.79720000
C          11.11619600      3.54221600     13.80280200
H          11.29223900      3.02432800     14.76542200
H          10.02351100      3.64642400     13.69504300
C          11.76420500      4.92939300     13.84966300
O          11.29839900      5.80259500     13.09580900
O          12.75899000      5.05690200     14.59640000
P          14.21067700      7.89846800     13.36330100
O          15.32984100      7.16360600     12.75631800
O          12.89407200      7.88194000     12.46989100
H          12.23160700      7.11222800     12.80069500
O          13.79170900      7.50343700     14.83046300
H          13.36599000      6.50213600     14.79921100
O          14.57628900      9.44811000     13.45253100
H          13.76882600      9.92665000     13.88353700
O          14.92788300      4.12105400     13.07834000
H          15.35595500      4.98597700     13.07358900
H          14.20073900      4.27128900     13.71942700
          35
 G =       -0.442358 Gcorr = 0.204035 a.u. Nimag =   0 Frame:     2 Step:     2 Geom:     2
C          12.87580900      6.47446300     10.27049400
C          11.79529000      5.65949000     10.59975200
C          13.67696900      4.44530000     10.82789400
N          14.02556500      5.70524300     10.42109200
H          12.89390100      7.52056400     10.00073100
H          10.74769200      5.90465700     10.68289500
H          14.36583400      3.64275300     11.07971600
C          15.38972500      6.17195700     10.25668700
H          15.82039500      5.81239400      9.30690900
H          15.43325500      7.28442900     10.27693600
H          16.03020100      5.82798100     11.10011800
N          12.30993600      4.40500600     10.92226400
C          11.51005000      3.25036100     11.33433500
H          11.58031900      2.47041700     10.54129400
H          10.43840800      3.57407600     11.39545500
C          11.94159200      2.67497400     12.69572200
H          11.69537000      1.59478800     12.72586400
H          13.04482200      2.72957700     12.82303600
C          11.26008400      3.38991100     13.86060400
H          11.51368500      2.90302000     14.82208200
H          10.16070700      3.36788400     13.77522800
C          11.74598000      4.84237100     13.88652300
O          11.16843900      5.65035600     13.13705100
O          12.73363300      5.08909200     14.61228000
P          13.82492600      8.06737900     13.33142200
O          15.00724400      7.45836100     12.70505000
O          12.49995700      7.89423500     12.46759400
H          11.93775100      7.05523900     12.81545400
O          13.48482600      7.64081000     14.81012600
H          13.17331800      6.59823100     14.79456900
O          14.01446300      9.64917100     13.40221800
H          13.16484700     10.03768600     13.84263900
O          14.96268400      4.39665700     13.04956600
H          15.28311100      5.30683100     13.02818200
H          14.23922900      4.46434500     13.70823600
          35
 G =       -0.435536 Gcorr = 0.200757 a.u. Nimag =   0 Frame:     3 Step:     3 Geom:     3
C          12.85934600      6.47573800     10.06380000
C          11.85456000      5.62666300     10.52672300
C          13.83878400      4.63941900     10.91885300
N          14.07303000      5.83834500     10.30145900
H          12.78428100      7.46818800      9.65843700
H          10.78352400      5.77977800     10.57977900
H          14.59290000      3.95091900     11.28235400
C          15.38340700      6.40021700     10.03638300
H          15.76833700      6.94314500     10.93449500
H          16.12360200      5.60846400      9.80612800
H          15.34567300      7.11557000      9.19819500
N          12.47862100      4.49280200     11.03467000
C          11.78600900      3.33250900     11.59757200
H          12.09972500      2.42653900     11.03115200
H          10.68695000      3.47384700     11.42551300
C          12.04269000      3.14437500     13.10498300
H          12.24836400      2.07845100     13.31586900
H          12.95877600      3.69406500     13.42205800
C          10.85647700      3.62242700     13.94424000
H          10.93789000      3.25234500     14.98416600
H           9.89179600      3.26228600     13.55652500
C          10.87479400      5.15489200     13.95097700
O          10.73071300      5.71587400     12.83367200
O          11.08478600      5.72899400     15.02797800
P          13.70262500      7.20654900     13.48254100
O          14.35261000      5.92067800     13.15426400
O          12.52909700      7.60108600     12.50273400
H          11.68527100      6.90792900     12.67582300
O          13.19901100      7.39387300     14.96123200
H          12.31222900      6.76868600     15.07395200
O          14.77864600      8.37336900     13.26775800
H          14.34148400      9.25550000     13.57090700
O          16.75592000      4.84221500     12.04781800
H          16.01624100      5.28014000     12.50129600
H          17.43185000      4.76413100     12.71571400
          35
 G =       -0.442446 Gcorr = 0.203947 a.u. Nimag =   0 Frame:     4 Step:     4 Geom:     4
C          12.89671000      6.45482400     10.26536400
C          11.80488600      5.65873600     10.60356300
C          13.66626800      4.40941500     10.80748100
N          14.03359900      5.66406400     10.40114700
H          12.93122900      7.50135400      9.99882600
H          10.76289500      5.92280600     10.69842900
H          14.34280300      3.59346700     11.04962800
C          15.40435600      6.10571500     10.22287100
H          16.04712400      5.74831400     11.05894000
H          15.81809600      5.73987900      9.26800400
H          15.46880900      7.21714200     10.24461500
N          12.29971600      4.39392200     10.91641200
C          11.48379400      3.25228600     11.33314000
H          11.53453600      2.47252500     10.53840600
H          10.41831600      3.59371700     11.40352800
C          11.91676400      2.66747000     12.69011700
H          11.64976200      1.59226100     12.72168500
H          13.02204800      2.70044000     12.80709800
C          11.26028300      3.39455200     13.86187900
H          11.51163400      2.90055800     14.82039400
H          10.16005900      3.39604500     13.78569500
C          11.77752500      4.83613300     13.88630200
O          11.20804400      5.65908200     13.14712700
O          12.77964000      5.05912600     14.59998800
P          13.91387600      8.02273200     13.31958500
O          15.07833900      7.39518300     12.67857000
O          12.57690500      7.87769900     12.46930200
H          12.00202400      7.04867900     12.82122100
O          13.58142800      7.59547800     14.80008400
H          13.25258900      6.55858200     14.78335200
O          14.13288500      9.60043200     13.39597900
H          13.29657400     10.00187800     13.85002200
O          14.97777500      4.32719900     13.01429500
H          15.32901500      5.22578200     12.99973200
H          14.25971500      4.41253000     13.67723500
          35
 G =       -0.435974 Gcorr = 0.200292 a.u. Nimag =   0 Frame:     5 Step:     5 Geom:     5
C          12.54007200      6.42876100     10.22645900
C          11.72743600      5.40236600     10.70408800
C          13.87271300      4.73183900     10.86044300
N          13.85653600      5.98231800     10.31071200
H          12.27480300      7.42032000      9.90640300
H          10.65291900      5.37741000     10.84913800
H          14.75443900      4.15133900     11.10941800
C          15.02985000      6.75115900      9.94234300
H          15.84233400      6.09506900      9.57211600
H          14.78542600      7.50024400      9.17091100
H          15.44378800      7.29479100     10.82669200
N          12.56659600      4.35832000     11.07897100
C          12.13905200      3.06823200     11.62056800
H          12.88626500      2.29330700     11.32835100
H          11.17278100      2.78559700     11.13700300
C          11.97821900      3.08490300     13.15059900
H          12.07686200      2.04900000     13.53034800
H          12.82166100      3.64519100     13.62278500
C          10.64464600      3.67851200     13.60930900
H          10.29715800      3.19050800     14.53940400
H           9.84267500      3.55206000     12.86801700
C          10.88418000      5.16643500     13.89086400
O          10.71401000      5.95571600     12.93241100
O          11.28978600      5.46801200     15.02600800
P          13.84834600      7.10153600     13.59665700
O          14.45350700      5.84198800     13.11120700
O          12.70409200      7.65992000     12.65758400
H          11.80480600      7.05373000     12.81127300
O          13.33936400      7.13596100     15.07903400
H          12.44959500      6.47960800     15.13112700
O          14.97180200      8.24102200     13.51208200
H          14.57156500      9.10049800     13.91356400
O          16.84546700      5.29592600     11.66507200
H          16.09818900      5.54889200     12.23745600
H          17.60907700      5.35951100     12.23160200
          35
 G =       -0.442382 Gcorr = 0.204012 a.u. Nimag =   0 Frame:     6 Step:     6 Geom:     6
C          12.70391800      6.67675400     10.37680400
C          11.69061600      5.78264400     10.71425600
C          13.62403400      4.63476100     10.60873600
N          13.88737900      5.94698100     10.32025300
H          12.66009400      7.74651200     10.23152300
H          10.65006000      5.97027100     10.92991800
H          14.36097200      3.84005500     10.69412000
C          15.21127000      6.48932300     10.07726900
H          15.55346100      6.25754500      9.05451900
H          15.21999600      7.59332300     10.22175700
H          15.94610700      6.08197500     10.80800800
N          12.27632400      4.52359400     10.83371700
C          11.56133100      3.29556300     11.18544500
H          11.57108300      2.61559500     10.30249400
H          10.49269900      3.56333300     11.39378600
C          12.15318600      2.58718700     12.41773200
H          11.94624100      1.50084700     12.34414600
H          13.26136200      2.67540500     12.43789800
C          11.57658500      3.13267900     13.72250600
H          11.94773600      2.55145900     14.58866100
H          10.47574900      3.07004200     13.74804600
C          12.01309700      4.59357800     13.87005900
O          11.33362500      5.45390800     13.28166800
O          13.06214000      4.80134100     14.51767300
P          13.91171800      7.95338400     13.49298600
O          15.04182000      7.47470400     12.68388900
O          12.50966200      7.81929900     12.75285800
H          12.01668500      6.92053100     13.05351300
O          13.74298600      7.34592100     14.93780700
H          13.47001100      6.29834100     14.83048500
O          14.05403100      9.52377900     13.73103100
H          13.24475700      9.81949100     14.30055600
O          15.13673800      4.38979200     12.66985400
H          15.42963000      5.30750800     12.72594000
H          14.48292400      4.35258000     13.40010600
          35
 G =       -0.442399 Gcorr = 0.203994 a.u. Nimag =   0 Frame:     7 Step:     7 Geom:     7
C          12.65860200      6.68825100     10.38970600
C          11.65201500      5.78871100     10.73282500
C          13.59185700      4.65224500     10.62150800
N          13.84613900      5.96544600     10.32950800
H          12.60765900      7.75747800     10.24287500
H          10.61123900      5.97050800     10.95257600
H          14.33393800      3.86213000     10.70572700
C          15.16575600      6.51499900     10.07950300
H          15.16884800      7.61932100     10.22184100
H          15.90626000      6.11332300     10.80768600
H          15.50455800      6.28335200      9.05560900
N          12.24576000      4.53344200     10.85232700
C          11.53988100      3.30141900     11.20824900
H          11.55291000      2.61922400     10.32704300
H          10.46978400      3.56219100     11.41762000
C          12.13861000      2.60018600     12.44137500
H          11.93782400      1.51246800     12.37137100
H          13.24631400      2.69506200     12.45868500
C          11.56181800      3.14615900     13.74587700
H          11.93673800      2.56841900     14.61272400
H          10.46128800      3.07934800     13.77331700
C          11.99316900      4.60899100     13.88930400
O          11.30691300      5.46549800     13.30271300
O          13.04414200      4.82241500     14.53145300
P          13.87229300      7.97821900     13.49830600
O          15.00107200      7.50510200     12.68409700
O          12.46765700      7.83396600     12.76561800
H          11.98131700      6.93182500     13.07020100
O          13.71572600      7.37227300     14.94527200
H          13.44698600      6.32390600     14.84146200
O          14.00639500      9.54976700     13.73357700
H          13.19638600      9.84187800     14.30393400
O          15.11492500      4.42111700     12.67652000
H          15.40128900      5.34112900     12.73050200
H          14.46395200      4.38024000     13.40911300
          35
 G =       -0.442411 Gcorr = 0.203980 a.u. Nimag =   0 Frame:     8 Step:     8 Geom:     8
C          12.74098000      6.54904400     10.30717300
C          11.73043400      5.65495800     10.65302000
C          13.68572200      4.54029800     10.68427600
N          13.93789900      5.83999200     10.33560900
H          12.68453600      7.60864300     10.10340000
H          10.67894700      5.83364800     10.81696400
H          14.43221400      3.76560100     10.84153400
C          15.26095400      6.39306700     10.11343600
H          15.97385500      6.03871400     10.89196000
H          15.64571400      6.11378900      9.11801600
H          15.24604300      7.50319400     10.19861200
N          12.33229100      4.41564600     10.86325700
C          11.62546000      3.19422700     11.25194900
H          11.68242100      2.46883000     10.40770700
H          10.54485600      3.45139100     11.40370700
C          12.17967700      2.56342300     12.54264300
H          11.99451400      1.47096300     12.51913100
H          13.28452200      2.67425000     12.60108300
C          11.54229200      3.16588000     13.79290800
H          11.88802200      2.63797300     14.70267200
H          10.44250500      3.08459400     13.77888800
C          11.94909400      4.64015300     13.87918400
O          11.27795100      5.45620200     13.22200000
O          12.96940300      4.90100300     14.55282900
P          13.80830900      8.00845400     13.39484400
O          14.97609200      7.50970300     12.65420600
O          12.43841200      7.80887600     12.61037800
H          11.94798900      6.91864100     12.94022700
O          13.59646300      7.47452500     14.86266600
H          13.33597900      6.42001100     14.80104100
O          13.91475700      9.59156100     13.55377800
H          13.07777400      9.90231200     14.07280200
O          15.12309800      4.43229300     12.81113800
H          15.39980500      5.35664000     12.83107100
H          14.44104000      4.42150600     13.51591300
          35
 G =       -0.438554 Gcorr = 0.201536 a.u. Nimag =   0 Frame:     9 Step:    10 Geom:    10
C          11.98748800      6.02006700      9.38521700
C          11.43383500      4.76559600      9.60559200
C          13.27178500      4.95335700     10.89558600
N          13.13072400      6.10862600     10.17947400
H          11.65151400      6.82282900      8.75579000
H          10.54953800      4.32204400      9.19017600
H          14.06197900      4.74275500     11.64821300
C          13.98783400      7.27550000     10.26715200
H          13.44972500      8.11852100     10.76312400
H          14.88864900      7.07449600     10.89103900
H          14.32030100      7.60243500      9.26843400
N          12.25206800      4.11130800     10.52968800
C          12.00085900      2.76453500     11.04461900
H          12.71041700      2.05959900     10.54397300
H          10.96953100      2.45782600     10.74639200
C          12.14934000      2.65059700     12.57082100
H          11.89939100      1.60979100     12.86541100
H          13.21416500      2.77744000     12.87283800
C          11.26962900      3.63109800     13.34326800
H          10.97228800      3.20663000     14.32156300
H          10.33721400      3.87158200     12.80829800
C          12.07651800      4.91150400     13.59347400
O          11.94699200      5.83467000     12.76324800
O          12.86814000      4.90169300     14.55467100
P          14.49208900      7.93537200     14.04234100
O          15.58662800      7.30728500     13.29336100
O          13.17661300      8.19146300     13.18679200
H          12.64831800      7.27165500     13.06731100
O          14.03110800      7.22368500     15.37870600
H          13.55868200      6.30141400     15.11559500
O          14.90661500      9.39945800     14.51517000
H          14.10212300      9.78975900     15.03293200
O          15.19011800      4.29267600     13.06229100
H          15.70247200      5.10519300     13.17971700
H          14.49532800      4.37754400     13.74774400
          35
 G =       -0.442396 Gcorr = 0.203998 a.u. Nimag =   0 Frame:    10 Step:    11 Geom:    11
C          12.62616900      6.67859000     10.35611000
C          11.69292500      5.69096400     10.66241700
C          13.73023200      4.73444000     10.62305000
N          13.87550700      6.06603600     10.34025600
H          12.48433000      7.73924800     10.20687600
H          10.63264100      5.77757800     10.84352900
H          14.53681100      4.01407500     10.73460400
C          15.14823600      6.73313900     10.13801700
H          15.89554000      6.39676900     10.89194200
H          15.54262400      6.53728600      9.12669000
H          15.04676900      7.83268700     10.28157100
N          12.39268400      4.49399200     10.80403500
C          11.78844800      3.20236500     11.13471600
H          11.89590300      2.52622300     10.25528600
H          10.69212800      3.36473100     11.30380400
C          12.40198100      2.55515400     12.38992500
H          12.30309000      1.45391400     12.31342600
H          13.49515200      2.74980600     12.44828600
C          11.73019400      3.04353000     13.67162200
H          12.12302300      2.49948200     14.55226100
H          10.63988300      2.87790600     13.65808200
C          12.02261900      4.53877400     13.82995900
O          11.28438100      5.33214400     13.21877200
O          13.02653200      4.84359100     14.51001700
P          13.60781600      8.06283800     13.50763300
O          14.80436000      7.69454800     12.73711300
O          12.25052600      7.79716600     12.72080400
H          11.83335900      6.85695000     13.00861200
O          13.45019300      7.43975800     14.94682600
H          13.28042200      6.37086300     14.83219800
O          13.59204500      9.63922900     13.74763000
H          12.73728900      9.85624800     14.28544100
O          15.19139800      4.63647700     12.73185800
H          15.39484500      5.57755900     12.79695400
H          14.51996900      4.53595200     13.43969200
          35
 G =       -0.442370 Gcorr = 0.204023 a.u. Nimag =   0 Frame:    11 Step:    12 Geom:    12
C          12.65765500      6.67556000     10.36595800
C          11.68689000      5.71690400     10.64626700
C          13.68890000      4.68853000     10.60761600
N          13.88443100      6.01883400     10.34984800
H          12.55547700      7.74315700     10.23471400
H          10.62867700      5.83809500     10.81944000
H          14.46820900      3.93781900     10.71305300
C          15.18215100      6.64343400     10.17205900
H          15.90897700      6.26808700     10.92752100
H          15.58024600      6.45054600      9.16155200
H          15.11815400      7.74334300     10.33325100
N          12.34205600      4.49317200     10.77258900
C          11.68865900      3.21863300     11.07506000
H          11.77795700      2.55525100     10.18392400
H          10.59771100      3.41794900     11.23966500
C          12.26860400      2.52657900     12.32223300
H          12.13114300      1.43117400     12.22429800
H          13.36751100      2.68074400     12.39236000
C          11.60439500      3.01477100     13.60795100
H          11.97147400      2.44163400     14.48118400
H          10.50913400      2.88739100     13.58372600
C          11.94694100      4.49596600     13.79576200
O          11.24297900      5.32486200     13.19104700
O          12.95326600      4.75390100     14.49115100
P          13.65402400      7.96829400     13.55047800
O          14.84332000      7.57030900     12.78358700
O          12.29456700      7.76467300     12.74947400
H          11.84480600      6.83214200     13.01460100
O          13.46162200      7.32783900     14.97801400
H          13.25710500      6.26800700     14.84412700
O          13.69299100      9.54010300     13.81697900
H          12.84350700      9.77845400     14.35394200
O          15.12463700      4.49992300     12.72803200
H          15.35710100      5.43304700     12.80904700
H          14.44474600      4.41088100     13.42951000
          35
 G =       -0.449765 Gcorr = 0.190368 a.u. Nimag =   0 Frame:    12 Step:    13 Geom:    13
C          12.80650100      6.53760200     10.40545100
C          11.76951200      5.62949000     10.59037200
C          13.71977300      4.47996300     10.62912100
N          14.00600200      5.81303500     10.43091200
H          12.77884000      7.62776800     10.31660900
H          10.70976100      5.81799300     10.69090000
H          14.45355600      3.67800800     10.78027100
C          15.35473700      6.38128400     10.34434600
H          15.82518400      6.16364500      9.37298300
H          15.30895700      7.49507400     10.49121400
H          15.99741300      6.00153900     11.16570400
N          12.34437900      4.35345700     10.71380200
C          11.61861600      3.09077700     10.98025200
H          11.96208600      2.32080600     10.24908200
H          10.53185400      3.25870300     10.78714600
C          11.83453200      2.58869800     12.41654400
H          11.47262700      1.54164300     12.48146000
H          12.92644100      2.54381800     12.65309900
C          11.12929200      3.44247200     13.46750900
H          11.06272000      2.89093100     14.42895900
H          10.08404800      3.67200700     13.18221900
C          11.88528200      4.74276300     13.71651800
O          11.28211000      5.82316300     13.51658600
O          13.09725800      4.65115700     14.07863700
P          13.98140100      8.06316900     13.29833800
O          14.04880500      8.43756500     11.86693000
O          12.56509500      8.02501800     14.06905500
H          11.89891300      7.18621700     13.88122200
O          14.62282500      6.59253900     13.56215200
H          13.98725200      5.87827700     14.09224800
O          14.80692000      9.09571800     14.27378100
H          14.49814800      9.13921700     15.21798700
O          14.98243300      3.67889300     12.76682900
H          15.17994100      4.58835000     13.06070900
H          14.28681300      3.38924700     13.40107000
          35
 G =       -0.442391 Gcorr = 0.204003 a.u. Nimag =   0 Frame:    13 Step:    14 Geom:    14
C          12.74911300      6.73730100     10.39877000
C          11.72167600      5.85756700     10.73112200
C          13.62712100      4.67059600     10.56555600
N          13.91494600      5.98338400     10.30476800
H          12.72678500      7.81104300     10.28034700
H          10.68915000      6.06243100     10.96878800
H          14.34740800      3.85799400     10.61952700
C          15.24641300      6.50228000     10.05247300
H          15.28259200      7.60183300     10.22454800
H          15.98399600      6.06027700     10.75987500
H          15.56583700      6.28945600      9.01831200
N          12.28103000      4.58341400     10.81018300
C          11.54509800      3.36268600     11.14336100
H          11.52816500      2.70360100     10.24479800
H          10.48535000      3.64761900     11.37300000
C          12.13870100      2.61330900     12.35034200
H          11.90684800      1.53371800     12.25502200
H          13.24874000      2.67697800     12.35610200
C          11.59291900      3.14104200     13.67548000
H          11.96198100      2.53101300     14.52252100
H          10.49135100      3.10362000     13.71518100
C          12.06607300      4.58738300     13.85098300
O          11.39716500      5.47757900     13.29608500
O          13.13059600      4.75463100     14.48510600
P          14.03793100      7.91034500     13.52437500
O          15.14292200      7.42579100     12.68466600
O          12.62141500      7.82772800     12.80416000
H          12.11207600      6.93396200     13.09032500
O          13.87837800      7.27088100     14.95608200
H          13.57781600      6.23275700     14.82724000
O          14.22089800      9.47066100     13.79804500
H          13.42747200      9.77098300     14.38725700
O          15.16642400      4.34243000     12.59403700
H          15.48266200      5.25109200     12.66817200
H          14.52297600      4.30262500     13.33340800
          35
 G =       -0.442399 Gcorr = 0.203994 a.u. Nimag =   0 Frame:    14 Step:    15 Geom:    15
C          12.57454700      6.72221400     10.40419200
C          11.59142500      5.79242900     10.73444900
C          13.55170500      4.69966300     10.56053400
N          13.77527300      6.02592700     10.30496800
H          12.50011000      7.79408000     10.29025800
H          10.55066700      5.94622300     10.97473900
H          14.31048300      3.92255500     10.60975200
C          15.07965200      6.60972300     10.05283100
H          15.40704100      6.41729600      9.01716100
H          15.06304100      7.70891400     10.22983300
H          15.83910400      6.20068300     10.75693800
N          12.21187200      4.54654200     10.80725500
C          11.53641800      3.29004700     11.13555000
H          11.55196700      2.63424400     10.23451100
H          10.46403000      3.52181000     11.36587100
C          12.16599500      2.56617300     12.33986500
H          11.98608100      1.47700700     12.24109600
H          13.27175700      2.68303500     12.34519700
C          11.59653400      3.06276500     13.66709700
H          11.99403300      2.46751300     14.51176800
H          10.49795300      2.97383100     13.70685400
C          12.00195200      4.52893300     13.84776000
O          11.29009700      5.38925200     13.29909800
O          13.05980300      4.74315200     14.47882000
P          13.81271200      7.94363000     13.53331100
O          14.93948000      7.51676300     12.69124700
O          12.40153400      7.79524700     12.81322200
H          11.93508000      6.87781900     13.09815300
O          13.68513000      7.29087100     14.96237600
H          13.43569400      6.24025700     14.82930000
O          13.92011200      9.50956900     13.81427300
H          13.11016300      9.76957400     14.40016200
O          15.10959200      4.43805500     12.58461700
H          15.37876800      5.36156700     12.66217300
H          14.47022000      4.36264000     13.32478400
          35
 G =       -0.449745 Gcorr = 0.190387 a.u. Nimag =   0 Frame:    15 Step:    16 Geom:    16
C          12.62271200      6.52343200     10.28374100
C          11.74720400      5.46457500     10.49970700
C          13.86031600      4.66780600     10.66158400
N          13.92522100      6.01619900     10.38602600
H          12.41518500      7.58590600     10.12489900
H          10.66793400      5.47578500     10.56070900
H          14.71255800      4.01251900     10.88233500
C          15.16144900      6.79943400     10.29755400
H          15.82938500      6.58273300     11.15705800
H          15.69576600      6.60898500      9.35391200
H          14.92382900      7.89584800     10.37255300
N          12.52366400      4.31441500     10.71903100
C          12.01131400      2.96449800     11.04666300
H          12.50548100      2.22273900     10.37508200
H          10.91948000      2.93366000     10.81539500
C          12.25654300      2.59130800     12.51710100
H          12.07275800      1.50378200     12.63955800
H          13.33143700      2.74565300     12.78372500
C          11.38131700      3.37371100     13.49308900
H          11.37317600      2.87609300     14.48570100
H          10.32333300      3.40633200     13.16704500
C          11.89993600      4.79539600     13.67825800
O          11.13067300      5.74427000     13.39606200
O          13.09655300      4.93205500     14.07437700
P          13.42038800      8.39325100     13.10292300
O          13.47407300      8.68903400     11.65268100