          36
 G =       -0.504437 Gcorr = 0.195490 a.u. Nimag =   0 Frame:     1 Step:     1 Geom:     1
C          13.94947800      7.49954500     14.67884400
C          14.71559600      8.63029400     14.43281800
C          12.56973300      9.12775100     13.94454500
N          12.62681000      7.83116500     14.37919200
H          14.24466700      6.52706400     15.02417500
H          15.77254000      8.78225000     14.53748300
H          11.65278300      9.68166100     13.58418900
C          11.50971100      6.90831800     14.46046700
H          10.54059000      7.45506000     14.52809200
H          11.45706800      6.28268700     13.53751300
H          11.59716200      6.24553200     15.33558300
N          13.84538100      9.62981900     13.98937800
C          14.27741500     10.96909600     13.57881800
H          15.06403900     11.31865100     14.28261100
H          13.40748100     11.67865000     13.69253000
C          14.80422600     10.97146400     12.12586300
H          15.79422700     11.46897400     12.10144400
H          14.99572300      9.92735800     11.78518900
C          13.86660200     11.66401400     11.14251400
H          14.29133500     11.64373100     10.12318000
H          13.73595900     12.73040900     11.39124800
S          12.24242100     10.86281000     11.12005800
O          11.46756300     11.46469100     10.02595000
O          12.55487500      9.41297400     10.98467200
O          11.71653400     11.14569700     12.48609000
P           9.47482800      7.69230800     11.36555300
O           9.31513700      8.42059700     12.62522000
O           8.88445600      8.30238400     10.03058700
H           8.81890800      9.35351100     10.10193700
O          10.94900200      7.23068500     11.01822600
H          11.57678800      8.08874500     10.92045600
O           8.73263100      6.27594200     11.44398100
H           8.82017700      5.82511300     10.52450700
O           8.76047300     11.07368800     10.09468500
H           9.70594700     11.28230600      9.88552400
H           8.68175300     11.32507400     11.01689600
          36
 G =       -0.501838 Gcorr = 0.199364 a.u. Nimag =   0 Frame:     2 Step:     2 Geom:     2
C          13.78797500      7.87805200     15.30541400
C          14.56955400      8.94661600     14.88677600
C          12.54326400      9.14344500     13.91253200
N          12.53924400      8.02320200     14.69781300
H          14.02962000      7.06369400     15.96209000
H          15.58565200      9.19250700     15.12931400
H          11.70556800      9.52705100     13.25037900
C          11.42643700      7.10671400     14.86993300
H          11.31955000      6.44683700     13.97147100
H          11.55914900      6.47034400     15.75819000
H          10.46549800      7.65839700     14.96921800
N          13.78142600      9.72213900     14.03415700
C          14.22426900     10.95919600     13.38492000
H          14.96308100     11.46488900     14.04334300
H          13.33577700     11.65107200     13.30836900
C          14.82874400     10.68679000     11.99036800
H          15.88560300     11.01893000     11.97736000
H          14.87342400      9.59076300     11.78994100
C          14.06087100     11.38359500     10.87232500
H          14.60462700     11.28942100      9.91493800
H          13.96709500     12.46636900     11.05519500
S          12.41041400     10.66502500     10.67013700
O          11.69939300     11.42718700      9.64451900
O          12.66492100      9.23287100     10.38305500
O          11.79366100     10.84686700     12.03385900
P           9.68705400      7.50004800     11.22870200
O          10.20309500      7.72182700     12.58423400
O           8.58404600      8.50266400     10.69093300
H           8.82508100      9.49205700     10.95362700
O          10.73788600      7.33302500     10.06625500
H          11.52506000      8.04959300     10.19312300
O           8.89718800      6.10951200     11.17121700
H           8.53986400      5.99626600     10.21223000
O           9.15812900     11.20438700     11.19257600
H           9.60049100     11.47373800     10.36960900
H           9.91730800     11.16492700     11.81189800
          36
 G =       -0.503707 Gcorr = 0.197240 a.u. Nimag =   0 Frame:     3 Step:     3 Geom:     3
C          12.78760900      7.60895500     13.69761600
C          13.98521500      8.17572000     13.28736200
C          12.87306500      9.70673600     14.51760200
N          12.12024800      8.56699000     14.46603400
H          12.35793200      6.64372900     13.47282400
H          14.74498900      7.78528200     12.63902500
H          12.59229300     10.63714800     15.00582000
C          10.74609000      8.48648300     14.92896600
H          10.10349600      9.15206300     14.29596000
H          10.34656900      7.45623400     14.82001800
H          10.65662200      8.79809100     15.98060800
N          14.03656300      9.47105100     13.82264200
C          15.01617100     10.49961300     13.47471000
H          16.02847100     10.13182600     13.76541100
H          14.81373600     11.41604000     14.07812500
C          15.00168500     10.84956200     11.96946600
H          15.95644000     11.36427800     11.73119600
H          15.01594000      9.91309600     11.36393500
C          13.83769600     11.73415800     11.54072500
H          13.99370300     12.09346400     10.50610400
H          13.76811800     12.64203500     12.16188600
S          12.24223500     10.86541900     11.59894000
O          11.36645300     11.49070100     10.59459100
O          12.60380200      9.44914800     11.30735900
O          11.79919600     11.04893400     13.00663000
P           9.88904900      7.12853100     11.19257800
O          10.01826600      7.35252600     12.63393600
O           8.64393800      7.79038300     10.46664500
H           8.81170600      8.81465900     10.31399600
O          11.14138100      7.43018000     10.28107300
H          11.72541500      8.21790600     10.71113200
O           9.61027000      5.57729300     10.91514400
H           9.46456200      5.46193100      9.90339300
O           8.84365100     10.56511500     10.10093200
H           9.77672500     10.89563500     10.09716200
H           8.48072500     10.95909900     10.89046800
          36
 G =       -0.503684 Gcorr = 0.198605 a.u. Nimag =   0 Frame:     4 Step:     4 Geom:     4
C          13.00328400      7.66342000     13.62770500
C          14.14720700      8.34881500     13.24698600
C          12.89716300      9.73108900     14.51994100
N          12.24790900      8.53153100     14.42246300
H          12.67010000      6.66911300     13.36889500
H          14.94541400      8.04862300     12.59639700
H          12.53413600     10.61400700     15.04383400
C          10.88299000      8.31906400     14.87088500
H          10.20198500      9.03593900     14.34096800
H          10.52638800      7.30173900     14.60799300
H          10.78818400      8.46710400     15.95701600
N          14.08017000      9.62434400     13.82645400
C          14.96172700     10.74907200     13.51370600
H          16.00358800     10.46548700     13.79361600
H          14.67687000     11.62277200     14.14686700
C          14.91167700     11.14511600     12.02078200
H          15.82360000     11.73772700     11.79576000
H          14.99237100     10.23288600     11.38440400
C          13.68217800     11.95319000     11.62547600
H          13.80418900     12.35474600     10.60174600
H          13.54954900     12.83386600     12.27472400
S          12.15448700     10.96821800     11.66334700
O          11.22637300     11.57807000     10.69893300
O          12.61651600      9.59594800     11.31487000
O          11.72419000     11.05333300     13.08544200
P           9.94843100      7.18649300     11.21764700
O           9.31704800      7.72393600     12.42290600
O           9.54030500      7.77836200      9.80632500
H           9.26070900      8.79055200      9.89902200
O          11.53067200      7.13532400     11.21980100
H          11.92751100      8.12566700     11.17891000
O           9.59619900      5.63528000     11.04871700
H          10.03677600      5.30983700     10.17766600
O           8.84004600     10.46454600      9.96134600
H           8.40825200     10.60430700     10.80304900
H           9.71182700     10.92048800     10.07542600
          36
 G =       -0.504238 Gcorr = 0.197255 a.u. Nimag =   0 Frame:     5 Step:     5 Geom:     5
C          13.87834700      7.67138400     15.03238100
C          14.56270100      8.84775300     14.75896500
C          12.50364300      9.01321000     13.84871100
N          12.60683400      7.79820700     14.46839500
H          14.19841700      6.79486600     15.56338100
H          15.56185200      9.13964900     15.02006400
H          11.62417800      9.41589800     13.25642500
C          11.58110900      6.77221100     14.52359200
H          10.55994300      7.22016100     14.47975900
H          11.66052500      6.09119500     13.64349600
H          11.65791800      6.17581200     15.44616400
N          13.69509700      9.66826100     14.03497400
C          14.02669100     11.01370100     13.55782500
H          14.71815700     11.49110100     14.28531100
H          13.08124400     11.63001000     13.56161800
C          14.65360000     10.97943500     12.14699200
H          15.66858300     11.42186000     12.18619300
H          14.81518400      9.92679000     11.81616800
C          13.81393000     11.72043600     11.11223600
H          14.35787600     11.78976900     10.15288900
H          13.61609400     12.76096400     11.41736400
S          12.23962100     10.87299300     10.82325600
O          11.46489600     11.65827800      9.86265600
O          12.62863000      9.50305700     10.40881100
O          11.60286800     10.86717400     12.18895400
P           9.79023100      7.46233300     11.00441800
O          10.24222000      7.61027200     12.39250900
O           8.63134500      8.42068300     10.50487600
H           8.77152300      9.39367100     10.87971300
O          10.89068700      7.47254500      9.87621100
H          11.60355300      8.24570700     10.08388300
O           9.11759800      6.02438100     10.80340000
H           8.79265600      5.96913500      9.82778800
O           8.94904400     11.09204000     11.30742300
H           9.39669800     11.47431700     10.53232600
H           9.68652700     11.05076500     11.95089200
          36
 G =       -0.503671 Gcorr = 0.198619 a.u. Nimag =   0 Frame:     6 Step:     6 Geom:     6
C          13.07133100      7.59160600     13.46349500
C          14.17614200      8.35171900     13.11001700
C          12.87254000      9.60294200     14.46228500
N          12.28224400      8.37908600     14.30791200
H          12.78497200      6.59657500     13.15598600
H          14.98136800      8.12541800     12.43850400
H          12.47153000     10.43868900     15.03368100
C          10.93341400      8.07699400     14.75374900
H          10.62547000      7.05730200     14.44318000
H          10.84087900      8.16659500     15.84650200
H          10.21333200      8.78440700     14.26440400
N          14.05214200      9.59092800     13.75511100
C          14.87431800     10.77254100     13.49474400
H          15.93179300     10.52647000     13.75050100
H          14.55422500     11.59693600     14.17535200
C          14.78850300     11.24284400     12.02513200
H          15.66724100     11.89157700     11.82420600
H          14.90793600     10.37024400     11.34104700
C          13.51593100     12.00724300     11.68281300
H          13.60704500     12.46832700     10.68128500
H          13.34575700     12.84442300     12.37929300
S          12.04019500     10.94519300     11.67968600
O          11.07388800     11.55496300     10.75364500
O          12.56767800      9.61756800     11.25833500
O          11.61914300     10.93581000     13.10701100
P          10.02290700      7.08472300     11.05307600
O           9.37849500      7.52823100     12.28925700
O           9.56907900      7.72481300      9.67719900
H           9.24242500      8.71640800      9.82313200
O          11.60563400      7.11406200     11.03857600
H          11.95193100      8.12389400     11.04923600
O           9.74775400      5.52794200     10.80870200
H          10.19706500      5.26907900      9.91984000
O           8.73924800     10.36233200      9.97361200
H           9.58822200     10.85475900     10.10563400
H           8.30824500     10.43737000     10.82388500
          36
 G =       -0.505326 Gcorr = 0.197474 a.u. Nimag =   0 Frame:     7 Step:     7 Geom:     7
C          13.01931700      7.60092500     13.72374100
C          14.10783000      8.38650500     13.36933000
C          12.66447300      9.67732200     14.52368900
N          12.14307200      8.41506600     14.44362400
H          12.80082000      6.56953200     13.48725000
H          14.96735200      8.14094300     12.77740500
H          12.18138900     10.54253400     14.98218000
C          10.81339200      8.05395700     14.90176400
H          10.62494200      6.96806100     14.76845300
H          10.66748300      8.31843500     15.96041600
H          10.04071900      8.58224700     14.28616900
N          13.88039200      9.66806600     13.88493700
C          14.68132300     10.86053300     13.60181400
H          15.69195300     10.71718400     14.04942600
H          14.21213200     11.73968100     14.11020900
C          14.81110900     11.14551000     12.08782400
H          15.75340200     11.70800700     11.92221700
H          14.93716500     10.18925200     11.52931700
C          13.64680900     11.93679800     11.50239000
H          13.83133900     12.16030800     10.43619700
H          13.53192200     12.91509900     11.99801800
S          12.08515000     11.02375900     11.64179000
O          11.15273900     11.56471500     10.63950400
O          12.49308200      9.60898500     11.38143300
O          11.70235300     11.23361600     13.05869300
P          10.09591700      7.00653800     11.29627700
O          10.61464300      6.20853700     12.40721700
O           9.18408800      8.17602500     11.86485200
H           9.00254900      8.90582700     11.14351300
O          11.10233500      7.63340700     10.25447300
H          11.70296200      8.39010800     10.73155000
O           9.16320200      6.10795800     10.35921500
H           9.12807800      6.52774600      9.42538500
O           8.82682500     10.26560500      9.97190500
H           9.56832100     10.85272700     10.26475800
H           9.10944200      9.98849800      9.10308300
          36
 G =       -0.504379 Gcorr = 0.189831 a.u. Nimag =   0 Frame:     8 Step:     8 Geom:     8
C          13.99388800      7.63839600     14.88376300
C          14.46701500      8.93741400     14.75819900
C          12.32061200      8.89821100     14.01611800
N          12.66466100      7.62929200     14.42451600
H          14.49876300      6.75817500     15.24852300
H          15.43644500      9.33913000     15.00138000
H          11.32796200      9.21213200     13.56376100
C          11.80664200      6.44238800     14.37167600
H          11.93836000      5.80405800     15.25696900
H          10.72148900      6.74635500     14.30486900
H          12.00917900      5.85381400     13.45184200
N          13.42049000      9.71332300     14.22656500
C          13.52089800     11.15010500     13.88413800
H          13.98351600     11.69051800     14.73881500
H          12.47012000     11.55655500     13.77703900
C          14.33216700     11.36771200     12.59076400
H          15.17975300     12.05095800     12.80663600
H          14.80583100     10.41339000     12.25958900
C          13.50769100     11.93920700     11.44468100
H          14.15596700     12.10494600     10.55878400
H          13.13230800     12.95361100     11.68793800
S          12.16221400     10.85971600     11.03744700
O          11.38447000     11.44583800      9.93182700
O          12.73961000      9.51331700     10.80906300
O          11.26813800     10.83331100     12.26419300
P           9.85443000      7.61522000     11.56148300
O           9.89616100      7.98361600     13.00801900
O           9.20439100      8.61188900     10.52859500
H           8.95793400      9.72912000     10.85713300
O          11.33877200      7.23423900     10.99140300
H          11.96302500      8.02322700     10.70301500
O           9.09533100      6.17169100     11.32808400
H           8.96676000      5.89979900     10.38249900
O           9.01118300     11.04964300     11.05725400
H           9.61360700     11.33276500     10.29072600
H           9.63023700     11.09694300     11.87271300
          36
 G =       -0.500463 Gcorr = 0.200843 a.u. Nimag =   0 Frame:     9 Step:     9 Geom:     9
C          13.93640900      7.78350100     15.11212900
C          14.47513700      9.04975000     14.93000800
C          12.46586600      8.99521500     13.90250600
N          12.69333400      7.77351700     14.47567800
H          14.33896900      6.93105200     15.62605100
H          15.41161700      9.45400000     15.26393000
H          11.57388400      9.31106200     13.27572800
C          11.80684500      6.62428000     14.42670900
H          12.04774800      5.89542300     15.21661100
H          10.74445600      6.93190000     14.54649800
H          11.88240800      6.11282600     13.43663900
N          13.54944400      9.78682600     14.18856100
C          13.73478300     11.18300000     13.78316200
H          14.31651300     11.71002700     14.56992400
H          12.72017300     11.67694800     13.74960900
C          14.44284800     11.28715400     12.41469100
H          15.38879800     11.85161600     12.53377600
H          14.75670000     10.27821400     12.05879300
C          13.57836700     11.95951100     11.35420000
H          14.16158100     12.12679100     10.43069100
H          13.24066900     12.95790900     11.67695800
S          12.13405500     10.94421800     10.94826500
O          11.32606300     11.67530400      9.97104600
O          12.70326000      9.64611400     10.51233500
O          11.43133300     10.80983300     12.27322000
P          10.02790100      7.33127800     10.82573700
O          10.30469800      7.49105100     12.25670800
O           8.87609200      8.21889700     10.19694200
H           8.85530900      9.16820700     10.65212400
O          11.25091200      7.43087700      9.83465400
H          11.84329500      8.28486500     10.08853900
O           9.49134300      5.85249300     10.53346900
H           9.28627100      5.79121300      9.52641600
O           8.81441900     10.83816100     11.19601300
H           9.30149200     11.29404700     10.48520600
H           9.48702700     10.82294000     11.90649400
          36
 G =       -0.511014 Gcorr = 0.200117 a.u. Nimag =   0 Frame:    10 Step:    10 Geom:    10
C          12.52196500      7.60141000     14.43063100
C          13.65793800      8.28932000     14.01636800
C          11.96074900      9.76491900     14.13536600
N          11.48793900      8.53529900     14.51361600
H          12.37820900      6.55141900     14.61151600
H          14.64060200      7.92098200     13.79583900
H          11.37870100     10.69432300     14.05349000
C          10.10220500      8.22645000     14.81209700
H           9.93259400      8.17745000     15.90055000
H           9.41873400      8.99300800     14.37253900
H           9.80532400      7.25859200     14.35146400
N          13.29044900      9.62631200     13.84908900
C          14.16416600     10.68424300     13.34040000
H          15.12491200     10.64907300     13.90072300
H          13.69336500     11.67569200     13.56467400
C          14.41057400     10.52846400     11.82403000
H          15.48882900     10.34949100     11.64403000
H          13.91135400      9.60544900     11.43914400
C          13.95118300     11.74314200     11.03291500
H          14.37269100     11.71014600     10.00939100
H          14.32487500     12.68242800     11.47243100
S          12.14817900     11.85224300     10.86289900
O          11.87626600     13.22082500     10.44837000
O          11.77985900     10.79401000      9.89142400
O          11.61891300     11.51446500     12.23810500
P          11.20057800      7.47592400     11.08499700
O          12.37737600      7.64782700     11.94091000
O           9.81079300      7.70441800     11.84337300
H           9.66890500      8.70759300     12.06187400
O          11.09004200      8.22865300      9.71389100
H          11.39666300      9.26514900      9.82526500
O          11.04836000      5.93864000     10.67447400
H          10.22073500      5.86135800     10.06391400
O           9.32292900     10.33913500     12.68683800
H           8.69088900     10.74610200     12.10420300
H          10.19217400     10.82606100     12.48917900
          36
 G =       -0.504446 Gcorr = 0.195481 a.u. Nimag =   0 Frame:    11 Step:    11 Geom:    11
C          14.08495000      7.68714000     14.68890400
C          14.72112800      8.90420300     14.48872000
C          12.54338400      9.16574500     13.96002500
N          12.73969800      7.87315900     14.36506000
H          14.48241700      6.74602000     15.01813400
H          15.75114300      9.17313400     14.62258000
H          11.57690300      9.62001300     13.59107700
C          11.73454300      6.82684300     14.39688900
H          10.70742800      7.25730700     14.44684000
H          11.77864800      6.21964600     13.46128800
H          11.87463500      6.15948200     15.26162700
N          13.75158200      9.80908600     14.04816600
C          14.03564600     11.19930000     13.68017900
H          14.75994300     11.61839800     14.41229000
H          13.08726600     11.80128700     13.78738700
C          14.59253900     11.29984400     12.24201900
H          15.51656500     11.91158600     12.25457900
H          14.91481300     10.29433300     11.88417200
C          13.60289000     11.90029600     11.24913200
H          14.04987300     11.95176700     10.24046400
H          13.34340700     12.93865100     11.51500900
S          12.08383800     10.91707300     11.17118900
O          11.27257400     11.44423600     10.06505400
O          12.56635300      9.51564300     11.02325100
O          11.49511100     11.11180300     12.52675500
P           9.70075600      7.43759100     11.26284700
O           9.42461600      8.11692400     12.52969500
O           9.07295000      7.99811000      9.92316600
H           8.88768400      9.03376100     10.00702300
O          11.22717000      7.16165400     10.94549500
H          11.75271700      8.08961000     10.89264700
O           9.13146600      5.94159300     11.29841800
H           9.29356300      5.52261500     10.37403800
O           8.63111700     10.73562100     10.02404500
H           8.48781900     10.95902700     10.94559600
H           9.55287900     11.05751400      9.85625600
          36
 G =       -0.504246 Gcorr = 0.197247 a.u. Nimag =   0 Frame:    12 Step:    12 Geom:    12
C          13.99954800      7.89799500     15.09661300
C          14.52272000      9.16820400     14.89687100
C          12.50880900      9.07770700     13.88115300
N          12.75265100      7.86648500     14.46807900
H          14.41414800      7.05561800     15.61739900
H          15.45609900      9.58714800     15.22089700
H          11.61165000      9.37519200     13.25440500
C          11.88172400      6.70534000     14.43555300
H          11.99979900      6.08834200     15.33999600
H          10.81040900      7.00696700     14.35440100
H          12.09766200      6.07881700     13.53804200
N          13.58450100      9.88578700     14.15196900
C          13.74563000     11.28105500     13.73358100
H          14.32368600     11.82376400     14.51239600
H          12.72325200     11.75818200     13.70205500
C          14.44311900     11.38667000     12.35987100
H          15.38111800     11.96616600     12.46878200
H          14.77009800     10.38004200     12.00875000
C          13.56106500     12.03895400     11.30095100
H          14.13792100     12.21706400     10.37543400
H          13.20305200     13.03035400     11.62321500
S          12.13895300     10.99092400     10.90162800
O          11.31109500     11.69434800      9.92189100
O          12.73818800      9.70434600     10.47111400
O          11.44057400     10.84787600     12.22901500
P          10.18520300      7.27095100     10.85108700
O          10.53294600      7.43190700     12.26747200
O           8.93740700      8.08065800     10.30534300
H           8.91706200      9.04804400     10.71875500
O          11.33721400      7.46626800      9.79335500
H          11.91953200      8.32626800     10.05808400
O           9.72859200      5.76276000     10.57306500
H           9.47227600      5.69600600      9.57798000
O           8.83001000     10.73658400     11.20658300
H           9.52748200     10.77417600     11.89326900
H           9.26482700     11.20304300     10.47096900
          36
 G =       -0.504421 Gcorr = 0.196787 a.u. Nimag =   0 Frame:    13 Step:    13 Geom:    13
C          13.63324400      7.98814300     15.27758000
C          14.35503500      9.12482200     14.93838600
C          12.39021400      9.19172200     13.83000700
N          12.42062900      8.05402400     14.58837300
H          13.89257300      7.17647400     15.93075900
H          15.32985300      9.44133500     15.25645800
H          11.57251900      9.52675000     13.11967700
C          11.37820500      7.04615500     14.65686300
H          11.39601300      6.50985600     15.61768800
H          10.36899400      7.50271200     14.52389200
H          11.49269400      6.30762500     13.82561400
N          13.56800900      9.86066900     14.05027000
C          13.95346400     11.14576800     13.46058400
H          14.59920400     11.69179300     14.18165600
H          13.01926100     11.76586000     13.33254100
C          14.67677100     10.95937600     12.10904300
H          15.69911100     11.38048600     12.17904100
H          14.83024700      9.87613800     11.89299300
C          13.93311300     11.61503900     10.95051500
H          14.55004900     11.59060700     10.03402300
H          13.73329100     12.68126100     11.14540700
S          12.36995800     10.76396500     10.61534700
O          11.67618200     11.47746400      9.54477100
O          12.76665800      9.36230600     10.33734200
O          11.63780300     10.87120100     11.92951000
P           9.91510800      7.34279500     10.95475400
O          10.33269500      7.56802000     12.34383800
O           8.74514300      8.24833400     10.38605800
H           8.88751400      9.25241000     10.66174900
O          11.03689200      7.32008300      9.84910300
H          11.75169600      8.09465100     10.05100300
O           9.27090900      5.88459100     10.81592900
H           8.96912700      5.77195900      9.83789800
O           9.04884500     10.98907700     10.92312700
H           9.50263500     11.31114600     10.12702900
H           9.77636000     11.01539800     11.58118800
          36
 G =       -0.500268 Gcorr = 0.201038 a.u. Nimag =   0 Frame:    14 Step:    14 Geom:    14
C          13.83720200      7.85441100     15.21103200
C          14.46934300      9.06383900     14.95709900
C          12.46343500      9.09759200     13.92213600
N          12.59802500      7.89884700     14.56848500
H          14.17397800      7.00676700     15.77754400
H          15.43281400      9.41652800     15.27213200
H          11.59833600      9.44093400     13.27277500
C          11.62836600      6.81784200     14.58232300
H          11.81371900      6.12059400     15.41459600
H          10.59174400      7.21012400     14.67846600
H          11.66619200      6.24501400     13.62416600
N          13.60256600      9.82208800     14.16733700
C          13.89293200     11.17334000     13.67968600
H          14.51219500     11.70167700     14.43635900
H          12.91842900     11.73924700     13.61120400
C          14.60775700     11.14111100     12.31115200
H          15.59367700     11.63862700     12.40105600
H          14.84455600     10.09174800     12.01799800
C          13.79725200     11.81180300     11.20787200
H          14.39194800     11.87879400     10.27899100
H          13.53579500     12.85041200     11.46858200
S          12.28052500     10.88577000     10.85638200
O          11.53097000     11.61489900      9.83230100
O          12.75034500      9.52424000     10.50292300
O          11.56870800     10.88516200     12.18324200
P           9.90878300      7.44077400     10.93711300
O          10.19597600      7.66390700     12.35756600
O           8.82667400      8.37304700     10.25157700
H           8.87738300      9.34665000     10.64931200
O          11.13615100      7.39009800      9.94784000
H          11.79176800      8.21012700     10.15509600
O           9.26321900      5.99145400     10.73014900
H           9.05468600      5.88591700      9.72752500
O           8.96163500     11.04532200     11.09309500
H           9.48197600     11.41916000     10.35847300
H           9.63095900     11.02213800     11.80643400
          36
 G =       -0.504445 Gcorr = 0.197919 a.u. Nimag =   0 Frame:    15 Step:    15 Geom:    15
C          12.60708000      7.60269300     14.18079600
C          13.81195000      8.02853200     13.64634100
C          12.64801500      9.85748400     14.27636100
N          11.90506100      8.74599200     14.57699200
H          12.19798800      6.60804100     14.27494200
H          14.61429600      7.46212900     13.21908500
H          12.37030900     10.90065000     14.48494700
C          10.50027900      8.78959500     14.94707400
H          10.34794300      9.37544400     15.86751300
H           9.91046100      9.25180900     14.11389700
H          10.09335000      7.76924400     15.08731500
N          13.83255600      9.43085200     13.72801800