          36
 Energy =    -1727.85878100 a.u.  Frame:     1 Step:     1 Geom:     1
C          12.52196500      7.60141000     14.43063100
C          13.65793800      8.28932000     14.01636800
C          11.96074900      9.76491900     14.13536600
N          11.48793900      8.53529900     14.51361600
H          12.37820900      6.55141900     14.61151600
H          14.64060200      7.92098200     13.79583900
H          11.37870100     10.69432300     14.05349000
C          10.10220500      8.22645000     14.81209700
H           9.93259400      8.17745000     15.90055000
H           9.41873400      8.99300800     14.37253900
H           9.80532400      7.25859200     14.35146400
N          13.29044900      9.62631200     13.84908900
C          14.16416600     10.68424300     13.34040000
H          15.12491200     10.64907300     13.90072300
H          13.69336500     11.67569200     13.56467400
C          14.41057400     10.52846400     11.82403000
H          15.48882900     10.34949100     11.64403000
H          13.91135400      9.60544900     11.43914400
C          13.95118300     11.74314200     11.03291500
H          14.37269100     11.71014600     10.00939100
H          14.32487500     12.68242800     11.47243100
S          12.14817900     11.85224300     10.86289900
O          11.87626600     13.22082500     10.44837000
O          11.77985900     10.79401000      9.89142400
O          11.61891300     11.51446500     12.23810500
P          11.20057800      7.47592400     11.08499700
O          12.37737600      7.64782700     11.94091000
O           9.81079300      7.70441800     11.84337300
H           9.66890500      8.70759300     12.06187400
O          11.09004200      8.22865300      9.71389100
H          11.39666300      9.26514900      9.82526500
O          11.04836000      5.93864000     10.67447400
H          10.22073500      5.86135800     10.06391400
O           9.32292900     10.33913500     12.68683800
H           8.69088900     10.74610200     12.10420300
H          10.19217400     10.82606100     12.48917900
          36
 Energy =    -1727.86850180 a.u.  Frame:     2 Step:     2 Geom:     2
C          13.01931700      7.60092500     13.72374100
C          14.10783000      8.38650500     13.36933000
C          12.66447300      9.67732200     14.52368900
N          12.14307200      8.41506600     14.44362400
H          12.80082000      6.56953200     13.48725000
H          14.96735200      8.14094300     12.77740500
H          12.18138900     10.54253400     14.98218000
C          10.81339200      8.05395700     14.90176400
H          10.62494200      6.96806100     14.76845300
H          10.66748300      8.31843500     15.96041600
H          10.04071900      8.58224700     14.28616900
N          13.88039200      9.66806600     13.88493700
C          14.68132300     10.86053300     13.60181400
H          15.69195300     10.71718400     14.04942600
H          14.21213200     11.73968100     14.11020900
C          14.81110900     11.14551000     12.08782400
H          15.75340200     11.70800700     11.92221700
H          14.93716500     10.18925200     11.52931700
C          13.64680900     11.93679800     11.50239000
H          13.83133900     12.16030800     10.43619700
H          13.53192200     12.91509900     11.99801800
S          12.08515000     11.02375900     11.64179000
O          11.15273900     11.56471500     10.63950400
O          12.49308200      9.60898500     11.38143300
O          11.70235300     11.23361600     13.05869300
P          10.09591700      7.00653800     11.29627700
O          10.61464300      6.20853700     12.40721700
O           9.18408800      8.17602500     11.86485200
H           9.00254900      8.90582700     11.14351300
O          11.10233500      7.63340700     10.25447300
H          11.70296200      8.39010800     10.73155000
O           9.16320200      6.10795800     10.35921500
H           9.12807800      6.52774600      9.42538500
O           8.82682500     10.26560500      9.97190500
H           9.56832100     10.85272700     10.26475800
H           9.10944200      9.98849800      9.10308300
          36
 Energy =    -1727.86583050 a.u.  Frame:     3 Step:     3 Geom:     3
C          12.60518400      7.46127400     14.14596100
C          13.80253500      7.92074800     13.62287200
C          12.61253100      9.71308400     14.30759100
N          11.88696300      8.58200300     14.57652900
H          12.20896600      6.45892400     14.20896100
H          14.61223600      7.37925400     13.17687900
H          12.31973500     10.74556400     14.54590000
C          10.48201700      8.59172700     14.94774300
H           9.88444500      9.06485500     14.12716600
H          10.09349300      7.56079200     15.06131900
H          10.31999600      9.15001700     15.88355300
N          13.80209200      9.32016900     13.74565000
C          14.72731700     10.21524500     13.04808500
H          15.76800700      9.88125700     13.25655000
H          14.62818200     11.24910900     13.46926900
C          14.45145400     10.21599200     11.52505700
H          15.42034500     10.16575100     10.98789100
H          13.91533500      9.27897600     11.23607100
C          13.67112400     11.42920300     11.03504700
H          13.50732700     11.35670400      9.94235900
H          14.24755500     12.35924200     11.18593400
S          12.06153400     11.61970200     11.84637000
O          11.13650800     12.16023900     10.84389800
O          11.67806200     10.21919200     12.27139000
O          12.35299300     12.40075400     13.06036900
P          10.47051200      7.10180900     11.23317900
O          10.20045100      6.89543500     12.65634900
O           9.24273800      7.61269100     10.36419200
H           9.33204600      8.63511900     10.17064900
O          11.70650900      8.01058900     10.85300700
H          11.66820800      8.90841300     11.45354200
O          10.82565800      5.70411800     10.54681900
H          10.91898900      5.86403700      9.53486700
O           9.17630900     10.42900600      9.77414600
H           8.41997800     10.77941000     10.23537500
H           9.91268400     11.00961400     10.06947800
          36
 Energy =    -1727.86544030 a.u.  Frame:     4 Step:     4 Geom:     4
C          14.08495000      7.68714000     14.68890400
C          14.72112800      8.90420300     14.48872000
C          12.54338400      9.16574500     13.96002500
N          12.73969800      7.87315900     14.36506000
H          14.48241700      6.74602000     15.01813400
H          15.75114300      9.17313400     14.62258000
H          11.57690300      9.62001300     13.59107700
C          11.73454300      6.82684300     14.39688900
H          10.70742800      7.25730700     14.44684000
H          11.77864800      6.21964600     13.46128800
H          11.87463500      6.15948200     15.26162700
N          13.75158200      9.80908600     14.04816600
C          14.03564600     11.19930000     13.68017900
H          14.75994300     11.61839800     14.41229000
H          13.08726600     11.80128700     13.78738700
C          14.59253900     11.29984400     12.24201900
H          15.51656500     11.91158600     12.25457900
H          14.91481300     10.29433300     11.88417200
C          13.60289000     11.90029600     11.24913200
H          14.04987300     11.95176700     10.24046400
H          13.34340700     12.93865100     11.51500900
S          12.08383800     10.91707300     11.17118900
O          11.27257400     11.44423600     10.06505400
O          12.56635300      9.51564300     11.02325100
O          11.49511100     11.11180300     12.52675500
P           9.70075600      7.43759100     11.26284700
O           9.42461600      8.11692400     12.52969500
O           9.07295000      7.99811000      9.92316600
H           8.88768400      9.03376100     10.00702300
O          11.22717000      7.16165400     10.94549500
H          11.75271700      8.08961000     10.89264700
O           9.13146600      5.94159300     11.29841800
H           9.29356300      5.52261500     10.37403800
O           8.63111700     10.73562100     10.02404500
H           8.48781900     10.95902700     10.94559600
H           9.55287900     11.05751400      9.85625600
          36
 Energy =    -1727.86527920 a.u.  Frame:     5 Step:     5 Geom:     5
C          12.60708000      7.60269300     14.18079600
C          13.81195000      8.02853200     13.64634100
C          12.64801500      9.85748400     14.27636100
N          11.90506100      8.74599200     14.57699200
H          12.19798800      6.60804100     14.27494200
H          14.61429600      7.46212900     13.21908500
H          12.37030900     10.90065000     14.48494700
C          10.50027900      8.78959500     14.94707400
H          10.34794300      9.37544400     15.86751300
H           9.91046100      9.25180900     14.11389700
H          10.09335000      7.76924400     15.08731500
N          13.83255600      9.43085200     13.72801800
C          14.76927100     10.29104800     13.00268400
H          15.80530000      9.94672100     13.21733300
H          14.68746200     11.33766100     13.39500500
C          14.48914600     10.25411800     11.48057000
H          15.45502800     10.17024900     10.94272000
H          13.93344600      9.31993700     11.22004600
C          13.73008600     11.46837700     10.95937800
H          13.56958100     11.37468100      9.86882600
H          14.31955600     12.39252100     11.09343100
S          12.12036700     11.69552200     11.76408400
O          11.19731100     12.21010800     10.74620900
O          11.73207900     10.30770800     12.22349400
O          12.42078300     12.50784000     12.95447300
P          10.42952400      7.19911100     11.28079200
O          10.24542200      7.01116300     12.71993400
O           9.16165400      7.70577900     10.46754600
H           9.16502500      8.74793000     10.40497900
O          11.64541100      8.09495900     10.81568300
H          11.65574800      8.99468500     11.41608600
O          10.72980100      5.79082200     10.58886400
H          10.77374400      5.94203200      9.57229300
O           9.01213900     10.55509100     10.02152400
H           9.72617100     11.12445500     10.38369100
H           9.03668300     10.73503200      9.08709100
          36
 Energy =    -1727.86291080 a.u.  Frame:     6 Step:     6 Geom:     6
C          13.63324400      7.98814300     15.27758000
C          14.35503500      9.12482200     14.93838600
C          12.39021400      9.19172200     13.83000700
N          12.42062900      8.05402400     14.58837300
H          13.89257300      7.17647400     15.93075900
H          15.32985300      9.44133500     15.25645800
H          11.57251900      9.52675000     13.11967700
C          11.37820500      7.04615500     14.65686300
H          11.39601300      6.50985600     15.61768800
H          10.36899400      7.50271200     14.52389200
H          11.49269400      6.30762500     13.82561400
N          13.56800900      9.86066900     14.05027000
C          13.95346400     11.14576800     13.46058400
H          14.59920400     11.69179300     14.18165600
H          13.01926100     11.76586000     13.33254100
C          14.67677100     10.95937600     12.10904300
H          15.69911100     11.38048600     12.17904100
H          14.83024700      9.87613800     11.89299300
C          13.93311300     11.61503900     10.95051500
H          14.55004900     11.59060700     10.03402300
H          13.73329100     12.68126100     11.14540700
S          12.36995800     10.76396500     10.61534700
O          11.67618200     11.47746400      9.54477100
O          12.76665800      9.36230600     10.33734200
O          11.63780300     10.87120100     11.92951000
P           9.91510800      7.34279500     10.95475400
O          10.33269500      7.56802000     12.34383800
O           8.74514300      8.24833400     10.38605800
H           8.88751400      9.25241000     10.66174900
O          11.03689200      7.32008300      9.84910300
H          11.75169600      8.09465100     10.05100300
O           9.27090900      5.88459100     10.81592900
H           8.96912700      5.77195900      9.83789800
O           9.04884500     10.98907700     10.92312700
H           9.50263500     11.31114600     10.12702900
H           9.77636000     11.01539800     11.58118800
          36
 Energy =    -1727.85201970 a.u.  Frame:     7 Step:     7 Geom:     7
C          13.72179400      7.56383800     14.98997600
C          14.35270000      8.78593100     14.80160100
C          12.22828700      8.96541400     14.01793300
N          12.40804900      7.69003500     14.50410800
H          14.10948900      6.65145400     15.41422000
H          15.36068300      9.07995800     15.04204900
H          11.28840100      9.37155900     13.52786700
C          11.41165900      6.61535900     14.50032900
H          11.45099800      6.01939700     15.42327500
H          10.37311800      7.04461100     14.39250900
H          11.55382500      5.95299700     13.62024900
N          13.41692900      9.65131600     14.20548900
C          13.69802000     11.04279300     13.78533600
H          14.21113400     11.57163600     14.61813000
H          12.70681300     11.56726800     13.63302400
C          14.54850100     11.08421700     12.49952500
H          15.46984800     11.67146000     12.69461700
H          14.90694800     10.06179200     12.23325300
C          13.81659400     11.68276300     11.30541300
H          14.49279500     11.71593400     10.42554600
H          13.56484300     12.74787200     11.48240700
S          12.35487100     10.75260200     10.93178700
O          11.67166000     11.36143100      9.77713400
O          12.76594000      9.33454000     10.79429400
O          11.44653300     10.90857100     12.13811200
P           9.65936200      7.84888500     11.58440800
O           9.72656400      8.29386200     13.00826200
O           9.14997900      8.85556400     10.48401900
H           9.03751100     10.01035700     10.74403500
O          11.09241400      7.25738500     11.06573800
H          11.81451000      7.94726100     10.75121500
O           8.73174300      6.49755300     11.41776300
H           8.58504900      6.18688100     10.48692700
O           9.25043600     11.32532500     10.87067200
H           9.85743300     11.34515900     11.69566400
H           9.89458700     11.48703300     10.10313600
          36
 Energy =    -1727.86123000 a.u.  Frame:     8 Step:     8 Geom:     8
C          12.78760900      7.60895500     13.69761600
C          13.98521500      8.17572000     13.28736200
C          12.87306500      9.70673600     14.51760200
N          12.12024800      8.56699000     14.46603400
H          12.35793200      6.64372900     13.47282400
H          14.74498900      7.78528200     12.63902500
H          12.59229300     10.63714800     15.00582000
C          10.74609000      8.48648300     14.92896600
H          10.10349600      9.15206300     14.29596000
H          10.34656900      7.45623400     14.82001800
H          10.65662200      8.79809100     15.98060800
N          14.03656300      9.47105100     13.82264200
C          15.01617100     10.49961300     13.47471000
H          16.02847100     10.13182600     13.76541100
H          14.81373600     11.41604000     14.07812500
C          15.00168500     10.84956200     11.96946600
H          15.95644000     11.36427800     11.73119600
H          15.01594000      9.91309600     11.36393500
C          13.83769600     11.73415800     11.54072500
H          13.99370300     12.09346400     10.50610400
H          13.76811800     12.64203500     12.16188600
S          12.24223500     10.86541900     11.59894000
O          11.36645300     11.49070100     10.59459100
O          12.60380200      9.44914800     11.30735900
O          11.79919600     11.04893400     13.00663000
P           9.88904900      7.12853100     11.19257800
O          10.01826600      7.35252600     12.63393600
O           8.64393800      7.79038300     10.46664500
H           8.81170600      8.81465900     10.31399600
O          11.14138100      7.43018000     10.28107300
H          11.72541500      8.21790600     10.71113200
O           9.61027000      5.57729300     10.91514400
H           9.46456200      5.46193100      9.90339300
O           8.84365100     10.56511500     10.10093200
H           9.77672500     10.89563500     10.09716200
H           8.48072500     10.95909900     10.89046800
          36
 Energy =    -1727.85920180 a.u.  Frame:     9 Step:     9 Geom:     9
C          13.00328400      7.66342000     13.62770500
C          14.14720700      8.34881500     13.24698600
C          12.89716300      9.73108900     14.51994100
N          12.24790900      8.53153100     14.42246300
H          12.67010000      6.66911300     13.36889500
H          14.94541400      8.04862300     12.59639700
H          12.53413600     10.61400700     15.04383400
C          10.88299000      8.31906400     14.87088500
H          10.20198500      9.03593900     14.34096800
H          10.52638800      7.30173900     14.60799300
H          10.78818400      8.46710400     15.95701600
N          14.08017000      9.62434400     13.82645400
C          14.96172700     10.74907200     13.51370600
H          16.00358800     10.46548700     13.79361600
H          14.67687000     11.62277200     14.14686700
C          14.91167700     11.14511600     12.02078200
H          15.82360000     11.73772700     11.79576000
H          14.99237100     10.23288600     11.38440400
C          13.68217800     11.95319000     11.62547600
H          13.80418900     12.35474600     10.60174600
H          13.54954900     12.83386600     12.27472400
S          12.15448700     10.96821800     11.66334700
O          11.22637300     11.57807000     10.69893300
O          12.61651600      9.59594800     11.31487000
O          11.72419000     11.05333300     13.08544200
P           9.94843100      7.18649300     11.21764700
O           9.31704800      7.72393600     12.42290600
O           9.54030500      7.77836200      9.80632500
H           9.26070900      8.79055200      9.89902200
O          11.53067200      7.13532400     11.21980100
H          11.92751100      8.12566700     11.17891000
O           9.59619900      5.63528000     11.04871700
H          10.03677600      5.30983700     10.17766600
O           8.84004600     10.46454600      9.96134600
H           8.40825200     10.60430700     10.80304900
H           9.71182700     10.92048800     10.07542600
          36
 Energy =    -1727.86392690 a.u.  Frame:    10 Step:    10 Geom:    10
C          13.78797500      7.87805200     15.30541400
C          14.56955400      8.94661600     14.88677600
C          12.54326400      9.14344500     13.91253200
N          12.53924400      8.02320200     14.69781300
H          14.02962000      7.06369400     15.96209000
H          15.58565200      9.19250700     15.12931400
H          11.70556800      9.52705100     13.25037900
C          11.42643700      7.10671400     14.86993300
H          11.31955000      6.44683700     13.97147100
H          11.55914900      6.47034400     15.75819000
H          10.46549800      7.65839700     14.96921800
N          13.78142600      9.72213900     14.03415700
C          14.22426900     10.95919600     13.38492000
H          14.96308100     11.46488900     14.04334300
H          13.33577700     11.65107200     13.30836900
C          14.82874400     10.68679000     11.99036800
H          15.88560300     11.01893000     11.97736000
H          14.87342400      9.59076300     11.78994100
C          14.06087100     11.38359500     10.87232500
H          14.60462700     11.28942100      9.91493800
H          13.96709500     12.46636900     11.05519500
S          12.41041400     10.66502500     10.67013700
O          11.69939300     11.42718700      9.64451900
O          12.66492100      9.23287100     10.38305500
O          11.79366100     10.84686700     12.03385900
P           9.68705400      7.50004800     11.22870200
O          10.20309500      7.72182700     12.58423400
O           8.58404600      8.50266400     10.69093300
H           8.82508100      9.49205700     10.95362700
O          10.73788600      7.33302500     10.06625500
H          11.52506000      8.04959300     10.19312300
O           8.89718800      6.10951200     11.17121700
H           8.53986400      5.99626600     10.21223000
O           9.15812900     11.20438700     11.19257600
H           9.60049100     11.47373800     10.36960900
H           9.91730800     11.16492700     11.81189800
          36
 Energy =    -1727.86592110 a.u.  Frame:    11 Step:    11 Geom:    11
C          13.58362000      7.98885900     15.36493500
C          14.31907200      9.10793200     14.99949500
C          12.34756000      9.18364100     13.90250600
N          12.36772700      8.05858800     14.68141900
H          13.83601900      7.18651200     16.03231000
H          15.30063100      9.41651400     15.30487200
H          11.52907700      9.51914600     13.19142400
C          11.31257700      7.06591000     14.78242800
H          11.32465800      6.38914500     13.89393500
H          11.42135600      6.45290200     15.69101800
H          10.30979700      7.54727800     14.80274500
N          13.53649900      9.83854700     14.10295600
C          13.94864900     11.09874500     13.47847100
H          14.59091800     11.65862300     14.19202000
H          13.02593500     11.72853700     13.31545800
C          14.69110800     10.85549800     12.14636000
H          15.71199800     11.28085000     12.21310200
H          14.84806400      9.76431500     11.97956500
C          13.96523800     11.45848700     10.94905400
H          14.58558400     11.37219000     10.03872100
H          13.78419400     12.53743300     11.08375200
S          12.38614500     10.62175200     10.65253400
O          11.72379700     11.28790300      9.53011900
O          12.75015700      9.19614000     10.46728200
O          11.64547300     10.82757800     11.94732400
P           9.73791600      7.40762300     11.03936000
O           9.99964500      7.77053400     12.43563700
O           8.76577400      8.34156600     10.20709800
H           8.87860300      9.34537500     10.50415000
O          10.98660200      7.13695300     10.11444500
H          11.69619300      7.92826000     10.23724300
O           8.97392000      6.00338200     10.97267200
H           8.78948300      5.79826600      9.98080000
O           9.08702500     11.07178400     10.76170900
H           9.65423900     11.31770000     10.00798500
H           9.73476900     11.07554500     11.49511200
          36
 Energy =    -1727.86593060 a.u.  Frame:    12 Step:    12 Geom:    12
C          13.93640900      7.78350100     15.11212900
C          14.47513700      9.04975000     14.93000800
C          12.46586600      8.99521500     13.90250600
N          12.69333400      7.77351700     14.47567800
H          14.33896900      6.93105200     15.62605100
H          15.41161700      9.45400000     15.26393000
H          11.57388400      9.31106200     13.27572800
C          11.80684500      6.62428000     14.42670900
H          12.04774800      5.89542300     15.21661100
H          10.74445600      6.93190000     14.54649800
H          11.88240800      6.11282600     13.43663900
N          13.54944400      9.78682600     14.18856100
C          13.73478300     11.18300000     13.78316200
H          14.31651300     11.71002700     14.56992400
H          12.72017300     11.67694800     13.74960900
C          14.44284800     11.28715400     12.41469100
H          15.38879800     11.85161600     12.53377600
H          14.75670000     10.27821400     12.05879300
C          13.57836700     11.95951100     11.35420000
H          14.16158100     12.12679100     10.43069100
H          13.24066900     12.95790900     11.67695800
S          12.13405500     10.94421800     10.94826500
O          11.32606300     11.67530400      9.97104600
O          12.70326000      9.64611400     10.51233500
O          11.43133300     10.80983300     12.27322000
P          10.02790100      7.33127800     10.82573700
O          10.30469800      7.49105100     12.25670800
O           8.87609200      8.21889700     10.19694200
H           8.85530900      9.16820700     10.65212400
O          11.25091200      7.43087700      9.83465400
H          11.84329500      8.28486500     10.08853900
O           9.49134300      5.85249300     10.53346900
H           9.28627100      5.79121300      9.52641600
O           8.81441900     10.83816100     11.19601300
H           9.30149200     11.29404700     10.48520600
H           9.48702700     10.82294000     11.90649400
          36
 Energy =    -1727.83082670 a.u.  Frame:    13 Step:    13 Geom:    13
C          12.93388600      7.54965100     13.82087500
C          14.05981900      8.31563900     13.55575900
C          12.49186100      9.67038800     14.48257000
N          11.97783000      8.39343700     14.41598800
H          12.73465600      6.51244100     13.57404700
H          14.98310700      8.02891600     13.08088400
H          11.96017300     10.55595500     14.83662100
C          10.60854000      8.03513400     14.79526800
H          10.43223100      8.17098000     15.87100000
H           9.87073700      8.64227000     14.20638000
H          10.36288700      6.98983700     14.50235800
N          13.78691100      9.63380500     13.98222000
C          14.63452700     10.82192900     13.73122500
H          15.65333300     10.61113700     14.13553200
H          14.22742100     11.68382000     14.31023200
C          14.73532000     11.18163700     12.23539300
H          15.64856100     11.79965900     12.09717900
H          14.91088200     10.25667000     11.63065900
C          13.53571700     11.93186200     11.67160600
H          13.81422300     12.41561400     10.71225600
H          13.24041900     12.77757000     12.31960100
S          12.16357200     10.82387700     11.41857300
O          11.25901700     11.38309300     10.39052000
O          12.79503700      9.52896000     11.00676100
O          11.48720800     10.71441700     12.73934200
P          10.12759900      7.15031500     11.23372700
O           9.38287600      7.33831800     12.49600400
O           9.86611100      8.12890900      9.98951800
H           9.30658000      9.07356200     10.11494400
O          11.74545500      7.17377700     11.41361400
H          12.25428100      8.05602900     11.07037300
O           9.89645800      5.66173100     10.56436400
H          10.28187700      5.52953300      9.66117000
O           9.10583800     10.48520900      9.77008500
H           9.39565100     11.00790200     10.56315300
H           9.88942200     10.59603300      9.17021200
