          37
 G =       -0.521715 Gcorr = 0.217932 a.u. Nimag =   0 Frame:     1 Step:     1 Geom:     1
C           5.69881700     10.13837700     11.80968000
H           5.18175400      9.52994800     12.57725100
H           5.80138900     11.17026400     12.16532500
H           6.72275600      9.69604100     11.73345900
C           4.70299100      8.60028000     10.18880600
H           4.01944800      8.20880500     10.97890800
H           5.67458100      8.04884400     10.32289200
C           5.86734300     10.66938900      9.42971800
H           6.14604800     11.70352200      9.67480500
H           6.81633000     10.08548600      9.32977000
H           5.38658900     10.64989500      8.43930600
C           3.70771700     10.83869200     10.57576500
H           3.89060000     11.90074200     10.80561900
H           3.14455400     10.78873800      9.62702800
H           3.05702700     10.42561000     11.36794200
C           4.15941900      8.31506200      8.78493600
H           4.99829800      8.32272300      8.04606400
H           3.45009000      9.09435500      8.45371100
C           3.46845000      6.95580200      8.74518000
H           3.11795400      6.73319700      7.72284800
H           2.57231700      6.93572100      9.38304800
N           4.98998100     10.06502100     10.48384100
S           4.55836900      5.57400100      9.26830300
O           5.80998700      5.80929500      8.48577300
O           4.74428200      5.87182000     10.71789900
O           3.82839300      4.35946300      8.95107200
P           8.70916400      7.64787900      9.55468200
O           9.39609900      6.38260000      9.75031900
O           8.22955900      8.38123900     10.90852600
H           7.62838700      7.77133600     11.47464900
O           9.57227000      8.86094000      8.94603700
H          10.34969700      9.01320200      9.60219300
O           7.45107800      7.77930600      8.62972000
H           6.91340100      6.79733000      8.57466200
O           6.22275500      7.18032500     12.49815000
H           6.60726600      6.51246900     13.05904400
H           5.66484000      6.64229500     11.85308700
          37
 G =       -0.524571 Gcorr = 0.216175 a.u. Nimag =   0 Frame:     2 Step:     2 Geom:     2
C           5.70048700     10.21889600     11.68990000
H           5.20686400      9.68893500     12.52786400
H           5.85517000     11.27012200     11.96178300
H           6.70412000      9.73802200     11.59501600
C           4.56470800      8.60637500     10.23203800
H           4.03791600      8.24031000     11.14332900
H           5.54820100      8.04887800     10.20105500
C           5.75794100     10.54843800      9.26611100
H           6.16381600     11.55372600      9.44599700
H           6.62311800      9.85509500      9.11388000
H           5.18907200     10.55418600      8.32296900
C           3.67717800     10.91542800     10.51687900
H           3.92086300     11.97414300     10.70408000
H           3.08148600     10.86670700      9.58821200
H           3.03325700     10.56135300     11.34262600
C           3.76233900      8.29092200      8.96501400
H           4.38606200      8.47215900      8.05938500
H           2.87273500      8.93916900      8.87337800
C           3.32062500      6.82925200      8.97389600
H           2.82515800      6.56760900      8.02526500
H           2.58657600      6.62983300      9.76854200
N           4.91477100     10.07528900     10.41418300
S           4.74137300      5.68609800      9.21185100
O           5.80003100      6.34093900      8.39418100
O           4.99265700      5.85941600     10.67431600
O           4.29186900      4.37465300      8.78062400
P           8.95799400      7.36400200      9.74457000
O           9.32080100      6.17225500     10.49292300
O           7.97391500      8.38566400     10.51183900
H           7.47580500      7.90625100     11.27531600
O          10.22711800      8.29632200      9.47950400
H           9.95899400      9.03263700      8.81973300
O           8.30031100      7.28674100      8.31949000
H           7.32732700      6.81242400      8.39280900
O           6.22231800      7.37463700     12.45433700
H           6.70914200      6.77881600     13.01975000
H           5.74788400      6.74431200     11.81736500
          37
 G =       -0.524087 Gcorr = 0.216988 a.u. Nimag =   0 Frame:     3 Step:     3 Geom:     3
C           5.68379600     10.18499000     11.71828300
H           5.20531700      9.59909800     12.52756700
H           5.81905100     11.22227200     12.04786100
H           6.69567900      9.72953200     11.59156600
C           4.58486100      8.63225800     10.17101400
H           4.08994500      8.19321000     11.06885900
H           5.58553100      8.11528900     10.08023400
C           5.71547600     10.66142900      9.31898400
H           6.07002000     11.67688400      9.54451100
H           6.61387800     10.01857600      9.14185700
H           5.14929900     10.67993200      8.37411700
C           3.63350000     10.89430800     10.60058700
H           3.84851500     11.94385900     10.86039200
H           3.03732100     10.89366500      9.67090600
H           3.00098000     10.46648900     11.40007000
C           3.76465600      8.36615900      8.90419500
H           4.37657500      8.58381300      7.99854200
H           2.87324100      9.01588600      8.84911200
C           3.32407100      6.90466200      8.86271700
H           2.81939800      6.67915800      7.90942800
H           2.59657300      6.67598300      9.65565900
N           4.89291500     10.09719900     10.44045300
S           4.74223600      5.74642800      9.04300100
O           5.81249200      6.45421900      8.28851900
O           4.97428700      5.81241800     10.51811400
O           4.29717700      4.46937500      8.51414600
P           8.98361600      7.46456700      9.63196300
O           9.38557400      6.26716700     10.35061900
O           7.97610900      8.43879000     10.42907900
H           7.47191700      7.91598700     11.16136900
O          10.22308600      8.43996000      9.38160600
H           9.93168200      9.17697700      8.73232100
O           8.32450500      7.39566000      8.20646400
H           7.35348900      6.92314400      8.27616000
O           6.22901400      7.29911200     12.29486800
H           6.72717200      6.69156400     12.83712600
H           5.74704700      6.67999200     11.64774200
          37
 G =       -0.524097 Gcorr = 0.216979 a.u. Nimag =   0 Frame:     4 Step:     4 Geom:     4
C           5.71989900     10.12600200     11.78188800
H           5.25961100      9.52317900     12.58919300
H           5.85779600     11.15757200     12.12794500
H           6.73086900      9.67726900     11.62692400
C           4.60060200      8.59735800     10.22534400
H           4.12847800      8.13623900     11.12442100
H           5.60255700      8.08985000     10.10218600
C           5.70127700     10.65072500      9.39253000
H           6.05219000     11.66452100      9.63068800
H           6.60093500     10.01848400      9.18601700
H           5.11702900     10.68263900      8.45905300
C           3.64360100     10.84411400     10.71918800
H           3.85727100     11.88926000     10.99725300
H           3.02993200     10.85950800      9.80111400
H           3.02902600     10.39542900     11.52121300
C           3.75449100      8.35150500      8.97154300
H           4.34407800      8.59391500      8.05744900
H           2.85672300      8.99444700      8.95054300
C           3.32506100      6.88746400      8.90810300
H           2.80054600      6.67839400      7.96178500
H           2.61780800      6.63531500      9.71213800
N           4.90451100     10.05867100     10.51831700
S           4.75635700      5.73796800      9.03070900
O           5.80365900      6.47228800      8.26908900
O           5.02080600      5.77264300     10.50140600
O           4.31033600      4.46939400      8.48277100
P           8.99562200      7.47162200      9.57646400
O           9.42045800      6.26303600     10.26248000
O           7.99672400      8.42157300     10.41282900
H           7.51065900      7.88011700     11.14365700
O          10.22305500      8.46111600      9.32211800
H           9.91508500      9.20733500      8.69142500
O           8.30907600      7.42678300      8.16307400
H           7.34090400      6.94966700      8.24314800
O           6.29209600      7.23289400     12.28852000
H           6.80334300      6.61986100     12.81206000
H           5.80753400      6.62185600     11.63542700
          37
 G =       -0.521836 Gcorr = 0.218057 a.u. Nimag =   0 Frame:     5 Step:     5 Geom:     5
C           5.56348400     10.19849500     11.94482500
H           5.00315000      9.64234200     12.72031500
H           5.68502700     11.24266400     12.25889900
H           6.57301400      9.72507100     11.92453500
C           4.58295100      8.61956000     10.35218800
H           3.90369000      8.26061900     11.15936600
H           5.54902100      8.05200000     10.48904900
C           5.81849100     10.62007200      9.54942000
H           6.13588500     11.64924000      9.76551900
H           6.74005900      9.98567200      9.49549700
H           5.35790800     10.58682200      8.54944300
C           3.63121100     10.89892500     10.62292400
H           3.83573600     11.96233800     10.82764500
H           3.10161600     10.83654000      9.65546400
H           2.94022500     10.52752800     11.40141200
C           4.01882400      8.29873900      8.96451200
H           4.84238700      8.30057100      8.20873100
H           3.28909900      9.05677000      8.63008200
C           3.35367500      6.92553000      8.97685300
H           2.96524300      6.67544900      7.97556600
H           2.48998300      6.89337500      9.65585700
N           4.89292800     10.08819000     10.60092700
S           4.51725200      5.58908500      9.46797600
O           5.63596400      5.75995000      8.49706200
O           4.89153500      6.02030500     10.84664300
O           3.76107300      4.35273700      9.36769800
P           8.64003800      7.47273700      9.39015800
O           9.14322200      6.20771300      9.89732800
O           8.06739400      8.49708700     10.50086100
H           7.64677200      7.97607900     11.27985800
O           9.80250000      8.36473000      8.75703800
H           9.37702900      9.16227700      8.27543600
O           7.49655100      7.57005700      8.31712300
H           6.81259500      6.70622400      8.40739700
O           6.49457700      7.32055000     12.57183700
H           7.03117400      6.65698400     13.00075600
H           5.88871800      6.77698800     11.98381600
          37
 G =       -0.524497 Gcorr = 0.218080 a.u. Nimag =   0 Frame:     6 Step:     6 Geom:     6
C           6.06578500     10.58059300     10.22114300
H           5.75329200     11.38064800     10.90175900
H           6.82731500     10.96647900      9.52022800
H           6.59506700      9.79869800     10.82173200
C           4.04611500      9.23362800     10.51619200
H           3.58723700      9.97771300     11.19467800
H           4.75996800      8.62163100     11.16049100
C           5.42870200      9.04746400      8.43759500
H           6.24037000      9.50404800      7.85043100
H           5.84984900      8.12757400      8.92066900
H           4.65066600      8.68023900      7.74952500
C           4.09618100     11.05721700      8.83891000
H           4.69939100     11.59567300      8.08704700
H           3.21455400     10.63669200      8.32327200
H           3.73520900     11.79268200      9.57557500
C           2.97381800      8.31133000      9.91586500
H           3.07981100      8.21242700      8.81320000
H           1.97117400      8.76003100     10.06545800
C           2.99644500      6.91729800     10.53917800
H           2.16314800      6.30827200     10.14837300
H           2.84872100      6.96155600     11.62998000
N           4.89793400      9.97052500      9.49189800
S           4.55495600      6.01736900     10.20929100
O           4.78731100      6.23371400      8.75158000
O           5.53289400      6.83806000     10.99747100
O           4.34405200      4.65032100     10.64551600
P           8.99813800      7.76837600     10.27996100
O           9.66182300      6.51985700      9.92716400
O           7.99581300      7.81556600     11.49528200
H           7.09872700      7.28223600     11.22013800
O           9.94610500      8.97898600     10.74986400
H          10.83948200      8.84378900     10.25752800
O           8.21601800      8.49422600      9.08480100
H           7.90464000      7.79852400      8.37794200
O           6.97859100      6.76271600      7.24929600
H           7.47274000      5.94718900      7.19398200
H           6.14796300      6.50666100      7.73699700
          37
 G =       -0.527727 Gcorr = 0.207702 a.u. Nimag =   0 Frame:     7 Step:     7 Geom:     7
C           6.01144300     10.76017700     10.23352700
H           5.65368800     11.46738100     10.99076800
H           6.68467100     11.27972000      9.53435600
H           6.67018800     10.00337100     10.76956700
C           4.18119700      9.14773300     10.53885400
H           3.72601300      9.77445800     11.33360200
H           4.99737300      8.56039200     11.07616000
C           5.43423500      9.24793500      8.36607200
H           6.42328300      9.62215300      8.02221300
H           5.66461300      8.18496000      8.67143000
H           4.75605200      9.19314000      7.50808300
C           3.91239600     11.08496100      8.99255600
H           4.41020300     11.76603600      8.27891500
H           3.06562200     10.61443100      8.46514000
H           3.49709900     11.70269000      9.80614400
C           3.13237000      8.20554400      9.92948900
H           3.33640100      8.00865500      8.85221900
H           2.13474800      8.69144000      9.95833600
C           3.05718900      6.87071300     10.65880600
H           2.20478600      6.27509600     10.27173000
H           2.80486400      7.01850900     11.73055500
N           4.88331500     10.04824400      9.52013200
S           4.57378600      5.94571400     10.52433000
O           5.21365900      6.30576600      9.24552500
O           5.39983100      6.61936000     11.69677900
O           4.28582900      4.56065500     10.77563500
P           8.39229800      7.80412500     10.12756500
O           8.85628200      6.38691300     10.07211600
O           7.17062500      8.21831200     11.00443900
H           6.41375100      7.20862400     11.47044900
O           9.53754100      8.92425600     10.54487100
H          10.46702000      8.70551400     10.29552700
O           8.00242100      8.28671900      8.59574400
H           7.92447000      7.45329100      7.91220400
O           7.61548600      5.90965300      7.78200500
H           8.20368700      5.54963700      8.50762700
H           6.70156900      5.80373600      8.13654100
          37
 G =       -0.524164 Gcorr = 0.218310 a.u. Nimag =   0 Frame:     8 Step:     8 Geom:     8
C           6.06170600     10.53366800     10.39742400
H           5.71863100     11.33603000     11.06012400
H           6.84483600     10.92132600      9.72133700
H           6.57342400      9.75670300     11.01975000
C           4.01494500      9.21287000     10.62820300
H           3.53048200      9.98169000     11.25963700
H           4.68828100      8.61053000     11.31986100
C           5.50957800      8.95029900      8.63807200
H           6.30256600      9.40741800      8.02623000
H           5.97122500      8.09209300      9.19345200
H           4.75833900      8.50232800      7.96650500
C           4.16989100     10.98084600      8.89831900
H           4.81842000     11.49400100      8.16652400
H           3.31809700     10.54794000      8.34385600
H           3.77091300     11.73943500      9.59032600
C           2.96388800      8.28375200     10.00028600
H           3.09682000      8.18668000      8.90037100
H           1.95550800      8.72791200     10.12439000
C           2.97670500      6.89058400     10.62529500
H           2.14088900      6.28609400     10.23206900
H           2.82497500      6.93590000     11.71531800
N           4.92604100      9.91123700      9.62796300
S           4.52734300      5.97660900     10.29888700
O           4.69542500      6.06652900      8.82089000
O           5.53736400      6.86686000     10.96613400
O           4.34779000      4.65394600     10.86642800
P           9.06517700      7.69452000     10.37438500
O           9.72241200      6.43211600     10.06444600
O           8.01827100      7.76459400     11.55288000
H           7.12699600      7.24406400     11.24855900
O          10.00896700      8.89776500     10.86966500
H          10.89511900      8.78697500     10.35749000
O           8.34866400      8.41989500      9.13866500
H           7.95903800      7.72191500      8.47821900
O           6.88602200      6.74045400      7.38122500
H           7.36239800      5.92911800      7.22428900
H           6.06285500      6.44532200      7.86254900
          37
 G =       -0.527441 Gcorr = 0.217741 a.u. Nimag =   0 Frame:     9 Step:     9 Geom:     9
C           6.03855600     10.68802500     10.30181100
H           5.67432300     11.41727900     11.03636100
H           6.70199400     11.19579500      9.58230500
H           6.67719600      9.94133800     10.83743200
C           4.09934300      9.24060200     10.65726200
H           3.64370700      9.98153600     11.34108100
H           4.84336700      8.64591900     11.28421600
C           5.50070000      9.04557600      8.59447600
H           6.23371800      9.53930800      7.93869400
H           6.03914800      8.22243100      9.12706000
H           4.74258900      8.54479400      7.96643700
C           4.04602300     10.99180200      8.90320500
H           4.61741000     11.53342900      8.12924800
H           3.19376200     10.49726600      8.40228400
H           3.63731000     11.73302000      9.60837200
C           3.02869800      8.29483200     10.09127900
H           3.12503600      8.17015700      8.98976900
H           2.02356400      8.73717600     10.24178300
C           3.07496600      6.91727100     10.74765800
H           2.23371700      6.29509200     10.39764700
H           2.96402400      6.98534100     11.84089200
N           4.90682400      9.98271300      9.60206800
S           4.62935400      6.01872000     10.38159600
O           4.77657800      6.17811900      8.90683400
O           5.62776700      6.88208600     11.09536300
O           4.45102000      4.66950600     10.88356800
P           9.07043900      7.57061400     10.03300700
O           9.39029000      6.17610300      9.77864600
O           8.09883900      7.96569600     11.21962200
H           7.21318000      7.37098900     11.18168900
O          10.36888700      8.42896900     10.37937300
H          10.07840300      9.39498000     10.56543100
O           8.44370200      8.41594000      8.82192200
H           7.94043200      7.78827500      8.16832700
O           6.72267200      6.88401500      7.18220600
H           7.17044400      6.08097300      6.92623100
H           5.99202300      6.56432800      7.78485800
          37
 G =       -0.540267 Gcorr = 0.207125 a.u. Nimag =   0 Frame:    10 Step:    10 Geom:    10
C           5.67713100     11.22601800      9.65730900
H           5.10820300     11.68749700     10.47511300
H           6.03633200     12.01081800      8.97622600
H           6.60048200     10.76157600     10.11160200
C           4.47141900      9.09467300      9.94188400
H           3.88910400      9.56356900     10.76175200
H           5.41925600      8.71077500     10.44203600
C           5.72538600      9.58333000      7.82692900
H           5.82355700     10.25097400      6.96519800
H           6.76115200      9.36160700      8.21005800
H           5.35081200      8.58766700      7.47858600
C           3.64469300     10.80727900      8.32745800
H           3.90962300     11.64915000      7.66556900
H           3.07499100     10.07994400      7.72044400
H           2.96857900     11.19328800      9.10818600
C           3.69668700      7.92968100      9.31518800
H           4.31214900      7.46763700      8.49291200
H           2.76822600      8.29081600      8.82920000
C           3.33700500      6.86713700     10.34283300
H           2.62551200      6.14188700      9.89494300
H           2.77126000      7.30236300     11.18999200
N           4.87802500     10.16561600      8.92849800
S           4.77422800      6.00715000     10.94666500
O           5.56785500      5.62279400      9.70214200
O           5.57870900      7.06139100     11.66358200
O           4.32371800      4.89498300     11.74827800
P           8.28454900      7.78481500     10.24855300
O           7.62299500      9.08106400      9.92981500
O           7.87880100      6.59155000      9.23411200
H           7.01570200      5.96089600      9.52154400
O           9.91499500      7.86550200     10.10094400
H          10.41649300      7.04222600     10.34885700
O           8.10779000      7.18148300     11.73406000
H           7.09852700      7.09559100     12.10108500
O           5.82344800      6.65406800      7.30909700
H           6.76863900      6.68490000      7.54803300
H           5.46397200      5.93829700      7.88133200
          37
 G =       -0.536308 Gcorr = 0.217557 a.u. Nimag =   0 Frame:    11 Step:    11 Geom:    11
C           5.80884700     10.99768300      9.63898700
H           5.22284300     11.71581200     10.22661600
H           6.44917900     11.54156400      8.92659600
H           6.51369000     10.48260900     10.34246300
C           4.31433600      9.10065100     10.00794100
H           3.73261000      9.72567300     10.71474100
H           5.16837000      8.67352100     10.61861100
C           5.73510100      9.20376900      7.95206200
H           6.64925800      9.73466000      7.63899300
H           6.09009800      8.23999300      8.39547600
H           5.15439000      8.92972000      7.05689600
C           3.84854500     10.74093400      8.20930900
H           4.28074800     11.42455300      7.45867100
H           3.17940200     10.03965900      7.67756200
H           3.22911400     11.33514300      8.89996900
C           3.44051500      7.97769600      9.43639900
H           3.82570700      7.62155800      8.45323400
H           2.42084200      8.35563200      9.22503200
C           3.35028400      6.79538400     10.39412900
H           2.65702600      6.03372500      9.99335500
H           2.92643600      7.09984200     11.36621800
N           4.92803300      9.99619200      8.94239400
S           4.95380400      5.98583100     10.71597300
O           5.69896900      6.07290300      9.41143900
O           5.58921600      6.91434900     11.69835800
O           4.63964900      4.64562000     11.17313200
P           8.60100200      7.96245500     10.31611100
O           7.97099000      9.15899900      9.74118500
O           8.43893000      6.63976600      9.45400900
H           7.41325300      6.39180800      9.39022700
O          10.18251800      8.15355100     10.38026200
H          10.57656000      7.28469600     10.77758600
O           8.21282900      7.61464400     11.80607600
H           7.17459700      7.34225500     11.83864600
O           5.18125900      6.52378000      6.77661200
H           5.59141100      5.81766100      6.29205400
H           5.36964200      6.30572200      7.72269500
          37
 G =       -0.547209 Gcorr = 0.209060 a.u. Nimag =   0 Frame:    12 Step:    12 Geom:    12
C           5.66566700     11.25635600      9.33314400
H           5.08883700     11.81839800     10.07916100
H           6.03831000     11.94833400      8.56509000
H           6.57490900     10.84173600      9.85844300
C           4.46277600      9.17341400      9.86149000
H           3.89331100      9.73483400     10.62622100
H           5.43693000      8.83543700     10.38595000
C           5.72569600      9.40937900      7.71332200
H           5.90006500     10.00823100      6.81376900
H           6.72397400      9.15828200      8.16546800
H           5.29934600      8.41856500      7.41613700
C           3.63990300     10.67945000      8.04880000
H           3.90751200     11.44914400      7.30543000
H           3.08600100      9.88743200      7.51287200
H           2.94852200     11.13775000      8.77476700
C           3.69174800      7.93932200      9.38898400
H           4.23527000      7.45037600      8.53275800
H           2.69820200      8.22422700      8.98961700
C           3.50841000      6.93874500     10.52073100
H           2.69529800      6.22787800     10.26150400
H           3.13430200      7.43454000     11.43869100
N           4.86850200     10.11669100      8.73191600
S           4.99407100      6.03106900     10.87710300
O           5.46812200      5.41754900      9.58403400
O           6.07780700      7.05213800     11.22157000
O           4.68545100      5.12277000     11.95892400
P           8.07083300      7.75272800     10.39137500
O           7.30822400      8.99658000     10.08054900
O           7.87893500      6.50786600      9.35462800
H           7.07779100      5.84410700      9.46874400
O           9.66273200      8.04696100     10.05122000
H          10.29200900      7.30670900     10.23051800
O           8.30802800      7.21156100     11.91352800
H           7.45274000      6.98039000     12.43062400
O           5.61735700      6.45542500      7.30356700
H           5.17912900      5.71332600      7.77856500
H           6.52328300      6.44231200      7.66080300
          37
 G =       -0.536222 Gcorr = 0.217123 a.u. Nimag =   0 Frame:    13 Step:    13 Geom:    13
C           5.64012400     10.98197500      9.40113500
H           5.01119200     11.71664100      9.91966100
H           6.26500000     11.49557700      8.65325800
H           6.35836100     10.56175400     10.15222000
C           4.23230800      9.05181500      9.91043400
H           3.60925800      9.70514100     10.55359900
H           5.09581700      8.72078100     10.56583800
C           5.68134700      9.05324900      7.87208900
H           6.54913100      9.61547300      7.49183700
H           6.10845100      8.17304000      8.41268800
H           5.11907100      8.63449300      7.01955800
C           3.71834000     10.50906300      7.97228100
H           4.12997800     11.14615900      7.17097000
H           3.09403200      9.73194500      7.49359200
H           3.05875800     11.12804700      8.60093000
C           3.42288100      7.84285300      9.42673600
H           3.82710700      7.43575900      8.46988900
H           2.38464200      8.14761700      9.18944200
C           3.39505300      6.73149300     10.46950500
H           2.74646000      5.90514100     10.12599900
H           2.95015300      7.08354800     11.41583800
N           4.81961100      9.88396100      8.78044000
S           5.03829400      6.03766300     10.85300400
O           5.78518400      6.06242200      9.54597400
O           5.61834100      7.07218900     11.76080800
O           4.79490800      4.72160800     11.41209000
P           8.59207400      8.16686700     10.33398700
O           7.91645600      9.29016600      9.67046300
O           8.50117500      6.78136500      9.56401400
H           7.49186100      6.47563900      9.51423700
O          10.16271700      8.43276900     10.39844800
H          10.58985300      7.61306900     10.86077000
O           8.20278300      7.90467100     11.84097700
H           7.17827200      7.58626800     11.88394700
O           5.10670900      6.37975100      6.94114200
H           5.38000400      6.20584400      7.87953700
H           5.42429900      5.62419400      6.46267300
          37
 G =       -0.532679 Gcorr = 0.221120 a.u. Nimag =   0 Frame:    14 Step:    14 Geom:    14
C           5.70167200     11.01631700      9.23415900
H           5.08531400     11.75885100      9.75813100
H           6.26572200     11.51383000      8.42990200
H           6.46814400     10.64571100      9.96255900
C           4.35417200      9.08861200      9.90130100
H           3.81794300      9.77819000     10.58447300
H           5.25619400      8.72936600     10.47385900
C           5.70095000      9.01233300      7.79730900
H           6.61951400      9.52019400      7.46036300
H           6.05456700      8.08968700      8.32314900
H           5.13814900      8.65969400      6.91875200
C           3.72370200     10.45331600      7.92712800
H           4.08644700     11.08135300      7.09564300
H           3.10191500      9.64963300      7.49007600
H           3.07236600     11.06972100      8.56700800
C           3.45280200      7.91140200      9.51006300
H           3.79868200      7.43429500      8.56400500
H           2.42678700      8.26956500      9.29443600
C           3.39618000      6.86410300     10.61489400
H           2.62688200      6.10603600     10.37758000
H           3.08398800      7.31059200     11.57422700
N           4.87193900      9.87739100      8.70635400
S           4.97275100      5.98237000     10.89734800
O           5.69937300      6.07190100      9.57935000
O           5.66122600      6.83947700     11.90025100
O           4.60291900      4.64061900     11.30991100
P           8.53770900      8.04094200     10.33607400
O           7.82440700      9.15667600      9.69766000
O           8.41732700      6.65569000      9.57267100
H           7.39280200      6.38549700      9.52162200
O          10.10679600      8.32462500     10.33141700
H          10.56149200      7.51684200     10.78787100
O           8.21605100      7.78186300     11.85892700
H           7.21252600      7.40717100     11.94177200
O           5.10136800      6.22779000      6.92899800
H           5.33026700      6.11868700      7.88617200
H           5.41896400      5.42966900      6.52460300
          37