          44
 Energy =  -1902.80933250 a.u.  #Cluster:    1
C           8.22452100     10.23820300     10.97240400
C           9.02504700      9.93643800     12.07511400
C           9.65163500      8.69871300     12.16814600
C           9.49465400      7.77626700     11.12203900
C           8.71852400      8.12630600     10.01728400
H          10.27054200      8.45039700     13.03861800
H           7.71029000     11.21300500     10.88590800
H           9.19087700     10.70498100     12.83747200
H           8.64018900      7.46132500      9.14922600
C          10.17789500      6.45885400     11.13809100
H           9.48555700      5.61686900     11.02703400
H          10.91770400      6.39471800     10.31213800
H          10.76245000      6.29437500     12.05749200
N           8.06685000      9.32709700      9.97018700
C           7.21845800      9.66370700      8.80120300
H           6.30999400      9.02039000      8.84172300
H           6.85919100     10.72526800      8.89700100
C           7.91912400      9.49388900      7.43782400
H           8.44237600      8.51414400      7.38097800
H           7.12652600      9.44186700      6.65873800
C           8.88065600     10.62405400      7.08484500
H           8.35749200     11.60114400      7.08588900
H           9.26477100     10.49768400      6.05623700
S          10.26581700     10.69742900      8.23821300
O          11.38024200     11.42174100      7.63400100
O          10.51510700      9.27383200      8.59228700
O           9.65675100     11.44676800      9.39728000
P          13.08898500      9.15168800     11.10202400
O          12.00480100      9.73610300     11.90200500
O          14.18371400     10.11746400     10.49699400
H          13.74663200     11.04156900     10.21663700
O          13.96959100      8.16574300     12.00014500
H          14.75220000      7.83394500     11.41669300
O          12.66276500      8.18960200      9.91910800
H          11.85131900      8.61747400      9.38862200
O          13.07293800     12.52299500      9.70175000
H          12.60329200     12.27328600      8.88300900
H          12.36782400     12.70439100     10.34205700
O           7.36596100     12.83989700      9.36317800
H           7.50583300     13.75408000      9.57914400
H           8.26696500     12.43447400      9.36214400
O          10.84060400     12.49929000     11.63299300
H          11.27029100     11.69497600     11.93589900
H          10.35307000     12.20357600     10.84024900
          44
 Energy =  -1902.80881340 a.u.  #Cluster:    2
C           8.03703500      9.98170900     10.26586300
C           8.49716200      9.56989100     11.51703800
C           9.20019500      8.37778100     11.64896100
C           9.45597900      7.60909700     10.50284500
C           8.98523800      8.05132200      9.26708000
H           9.56429300      8.05221700     12.62971800
H           7.49961100     10.93850600     10.13745000
H           8.32815700     10.21634100     12.38647000
H           9.22142000      7.50380700      8.34723500
C          10.27095000      6.37005400     10.56680600
H           9.78141800      5.50868600     10.09931000
H          11.24166100      6.52399100     10.04797400
H          10.53636100      6.08868200     11.59741400
N           8.25744200      9.20301000      9.16652900
C           7.73434900      9.65360100      7.85198300
H           6.83508500      9.03805000      7.61951900
H           7.39095800     10.71699900      7.95130000
C           8.74116700      9.56767900      6.68555800
H           9.31372600      8.61493800      6.72360600
H           8.16131900      9.51443100      5.73871600
C           9.70662800     10.74641500      6.61008100
H           9.17255500     11.69473700      6.42473800
H          10.40195900     10.62487400      5.76026000
S          10.65309100     10.89450700      8.14172400
O          11.78835700     11.79484800      7.93870200
O          10.99255300      9.47940200      8.47027100
O           9.63008300     11.44364500      9.08677100
P          12.57392600      9.47284100     11.67978200
O          11.21283600      9.87064000     12.06627000
O          13.68113900     10.59469600     11.55694400
H          13.27510300     11.46993300     11.12307400
O          13.20141500      8.51336400     12.79383700
H          14.17451600      8.31555900     12.51761800
O          12.71444300      8.58052500     10.38229400
H          12.05722600      8.94146700      9.62557400
O          12.66173500     12.90607200     10.41193200
H          12.50623700     12.65517500      9.47773600
H          11.77460100     12.99416600     10.78453800
O           7.23613000     12.38769400     12.04929700
H           6.96817700     13.22757900     12.40169700
H           8.19925300     12.48672300     11.87423900
O           9.90401300     12.52966000     11.49863800
H          10.30678500     11.75249100     11.90615100
H           9.77373900     12.23221600     10.55647200
          44
 Energy =  -1902.80313200 a.u.  #Cluster:    3
C           8.01223700      9.79071000     10.61879800
C           8.59934400      9.45840900     11.83902500
C           9.44740900      8.35952200     11.93391900
C           9.70843900      7.60092400     10.78433400
C           9.10831300      7.96567200      9.57776600
H           9.91959500      8.10332500     12.88919100
H           7.36269500     10.68035900     10.51807900
H           8.42133000     10.10309300     12.70851100
H           9.34062800      7.43037500      8.64947600
C          10.64706500      6.45140500     10.80477700
H          11.04463900      6.24458100     11.81108400
H          10.19923000      5.52596000     10.42596500
H          11.53940200      6.67017000     10.17996100
N           8.24962300      9.02594700      9.51457900
C           7.58529700      9.36459600      8.23265900
H           6.81717100      8.58249500      8.03140500
H           7.02729300     10.33156400      8.34950300
C           8.54077800      9.47964400      7.02807600
H           9.24613600      8.62024700      6.99764300
H           7.92957800      9.38189100      6.10359200
C           9.31282100     10.79273600      6.97074400
H           8.62230200     11.65755100      6.92983400
H           9.91019900     10.85018800      6.04222300
S          10.40637900     10.98411300      8.39416000
O          11.49334200     11.89801000      8.03385800
O          10.82728600      9.59092600      8.71693600
O           9.47526700     11.53019300      9.43223300
P          12.82438100      9.61587100     11.72554400
O          11.49254100      9.95098800     12.23637200
O          13.91668500     10.75784000     11.65808200
H          13.63093100     11.49944600     10.96734500
O          13.53250100      8.57334200     12.71093000
H          14.49862100      8.43868000     12.38213400
O          12.90222700      8.85687700     10.33846300
H          12.09124400      9.14039800      9.71795800
O          13.24382200     12.84726400      9.94391400
H          12.75857800     12.51887000      9.15143200
H          12.59572600     13.38526000     10.39693200
O           6.96799200     12.53425500      9.30533900
H           7.91702000     12.27496800      9.33251400
H           6.92223000     13.33148600      9.82232900
O           9.47963200     12.23234100     12.13050500
H          10.21164800     11.67559900     12.40328000
H           9.46043900     12.09192400     11.16861900
          44
 Energy =  -1902.80274150 a.u.  #Cluster:    4
C           8.05193700     10.07845900     10.56302800
C           8.59426000      9.63398300     11.76823700
C           9.29414100      8.43262500     11.82260900
C           9.45363100      7.68524000     10.64742100
C           8.89831000      8.16064900      9.45808600
H           9.73090900      8.08671400     12.76631300
H           7.52767400     11.04763800     10.49494300
H           8.50361700     10.26753800     12.65916400
H           9.05549600      7.62910800      8.51201400
C          10.24376200      6.42912800     10.62382000
H          11.16023900      6.56212600     10.00960700
H          10.60644100      6.13573200     11.62161500
H           9.68904600      5.58111300     10.20717100
N           8.18150100      9.32290600      9.43447800
C           7.55601500      9.78115600      8.17019400
H           6.68958200      9.11274800      7.95881700
H           7.13193600     10.80988400      8.31923600
C           8.50654600      9.80245200      6.95622600
H           9.09655800      8.86165600      6.89736200
H           7.87871500      9.80589000      6.03771700
C           9.43863200     11.00807000      6.91896200
H           8.86161300     11.95411700      6.89921900
H          10.03477700     11.00883600      5.98817200
S          10.54957500     11.03046100      8.34081700
O          11.73833500     11.81644800      8.00072400
O          10.80085700      9.58941300      8.62771600
O           9.68878300     11.65821500      9.39435900
P          12.77382000      9.30355900     11.63031400
O          11.48687900      9.78081200     12.14348000
O          13.99336300     10.30994700     11.59596200
H          13.80554500     11.09284900     10.91702600
O          13.34685600      8.16209900     12.59380900
H          14.29179500      7.92024700     12.26505200
O          12.77200800      8.57287700     10.22598000
H          12.00418500      8.96272300      9.60828700
O          13.59679400     12.49635000      9.92012600
H          13.02475100     13.10633000     10.38401100
H          13.07210900     12.24800400      9.12333300
O           7.38584300     13.06024400      9.11874000
H           7.44817400     13.86609800      9.61954300
H           8.26559400     12.63458500      9.22385400
O           9.75682200     12.28942000     12.10429300
H          10.42511200     11.65030000     12.35989700
H           9.72747800     12.18127100     11.13829000
          44
 Energy =  -1902.80148550 a.u.  #Cluster:    5
C           7.97922200      9.90493100     10.29366200
C           8.41246200      9.37277100     11.50783100
C           9.16175400      8.20106200     11.53279800
C           9.49692200      7.58346600     10.31858700
C           9.03626800      8.13468900      9.12313700
H           9.50283300      7.77909200     12.48429500
H           7.41618000     10.85708500     10.24761800
H           8.18755700      9.91018800     12.43712400
H           9.31985700      7.69995300      8.15783300
C          10.39149700      6.39964400     10.27458600
H          11.38741900      6.69485900      9.87818200
H          10.58756800      5.97700900     11.27131200
H          10.01183200      5.59363900      9.63730800
N           8.25823900      9.25724900      9.12547600
C           7.72642300      9.81205200      7.85556000
H           6.84918600      9.19181200      7.55961500
H           7.34476100     10.84922300      8.05246900
C           8.74172300      9.86992400      6.69611300
H           9.35711200      8.94457200      6.65872500
H           8.17196800      9.87267000      5.74181100
C           9.65178800     11.09224900      6.73515600
H           9.07831500     12.02689000      6.60618500
H          10.37167600     11.06782400      5.89779000
S          10.56151800     11.17538300      8.29683400
O          11.72560500     12.04638100      8.09662700
O          10.91946000      9.74359100      8.56095000
O           9.52686300     11.66693000      9.24033800
P          12.39498300      9.57009900     11.80261600
O          10.98622300      9.79894400     12.13515900
O          13.37208400     10.79905600     11.99164600
H          13.57842100     11.25336100     11.06251300
O          12.99750800      8.48706600     12.81153800
H          14.00709800      8.41553100     12.63885800
O          12.72451700      8.94524400     10.38593800
H          11.97794400      9.22570100      9.67337300
O          14.02978800     12.03281500      9.58218400
H          13.19460700     12.20832500      9.08257600
H          14.46002300     11.36379000      9.05194900
O           6.62385300     11.80324300     12.07818500
H           6.19692200     12.57729300     12.42350600
H           7.58468100     12.03346100     12.06116600
O           9.25779900     12.33336900     11.87396200
H           9.86296600     11.65807600     12.19909600
H           9.38459400     12.26950100     10.89782800
          44
 Energy =  -1902.80135740 a.u.  #Cluster:    6
C           8.07830400     10.25255500     10.35307300
C           8.46961400      9.88408200     11.63955900
C           9.03681100      8.63450600     11.86967900
C           9.23219900      7.76756300     10.78472000
C           8.81506400      8.16170000      9.51304600
H           9.34542300      8.34154700     12.87905300
H           7.66742400     11.25555100     10.13845300
H           8.36023000     10.60490900     12.45956400
H           8.99456300      7.52341800      8.64025200
C           9.93824700      6.47194500     10.94697500
H          10.94995700      6.53444600     10.49009200
H          10.11032500      6.21009500     12.00175800
H           9.41700900      5.63266600     10.47380600
N           8.21428100      9.37227400      9.31867300
C           7.72503100      9.76725800      7.97394200
H           6.75445300      9.24669200      7.80395800
H           7.51077200     10.86915900      7.98214600
C           8.69354900      9.46039700      6.81355600
H           9.16188000      8.45980200      6.93930200
H           8.09528000      9.38035300      5.88025000
C           9.77705200     10.51525000      6.62041700
H           9.34576300     11.48783200      6.32529000
H          10.45558000     10.22947100      5.79704900
S          10.74240600     10.73831600      8.13427000
O          12.01633300     11.36942000      7.77098400
O          10.89033500      9.33924500      8.65318000
O           9.82483600     11.54319700      8.97836100
P          12.45006600      9.51007500     11.85493500
O          11.10557400     10.00888200     12.15696600
O          13.60803700     10.58631400     11.81402400
H          13.83873000     10.84432700     10.81795600
O          12.92028400      8.53769900     13.03268000
H          13.90230000      8.28688100     12.86775600
O          12.62764800      8.60615000     10.56770700
H          11.90334000      8.86976800      9.82605400
O          14.34603400     11.26933900      9.21499800
H          14.64793300     10.45622900      8.81291500
H          13.52852200     11.48074000      8.70068900
O           7.07880300     12.66598700     11.99464700
H           8.04941500     12.70758000     11.83087700
H           6.85121100     13.53357800     12.30584600
O           9.73627800     12.67346500     11.46626900
H          10.26348200     11.98821900     11.89013700
H           9.80964300     12.43113800     10.51415500
          44
 Energy =  -1902.79679570 a.u.  #Cluster:    7
C           8.07901300     10.29267400     10.34618900
C           8.57363700      9.99188200     11.61694500
C           9.11180100      8.73918500     11.88178000
C           9.16278500      7.78768200     10.85088800
C           8.65432000      8.11807400      9.59544000
H           9.51945000      8.50490800     12.87055900
H           7.67567300     11.29364000     10.10648200
H           8.56849800     10.77324800     12.38807600
H           8.72733200      7.41588100      8.75767800
C           9.81605800      6.46873500     11.04966700
H           9.14296300      5.62413900     10.86514500
H          10.68644200      6.36601800     10.37014900
H          10.23220800      6.35774900     12.06376700
N           8.10075000      9.34616300      9.36470400
C           7.57052300      9.68570700      8.02050400
H           6.58333500      9.18174500      7.90855700
H           7.38379500     10.79133300      7.97825000
C           8.49702200      9.29320600      6.85039900
H           8.94273000      8.28803000      7.01617000
H           7.86870700      9.18106900      5.94032800
C           9.60324100     10.30317200      6.56793200
H           9.18977600     11.27068400      6.23256500
H          10.24573100      9.95279700      5.73983400
S          10.62777600     10.58720800      8.03140800
O          11.88012700     11.20808900      7.59021600
O          10.76361900      9.22751000      8.63724500
O           9.74976400     11.45066500      8.86882900
P          12.58993700      9.68707900     11.76280800
O          12.06574400     11.00685100     12.10984300
O          13.86957600      9.58527300     10.83498900
H          13.95735700     10.44374100     10.22892500
O          13.04952800      8.90860500     13.08094100
H          13.51819700      8.04252200     12.78393100
O          11.55477800      8.65402500     11.15481200
H          11.36397900      8.86932900     10.12942800
O          14.08121100     11.76855500      9.13998300
H          13.71974000     12.53896200      9.57823600
H          13.39538400     11.54322400      8.46635400
O           7.22147400     12.77140800     11.95371800
H           8.17183400     12.84457500     11.71030000
H           6.97891300     13.64493600     12.23657700
O           9.82645500     12.88001100     11.17927900
H          10.51403900     12.37859700     11.62267100
H           9.81479500     12.48112800     10.27752100
          44
 Energy =  -1902.78687680 a.u.  #Cluster:    8
C           7.99161600     10.20296400     10.39465500
C           8.49872500      9.98174300     11.68836300
C           9.13760700      8.79362700     11.99861000
C           9.21333500      7.76788100     11.01919300
C           8.64927200      7.98808000      9.76402200
H           9.61414200      8.65866700     12.97701500
H           7.57452900     11.19263400     10.12441600
H           8.43583700     10.80761900     12.41439500
H           8.71439500      7.23307200      8.97323600
C           9.93611200      6.50277700     11.30396500
H           9.89454700      6.21358600     12.36241000
H           9.59217700      5.64973900     10.70939900
H          11.02085200      6.64342200     11.06810300
N           8.04941600      9.20194500      9.45913600
C           7.53386100      9.44593500      8.07372100
H           6.70244000      8.72746000      7.88197000
H           7.08746800     10.46948800      8.03196700
C           8.60500500      9.30483100      6.97485800
H           9.23319900      8.39844400      7.15397200
H           8.07780400      9.10888500      6.01527500
C           9.51027300     10.51838000      6.80304800
H           8.92456800     11.45140600      6.68871100
H          10.07146200     10.43873000      5.84851600
S          10.62981600     10.64395100      8.17464300
O          11.73550700     11.56734800      7.86039400
O          11.05536100      9.24554900      8.46114000
O           9.79322100     11.19592900      9.29388700
P          12.60778200      9.51965800     11.55594700
O          11.37351000     10.19126000     12.06990800
O          13.65754200     10.43660900     10.82516500
H          13.35240600     11.55128000     10.48450800
O          13.42343800      8.73298000     12.75090100
H          14.30701900      8.36029700     12.49376400
O          12.32104100      8.25353000     10.56385700
H          11.97106600      8.49373200      9.59811700
O          12.91266500     12.69051200      9.99287300
H          12.64743800     12.42280200      9.04619400
H          12.01309400     12.82856800     10.47709000
O           8.00163400     12.85043400     11.61310600
H           8.97111100     12.91422400     11.39688300
H           7.77161100     13.67427100     12.01879600
O          10.68219400     12.49095200     11.36659500
H          10.98029400     11.99074500     12.16883000
H          10.34362600     11.74407500     10.75846800
          44
 Energy =  -1902.78223040 a.u.  #Cluster:    9
C           7.80772300     10.17117600     10.43507700
C           8.26863400      9.81279500     11.70255600
C           9.05761300      8.67542100     11.87457200
C           9.33929900      7.85785100     10.76002600
C           8.84112100      8.22532600      9.50314300
H           9.47981800      8.44187900     12.85918400
H           7.25426100     11.12307500     10.28798900
H           8.04352700     10.48210200     12.54688900
H           9.09547400      7.64527300      8.60433300
C          10.21215000      6.65985900     10.88068400
H          10.44127800      6.40437100     11.92589200
H           9.78741300      5.76711600     10.40682600
H          11.19704100      6.85165400     10.40114000
N           8.08514200      9.37057400      9.35011900
C           7.58658500      9.78279400      7.99689100
H           6.68524300      9.16658800      7.76537300
H           7.24227400     10.84641600      8.05635800
C           8.61417300      9.64108800      6.85908200
H           9.17072700      8.67728600      6.95244600
H           8.04912900      9.56041800      5.90399000
C           9.60817600     10.79027200      6.74798700
H           9.08746900     11.76129400      6.62535000
H          10.20012900     10.68704300      5.81444200
S          10.67628800     10.82901500      8.16416400
O          11.99169400     11.39766100      7.80828800
O          10.83520700      9.36622100      8.54769500
O           9.94617100     11.58470000      9.19596800
P          12.49356700      9.69317400     11.63427400
O          11.12203300     10.02367000     12.09898600
O          13.49209000     10.90665400     11.31422100
H          13.84839300     11.04069900     10.27389700
O          13.31285900      8.80814900     12.75487000
H          14.30046900      8.80142500     12.67038700
O          12.60353500      8.75523100     10.31841200
H          11.83933400      8.85956300      9.55135700
O          14.14642100     11.42288200      8.88632600
H          13.53541600     12.18717100      8.73393900
H          13.72965900     10.71830400      8.32850800
O           7.35131000     12.55006900     11.74043200
H           8.37054300     12.62675500     11.76706000
H           7.02593400     13.39724200     11.99875700
O           9.97024300     12.58868500     11.72287800
H          10.30596100     11.75159000     12.12201000
H          10.13849200     12.46948600     10.75724200
          44
 Energy =  -1902.78147510 a.u.  #Cluster:   10
C           8.20366500      9.70436100     10.46061500
C           8.71222700      9.18429200     11.66520800
C           9.32738500      7.94309300     11.68314200
C           9.45375400      7.20912700     10.47823000
C           8.90458800      7.73308600      9.30672800
H           9.76651300      7.55514500     12.60838400
H           7.78118600     10.75364700     10.42235200
H           8.68410400      9.80879400     12.56855200
H           8.99851900      7.20460700      8.35168900
C          10.23426600      5.94605500     10.45110100
H          10.12603100      5.37260600      9.52327000
H          11.31606000      6.20046700     10.54654100
H           9.99341500      5.27668800     11.28788800
N           8.29185700      8.97454400      9.31011500
C           7.76633100      9.54785400      8.02803500
H           6.86139200      8.96511300      7.73664600
H           7.42057000     10.59712700      8.22358600
C           8.78785400      9.54260600      6.87457500
H           9.42313200      8.62617100      6.91225100
H           8.22056600      9.46392400      5.92072400
C           9.68541400     10.77207100      6.81163300
H           9.08881100     11.70187100      6.71826100
H          10.28692500     10.75240900      5.87845600
S          10.74041700     10.84663000      8.23456000
O          11.75579500     11.89922300      8.05848900
O          11.26815800      9.46917500      8.42690600
O           9.81832400     11.22218200      9.36538700
P          12.33690200      9.71194800     11.78001200
O          11.05551800     10.31139900     12.26772300
O          13.35357600     10.70878300     11.11171600
H          12.99731200     11.84291000     10.85635500
O          13.13971000      8.91895600     12.97904800
H          14.05442900      8.60828000     12.75167600
O          12.14747600      8.47293500     10.72923000
H          11.98105600      8.74000200      9.72179300
O          12.48574700     12.96253600     10.41634100
H          12.39285300     12.76433000      9.42162200
H          11.50883600     12.93993300     10.77122800
O           7.87663300     12.57509700     10.35671100
H           8.63507100     12.54675600      9.72761700
H           8.28514000     12.88548000     11.18661700
O          10.16625300     12.47766200     11.54984600
H          10.47735000     12.18418600     12.43426100
H          10.06890000     11.59595200     11.05489600
          44
 Energy =  -1902.78144120 a.u.  #Cluster:   11
C           7.97830200     10.26200200      9.97069200
C           8.39557600     10.05782500     11.29643500
C           8.89791500      8.82932100     11.69040200
C           8.97360200      7.76901300     10.75253900
C           8.51599900      7.98602200      9.45199400
H           9.27834500      8.68873700     12.70899200
H           7.64188400     11.25398500      9.62818300
H           8.39647300     10.91425600     12.01138200
H           8.58106300      7.20176500      8.69055100
C           9.59734000      6.47665500     11.13160500
H          10.70188300      6.62962800     11.21740800
H           9.25946200      6.11012900     12.11024300
H           9.44708900      5.67345700     10.40215000
N           8.02863600      9.22632400      9.07243100
C           7.62493300      9.45270700      7.64716600
H           6.78257300      8.76110700      7.40984400
H           7.22291500     10.49012100      7.54492500
C           8.77349400      9.23964900      6.64147100
H           9.37348300      8.33911100      6.91854900
H           8.31864500      8.99671800      5.65596100
C           9.70655800     10.43197500      6.47583500
H           9.14917000     11.35332000      6.21678200
H          10.37037900     10.27193400      5.59976900
S          10.66979200     10.67252200      7.94771700
O          11.84728300     11.51249400      7.64841400
O          10.98662600      9.30844500      8.43926100
O           9.74561900     11.39376300      8.89202700
P          12.36026400      9.81878300     11.62119800
O          11.20385800     10.68197900     12.06563500
O          13.46935600     10.48412800     10.78109600
H          13.35905300     11.71291500     10.26613700
O          13.03244600      9.09369900     12.94130800
H          13.90309800      8.64608500     12.78900900
O          11.86059900      8.47757800     10.81694800
H          11.68746800      8.60500100      9.79504700
O          13.09213600     12.68729200      9.65098600
H          12.09983600     12.93601000     10.04852700
H          12.87602900     12.28970500      8.72705900
O           9.45926500     11.86162600     13.34011800
H           9.97495300     12.46384800     12.78401200
H          10.08717800     11.13771500     13.54062000
O          10.78670700     12.93243200     10.68553700
H          10.81751300     12.10274000     11.27760100
H          10.16522000     12.65549900      9.94645200
