          44
 G =       -0.684838 Gcorr = 0.249414 a.u. Nimag =   0 Frame:     1 Step:     1 Geom:     1
C           8.32174900     10.34698600     10.93764800
C           9.10407000     10.11549600     12.07091300
C           9.66489000      8.86430500     12.29246700
C           9.44457700      7.84310800     11.35477200
C           8.65338600      8.10583200     10.23724100
H          10.29566500      8.68303900     13.16884000
H           7.89248800     11.34371600     10.72709400
H           9.30216700     10.94752000     12.75916200
H           8.50669800      7.34567900      9.46205600
C          10.09927600      6.51683300     11.48993100
H           9.38436400      5.68776000     11.53506200
H          10.77816200      6.33551600     10.63200300
H          10.74485300      6.45889400     12.38086900
N           8.08537200      9.33535300     10.05427700
C           7.25125200      9.60176600      8.85571400
H           6.25654500      9.12896000      9.02329800
H           7.08190200     10.70816500      8.77623500
C           7.85760900      9.09542400      7.52997200
H           8.31027800      8.08797500      7.65894900
H           7.02488700      8.94481200      6.80925400
C           8.88172400     10.04157100      6.91385700
H           8.41838700     10.99880000      6.61635500
H           9.29634500      9.61171800      5.98401400
S          10.23690000     10.38586900      8.06151000
O          11.35715300     10.92683000      7.28604000
O          10.48810500      9.06672000      8.71796700
O           9.60679000     11.33773300      9.01765100
P          13.02686400      9.67103700     11.26933900
O          12.62637200     11.02772500     11.63835600
O          14.03942200      9.46492500     10.06909900
H          13.99235300     10.27892500      9.40022300
O          13.78021800      8.96432600     12.48910300
H          14.14609000      8.06472000     12.15032600
O          11.85599900      8.63749500     11.00609500
H          11.42648400      8.78921600     10.04364700
O          13.87190000     11.52527900      8.22204800
H          13.04114100     11.27695700      7.74938400
H          13.63738900     12.33408000      8.67707300
O           7.92616500     12.95715600     12.51350900
H           8.78928000     12.98110700     12.04204600
H           7.77828000     13.85418100     12.78806800
O          10.26689600     12.91700800     11.12870500
H          11.03077000     12.42107400     11.43086400
H          10.02880200     12.45842300     10.28898400
          44
 G =       -0.687070 Gcorr = 0.252038 a.u. Nimag =   0 Frame:     2 Step:     2 Geom:     2
C           8.22452100     10.23820300     10.97240400
C           9.02504700      9.93643800     12.07511400
C           9.65163500      8.69871300     12.16814600
C           9.49465400      7.77626700     11.12203900
C           8.71852400      8.12630600     10.01728400
H          10.27054200      8.45039700     13.03861800
H           7.71029000     11.21300500     10.88590800
H           9.19087700     10.70498100     12.83747200
H           8.64018900      7.46132500      9.14922600
C          10.17789500      6.45885400     11.13809100
H           9.48555700      5.61686900     11.02703400
H          10.91770400      6.39471800     10.31213800
H          10.76245000      6.29437500     12.05749200
N           8.06685000      9.32709700      9.97018700
C           7.21845800      9.66370700      8.80120300
H           6.30999400      9.02039000      8.84172300
H           6.85919100     10.72526800      8.89700100
C           7.91912400      9.49388900      7.43782400
H           8.44237600      8.51414400      7.38097800
H           7.12652600      9.44186700      6.65873800
C           8.88065600     10.62405400      7.08484500
H           8.35749200     11.60114400      7.08588900
H           9.26477100     10.49768400      6.05623700
S          10.26581700     10.69742900      8.23821300
O          11.38024200     11.42174100      7.63400100
O          10.51510700      9.27383200      8.59228700
O           9.65675100     11.44676800      9.39728000
P          13.08898500      9.15168800     11.10202400
O          12.00480100      9.73610300     11.90200500
O          14.18371400     10.11746400     10.49699400
H          13.74663200     11.04156900     10.21663700
O          13.96959100      8.16574300     12.00014500
H          14.75220000      7.83394500     11.41669300
O          12.66276500      8.18960200      9.91910800
H          11.85131900      8.61747400      9.38862200
O          13.07293800     12.52299500      9.70175000
H          12.60329200     12.27328600      8.88300900
H          12.36782400     12.70439100     10.34205700
O           7.36596100     12.83989700      9.36317800
H           7.50583300     13.75408000      9.57914400
H           8.26696500     12.43447400      9.36214400
O          10.84060400     12.49929000     11.63299300
H          11.27029100     11.69497600     11.93589900
H          10.35307000     12.20357600     10.84024900
          44
 G =       -0.667743 Gcorr = 0.234900 a.u. Nimag =   0 Frame:     3 Step:     3 Geom:     3
C           7.99161600     10.20296400     10.39465500
C           8.49872500      9.98174300     11.68836300
C           9.13760700      8.79362700     11.99861000
C           9.21333500      7.76788100     11.01919300
C           8.64927200      7.98808000      9.76402200
H           9.61414200      8.65866700     12.97701500
H           7.57452900     11.19263400     10.12441600
H           8.43583700     10.80761900     12.41439500
H           8.71439500      7.23307200      8.97323600
C           9.93611200      6.50277700     11.30396500
H           9.89454700      6.21358600     12.36241000
H           9.59217700      5.64973900     10.70939900
H          11.02085200      6.64342200     11.06810300
N           8.04941600      9.20194500      9.45913600
C           7.53386100      9.44593500      8.07372100
H           6.70244000      8.72746000      7.88197000
H           7.08746800     10.46948800      8.03196700
C           8.60500500      9.30483100      6.97485800
H           9.23319900      8.39844400      7.15397200
H           8.07780400      9.10888500      6.01527500
C           9.51027300     10.51838000      6.80304800
H           8.92456800     11.45140600      6.68871100
H          10.07146200     10.43873000      5.84851600
S          10.62981600     10.64395100      8.17464300
O          11.73550700     11.56734800      7.86039400
O          11.05536100      9.24554900      8.46114000
O           9.79322100     11.19592900      9.29388700
P          12.60778200      9.51965800     11.55594700
O          11.37351000     10.19126000     12.06990800
O          13.65754200     10.43660900     10.82516500
H          13.35240600     11.55128000     10.48450800
O          13.42343800      8.73298000     12.75090100
H          14.30701900      8.36029700     12.49376400
O          12.32104100      8.25353000     10.56385700
H          11.97106600      8.49373200      9.59811700
O          12.91266500     12.69051200      9.99287300
H          12.64743800     12.42280200      9.04619400
H          12.01309400     12.82856800     10.47709000
O           8.00163400     12.85043400     11.61310600
H           8.97111100     12.91422400     11.39688300
H           7.77161100     13.67427100     12.01879600
O          10.68219400     12.49095200     11.36659500
H          10.98029400     11.99074500     12.16883000
H          10.34362600     11.74407500     10.75846800
          44
 G =       -0.667259 Gcorr = 0.232096 a.u. Nimag =   0 Frame:     4 Step:     4 Geom:     4
C           7.80772300     10.17117600     10.43507700
C           8.26863400      9.81279500     11.70255600
C           9.05761300      8.67542100     11.87457200
C           9.33929900      7.85785100     10.76002600
C           8.84112100      8.22532600      9.50314300
H           9.47981800      8.44187900     12.85918400
H           7.25426100     11.12307500     10.28798900
H           8.04352700     10.48210200     12.54688900
H           9.09547400      7.64527300      8.60433300
C          10.21215000      6.65985900     10.88068400
H          10.44127800      6.40437100     11.92589200
H           9.78741300      5.76711600     10.40682600
H          11.19704100      6.85165400     10.40114000
N           8.08514200      9.37057400      9.35011900
C           7.58658500      9.78279400      7.99689100
H           6.68524300      9.16658800      7.76537300
H           7.24227400     10.84641600      8.05635800
C           8.61417300      9.64108800      6.85908200
H           9.17072700      8.67728600      6.95244600
H           8.04912900      9.56041800      5.90399000
C           9.60817600     10.79027200      6.74798700
H           9.08746900     11.76129400      6.62535000
H          10.20012900     10.68704300      5.81444200
S          10.67628800     10.82901500      8.16416400
O          11.99169400     11.39766100      7.80828800
O          10.83520700      9.36622100      8.54769500
O           9.94617100     11.58470000      9.19596800
P          12.49356700      9.69317400     11.63427400
O          11.12203300     10.02367000     12.09898600
O          13.49209000     10.90665400     11.31422100
H          13.84839300     11.04069900     10.27389700
O          13.31285900      8.80814900     12.75487000
H          14.30046900      8.80142500     12.67038700
O          12.60353500      8.75523100     10.31841200
H          11.83933400      8.85956300      9.55135700
O          14.14642100     11.42288200      8.88632600
H          13.53541600     12.18717100      8.73393900
H          13.72965900     10.71830400      8.32850800
O           7.35131000     12.55006900     11.74043200
H           8.37054300     12.62675500     11.76706000
H           7.02593400     13.39724200     11.99875700
O           9.97024300     12.58868500     11.72287800
H          10.30596100     11.75159000     12.12201000
H          10.13849200     12.46948600     10.75724200
          44
 G =       -0.668602 Gcorr = 0.236340 a.u. Nimag =   0 Frame:     5 Step:     5 Geom:     5
C           7.97830200     10.26200200      9.97069200
C           8.39557600     10.05782500     11.29643500
C           8.89791500      8.82932100     11.69040200
C           8.97360200      7.76901300     10.75253900
C           8.51599900      7.98602200      9.45199400
H           9.27834500      8.68873700     12.70899200
H           7.64188400     11.25398500      9.62818300
H           8.39647300     10.91425600     12.01138200
H           8.58106300      7.20176500      8.69055100
C           9.59734000      6.47665500     11.13160500
H          10.70188300      6.62962800     11.21740800
H           9.25946200      6.11012900     12.11024300
H           9.44708900      5.67345700     10.40215000
N           8.02863600      9.22632400      9.07243100
C           7.62493300      9.45270700      7.64716600
H           6.78257300      8.76110700      7.40984400
H           7.22291500     10.49012100      7.54492500
C           8.77349400      9.23964900      6.64147100
H           9.37348300      8.33911100      6.91854900
H           8.31864500      8.99671800      5.65596100
C           9.70655800     10.43197500      6.47583500
H           9.14917000     11.35332000      6.21678200
H          10.37037900     10.27193400      5.59976900
S          10.66979200     10.67252200      7.94771700
O          11.84728300     11.51249400      7.64841400
O          10.98662600      9.30844500      8.43926100
O           9.74561900     11.39376300      8.89202700
P          12.36026400      9.81878300     11.62119800
O          11.20385800     10.68197900     12.06563500
O          13.46935600     10.48412800     10.78109600
H          13.35905300     11.71291500     10.26613700
O          13.03244600      9.09369900     12.94130800
H          13.90309800      8.64608500     12.78900900
O          11.86059900      8.47757800     10.81694800
H          11.68746800      8.60500100      9.79504700
O          13.09213600     12.68729200      9.65098600
H          12.09983600     12.93601000     10.04852700
H          12.87602900     12.28970500      8.72705900
O           9.45926500     11.86162600     13.34011800
H           9.97495300     12.46384800     12.78401200
H          10.08717800     11.13771500     13.54062000
O          10.78670700     12.93243200     10.68553700
H          10.81751300     12.10274000     11.27760100
H          10.16522000     12.65549900      9.94645200
          44
 G =       -0.684827 Gcorr = 0.249424 a.u. Nimag =   0 Frame:     6 Step:     6 Geom:     6
C           8.09355900     10.22608600     10.50367000
C           8.66572600      9.81177500     11.70824100
C           9.23709400      8.55048600     11.81616600
C           9.24170000      7.70629200     10.69447800
C           8.65603300      8.14822200      9.50896200
H           9.70533100      8.22835100     12.75199200
H           7.66216200     11.23729500     10.38810200
H           8.69359800     10.51312100     12.55237400
H           8.69010500      7.53354000      8.60274800
C           9.92473500      6.38774600     10.72384600
H          10.75713400      6.37116400      9.99124300
H          10.39850700      6.18467600     11.69759700
H           9.25514700      5.55205500     10.49199800
N           8.07204100      9.38160100      9.43320200
C           7.45956000      9.84105500      8.16153000
H           6.47512400      9.33043400      8.05572500
H           7.25417000     10.94138700      8.24025500
C           8.32224200      9.58500700      6.90782900
H           8.79177100      8.57775000      6.94717400
H           7.64393400      9.55012000      6.02793500
C           9.39498700     10.64055000      6.66563800
H           8.94836400     11.62792700      6.45319100
H           9.99290400     10.38750000      5.77139000
S          10.49911600     10.79863000      8.08978000
O          11.71524600     11.48375200      7.64219600
O          10.68859400      9.38872400      8.54874700
O           9.65979400     11.55813300      9.05729300
P          12.68753200      9.57882800     11.59624000
O          12.16634700     10.84852500     12.09958400
O          13.91345900      9.59233200     10.59351500
H          13.95311400     10.50644700     10.06888300
O          13.23215000      8.68477600     12.80406500
H          13.69676900      7.86194500     12.39782500
O          11.63313100      8.59009400     10.94885800
H          11.38050900      8.89984400      9.96182900
O          13.99512100     11.93375200      9.11171900
H          13.65061700     12.65080600      9.64404700
H          13.27307600     11.76245300      8.46026300
O           7.29050900     12.51394200     12.39836400
H           8.22343900     12.63142100     12.10938200
H           7.05200200     13.34915300     12.78246600
O           9.84392600     12.75263300     11.49135500
H          10.56381200     12.22387400     11.84223100
H           9.78582800     12.44581800     10.55609200
          44
 G =       -0.684839 Gcorr = 0.249412 a.u. Nimag =   0 Frame:     7 Step:     7 Geom:     7
C           8.07901300     10.29267400     10.34618900
C           8.57363700      9.99188200     11.61694500
C           9.11180100      8.73918500     11.88178000
C           9.16278500      7.78768200     10.85088800
C           8.65432000      8.11807400      9.59544000
H           9.51945000      8.50490800     12.87055900
H           7.67567300     11.29364000     10.10648200
H           8.56849800     10.77324800     12.38807600
H           8.72733200      7.41588100      8.75767800
C           9.81605800      6.46873500     11.04966700
H           9.14296300      5.62413900     10.86514500
H          10.68644200      6.36601800     10.37014900
H          10.23220800      6.35774900     12.06376700
N           8.10075000      9.34616300      9.36470400
C           7.57052300      9.68570700      8.02050400
H           6.58333500      9.18174500      7.90855700
H           7.38379500     10.79133300      7.97825000
C           8.49702200      9.29320600      6.85039900
H           8.94273000      8.28803000      7.01617000
H           7.86870700      9.18106900      5.94032800
C           9.60324100     10.30317200      6.56793200
H           9.18977600     11.27068400      6.23256500
H          10.24573100      9.95279700      5.73983400
S          10.62777600     10.58720800      8.03140800
O          11.88012700     11.20808900      7.59021600
O          10.76361900      9.22751000      8.63724500
O           9.74976400     11.45066500      8.86882900
P          12.58993700      9.68707900     11.76280800
O          12.06574400     11.00685100     12.10984300
O          13.86957600      9.58527300     10.83498900
H          13.95735700     10.44374100     10.22892500
O          13.04952800      8.90860500     13.08094100
H          13.51819700      8.04252200     12.78393100
O          11.55477800      8.65402500     11.15481200
H          11.36397900      8.86932900     10.12942800
O          14.08121100     11.76855500      9.13998300
H          13.71974000     12.53896200      9.57823600
H          13.39538400     11.54322400      8.46635400
O           7.22147400     12.77140800     11.95371800
H           8.17183400     12.84457500     11.71030000
H           6.97891300     13.64493600     12.23657700
O           9.82645500     12.88001100     11.17927900
H          10.51403900     12.37859700     11.62267100
H           9.81479500     12.48112800     10.27752100
          44
 G =       -0.684555 Gcorr = 0.250180 a.u. Nimag =   0 Frame:     8 Step:     8 Geom:     8
C           8.07830400     10.25255500     10.35307300
C           8.46961400      9.88408200     11.63955900
C           9.03681100      8.63450600     11.86967900
C           9.23219900      7.76756300     10.78472000
C           8.81506400      8.16170000      9.51304600
H           9.34542300      8.34154700     12.87905300
H           7.66742400     11.25555100     10.13845300
H           8.36023000     10.60490900     12.45956400
H           8.99456300      7.52341800      8.64025200
C           9.93824700      6.47194500     10.94697500
H          10.94995700      6.53444600     10.49009200
H          10.11032500      6.21009500     12.00175800
H           9.41700900      5.63266600     10.47380600
N           8.21428100      9.37227400      9.31867300
C           7.72503100      9.76725800      7.97394200
H           6.75445300      9.24669200      7.80395800
H           7.51077200     10.86915900      7.98214600
C           8.69354900      9.46039700      6.81355600
H           9.16188000      8.45980200      6.93930200
H           8.09528000      9.38035300      5.88025000
C           9.77705200     10.51525000      6.62041700
H           9.34576300     11.48783200      6.32529000
H          10.45558000     10.22947100      5.79704900
S          10.74240600     10.73831600      8.13427000
O          12.01633300     11.36942000      7.77098400
O          10.89033500      9.33924500      8.65318000
O           9.82483600     11.54319700      8.97836100
P          12.45006600      9.51007500     11.85493500
O          11.10557400     10.00888200     12.15696600
O          13.60803700     10.58631400     11.81402400
H          13.83873000     10.84432700     10.81795600
O          12.92028400      8.53769900     13.03268000
H          13.90230000      8.28688100     12.86775600
O          12.62764800      8.60615000     10.56770700
H          11.90334000      8.86976800      9.82605400
O          14.34603400     11.26933900      9.21499800
H          14.64793300     10.45622900      8.81291500
H          13.52852200     11.48074000      8.70068900
O           7.07880300     12.66598700     11.99464700
H           8.04941500     12.70758000     11.83087700
H           6.85121100     13.53357800     12.30584600
O           9.73627800     12.67346500     11.46626900
H          10.26348200     11.98821900     11.89013700
H           9.80964300     12.43113800     10.51415500
          44
 G =       -0.686501 Gcorr = 0.250875 a.u. Nimag =   0 Frame:     9 Step:     9 Geom:     9
C           8.05193700     10.07845900     10.56302800
C           8.59426000      9.63398300     11.76823700
C           9.29414100      8.43262500     11.82260900
C           9.45363100      7.68524000     10.64742100
C           8.89831000      8.16064900      9.45808600
H           9.73090900      8.08671400     12.76631300
H           7.52767400     11.04763800     10.49494300
H           8.50361700     10.26753800     12.65916400
H           9.05549600      7.62910800      8.51201400
C          10.24376200      6.42912800     10.62382000
H          11.16023900      6.56212600     10.00960700
H          10.60644100      6.13573200     11.62161500
H           9.68904600      5.58111300     10.20717100
N           8.18150100      9.32290600      9.43447800
C           7.55601500      9.78115600      8.17019400
H           6.68958200      9.11274800      7.95881700
H           7.13193600     10.80988400      8.31923600
C           8.50654600      9.80245200      6.95622600
H           9.09655800      8.86165600      6.89736200
H           7.87871500      9.80589000      6.03771700
C           9.43863200     11.00807000      6.91896200
H           8.86161300     11.95411700      6.89921900
H          10.03477700     11.00883600      5.98817200
S          10.54957500     11.03046100      8.34081700
O          11.73833500     11.81644800      8.00072400
O          10.80085700      9.58941300      8.62771600
O           9.68878300     11.65821500      9.39435900
P          12.77382000      9.30355900     11.63031400
O          11.48687900      9.78081200     12.14348000
O          13.99336300     10.30994700     11.59596200
H          13.80554500     11.09284900     10.91702600
O          13.34685600      8.16209900     12.59380900
H          14.29179500      7.92024700     12.26505200
O          12.77200800      8.57287700     10.22598000
H          12.00418500      8.96272300      9.60828700
O          13.59679400     12.49635000      9.92012600
H          13.02475100     13.10633000     10.38401100
H          13.07210900     12.24800400      9.12333300
O           7.38584300     13.06024400      9.11874000
H           7.44817400     13.86609800      9.61954300
H           8.26559400     12.63458500      9.22385400
O           9.75682200     12.28942000     12.10429300
H          10.42511200     11.65030000     12.35989700
H           9.72747800     12.18127100     11.13829000
          44
 G =       -0.684672 Gcorr = 0.252816 a.u. Nimag =   0 Frame:    10 Step:    10 Geom:    10
C           8.11950900     10.13739700     10.29320700
C           8.55430000      9.76607900     11.56585300
C           9.17368800      8.53745700     11.76539300
C           9.37184500      7.68943400     10.66483600
C           8.92830900      8.09257900      9.40576600
H           9.51773400      8.24349300     12.76325900
H           7.64955900     11.12050400     10.11048500
H           8.43349800     10.47071700     12.39732000
H           9.12280200      7.47873200      8.51858900
C          10.09965100      6.40266900     10.79905500
H           9.55035000      5.55218100     10.38062900
H          11.07694300      6.45979800     10.27293900
H          10.34848200      6.16219800     11.84405500
N           8.28157900      9.28431400      9.23983000
C           7.78618100      9.69500600      7.90170300
H           6.84492100      9.13212800      7.70480100
H           7.51892600     10.78388500      7.94018200
C           8.77970400      9.47209300      6.74202900
H           9.28466500      8.48543000      6.83490000
H           8.19362200      9.40507300      5.79996800
C           9.82470900     10.57421500      6.59852700
H           9.35729600     11.54517600      6.35831700
H          10.50662100     10.35541000      5.75739400
S          10.78475100     10.74437200      8.11932900
O          11.97866700     11.55086900      7.86537900
O          11.02698700      9.33048400      8.52947700
O           9.80522000     11.41591100      9.03081600
P          12.61531000      9.39644300     11.73705700
O          11.28694900      9.90855900     12.10245600
O          13.79662600     10.43070100     11.55142300
H          13.45062200     11.30473400     11.06629500
O          13.18058600      8.45931000     12.90233100
H          14.13533800      8.17724600     12.63484200
O          12.68790400      8.42566700     10.49144300
H          12.05426600      8.78793600      9.71547200
O          12.93357300     12.73656400     10.27278300
H          12.75870600     12.44536000      9.35405200
H          12.05557700     12.90580900     10.63917900
O           7.49316200     12.69002400     11.94007100
H           8.46011800     12.71133100     11.75975800
H           7.28578600     13.56515600     12.24418300
O          10.16052300     12.61211600     11.37744800
H          10.51192800     11.83138800     11.82394300
H          10.00252900     12.27406800     10.45324800
          44
 G =       -0.667702 Gcorr = 0.234941 a.u. Nimag =   0 Frame:    11 Step:    11 Geom:    11
C           8.02564300     10.06445000     10.15845900
C           8.46951600      9.65245800     11.42850000
C           9.11151100      8.43650200     11.58777500
C           9.25480600      7.57345800     10.46896400
C           8.75214300      7.97809600      9.23373000
H           9.53933300      8.15763200     12.55821700
H           7.60639900     11.08013700     10.02028600
H           8.35565200     10.35699300     12.26745100
H           8.87059800      7.35356100      8.34178600
C           9.98346400      6.28622200     10.59575600
H           9.89403000      5.83892100     11.59454700
H           9.68388900      5.53059300      9.86176100
H          11.07613600      6.47086100     10.44056200
N           8.14815700      9.21886200      9.08584500
C           7.69945200      9.66704100      7.72845500
H           6.89129000      8.97869700      7.38596100
H           7.23826600     10.68078600      7.81949800
C           8.82722300      9.70546100      6.67898700
H           9.46120100      8.78835300      6.75119000
H           8.35281100      9.65339700      5.67431500
C           9.71881100     10.93950300      6.74162400
H           9.12352200     11.87347700      6.74011400
H          10.32869300     11.01207300      5.81685900
S          10.76556300     10.86447400      8.17308100
O          11.86864700     11.83662200      8.06162100
O          11.20141900      9.44321000      8.26472800
O           9.86426100     11.22982600      9.31827300
P          12.58605000      9.25475600     11.44493500
O          11.31613500      9.82868500     11.98957500
O          13.65538400     10.28201800     10.91779600
H          13.34837700     11.43329600     10.73427000
O          13.35388500      8.30283500     12.54775300
H          14.25844600      7.98761200     12.28666800
O          12.37074800      8.15200000     10.25865600
H          12.06829900      8.53340600      9.32306700
O          12.91482800     12.62972600     10.40035100
H          12.70237600     12.50836300      9.41100100
H          11.98938500     12.68373500     10.85182400
O           7.92764000     12.49487200     11.76355300
H           7.66248400     13.24545700     12.27598900
H           8.90593000     12.59974000     11.61229600
O          10.62177600     12.20166200     11.60772200
H          10.88765100     11.58814500     12.33976800
H          10.32819400     11.55204500     10.87644400
          44
 G =       -0.684668 Gcorr = 0.252820 a.u. Nimag =   0 Frame:    12 Step:    12 Geom:    12
C           8.11366700     10.12564300     10.32998900
C           8.58671800      9.62194900     11.54205900
C           9.18494300      8.36805400     11.59560100
C           9.32273400      7.62949400     10.41018400
C           8.84200300      8.16358700      9.21511800
H           9.55910700      7.97031400     12.54551100
H           7.65998200     11.13085800     10.26325900
H           8.51293600     10.24299700     12.44277000
H           8.98943000      7.63701000      8.26502300
C          10.02559700      6.32219600     10.38879900
H          10.98379900      6.41268300      9.83304200
H          10.30735900      5.97469100     11.39458300
H           9.44207800      5.52788400      9.91055200
N           8.21693400      9.37801000      9.19246100
C           7.68152300      9.92840400      7.92161200
H           6.72072300      9.40611600      7.70787500
H           7.44120200     11.01313900      8.07715800
C           8.62552700      9.80195000      6.70729400
H           9.11065700      8.80138500      6.68295200
H           8.00321000      9.83970100      5.78709800
C           9.68962900     10.89246400      6.63140500
H           9.23616300     11.89125900      6.50603000
H          10.33450700     10.74469100      5.74667900
S          10.70942700     10.89291700      8.12251500
O          11.91140900     11.69732800      7.90198500
O          10.93408000      9.44096800      8.38210400
O           9.78043300     11.48994700      9.13326400
P          12.64131400      9.16064400     11.51696500
O          11.33949500      9.65931600     11.98270500
O          13.83804300     10.18557300     11.38711900
H          13.49423100     11.10947100     11.00323700
O          13.22804900      8.10250700     12.56175600
H          14.16556600      7.83016200     12.23072100
O          12.64531900      8.31629100     10.18045700
H          11.99178600      8.76522300      9.46907700
O          12.98226600     12.62144800     10.37337700
H          12.76694500     12.42568600      9.43795300
H          12.12253700     12.77068600     10.78851500