 Entering Gaussian System, Link 0=g16
 Initial command:
 /data0/home/software/g16/l1.exe "/data0/home/software/g16/scratch/Gau-289809.inp" -scrdir="/data0/home/software/g16/scratch/"
 Default is to use a total of  22 processors:
                               22 via shared-memory
                                1 via Linda
 Entering Link 1 = /data0/home/software/g16/l1.exe PID=    289810.
  
 Copyright (c) 1988,1990,1992,1993,1995,1998,2003,2009,2016,
            Gaussian, Inc.  All Rights Reserved.
  
 This is part of the Gaussian(R) 16 program.  It is based on
 the Gaussian(R) 09 system (copyright 2009, Gaussian, Inc.),
 the Gaussian(R) 03 system (copyright 2003, Gaussian, Inc.),
 the Gaussian(R) 98 system (copyright 1998, Gaussian, Inc.),
 the Gaussian(R) 94 system (copyright 1995, Gaussian, Inc.),
 the Gaussian 92(TM) system (copyright 1992, Gaussian, Inc.),
 the Gaussian 90(TM) system (copyright 1990, Gaussian, Inc.),
 the Gaussian 88(TM) system (copyright 1988, Gaussian, Inc.),
 the Gaussian 86(TM) system (copyright 1986, Carnegie Mellon
 University), and the Gaussian 82(TM) system (copyright 1983,
 Carnegie Mellon University). Gaussian is a federally registered
 trademark of Gaussian, Inc.
  
 This software contains proprietary and confidential information,
 including trade secrets, belonging to Gaussian, Inc.
  
 This software is provided under written license and may be
 used, copied, transmitted, or stored only in accord with that
 written license.
  
 The following legend is applicable only to US Government
 contracts under FAR:
  
                    RESTRICTED RIGHTS LEGEND
  
 Use, reproduction and disclosure by the US Government is
 subject to restrictions as set forth in subparagraphs (a)
 and (c) of the Commercial Computer Software - Restricted
 Rights clause in FAR 52.227-19.
  
 Gaussian, Inc.
 340 Quinnipiac St., Bldg. 40, Wallingford CT 06492
  
  
 ---------------------------------------------------------------
 Warning -- This program may not be used in any manner that
 competes with the business of Gaussian, Inc. or will provide
 assistance to any competitor of Gaussian, Inc.  The licensee
 of this program is prohibited from giving any competitor of
 Gaussian, Inc. access to this program.  By using this program,
 the user acknowledges that Gaussian, Inc. is engaged in the
 business of creating and licensing software in the field of
 computational chemistry and represents and warrants to the
 licensee that it is not a competitor of Gaussian, Inc. and that
 it will not use this program in any manner prohibited above.
 ---------------------------------------------------------------
  

 Cite this work as:
 Gaussian 16, Revision A.03,
 M. J. Frisch, G. W. Trucks, H. B. Schlegel, G. E. Scuseria, 
 M. A. Robb, J. R. Cheeseman, G. Scalmani, V. Barone, 
 G. A. Petersson, H. Nakatsuji, X. Li, M. Caricato, A. V. Marenich, 
 J. Bloino, B. G. Janesko, R. Gomperts, B. Mennucci, H. P. Hratchian, 
 J. V. Ortiz, A. F. Izmaylov, J. L. Sonnenberg, D. Williams-Young, 
 F. Ding, F. Lipparini, F. Egidi, J. Goings, B. Peng, A. Petrone, 
 T. Henderson, D. Ranasinghe, V. G. Zakrzewski, J. Gao, N. Rega, 
 G. Zheng, W. Liang, M. Hada, M. Ehara, K. Toyota, R. Fukuda, 
 J. Hasegawa, M. Ishida, T. Nakajima, Y. Honda, O. Kitao, H. Nakai, 
 T. Vreven, K. Throssell, J. A. Montgomery, Jr., J. E. Peralta, 
 F. Ogliaro, M. J. Bearpark, J. J. Heyd, E. N. Brothers, K. N. Kudin, 
 V. N. Staroverov, T. A. Keith, R. Kobayashi, J. Normand, 
 K. Raghavachari, A. P. Rendell, J. C. Burant, S. S. Iyengar, 
 J. Tomasi, M. Cossi, J. M. Millam, M. Klene, C. Adamo, R. Cammi, 
 J. W. Ochterski, R. L. Martin, K. Morokuma, O. Farkas, 
 J. B. Foresman, and D. J. Fox, Gaussian, Inc., Wallingford CT, 2016.
 
 ******************************************
 Gaussian 16:  ES64L-G16RevA.03 25-Dec-2016
                19-Feb-2023 
 ******************************************
 %nproc=24
 Will use up to   24 processors via shared memory.
 %mem=50GB
 ---------------------------------------------------
 #p M062X/6-311+G(2d,p) nosymm em=GD3 counterpoise=2
 ---------------------------------------------------
 1/38=1,62=2,172=1/1;
 2/12=2,15=1,17=6,18=5,40=1/2;
 1/38=1,53=2,62=2,63=1/22;
 3/5=4,6=6,7=112,11=2,25=1,30=1,74=-55,124=31/1,2,3;
 4//1;
 5/5=2,38=5/2;
 6/7=2,8=2,9=2,10=2,28=1/1;
 1/53=2,62=2,63=1/22;
 3/5=7,6=11,7=112,11=2,25=1,30=1,74=-55,82=7,124=31/1,2,3;
 4//1;
 5/5=2,38=5/2;
 6/7=2,8=2,9=2,10=2,28=1/1;
 1/53=2,62=2,63=1/22(-4);
 99/5=1,9=1/99;
 Leave Link    1 at Sun Feb 19 12:40:41 2023, MaxMem=  6710886400 cpu:               0.7 elap:               0.0
 (Enter /data0/home/software/g16/l101.exe)
 -------------------
 Title Card Required
 -------------------
 Symbolic Z-matrix:
 Charge =  0 Multiplicity = 1 in supermolecule
 Charge =  0 Multiplicity = 1 in fragment      1.
 Charge =  0 Multiplicity = 1 in fragment      2.
 C                     2.37842   12.17902   9.5834     
 C                     2.16277   10.7966   9.50167    
 C                     1.74357   10.11674   10.64227    
 C                     1.5509    10.82569   11.82763    
 C                     1.78796   12.20449   11.82814    
 N                     2.19293   12.86552   10.72646    
 H                     1.5673    9.04167   10.61038    
 H                     2.71099   12.76557   8.71227    
 H                     2.32211   10.27176   8.56395    
 H                     1.22417   10.32145   12.7321    
 H                     1.65419   12.81351   12.72934    
 P                     3.91687   15.93243   9.54405    
 O                     3.97136   15.05029   8.37376    
 O                     3.72318   17.44444   9.1328     
 H                     3.72971   18.04407   9.99328    
 O                     2.79495   15.68001   10.63186    
 H                     2.60159   14.63268   10.66219    
 O                     5.20827   15.90236   10.49052    
 H                     6.0725    15.83606   9.92553    
 
 ITRead=  0  0  0  0  0  0  0  0  0  0  0  0  0  0  0  0  0  0  0
 MicOpt= -1 -1 -1 -1 -1 -1 -1 -1 -1 -1 -1 -1 -1 -1 -1 -1 -1 -1 -1
 NAtoms=     19 NQM=       19 NQMF=       0 NMMI=      0 NMMIF=      0
                NMic=       0 NMicF=      0.
                    Isotopes and Nuclear Properties:
 (Nuclear quadrupole moments (NQMom) in fm**2, nuclear magnetic moments (NMagM)
  in nuclear magnetons)

  Atom         1           2           3           4           5           6           7           8           9          10
 IAtWgt=          12          12          12          12          12          14           1           1           1           1
 AtmWgt=  12.0000000  12.0000000  12.0000000  12.0000000  12.0000000  14.0030740   1.0078250   1.0078250   1.0078250   1.0078250
 NucSpn=           0           0           0           0           0           2           1           1           1           1
 AtZEff=  -0.0000000  -0.0000000  -0.0000000  -0.0000000  -0.0000000  -0.0000000  -0.0000000  -0.0000000  -0.0000000  -0.0000000
 NQMom=    0.0000000   0.0000000   0.0000000   0.0000000   0.0000000   2.0440000   0.0000000   0.0000000   0.0000000   0.0000000
 NMagM=    0.0000000   0.0000000   0.0000000   0.0000000   0.0000000   0.4037610   2.7928460   2.7928460   2.7928460   2.7928460
 AtZNuc=   6.0000000   6.0000000   6.0000000   6.0000000   6.0000000   7.0000000   1.0000000   1.0000000   1.0000000   1.0000000

  Atom        11          12          13          14          15          16          17          18          19
 IAtWgt=           1          31          16          16           1          16           1          16           1
 AtmWgt=   1.0078250  30.9737634  15.9949146  15.9949146   1.0078250  15.9949146   1.0078250  15.9949146   1.0078250
 NucSpn=           1           1           0           0           1           0           1           0           1
 AtZEff=  -0.0000000  -0.0000000  -0.0000000  -0.0000000  -0.0000000  -0.0000000  -0.0000000  -0.0000000  -0.0000000
 NQMom=    0.0000000   0.0000000   0.0000000   0.0000000   0.0000000   0.0000000   0.0000000   0.0000000   0.0000000
 NMagM=    2.7928460   1.1316000   0.0000000   0.0000000   2.7928460   0.0000000   2.7928460   0.0000000   2.7928460
 AtZNuc=   1.0000000  15.0000000   8.0000000   8.0000000   1.0000000   8.0000000   1.0000000   8.0000000   1.0000000
 Leave Link  101 at Sun Feb 19 12:40:41 2023, MaxMem=  6710886400 cpu:               2.1 elap:               0.1
 (Enter /data0/home/software/g16/l202.exe)
                          Input orientation:                          
 ---------------------------------------------------------------------
 Center     Atomic      Atomic             Coordinates (Angstroms)
 Number     Number       Type             X           Y           Z
 ---------------------------------------------------------------------
      1          6           0        2.378422   12.179025    9.583402
      2          6           0        2.162768   10.796597    9.501670
      3          6           0        1.743565   10.116743   10.642273
      4          6           0        1.550904   10.825687   11.827630
      5          6           0        1.787964   12.204491   11.828136
      6          7           0        2.192926   12.865516   10.726463
      7          1           0        1.567303    9.041671   10.610375
      8          1           0        2.710991   12.765572    8.712274
      9          1           0        2.322107   10.271763    8.563947
     10          1           0        1.224168   10.321450   12.732096
     11          1           0        1.654186   12.813514   12.729335
     12         15           0        3.916866   15.932432    9.544045
     13          8           0        3.971357   15.050293    8.373755
     14          8           0        3.723175   17.444442    9.132802
     15          1           0        3.729707   18.044071    9.993280
     16          8           0        2.794953   15.680009   10.631861
     17          1           0        2.601588   14.632675   10.662190
     18          8           0        5.208271   15.902361   10.490515
     19          1           0        6.072496   15.836057    9.925525
 ---------------------------------------------------------------------
                    Distance matrix (angstroms):
                    1          2          3          4          5
     1  C    0.000000
     2  C    1.401533   0.000000
     3  C    2.403593   1.392447   0.000000
     4  C    2.748248   2.405268   1.394558   0.000000
     5  C    2.321232   2.745011   2.401444   1.399035   0.000000
     6  N    1.346205   2.404465   2.786533   2.405341   1.347083
     7  H    3.399350   2.159530   1.089892   2.159790   3.396331
     8  H    1.101591   2.191017   3.417178   3.848948   3.297785
     9  H    2.163356   1.086354   2.162910   3.399002   3.830885
    10  H    3.833688   3.397409   2.163108   1.085850   2.163528
    11  H    3.289983   3.839848   3.411215   2.185222   1.095886
    12  P    4.056652   5.427288   6.304885   6.073828   4.862802
    13  O    3.499267   4.757848   5.869340   5.969518   4.979813
    14  O    5.453074   6.838478   7.739026   7.469189   6.202173
    15  H    6.032639   7.431208   8.198078   7.759967   6.421663
    16  O    3.678268   5.052198   5.661754   5.151889   3.811079
    17  H    2.689607   4.031732   4.596764   4.117687   2.813804
    18  O    4.763836   6.026751   6.745413   6.398189   5.211715
    19  H    5.209330   6.392322   7.208601   7.011890   5.930043
                    6          7          8          9         10
     6  N    0.000000
     7  H    3.876425   0.000000
     8  H    2.082147   4.333388   0.000000
     9  H    3.379455   2.504141   2.528303   0.000000
    10  H    3.381320   2.501455   4.933897   4.310615   0.000000
    11  H    2.074715   4.327163   4.154024   4.925147   2.528894
    12  P    3.711611   7.357995   3.489266   5.962132   6.992668
    13  O    3.670327   6.847297   2.631172   5.058710   6.993149
    14  O    5.084091   8.799862   4.805537   7.330342   8.362833
    15  H    5.451301   9.279009   5.526419   8.027023   8.568414
    16  O    2.879715   6.750935   3.490818   5.809387   5.965946
    17  H    1.814934   5.686102   2.701891   4.847503   4.976792
    18  O    4.286071   7.767888   4.386114   6.614019   7.214176
    19  H    4.951432   8.181043   4.711642   6.846947   7.860917
                   11         12         13         14         15
    11  H    0.000000
    12  P    4.999344   0.000000
    13  O    5.416968   1.466532   0.000000
    14  O    6.217818   1.578864   2.523826   0.000000
    15  H    6.257197   2.166993   3.412325   1.048818   0.000000
    16  O    3.730622   1.582956   2.622882   2.494393   2.621133
    17  H    2.912045   2.160919   2.699557   3.391610   3.654821
    18  O    5.213906   1.601386   2.595506   2.535135   2.649588
    19  H    6.043060   2.191245   2.727673   2.955439   3.220027
                   16         17         18         19
    16  O    0.000000
    17  H    1.065466   0.000000
    18  O    2.427658   2.904543   0.000000
    19  H    3.356419   3.746733   1.034647   0.000000
 Symmetry turned off by external request.
 Stoichiometry    C5H8NO4P
 Framework group  C1[X(C5H8NO4P)]
 Deg. of freedom    51
 Full point group                 C1      NOp   1
 Rotational constants (GHZ):           2.5174978           0.3902728           0.3656527
 Leave Link  202 at Sun Feb 19 12:40:41 2023, MaxMem=  6710886400 cpu:               0.1 elap:               0.0
 (Enter /data0/home/software/g16/l122.exe)
 Counterpoise: doing full-system calculation.
 Leave Link  122 at Sun Feb 19 12:40:41 2023, MaxMem=  6710886400 cpu:               0.0 elap:               0.0
 (Enter /data0/home/software/g16/l301.exe)
 Standard basis: 6-311+G(2d,p) (5D, 7F)
 Ernie: Thresh=  0.10000D-02 Tol=  0.10000D-05 Strict=F.
   353 basis functions,   540 primitive gaussians,   375 cartesian basis functions
    46 alpha electrons       46 beta electrons
       nuclear repulsion energy       709.8640019428 Hartrees.
 IExCor= 4336 DFT=T Ex+Corr=M062X ExCW=0 ScaHFX=  0.540000
 ScaDFX=  1.000000  1.000000  1.000000  1.000000 ScalE2=  1.000000  1.000000
 IRadAn=      5 IRanWt=     -1 IRanGd=            0 ICorTp=0 IEmpDi=131
 NAtoms=   19 NActive=   19 NUniq=   19 SFac= 1.00D+00 NAtFMM=   60 NAOKFM=F Big=F
 Integral buffers will be    131072 words long.
 Raffenetti 2 integral format.
 Two-electron integral symmetry is turned off.
 R6Disp:  Grimme-D3 Dispersion energy=       -0.0006227117 Hartrees.
 Nuclear repulsion after empirical dispersion term =      709.8633792311 Hartrees.
 Leave Link  301 at Sun Feb 19 12:40:41 2023, MaxMem=  6710886400 cpu:               1.1 elap:               0.1
 (Enter /data0/home/software/g16/l302.exe)
 NPDir=0 NMtPBC=     1 NCelOv=     1 NCel=       1 NClECP=     1 NCelD=      1
         NCelK=      1 NCelE2=     1 NClLst=     1 CellRange=     0.0.
 One-electron integrals computed using PRISM.
 NBasis=   353 RedAO= T EigKep=  9.39D-06  NBF=   353
 NBsUse=   353 1.00D-06 EigRej= -1.00D+00 NBFU=   353
 Precomputing XC quadrature grid using
 IXCGrd= 4 IRadAn=           5 IRanWt=          -1 IRanGd=           0 AccXCQ= 0.00D+00.
 Generated NRdTot=       0 NPtTot=           0 NUsed=           0 NTot=          32
 NSgBfM=   375   375   375   375   375 MxSgAt=    19 MxSgA2=    19.
 Leave Link  302 at Sun Feb 19 12:40:41 2023, MaxMem=  6710886400 cpu:               5.7 elap:               0.3
 (Enter /data0/home/software/g16/l303.exe)
 DipDrv:  MaxL=1.
 Leave Link  303 at Sun Feb 19 12:40:41 2023, MaxMem=  6710886400 cpu:               0.8 elap:               0.1
 (Enter /data0/home/software/g16/l401.exe)
 ExpMin= 3.48D-02 ExpMax= 7.75D+04 ExpMxC= 2.65D+03 IAcc=3 IRadAn=         5 AccDes= 0.00D+00
 Harris functional with IExCor= 1009 and IRadAn=       5 diagonalized for initial guess.
 HarFok:  IExCor= 1009 AccDes= 0.00D+00 IRadAn=         5 IDoV= 1 UseB2=F ITyADJ=14
 ICtDFT=  3500011 ScaDFX=  1.000000  1.000000  1.000000  1.000000
 FoFCou: FMM=F IPFlag=           0 FMFlag=      100000 FMFlg1=           0
         NFxFlg=           0 DoJE=T BraDBF=F KetDBF=T FulRan=T
         wScrn=  0.000000 ICntrl=       500 IOpCl=  0 I1Cent=   200000004 NGrid=           0
         NMat0=    1 NMatS0=      1 NMatT0=    0 NMatD0=    1 NMtDS0=    0 NMtDT0=    0
 Symmetry not used in FoFCou.
 Harris En= -892.072880151274    
 JPrj=0 DoOrth=F DoCkMO=F.
 Leave Link  401 at Sun Feb 19 12:40:42 2023, MaxMem=  6710886400 cpu:              18.7 elap:               0.8
 (Enter /data0/home/software/g16/l502.exe)
 Two-electron integral symmetry not used.
 Closed shell SCF:
 Using DIIS extrapolation, IDIIS=  1040.
 NGot=  6710886400 LenX=  6710593514 LenY=  6710452448
 Requested convergence on RMS density matrix=1.00D-08 within 128 cycles.
 Requested convergence on MAX density matrix=1.00D-06.
 Requested convergence on             energy=1.00D-06.
 No special actions if energy rises.
 Fock matrices will be formed incrementally for  20 cycles.

 Cycle   1  Pass 1  IDiag  1:
 FoFJK:  IHMeth= 1 ICntrl=       0 DoSepK=F KAlg= 0 I1Cent=           0 FoldK=F
 IRaf= 850000000 NMat=       1 IRICut=       1 DoRegI=T DoRafI=F ISym2E= 0 IDoP0=0 IntGTp=1.
 FoFCou: FMM=F IPFlag=           0 FMFlag=      100000 FMFlg1=           0
         NFxFlg=           0 DoJE=F BraDBF=F KetDBF=F FulRan=T
         wScrn=  0.000000 ICntrl=         0 IOpCl=  0 I1Cent=           0 NGrid=           0
         NMat0=    1 NMatS0=      1 NMatT0=    0 NMatD0=    1 NMtDS0=    0 NMtDT0=    0
 Symmetry not used in FoFCou.
 E= -892.030307163603    
 DIIS: error= 3.26D-02 at cycle   1 NSaved=   1.
 NSaved= 1 IEnMin= 1 EnMin= -892.030307163603     IErMin= 1 ErrMin= 3.26D-02
 ErrMax= 3.26D-02  0.00D+00 EMaxC= 1.00D-01 BMatC= 6.48D-01 BMatP= 6.48D-01
 IDIUse=3 WtCom= 6.74D-01 WtEn= 3.26D-01
 Coeff-Com:  0.100D+01
 Coeff-En:   0.100D+01
 Coeff:      0.100D+01
 Gap=     0.315 Goal=   None    Shift=    0.000
 GapD=    0.315 DampG=1.000 DampE=0.500 DampFc=0.5000 IDamp=-1.
 Damping current iteration by 5.00D-01
 RMSDP=6.36D-03 MaxDP=5.61D-01              OVMax= 2.29D-01

 Cycle   2  Pass 1  IDiag  1:
 RMSU=  3.07D-03    CP:  1.06D+00
 E= -892.206414082606     Delta-E=       -0.176106919003 Rises=F Damp=T
 DIIS: error= 9.51D-03 at cycle   2 NSaved=   2.
 NSaved= 2 IEnMin= 2 EnMin= -892.206414082606     IErMin= 2 ErrMin= 9.51D-03
 ErrMax= 9.51D-03  0.00D+00 EMaxC= 1.00D-01 BMatC= 3.97D-02 BMatP= 6.48D-01
 IDIUse=3 WtCom= 9.05D-01 WtEn= 9.51D-02
 Coeff-Com:  0.175D-01 0.982D+00
 Coeff-En:   0.945D-01 0.906D+00
 Coeff:      0.248D-01 0.975D+00
 Gap=     0.372 Goal=   None    Shift=    0.000
 RMSDP=1.93D-03 MaxDP=1.98D-01 DE=-1.76D-01 OVMax= 1.32D-01

 Cycle   3  Pass 1  IDiag  1:
 RMSU=  1.51D-03    CP:  9.89D-01  7.66D-01
 E= -892.412812789368     Delta-E=       -0.206398706762 Rises=F Damp=F
 DIIS: error= 5.93D-03 at cycle   3 NSaved=   3.
 NSaved= 3 IEnMin= 3 EnMin= -892.412812789368     IErMin= 3 ErrMin= 5.93D-03
 ErrMax= 5.93D-03  0.00D+00 EMaxC= 1.00D-01 BMatC= 1.49D-02 BMatP= 3.97D-02
 IDIUse=3 WtCom= 9.41D-01 WtEn= 5.93D-02
 Coeff-Com: -0.529D-01 0.351D+00 0.702D+00
 Coeff-En:   0.000D+00 0.000D+00 0.100D+01
 Coeff:     -0.498D-01 0.331D+00 0.719D+00
 Gap=     0.314 Goal=   None    Shift=    0.000
 RMSDP=6.34D-04 MaxDP=4.38D-02 DE=-2.06D-01 OVMax= 3.75D-02

 Cycle   4  Pass 1  IDiag  1:
 RMSU=  6.18D-04    CP:  9.82D-01  7.90D-01  9.53D-01
 E= -892.420345239892     Delta-E=       -0.007532450524 Rises=F Damp=F
 DIIS: error= 3.04D-03 at cycle   4 NSaved=   4.
 NSaved= 4 IEnMin= 4 EnMin= -892.420345239892     IErMin= 4 ErrMin= 3.04D-03
 ErrMax= 3.04D-03  0.00D+00 EMaxC= 1.00D-01 BMatC= 4.53D-03 BMatP= 1.49D-02
 IDIUse=3 WtCom= 9.70D-01 WtEn= 3.04D-02
 Coeff-Com: -0.302D-01 0.879D-01 0.400D+00 0.543D+00
 Coeff-En:   0.000D+00 0.000D+00 0.222D+00 0.778D+00
 Coeff:     -0.293D-01 0.853D-01 0.394D+00 0.550D+00
 Gap=     0.314 Goal=   None    Shift=    0.000
 RMSDP=2.06D-04 MaxDP=9.87D-03 DE=-7.53D-03 OVMax= 1.27D-02

 Cycle   5  Pass 1  IDiag  1:
 RMSU=  1.21D-04    CP:  9.84D-01  7.92D-01  9.71D-01  7.36D-01
 E= -892.423501656171     Delta-E=       -0.003156416279 Rises=F Damp=F
 DIIS: error= 3.60D-04 at cycle   5 NSaved=   5.
 NSaved= 5 IEnMin= 5 EnMin= -892.423501656171     IErMin= 5 ErrMin= 3.60D-04
 ErrMax= 3.60D-04  0.00D+00 EMaxC= 1.00D-01 BMatC= 9.36D-05 BMatP= 4.53D-03
 IDIUse=3 WtCom= 9.96D-01 WtEn= 3.60D-03
 Coeff-Com: -0.741D-02 0.130D-01 0.104D+00 0.207D+00 0.684D+00
 Coeff-En:   0.000D+00 0.000D+00 0.000D+00 0.000D+00 0.100D+01
 Coeff:     -0.738D-02 0.129D-01 0.104D+00 0.206D+00 0.685D+00
 Gap=     0.313 Goal=   None    Shift=    0.000
 RMSDP=3.83D-05 MaxDP=2.68D-03 DE=-3.16D-03 OVMax= 1.54D-03

 Cycle   6  Pass 1  IDiag  1:
 RMSU=  2.81D-05    CP:  9.83D-01  7.89D-01  9.74D-01  7.57D-01  8.60D-01
 E= -892.423569283692     Delta-E=       -0.000067627521 Rises=F Damp=F
 DIIS: error= 1.41D-04 at cycle   6 NSaved=   6.
 NSaved= 6 IEnMin= 6 EnMin= -892.423569283692     IErMin= 6 ErrMin= 1.41D-04
 ErrMax= 1.41D-04  0.00D+00 EMaxC= 1.00D-01 BMatC= 5.72D-06 BMatP= 9.36D-05
 IDIUse=3 WtCom= 9.99D-01 WtEn= 1.41D-03
 Coeff-Com: -0.147D-02 0.113D-02 0.215D-01 0.533D-01 0.268D+00 0.657D+00
 Coeff-En:   0.000D+00 0.000D+00 0.000D+00 0.000D+00 0.000D+00 0.100D+01
 Coeff:     -0.147D-02 0.112D-02 0.214D-01 0.532D-01 0.268D+00 0.658D+00
 Gap=     0.314 Goal=   None    Shift=    0.000
 RMSDP=1.16D-05 MaxDP=6.85D-04 DE=-6.76D-05 OVMax= 4.69D-04

 Cycle   7  Pass 1  IDiag  1:
 RMSU=  9.59D-06    CP:  9.83D-01  7.87D-01  9.74D-01  7.62D-01  8.86D-01
                    CP:  1.02D+00
 E= -892.423574353154     Delta-E=       -0.000005069462 Rises=F Damp=F
 DIIS: error= 3.00D-05 at cycle   7 NSaved=   7.
 NSaved= 7 IEnMin= 7 EnMin= -892.423574353154     IErMin= 7 ErrMin= 3.00D-05
 ErrMax= 3.00D-05  0.00D+00 EMaxC= 1.00D-01 BMatC= 3.03D-07 BMatP= 5.72D-06
 IDIUse=1 WtCom= 1.00D+00 WtEn= 0.00D+00
 Coeff-Com:  0.482D-03-0.113D-02-0.678D-02-0.112D-01-0.122D-01 0.142D+00
 Coeff-Com:  0.889D+00
 Coeff:      0.482D-03-0.113D-02-0.678D-02-0.112D-01-0.122D-01 0.142D+00
 Coeff:      0.889D+00
 Gap=     0.314 Goal=   None    Shift=    0.000
 RMSDP=5.32D-06 MaxDP=2.86D-04 DE=-5.07D-06 OVMax= 2.41D-04

 Cycle   8  Pass 1  IDiag  1:
 RMSU=  3.04D-06    CP:  9.83D-01  7.87D-01  9.74D-01  7.66D-01  9.03D-01
                    CP:  1.10D+00  1.04D+00
 E= -892.423574599708     Delta-E=       -0.000000246554 Rises=F Damp=F
 DIIS: error= 2.04D-05 at cycle   8 NSaved=   8.
 NSaved= 8 IEnMin= 8 EnMin= -892.423574599708     IErMin= 8 ErrMin= 2.04D-05
 ErrMax= 2.04D-05  0.00D+00 EMaxC= 1.00D-01 BMatC= 1.19D-07 BMatP= 3.03D-07
 IDIUse=1 WtCom= 1.00D+00 WtEn= 0.00D+00
 Coeff-Com:  0.361D-03-0.701D-03-0.529D-02-0.100D-01-0.261D-01 0.253D-01
 Coeff-Com:  0.471D+00 0.545D+00
 Coeff:      0.361D-03-0.701D-03-0.529D-02-0.100D-01-0.261D-01 0.253D-01
 Coeff:      0.471D+00 0.545D+00
 Gap=     0.314 Goal=   None    Shift=    0.000
 RMSDP=1.61D-06 MaxDP=1.24D-04 DE=-2.47D-07 OVMax= 1.04D-04

 Cycle   9  Pass 1  IDiag  1:
 RMSU=  1.13D-06    CP:  9.83D-01  7.86D-01  9.74D-01  7.66D-01  9.03D-01
                    CP:  1.10D+00  1.09D+00  8.11D-01
 E= -892.423574699967     Delta-E=       -0.000000100259 Rises=F Damp=F
 DIIS: error= 5.17D-06 at cycle   9 NSaved=   9.
 NSaved= 9 IEnMin= 9 EnMin= -892.423574699967     IErMin= 9 ErrMin= 5.17D-06
 ErrMax= 5.17D-06  0.00D+00 EMaxC= 1.00D-01 BMatC= 3.78D-09 BMatP= 1.19D-07
 IDIUse=1 WtCom= 1.00D+00 WtEn= 0.00D+00
 Coeff-Com:  0.304D-04-0.419D-04-0.634D-03-0.132D-02-0.503D-02-0.620D-02
 Coeff-Com:  0.322D-01 0.148D+00 0.834D+00
 Coeff:      0.304D-04-0.419D-04-0.634D-03-0.132D-02-0.503D-02-0.620D-02
 Coeff:      0.322D-01 0.148D+00 0.834D+00
 Gap=     0.314 Goal=   None    Shift=    0.000
 RMSDP=4.11D-07 MaxDP=2.47D-05 DE=-1.00D-07 OVMax= 2.68D-05

 Cycle  10  Pass 1  IDiag  1:
 RMSU=  2.70D-07    CP:  9.83D-01  7.86D-01  9.74D-01  7.66D-01  9.03D-01
                    CP:  1.10D+00  1.10D+00  8.90D-01  1.02D+00
 E= -892.423574703846     Delta-E=       -0.000000003879 Rises=F Damp=F
 DIIS: error= 2.81D-06 at cycle  10 NSaved=  10.
 NSaved=10 IEnMin=10 EnMin= -892.423574703846     IErMin=10 ErrMin= 2.81D-06
 ErrMax= 2.81D-06  0.00D+00 EMaxC= 1.00D-01 BMatC= 7.97D-10 BMatP= 3.78D-09
 IDIUse=1 WtCom= 1.00D+00 WtEn= 0.00D+00
 Coeff-Com: -0.182D-04 0.409D-04 0.173D-03 0.276D-03-0.203D-03-0.572D-02
 Coeff-Com: -0.292D-01 0.147D-01 0.368D+00 0.652D+00
 Coeff:     -0.182D-04 0.409D-04 0.173D-03 0.276D-03-0.203D-03-0.572D-02
 Coeff:     -0.292D-01 0.147D-01 0.368D+00 0.652D+00
 Gap=     0.314 Goal=   None    Shift=    0.000
 RMSDP=1.51D-07 MaxDP=8.35D-06 DE=-3.88D-09 OVMax= 1.57D-05

 Cycle  11  Pass 1  IDiag  1:
 RMSU=  1.23D-07    CP:  9.83D-01  7.86D-01  9.74D-01  7.66D-01  9.03D-01
                    CP:  1.11D+00  1.09D+00  9.06D-01  1.06D+00  1.08D+00
 E= -892.423574704527     Delta-E=       -0.000000000681 Rises=F Damp=F
 DIIS: error= 9.30D-07 at cycle  11 NSaved=  11.
 NSaved=11 IEnMin=11 EnMin= -892.423574704527     IErMin=11 ErrMin= 9.30D-07
 ErrMax= 9.30D-07  0.00D+00 EMaxC= 1.00D-01 BMatC= 1.45D-10 BMatP= 7.97D-10
 IDIUse=1 WtCom= 1.00D+00 WtEn= 0.00D+00
 Coeff-Com: -0.124D-04 0.256D-04 0.171D-03 0.313D-03 0.534D-03-0.199D-02
 Coeff-Com: -0.185D-01-0.153D-01 0.514D-01 0.335D+00 0.648D+00
 Coeff:     -0.124D-04 0.256D-04 0.171D-03 0.313D-03 0.534D-03-0.199D-02
 Coeff:     -0.185D-01-0.153D-01 0.514D-01 0.335D+00 0.648D+00
 Gap=     0.314 Goal=   None    Shift=    0.000
 RMSDP=6.42D-08 MaxDP=2.11D-06 DE=-6.81D-10 OVMax= 3.75D-06

 Cycle  12  Pass 1  IDiag  1:
 RMSU=  3.46D-08    CP:  9.83D-01  7.86D-01  9.74D-01  7.66D-01  9.03D-01
                    CP:  1.11D+00  1.10D+00  9.13D-01  1.09D+00  1.15D+00
                    CP:  8.56D-01
 E= -892.423574704689     Delta-E=       -0.000000000162 Rises=F Damp=F
 DIIS: error= 1.76D-07 at cycle  12 NSaved=  12.
 NSaved=12 IEnMin=12 EnMin= -892.423574704689     IErMin=12 ErrMin= 1.76D-07
 ErrMax= 1.76D-07  0.00D+00 EMaxC= 1.00D-01 BMatC= 6.98D-12 BMatP= 1.45D-10
 IDIUse=1 WtCom= 1.00D+00 WtEn= 0.00D+00
 Coeff-Com: -0.978D-06 0.176D-05 0.295D-04 0.596D-04 0.177D-03 0.134D-03
 Coeff-Com: -0.166D-02-0.674D-02-0.321D-01 0.383D-01 0.195D+00 0.807D+00
 Coeff:     -0.978D-06 0.176D-05 0.295D-04 0.596D-04 0.177D-03 0.134D-03
 Coeff:     -0.166D-02-0.674D-02-0.321D-01 0.383D-01 0.195D+00 0.807D+00
 Gap=     0.314 Goal=   None    Shift=    0.000
 RMSDP=2.22D-08 MaxDP=2.19D-06 DE=-1.62D-10 OVMax= 1.36D-06

 Cycle  13  Pass 1  IDiag  1:
 RMSU=  1.16D-08    CP:  9.83D-01  7.86D-01  9.74D-01  7.66D-01  9.03D-01
                    CP:  1.11D+00  1.10D+00  9.13D-01  1.09D+00  1.20D+00
                    CP:  9.14D-01  1.00D+00
 E= -892.423574704672     Delta-E=        0.000000000017 Rises=F Damp=F
 DIIS: error= 1.12D-07 at cycle  13 NSaved=  13.
 NSaved=13 IEnMin=12 EnMin= -892.423574704689     IErMin=13 ErrMin= 1.12D-07
 ErrMax= 1.12D-07  0.00D+00 EMaxC= 1.00D-01 BMatC= 1.08D-12 BMatP= 6.98D-12
 IDIUse=1 WtCom= 1.00D+00 WtEn= 0.00D+00
 Coeff-Com:  0.808D-06-0.169D-05-0.396D-05-0.622D-05 0.122D-04 0.222D-03
 Coeff-Com:  0.109D-02-0.955D-03-0.164D-01-0.150D-01 0.347D-02 0.318D+00
 Coeff-Com:  0.709D+00
 Coeff:      0.808D-06-0.169D-05-0.396D-05-0.622D-05 0.122D-04 0.222D-03
 Coeff:      0.109D-02-0.955D-03-0.164D-01-0.150D-01 0.347D-02 0.318D+00
 Coeff:      0.709D+00
 Gap=     0.314 Goal=   None    Shift=    0.000
 RMSDP=5.42D-09 MaxDP=2.06D-07 DE= 1.73D-11 OVMax= 6.63D-07

 SCF Done:  E(RM062X) =  -892.423574705     A.U. after   13 cycles
            NFock= 13  Conv=0.54D-08     -V/T= 2.0032
 KE= 8.895923148593D+02 PE=-3.524482613259D+03 EE= 1.032603344464D+03
 Leave Link  502 at Sun Feb 19 12:41:10 2023, MaxMem=  6710886400 cpu:             674.6 elap:              28.2
 (Enter /data0/home/software/g16/l601.exe)
 Copying SCF densities to generalized density rwf, IOpCl= 0 IROHF=0.

 **********************************************************************

            Population analysis using the SCF density.

 **********************************************************************

 Alpha  occ. eigenvalues --  -78.14396 -19.66077 -19.65747 -19.63299 -19.57286
 Alpha  occ. eigenvalues --  -14.78189 -10.60367 -10.59849 -10.58171 -10.57248
 Alpha  occ. eigenvalues --  -10.57015  -6.95151  -5.07059  -5.07020  -5.06880
 Alpha  occ. eigenvalues --   -1.21442  -1.14358  -1.12657  -1.07466  -1.07364
 Alpha  occ. eigenvalues --   -0.92428  -0.87878  -0.73640  -0.73082  -0.70119
 Alpha  occ. eigenvalues --   -0.63613  -0.62735  -0.59482  -0.57047  -0.55975
 Alpha  occ. eigenvalues --   -0.53556  -0.52969  -0.51522  -0.50333  -0.49251
 Alpha  occ. eigenvalues --   -0.48161  -0.45723  -0.44912  -0.44318  -0.43486
 Alpha  occ. eigenvalues --   -0.40310  -0.37141  -0.36710  -0.36467  -0.35695
 Alpha  occ. eigenvalues --   -0.33530
 Alpha virt. eigenvalues --   -0.02162  -0.00652  -0.00178   0.00614   0.02070
 Alpha virt. eigenvalues --    0.02795   0.03101   0.04416   0.05188   0.05528
 Alpha virt. eigenvalues --    0.06414   0.07170   0.08586   0.08957   0.09044
 Alpha virt. eigenvalues --    0.10213   0.12353   0.12575   0.12797   0.13387
 Alpha virt. eigenvalues --    0.14037   0.14223   0.14787   0.16033   0.16649
 Alpha virt. eigenvalues --    0.17233   0.17627   0.18220   0.18586   0.18887
 Alpha virt. eigenvalues --    0.19907   0.20487   0.20729   0.20874   0.21493
 Alpha virt. eigenvalues --    0.22036   0.22758   0.22990   0.23606   0.24505
 Alpha virt. eigenvalues --    0.24729   0.25347   0.26111   0.27270   0.28090
 Alpha virt. eigenvalues --    0.28522   0.28978   0.29197   0.30340   0.31158
 Alpha virt. eigenvalues --    0.31202   0.31911   0.32748   0.33304   0.33386
 Alpha virt. eigenvalues --    0.34284   0.34800   0.35001   0.37446   0.38252
 Alpha virt. eigenvalues --    0.38491   0.40572   0.41681   0.43884   0.44762
 Alpha virt. eigenvalues --    0.46686   0.48103   0.49269   0.50346   0.50860
 Alpha virt. eigenvalues --    0.52003   0.52681   0.53458   0.54380   0.55250
 Alpha virt. eigenvalues --    0.55938   0.58107   0.59030   0.60723   0.61098
 Alpha virt. eigenvalues --    0.63841   0.63950   0.65341   0.65905   0.67041
 Alpha virt. eigenvalues --    0.68170   0.69748   0.71610   0.72973   0.74460
 Alpha virt. eigenvalues --    0.75938   0.77917   0.78503   0.79270   0.79650
 Alpha virt. eigenvalues --    0.80541   0.81454   0.82729   0.83105   0.83711
 Alpha virt. eigenvalues --    0.84574   0.86419   0.88498   0.89459   0.89491
 Alpha virt. eigenvalues --    0.90750   0.92231   0.93169   0.94539   1.01093
 Alpha virt. eigenvalues --    1.03272   1.06336   1.07090   1.09221   1.10215
 Alpha virt. eigenvalues --    1.12453   1.15007   1.15288   1.17079   1.17626
 Alpha virt. eigenvalues --    1.19167   1.19784   1.20172   1.21608   1.22186
 Alpha virt. eigenvalues --    1.24159   1.25747   1.26742   1.28000   1.28628
 Alpha virt. eigenvalues --    1.29837   1.31819   1.33635   1.34493   1.35311
 Alpha virt. eigenvalues --    1.36891   1.37011   1.37610   1.38740   1.41750
 Alpha virt. eigenvalues --    1.44081   1.44821   1.47445   1.48438   1.49222
 Alpha virt. eigenvalues --    1.51030   1.51318   1.52411   1.53999   1.57022
 Alpha virt. eigenvalues --    1.57263   1.59296   1.61452   1.62585   1.64230
 Alpha virt. eigenvalues --    1.64779   1.66688   1.67347   1.70532   1.71381
 Alpha virt. eigenvalues --    1.72455   1.75769   1.77757   1.82269   1.82799
 Alpha virt. eigenvalues --    1.83312   1.85566   1.88273   1.89288   1.92219
 Alpha virt. eigenvalues --    1.92763   1.96373   1.99480   2.01208   2.02424
 Alpha virt. eigenvalues --    2.04353   2.07394   2.11038   2.12594   2.12829
 Alpha virt. eigenvalues --    2.16318   2.17663   2.19267   2.25246   2.26367
 Alpha virt. eigenvalues --    2.30788   2.32437   2.39205   2.40907   2.42052
 Alpha virt. eigenvalues --    2.47175   2.50540   2.52679   2.54588   2.62094
 Alpha virt. eigenvalues --    2.63355   2.64540   2.67169   2.69122   2.70505
 Alpha virt. eigenvalues --    2.74294   2.75404   2.75912   2.78170   2.81164
 Alpha virt. eigenvalues --    2.82639   2.84796   2.85145   2.86142   2.86870
 Alpha virt. eigenvalues --    2.88603   2.91504   2.95882   3.00223   3.02528
 Alpha virt. eigenvalues --    3.06691   3.07492   3.11119   3.12658   3.13181
 Alpha virt. eigenvalues --    3.21695   3.22616   3.27357   3.28069   3.28994
 Alpha virt. eigenvalues --    3.31623   3.35575   3.41002   3.44442   3.45961
 Alpha virt. eigenvalues --    3.54503   3.54880   3.55409   3.56329   3.57205
 Alpha virt. eigenvalues --    3.58147   3.64140   3.68257   3.72081   3.73229
 Alpha virt. eigenvalues --    3.75438   3.80030   3.83286   3.86612   3.91797
 Alpha virt. eigenvalues --    3.94991   3.95443   3.98917   4.01951   4.47740
 Alpha virt. eigenvalues --    4.49670   4.54709   4.80988   4.94531   4.97576
 Alpha virt. eigenvalues --    5.02104   5.06833   5.09815   5.10628   5.13053
 Alpha virt. eigenvalues --    5.14034   5.15445   5.20038   5.22470   5.24499
 Alpha virt. eigenvalues --    5.27804   5.37524   5.49680   5.51681   5.54861
 Alpha virt. eigenvalues --    5.59288   5.83828   6.75507   6.77652   6.77786
 Alpha virt. eigenvalues --    6.79884   6.81562   6.82780   6.85768   6.87719
 Alpha virt. eigenvalues --    6.91711   6.98657   6.98809   7.02143   7.02877
 Alpha virt. eigenvalues --    7.10057   7.16075   7.24228   7.29889   7.31549
 Alpha virt. eigenvalues --    7.39479   7.42393   7.68124  14.24999  14.29031
 Alpha virt. eigenvalues --   14.38757  23.82457  24.04078  24.05114  24.08685
 Alpha virt. eigenvalues --   24.12454  35.72380  50.02794  50.03585  50.07689
 Alpha virt. eigenvalues --   50.11892 163.91426
          Condensed to atoms (all electrons):
               1          2          3          4          5          6
     1  C    7.135306  -1.345464   0.140705  -0.009517  -0.453489   0.267649
     2  C   -1.345464   6.723157   0.217370   0.142476  -0.165492   0.096304
     3  C    0.140705   0.217370   5.076378   0.319774   0.231162  -0.112311
     4  C   -0.009517   0.142476   0.319774   5.561271  -0.456282   0.109054
     5  C   -0.453489  -0.165492   0.231162  -0.456282   6.425236   0.172117
     6  N    0.267649   0.096304  -0.112311   0.109054   0.172117   6.777084
     7  H   -0.002489  -0.010251   0.372637  -0.013058  -0.001916   0.000400
     8  H    0.432349  -0.055089   0.010305  -0.007054   0.011470  -0.049987
     9  H   -0.009465   0.372349  -0.029046   0.004429  -0.000970   0.007091
    10  H   -0.003696   0.007646  -0.023908   0.376829  -0.020106   0.007775
    11  H    0.011120  -0.008446   0.017184  -0.060998   0.442765  -0.059005
    12  P    0.037567  -0.029470  -0.000547   0.004802  -0.015868  -0.003558
    13  O    0.009049   0.000970  -0.005685   0.000698   0.009753  -0.010677
    14  O   -0.003838  -0.002173  -0.000101   0.000109   0.000744  -0.000503
    15  H    0.000711   0.000453  -0.000030   0.000082  -0.000521   0.000018
    16  O   -0.001572  -0.030862   0.000920  -0.010386   0.009419   0.021301
    17  H   -0.019745   0.021671  -0.005801   0.031119  -0.031052   0.050571
    18  O   -0.011166   0.007895   0.000016  -0.001457   0.005988  -0.002459
    19  H    0.001166   0.000463   0.000072   0.000033  -0.000192  -0.000980
               7          8          9         10         11         12
     1  C   -0.002489   0.432349  -0.009465  -0.003696   0.011120   0.037567
     2  C   -0.010251  -0.055089   0.372349   0.007646  -0.008446  -0.029470
     3  C    0.372637   0.010305  -0.029046  -0.023908   0.017184  -0.000547
     4  C   -0.013058  -0.007054   0.004429   0.376829  -0.060998   0.004802
     5  C   -0.001916   0.011470  -0.000970  -0.020106   0.442765  -0.015868
     6  N    0.000400  -0.049987   0.007091   0.007775  -0.059005  -0.003558
     7  H    0.525342  -0.000217  -0.004712  -0.004526  -0.000266   0.000007
     8  H   -0.000217   0.463416  -0.001997   0.000071  -0.000106   0.000548
     9  H   -0.004712  -0.001997   0.520944  -0.000187   0.000082   0.000054
    10  H   -0.004526   0.000071  -0.000187   0.524333  -0.002686  -0.000015
    11  H   -0.000266  -0.000106   0.000082  -0.002686   0.519755  -0.000145
    12  P    0.000007   0.000548   0.000054  -0.000015  -0.000145  12.528766
    13  O   -0.000000   0.000265   0.000049  -0.000001   0.000060   0.519433
    14  O   -0.000000   0.000101  -0.000000   0.000000   0.000007   0.191510
    15  H    0.000000   0.000014  -0.000000  -0.000000  -0.000001   0.025082
    16  O   -0.000008   0.001887   0.000060   0.000049   0.002140   0.301618
    17  H    0.000015  -0.000365  -0.000056  -0.000053  -0.001803  -0.001708
    18  O    0.000000  -0.000180   0.000001   0.000000  -0.000013   0.276118
    19  H    0.000000  -0.000033  -0.000000  -0.000000  -0.000003   0.002944
              13         14         15         16         17         18
     1  C    0.009049  -0.003838   0.000711  -0.001572  -0.019745  -0.011166
     2  C    0.000970  -0.002173   0.000453  -0.030862   0.021671   0.007895
     3  C   -0.005685  -0.000101  -0.000030   0.000920  -0.005801   0.000016
     4  C    0.000698   0.000109   0.000082  -0.010386   0.031119  -0.001457
     5  C    0.009753   0.000744  -0.000521   0.009419  -0.031052   0.005988
     6  N   -0.010677  -0.000503   0.000018   0.021301   0.050571  -0.002459
     7  H   -0.000000  -0.000000   0.000000  -0.000008   0.000015   0.000000
     8  H    0.000265   0.000101   0.000014   0.001887  -0.000365  -0.000180
     9  H    0.000049  -0.000000  -0.000000   0.000060  -0.000056   0.000001
    10  H   -0.000001   0.000000  -0.000000   0.000049  -0.000053   0.000000
    11  H    0.000060   0.000007  -0.000001   0.002140  -0.001803  -0.000013
    12  P    0.519433   0.191510   0.025082   0.301618  -0.001708   0.276118
    13  O    8.194962   0.004442   0.000339  -0.071322   0.008366  -0.017421
    14  O    0.004442   8.060507   0.230801   0.005558   0.002681  -0.000633
    15  H    0.000339   0.230801   0.450384  -0.008583   0.000317  -0.014480
    16  O   -0.071322   0.005558  -0.008583   8.217735   0.213620  -0.019923
    17  H    0.008366   0.002681   0.000317   0.213620   0.259120   0.005388
    18  O   -0.017421  -0.000633  -0.014480  -0.019923   0.005388   8.038479
    19  H   -0.022095  -0.003340   0.000252   0.002590   0.002114   0.255608
              19
     1  C    0.001166
     2  C    0.000463
     3  C    0.000072
     4  C    0.000033
     5  C   -0.000192
     6  N   -0.000980
     7  H    0.000000
     8  H   -0.000033
     9  H   -0.000000
    10  H   -0.000000
    11  H   -0.000003
    12  P    0.002944
    13  O   -0.022095
    14  O   -0.003340
    15  H    0.000252
    16  O    0.002590
    17  H    0.002114
    18  O    0.255608
    19  H    0.443459
 Mulliken charges:
               1
     1  C   -0.175183
     2  C    0.056492
     3  C   -0.209093
     4  C    0.008076
     5  C   -0.162765
     6  N   -0.269883
     7  H    0.139042
     8  H    0.194602
     9  H    0.141375
    10  H    0.138475
    11  H    0.140359
    12  P    1.162860
    13  O   -0.621187
    14  O   -0.485872
    15  H    0.315161
    16  O   -0.634241
    17  H    0.465602
    18  O   -0.521761
    19  H    0.317942
 Sum of Mulliken charges =  -0.00000
 Mulliken charges with hydrogens summed into heavy atoms:
               1
     1  C    0.019420
     2  C    0.197867
     3  C   -0.070051
     4  C    0.146550
     5  C   -0.022407
     6  N   -0.269883
    12  P    1.162860
    13  O   -0.621187
    14  O   -0.170711
    16  O   -0.168639
    18  O   -0.203819
         Mulliken charges condensed to fragments:
      1      0.001496
      2     -0.001496
 Electronic spatial extent (au):  <R**2>=         103436.9985
 Charge=              0.0000 electrons
 Dipole moment (field-independent basis, Debye):
    X=             -0.0738    Y=             -3.0970    Z=              2.8397  Tot=              4.2025
 Quadrupole moment (field-independent basis, Debye-Ang):
   XX=            -66.1934   YY=           -137.3243   ZZ=            -16.2735
   XY=             -1.2147   XZ=              5.5820   YZ=             11.0493
 Traceless Quadrupole moment (field-independent basis, Debye-Ang):
   XX=              7.0703   YY=            -64.0605   ZZ=             56.9902
   XY=             -1.2147   XZ=              5.5820   YZ=             11.0493
 Octapole moment (field-independent basis, Debye-Ang**2):
  XXX=           -547.9150  YYY=          -3918.3676  ZZZ=          -1348.5775  XYY=           -176.7311
  XXY=           -869.6081  XXZ=           -661.2845  XZZ=           -116.6356  YZZ=           -504.4107
  YYZ=           -743.3792  XYZ=             91.9887
 Hexadecapole moment (field-independent basis, Debye-Ang**3):
 XXXX=          -3535.7261 YYYY=         -94040.8483 ZZZZ=         -33352.7820 XXXY=          -7687.3097
 XXXZ=          -5445.5733 YYYX=          -7175.2905 YYYZ=         -29354.3754 ZZZX=          -5149.3508
 ZZZY=         -21422.0247 XXYY=         -12374.5249 XXZZ=          -7560.6637 YYZZ=         -16309.4554
 XXYZ=          -8553.6756 YYXZ=            -38.9269 ZZXY=          -1525.1773
 N-N= 7.098633792311D+02 E-N=-3.524482618547D+03  KE= 8.895923148593D+02
 No NMR shielding tensors so no spin-rotation constants.
 Leave Link  601 at Sun Feb 19 12:41:10 2023, MaxMem=  6710886400 cpu:               2.5 elap:               0.1
 (Enter /data0/home/software/g16/l122.exe)
 CPIOFr:  IOpCl= 0 IRwI=-1 IRwCP=  731 ICalc= -1 LCPTot=      192217 Len1MO=      505607 IndFrg=      192217
 CPIOFr:  IOpCl= 0 IRwI=-1 IRwCP=  731 ICalc=  0 LCPTot=      192217 Len1MO=      505607 IndFrg=      697824
 Counterpoise: doing calculation for fragment   1 using the basis set of the full-system, NewBq=T
 Leave Link  122 at Sun Feb 19 12:41:10 2023, MaxMem=  6710886400 cpu:               0.3 elap:               0.0
 (Enter /data0/home/software/g16/l301.exe)
 Basis read from rwf:  (5D, 7F)
 No pseudopotential information found on rwf file.
   353 basis functions,   540 primitive gaussians,   375 cartesian basis functions
    21 alpha electrons       21 beta electrons
       nuclear repulsion energy       205.2262621189 Hartrees.
 IExCor= 4336 DFT=T Ex+Corr=M062X ExCW=0 ScaHFX=  0.540000
 ScaDFX=  1.000000  1.000000  1.000000  1.000000 ScalE2=  1.000000  1.000000
 IRadAn=      5 IRanWt=     -1 IRanGd=            0 ICorTp=0 IEmpDi=131
 NAtoms=   19 NActive=   19 NUniq=   19 SFac= 1.00D+00 NAtFMM=   60 NAOKFM=F Big=F
 Integral buffers will be    131072 words long.
 Raffenetti 2 integral format.
 Two-electron integral symmetry is turned off.
 R6Disp:  Grimme-D3 Dispersion energy=       -0.0000989718 Hartrees.
 Nuclear repulsion after empirical dispersion term =      205.2261631471 Hartrees.
 No density basis found on file   718.
 Leave Link  301 at Sun Feb 19 12:41:10 2023, MaxMem=  6710886400 cpu:               1.2 elap:               0.1
 (Enter /data0/home/software/g16/l302.exe)
 NPDir=0 NMtPBC=     1 NCelOv=     1 NCel=       1 NClECP=     1 NCelD=      1
         NCelK=      1 NCelE2=     1 NClLst=     1 CellRange=     0.0.
 One-electron integrals computed using PRISM.
 NBasis=   353 RedAO= T EigKep=  9.39D-06  NBF=   353
 NBsUse=   353 1.00D-06 EigRej= -1.00D+00 NBFU=   353
 Precomputing XC quadrature grid using
 IXCGrd= 4 IRadAn=           5 IRanWt=          -1 IRanGd=           0 AccXCQ= 0.00D+00.
 Generated NRdTot=       0 NPtTot=           0 NUsed=           0 NTot=          32
 NSgBfM=   375   375   375   375   375 MxSgAt=    19 MxSgA2=    19.
 Leave Link  302 at Sun Feb 19 12:41:11 2023, MaxMem=  6710886400 cpu:               5.8 elap:               0.3
 (Enter /data0/home/software/g16/l303.exe)
 DipDrv:  MaxL=1.
 Leave Link  303 at Sun Feb 19 12:41:11 2023, MaxMem=  6710886400 cpu:               0.8 elap:               0.1
 (Enter /data0/home/software/g16/l401.exe)
 ExpMin= 3.48D-02 ExpMax= 7.75D+04 ExpMxC= 2.65D+03 IAcc=3 IRadAn=         5 AccDes= 0.00D+00
 Harris functional with IExCor= 1009 and IRadAn=       5 diagonalized for initial guess.
 HarFok:  IExCor= 1009 AccDes= 0.00D+00 IRadAn=         5 IDoV= 1 UseB2=F ITyADJ=14
 ICtDFT=  3500011 ScaDFX=  1.000000  1.000000  1.000000  1.000000
 FoFCou: FMM=F IPFlag=           0 FMFlag=      100000 FMFlg1=           0
         NFxFlg=           0 DoJE=T BraDBF=F KetDBF=T FulRan=T
         wScrn=  0.000000 ICntrl=       500 IOpCl=  0 I1Cent=   200000004 NGrid=           0
         NMat0=    1 NMatS0=      1 NMatT0=    0 NMatD0=    1 NMtDS0=    0 NMtDT0=    0
 Symmetry not used in FoFCou.
 Harris En= -248.119096053907    
 JPrj=0 DoOrth=F DoCkMO=F.
 Leave Link  401 at Sun Feb 19 12:41:12 2023, MaxMem=  6710886400 cpu:              19.4 elap:               0.8
 (Enter /data0/home/software/g16/l502.exe)
 Two-electron integral symmetry not used.
 Closed shell SCF:
 Using DIIS extrapolation, IDIIS=  1040.
 NGot=  6710886400 LenX=  6710593514 LenY=  6710452448
 Requested convergence on RMS density matrix=1.00D-08 within 128 cycles.
 Requested convergence on MAX density matrix=1.00D-06.
 Requested convergence on             energy=1.00D-06.
 No special actions if energy rises.
 Fock matrices will be formed incrementally for  20 cycles.

 Cycle   1  Pass 1  IDiag  1:
 FoFJK:  IHMeth= 1 ICntrl=       0 DoSepK=F KAlg= 0 I1Cent=           0 FoldK=F
 IRaf= 850000000 NMat=       1 IRICut=       1 DoRegI=T DoRafI=F ISym2E= 0 IDoP0=0 IntGTp=1.
 FoFCou: FMM=F IPFlag=           0 FMFlag=      100000 FMFlg1=           0
         NFxFlg=           0 DoJE=F BraDBF=F KetDBF=F FulRan=T
         wScrn=  0.000000 ICntrl=         0 IOpCl=  0 I1Cent=           0 NGrid=           0
         NMat0=    1 NMatS0=      1 NMatT0=    0 NMatD0=    1 NMtDS0=    0 NMtDT0=    0
 Symmetry not used in FoFCou.
 E= -248.122017598545    
 DIIS: error= 2.67D-02 at cycle   1 NSaved=   1.
 NSaved= 1 IEnMin= 1 EnMin= -248.122017598545     IErMin= 1 ErrMin= 2.67D-02
 ErrMax= 2.67D-02  0.00D+00 EMaxC= 1.00D-01 BMatC= 1.51D-01 BMatP= 1.51D-01
 IDIUse=3 WtCom= 7.33D-01 WtEn= 2.67D-01
 Coeff-Com:  0.100D+01
 Coeff-En:   0.100D+01
 Coeff:      0.100D+01
 Gap=     0.340 Goal=   None    Shift=    0.000
 GapD=    0.340 DampG=1.000 DampE=0.500 DampFc=0.5000 IDamp=-1.
 Damping current iteration by 5.00D-01
 RMSDP=2.68D-03 MaxDP=1.67D-01              OVMax= 1.39D-01

 Cycle   2  Pass 1  IDiag  1:
 RMSU=  1.34D-03    CP:  1.00D+00
 E= -248.185936093766     Delta-E=       -0.063918495221 Rises=F Damp=T
 DIIS: error= 9.17D-03 at cycle   2 NSaved=   2.
 NSaved= 2 IEnMin= 2 EnMin= -248.185936093766     IErMin= 2 ErrMin= 9.17D-03
 ErrMax= 9.17D-03  0.00D+00 EMaxC= 1.00D-01 BMatC= 1.47D-02 BMatP= 1.51D-01
 IDIUse=3 WtCom= 9.08D-01 WtEn= 9.17D-02
 Coeff-Com: -0.223D+00 0.122D+01
 Coeff-En:   0.000D+00 0.100D+01
 Coeff:     -0.203D+00 0.120D+01
 Gap=     0.337 Goal=   None    Shift=    0.000
 RMSDP=1.00D-03 MaxDP=7.11D-02 DE=-6.39D-02 OVMax= 7.64D-02

 Cycle   3  Pass 1  IDiag  1:
 RMSU=  9.50D-04    CP:  9.57D-01  1.06D+00
 E= -248.242403699232     Delta-E=       -0.056467605466 Rises=F Damp=F
 DIIS: error= 4.54D-03 at cycle   3 NSaved=   3.
 NSaved= 3 IEnMin= 3 EnMin= -248.242403699232     IErMin= 3 ErrMin= 4.54D-03
 ErrMax= 4.54D-03  0.00D+00 EMaxC= 1.00D-01 BMatC= 2.60D-03 BMatP= 1.47D-02
 IDIUse=3 WtCom= 9.55D-01 WtEn= 4.54D-02
 Coeff-Com: -0.132D+00 0.393D+00 0.740D+00
 Coeff-En:   0.000D+00 0.000D+00 0.100D+01
 Coeff:     -0.126D+00 0.375D+00 0.752D+00
 Gap=     0.324 Goal=   None    Shift=    0.000
 RMSDP=2.26D-04 MaxDP=2.16D-02 DE=-5.65D-02 OVMax= 2.29D-02

 Cycle   4  Pass 1  IDiag  1:
 RMSU=  2.03D-04    CP:  9.46D-01  1.01D+00  1.03D+00
 E= -248.244644819114     Delta-E=       -0.002241119882 Rises=F Damp=F
 DIIS: error= 2.15D-03 at cycle   4 NSaved=   4.
 NSaved= 4 IEnMin= 4 EnMin= -248.244644819114     IErMin= 4 ErrMin= 2.15D-03
 ErrMax= 2.15D-03  0.00D+00 EMaxC= 1.00D-01 BMatC= 2.69D-04 BMatP= 2.60D-03
 IDIUse=3 WtCom= 9.79D-01 WtEn= 2.15D-02
 Coeff-Com: -0.452D-01 0.112D+00 0.320D+00 0.613D+00
 Coeff-En:   0.000D+00 0.000D+00 0.000D+00 0.100D+01
 Coeff:     -0.442D-01 0.110D+00 0.313D+00 0.621D+00
 Gap=     0.317 Goal=   None    Shift=    0.000
 RMSDP=6.54D-05 MaxDP=4.27D-03 DE=-2.24D-03 OVMax= 9.01D-03

 Cycle   5  Pass 1  IDiag  1:
 RMSU=  4.32D-05    CP:  9.49D-01  1.02D+00  1.00D+00  8.13D-01
 E= -248.244886790956     Delta-E=       -0.000241971843 Rises=F Damp=F
 DIIS: error= 8.00D-04 at cycle   5 NSaved=   5.
 NSaved= 5 IEnMin= 5 EnMin= -248.244886790956     IErMin= 5 ErrMin= 8.00D-04
 ErrMax= 8.00D-04  0.00D+00 EMaxC= 1.00D-01 BMatC= 3.81D-05 BMatP= 2.69D-04
 IDIUse=3 WtCom= 9.92D-01 WtEn= 8.00D-03
 Coeff-Com: -0.116D-01 0.234D-01 0.951D-01 0.319D+00 0.574D+00
 Coeff-En:   0.000D+00 0.000D+00 0.000D+00 0.692D-01 0.931D+00
 Coeff:     -0.115D-01 0.232D-01 0.943D-01 0.317D+00 0.577D+00
 Gap=     0.317 Goal=   None    Shift=    0.000
 RMSDP=3.21D-05 MaxDP=1.29D-03 DE=-2.42D-04 OVMax= 2.51D-03

 Cycle   6  Pass 1  IDiag  1:
 RMSU=  2.03D-05    CP:  9.48D-01  1.01D+00  1.01D+00  8.30D-01  7.36D-01
 E= -248.244925302539     Delta-E=       -0.000038511583 Rises=F Damp=F
 DIIS: error= 1.28D-04 at cycle   6 NSaved=   6.
 NSaved= 6 IEnMin= 6 EnMin= -248.244925302539     IErMin= 6 ErrMin= 1.28D-04
 ErrMax= 1.28D-04  0.00D+00 EMaxC= 1.00D-01 BMatC= 1.72D-06 BMatP= 3.81D-05
 IDIUse=3 WtCom= 9.99D-01 WtEn= 1.28D-03
 Coeff-Com: -0.363D-02 0.666D-02 0.320D-01 0.122D+00 0.270D+00 0.573D+00
 Coeff-En:   0.000D+00 0.000D+00 0.000D+00 0.000D+00 0.000D+00 0.100D+01
 Coeff:     -0.363D-02 0.665D-02 0.320D-01 0.122D+00 0.270D+00 0.574D+00
 Gap=     0.317 Goal=   None    Shift=    0.000
 RMSDP=4.34D-06 MaxDP=2.43D-04 DE=-3.85D-05 OVMax= 6.11D-04

 Cycle   7  Pass 1  IDiag  1:
 RMSU=  3.59D-06    CP:  9.48D-01  1.01D+00  1.01D+00  8.25D-01  7.76D-01
                    CP:  1.04D+00
 E= -248.244926749777     Delta-E=       -0.000001447238 Rises=F Damp=F
 DIIS: error= 2.61D-05 at cycle   7 NSaved=   7.
 NSaved= 7 IEnMin= 7 EnMin= -248.244926749777     IErMin= 7 ErrMin= 2.61D-05
 ErrMax= 2.61D-05  0.00D+00 EMaxC= 1.00D-01 BMatC= 1.85D-07 BMatP= 1.72D-06
 IDIUse=1 WtCom= 1.00D+00 WtEn= 0.00D+00
 Coeff-Com:  0.148D-02-0.324D-02-0.104D-01-0.314D-01-0.321D-01 0.226D+00
 Coeff-Com:  0.850D+00
 Coeff:      0.148D-02-0.324D-02-0.104D-01-0.314D-01-0.321D-01 0.226D+00
 Coeff:      0.850D+00
 Gap=     0.317 Goal=   None    Shift=    0.000
 RMSDP=4.49D-06 MaxDP=1.91D-04 DE=-1.45D-06 OVMax= 1.28D-04

 Cycle   8  Pass 1  IDiag  1:
 RMSU=  1.14D-06    CP:  9.48D-01  1.01D+00  1.02D+00  8.27D-01  7.87D-01
                    CP:  1.17D+00  9.49D-01
 E= -248.244926918454     Delta-E=       -0.000000168677 Rises=F Damp=F
 DIIS: error= 4.32D-06 at cycle   8 NSaved=   8.
 NSaved= 8 IEnMin= 8 EnMin= -248.244926918454     IErMin= 8 ErrMin= 4.32D-06
 ErrMax= 4.32D-06  0.00D+00 EMaxC= 1.00D-01 BMatC= 3.46D-09 BMatP= 1.85D-07
 IDIUse=1 WtCom= 1.00D+00 WtEn= 0.00D+00
 Coeff-Com:  0.377D-03-0.812D-03-0.280D-02-0.952D-02-0.141D-01 0.379D-01
 Coeff-Com:  0.134D+00 0.855D+00
 Coeff:      0.377D-03-0.812D-03-0.280D-02-0.952D-02-0.141D-01 0.379D-01
 Coeff:      0.134D+00 0.855D+00
 Gap=     0.317 Goal=   None    Shift=    0.000
 RMSDP=3.50D-07 MaxDP=1.65D-05 DE=-1.69D-07 OVMax= 2.38D-05

 Cycle   9  Pass 1  IDiag  1:
 RMSU=  2.22D-07    CP:  9.48D-01  1.01D+00  1.02D+00  8.27D-01  7.87D-01
                    CP:  1.18D+00  9.55D-01  1.11D+00
 E= -248.244926921887     Delta-E=       -0.000000003433 Rises=F Damp=F
 DIIS: error= 2.83D-06 at cycle   9 NSaved=   9.
 NSaved= 9 IEnMin= 9 EnMin= -248.244926921887     IErMin= 9 ErrMin= 2.83D-06
 ErrMax= 2.83D-06  0.00D+00 EMaxC= 1.00D-01 BMatC= 1.06D-09 BMatP= 3.46D-09
 IDIUse=1 WtCom= 1.00D+00 WtEn= 0.00D+00
 Coeff-Com: -0.721D-04 0.161D-03 0.485D-03 0.766D-03-0.740D-03-0.105D-01
 Coeff-Com: -0.714D-01 0.364D+00 0.718D+00
 Coeff:     -0.721D-04 0.161D-03 0.485D-03 0.766D-03-0.740D-03-0.105D-01
 Coeff:     -0.714D-01 0.364D+00 0.718D+00
 Gap=     0.317 Goal=   None    Shift=    0.000
 RMSDP=1.30D-07 MaxDP=4.24D-06 DE=-3.43D-09 OVMax= 1.86D-05

 Cycle  10  Pass 1  IDiag  1:
 RMSU=  9.15D-08    CP:  9.48D-01  1.01D+00  1.02D+00  8.26D-01  7.86D-01
                    CP:  1.18D+00  9.50D-01  1.17D+00  1.05D+00
 E= -248.244926923207     Delta-E=       -0.000000001320 Rises=F Damp=F
 DIIS: error= 5.39D-07 at cycle  10 NSaved=  10.
 NSaved=10 IEnMin=10 EnMin= -248.244926923207     IErMin=10 ErrMin= 5.39D-07
 ErrMax= 5.39D-07  0.00D+00 EMaxC= 1.00D-01 BMatC= 7.03D-11 BMatP= 1.06D-09
 IDIUse=1 WtCom= 1.00D+00 WtEn= 0.00D+00
 Coeff-Com: -0.149D-04 0.344D-04 0.155D-03 0.343D-03 0.636D-03-0.414D-04
 Coeff-Com: -0.975D-02-0.951D-01 0.604D-01 0.104D+01
 Coeff:     -0.149D-04 0.344D-04 0.155D-03 0.343D-03 0.636D-03-0.414D-04
 Coeff:     -0.975D-02-0.951D-01 0.604D-01 0.104D+01
 Gap=     0.317 Goal=   None    Shift=    0.000
 RMSDP=4.74D-08 MaxDP=2.03D-06 DE=-1.32D-09 OVMax= 5.60D-06

 Cycle  11  Pass 1  IDiag  1:
 RMSU=  2.93D-08    CP:  9.48D-01  1.01D+00  1.02D+00  8.26D-01  7.86D-01
                    CP:  1.18D+00  9.48D-01  1.19D+00  1.17D+00  1.13D+00
 E= -248.244926923282     Delta-E=       -0.000000000075 Rises=F Damp=F
 DIIS: error= 3.89D-07 at cycle  11 NSaved=  11.
 NSaved=11 IEnMin=11 EnMin= -248.244926923282     IErMin=11 ErrMin= 3.89D-07
 ErrMax= 3.89D-07  0.00D+00 EMaxC= 1.00D-01 BMatC= 1.24D-11 BMatP= 7.03D-11
 IDIUse=1 WtCom= 1.00D+00 WtEn= 0.00D+00
 Coeff-Com: -0.230D-05 0.600D-05 0.498D-04 0.128D-03 0.403D-03 0.973D-03
 Coeff-Com: -0.227D-03-0.845D-01-0.151D-01 0.572D+00 0.526D+00
 Coeff:     -0.230D-05 0.600D-05 0.498D-04 0.128D-03 0.403D-03 0.973D-03
 Coeff:     -0.227D-03-0.845D-01-0.151D-01 0.572D+00 0.526D+00
 Gap=     0.317 Goal=   None    Shift=    0.000
 RMSDP=1.08D-08 MaxDP=5.74D-07 DE=-7.47D-11 OVMax= 1.72D-06

 Cycle  12  Pass 1  IDiag  1:
 RMSU=  9.80D-09    CP:  9.48D-01  1.01D+00  1.02D+00  8.26D-01  7.86D-01
                    CP:  1.18D+00  9.48D-01  1.19D+00  1.18D+00  1.16D+00
                    CP:  1.04D+00
 E= -248.244926923299     Delta-E=       -0.000000000018 Rises=F Damp=F
 DIIS: error= 6.87D-08 at cycle  12 NSaved=  12.
 NSaved=12 IEnMin=12 EnMin= -248.244926923299     IErMin=12 ErrMin= 6.87D-08
 ErrMax= 6.87D-08  0.00D+00 EMaxC= 1.00D-01 BMatC= 4.21D-13 BMatP= 1.24D-11
 IDIUse=1 WtCom= 1.00D+00 WtEn= 0.00D+00
 Coeff-Com:  0.155D-05-0.330D-05-0.663D-05-0.868D-05 0.241D-04 0.385D-03
 Coeff-Com:  0.116D-02-0.939D-02-0.665D-02-0.364D-02 0.133D+00 0.885D+00
 Coeff:      0.155D-05-0.330D-05-0.663D-05-0.868D-05 0.241D-04 0.385D-03
 Coeff:      0.116D-02-0.939D-02-0.665D-02-0.364D-02 0.133D+00 0.885D+00
 Gap=     0.317 Goal=   None    Shift=    0.000
 RMSDP=4.06D-09 MaxDP=2.06D-07 DE=-1.78D-11 OVMax= 3.97D-07

 SCF Done:  E(RM062X) =  -248.244926923     A.U. after   12 cycles
            NFock= 12  Conv=0.41D-08     -V/T= 2.0048
 KE= 2.470600892359D+02 PE=-9.869249388565D+02 EE= 2.863937595501D+02
 Leave Link  502 at Sun Feb 19 12:41:38 2023, MaxMem=  6710886400 cpu:             620.9 elap:              26.0
 (Enter /data0/home/software/g16/l601.exe)
 Copying SCF densities to generalized density rwf, IOpCl= 0 IROHF=0.

 **********************************************************************

            Population analysis using the SCF density.

 **********************************************************************

 Alpha  occ. eigenvalues --  -14.75052 -10.58410 -10.58327 -10.56651 -10.55701
 Alpha  occ. eigenvalues --  -10.55696  -1.04982  -0.90685  -0.86239  -0.71805
 Alpha  occ. eigenvalues --   -0.71447  -0.60850  -0.55192  -0.54680  -0.50119
 Alpha  occ. eigenvalues --   -0.47394  -0.47250  -0.43067  -0.34787  -0.32535
 Alpha  occ. eigenvalues --   -0.32090
 Alpha virt. eigenvalues --   -0.00351   0.00689   0.00887   0.02183   0.02560
 Alpha virt. eigenvalues --    0.04147   0.04398   0.04652   0.06236   0.06926
 Alpha virt. eigenvalues --    0.07348   0.07735   0.09201   0.09574   0.10645
 Alpha virt. eigenvalues --    0.11209   0.13271   0.13482   0.13534   0.14119
 Alpha virt. eigenvalues --    0.14621   0.14852   0.15809   0.17590   0.18778
 Alpha virt. eigenvalues --    0.18996   0.19387   0.19990   0.20488   0.20772
 Alpha virt. eigenvalues --    0.21312   0.22063   0.22564   0.22710   0.23395
 Alpha virt. eigenvalues --    0.24509   0.24934   0.25510   0.26187   0.26411
 Alpha virt. eigenvalues --    0.27599   0.28362   0.29279   0.30259   0.30503
 Alpha virt. eigenvalues --    0.31109   0.31617   0.32678   0.33457   0.33938
 Alpha virt. eigenvalues --    0.35533   0.35882   0.36293   0.37418   0.37791
 Alpha virt. eigenvalues --    0.38676   0.39373   0.40464   0.42061   0.43396
 Alpha virt. eigenvalues --    0.45357   0.47023   0.49013   0.50535   0.51570
 Alpha virt. eigenvalues --    0.51995   0.53351   0.54813   0.55521   0.56353
 Alpha virt. eigenvalues --    0.57115   0.60338   0.61856   0.64278   0.64758
 Alpha virt. eigenvalues --    0.66574   0.66880   0.67314   0.68235   0.68625
 Alpha virt. eigenvalues --    0.70149   0.72218   0.73859   0.74107   0.74200
 Alpha virt. eigenvalues --    0.75149   0.76507   0.77091   0.78541   0.79002
 Alpha virt. eigenvalues --    0.79938   0.80732   0.82121   0.82954   0.83830
 Alpha virt. eigenvalues --    0.84068   0.84638   0.85308   0.86768   0.87309
 Alpha virt. eigenvalues --    0.87613   0.88582   0.90692   0.91319   0.92122
 Alpha virt. eigenvalues --    0.93340   0.94513   0.95157   0.97353   0.98976
 Alpha virt. eigenvalues --    1.00007   1.03526   1.05236   1.06803   1.08717
 Alpha virt. eigenvalues --    1.09962   1.12717   1.14536   1.16036   1.16911
 Alpha virt. eigenvalues --    1.18529   1.21074   1.21415   1.21812   1.25711
 Alpha virt. eigenvalues --    1.27855   1.28204   1.29499   1.32936   1.33489
 Alpha virt. eigenvalues --    1.35319   1.35975   1.38473   1.39104   1.39520
 Alpha virt. eigenvalues --    1.40104   1.44708   1.47217   1.49013   1.49694
 Alpha virt. eigenvalues --    1.51413   1.53277   1.53392   1.54270   1.58362
 Alpha virt. eigenvalues --    1.61800   1.62969   1.65149   1.68441   1.73897
 Alpha virt. eigenvalues --    1.84050   1.87405   1.89738   1.92226   1.94364
 Alpha virt. eigenvalues --    1.96549   1.99046   2.01792   2.02232   2.06938
 Alpha virt. eigenvalues --    2.08402   2.17127   2.17643   2.17814   2.20117
 Alpha virt. eigenvalues --    2.23187   2.27517   2.31273   2.34926   2.36870
 Alpha virt. eigenvalues --    2.40289   2.41865   2.42318   2.46178   2.47372
 Alpha virt. eigenvalues --    2.48318   2.53068   2.54500   2.56126   2.58115
 Alpha virt. eigenvalues --    2.62755   2.63809   2.64529   2.65255   2.66422
 Alpha virt. eigenvalues --    2.68224   2.69312   2.70987   2.72267   2.75081
 Alpha virt. eigenvalues --    2.75846   2.76451   2.76603   2.78233   2.80915
 Alpha virt. eigenvalues --    2.82727   2.83466   2.86625   2.87438   2.87820
 Alpha virt. eigenvalues --    2.88344   2.89182   2.90155   2.93690   2.94758
 Alpha virt. eigenvalues --    2.97820   2.99106   3.01531   3.05428   3.06072
 Alpha virt. eigenvalues --    3.07741   3.08592   3.09082   3.11308   3.12584
 Alpha virt. eigenvalues --    3.12857   3.14563   3.15517   3.20846   3.22881
 Alpha virt. eigenvalues --    3.23840   3.24089   3.27448   3.28939   3.29466
 Alpha virt. eigenvalues --    3.29687   3.30359   3.30978   3.36703   3.37535
 Alpha virt. eigenvalues --    3.40833   3.42403   3.43039   3.45999   3.47884
 Alpha virt. eigenvalues --    3.55482   3.56449   3.56885   3.57939   3.59149
 Alpha virt. eigenvalues --    3.59530   3.65553   3.68735   3.71315   3.73972
 Alpha virt. eigenvalues --    3.74770   3.76761   3.80222   3.81410   3.85395
 Alpha virt. eigenvalues --    3.86726   3.89779   3.93871   3.96416   3.97432
 Alpha virt. eigenvalues --    4.01178   4.05110   4.44086   4.45286   4.49111
 Alpha virt. eigenvalues --    4.49974   4.51268   4.56725   4.60681   4.65862
 Alpha virt. eigenvalues --    4.78312   4.83141   4.93041   4.94435   4.97165
 Alpha virt. eigenvalues --    4.97699   5.01904   5.05390   5.23894   5.30320
 Alpha virt. eigenvalues --    5.61749   5.71822   9.69225   9.79386   9.81098
 Alpha virt. eigenvalues --    9.90106   9.98170  10.01204  10.10507  10.11962
 Alpha virt. eigenvalues --   10.15282  10.19927  10.20803  10.25012  10.28682
 Alpha virt. eigenvalues --   10.32923  10.36064  10.38869  10.44666  10.45503
 Alpha virt. eigenvalues --   10.52717  10.59296  10.63687  10.72477  10.83596
 Alpha virt. eigenvalues --   12.66851  12.80360  13.13643  13.15719  13.23321
 Alpha virt. eigenvalues --   13.29386  13.33789  13.44985  13.52867  13.61515
 Alpha virt. eigenvalues --   13.78393  13.89874  14.07036  17.46403  18.12498
 Alpha virt. eigenvalues --   18.30027  18.50232  23.84014  24.05579  24.06729
 Alpha virt. eigenvalues --   24.10293  24.14033  35.75564  52.07214  52.09513
 Alpha virt. eigenvalues --   52.21243  69.64920 129.38920 137.22009 138.88060
 Alpha virt. eigenvalues --  139.67380 469.92774
          Condensed to atoms (all electrons):
               1          2          3          4          5          6
     1  C    5.143478   0.190425   0.182987  -0.131262   0.092518   0.252346
     2  C    0.190425   5.215096   0.349445   0.070658  -0.235434   0.116070
     3  C    0.182987   0.349445   4.840989   0.459145   0.132768  -0.122541
     4  C   -0.131262   0.070658   0.459145   4.864903   0.367381   0.089499
     5  C    0.092518  -0.235434   0.132768   0.367381   5.118842   0.230955
     6  N    0.252346   0.116070  -0.122541   0.089499   0.230955   6.808078
     7  H   -0.001236  -0.007102   0.368416  -0.014135  -0.001741   0.000390
     8  H    0.441809  -0.069762   0.023674  -0.012541   0.014642  -0.073451
     9  H   -0.019897   0.364986  -0.012824   0.005041  -0.000877   0.005417
    10  H   -0.004127   0.008471  -0.016249   0.369506  -0.021932   0.006655
    11  H    0.014892  -0.012472   0.023077  -0.077740   0.453589  -0.069542
    12  P    0.001028  -0.004912   0.000507  -0.000157   0.000730  -0.005628
    13  O   -0.001948   0.001275  -0.000254   0.000528  -0.000666   0.005517
    14  O   -0.000003   0.000293  -0.000048   0.000092   0.000017   0.000212
    15  H   -0.000002  -0.000004   0.000001  -0.000002   0.000003   0.000001
    16  O   -0.004097   0.004523  -0.001369   0.004017  -0.003556   0.042799
    17  H    0.011044  -0.007020   0.002240  -0.008238   0.010680  -0.096181
    18  O    0.001248  -0.001091   0.000256  -0.000639   0.000397  -0.003862
    19  H    0.000009   0.000026  -0.000002  -0.000001   0.000006  -0.000042
               7          8          9         10         11         12
     1  C   -0.001236   0.441809  -0.019897  -0.004127   0.014892   0.001028
     2  C   -0.007102  -0.069762   0.364986   0.008471  -0.012472  -0.004912
     3  C    0.368416   0.023674  -0.012824  -0.016249   0.023077   0.000507
     4  C   -0.014135  -0.012541   0.005041   0.369506  -0.077740  -0.000157
     5  C   -0.001741   0.014642  -0.000877  -0.021932   0.453589   0.000730
     6  N    0.000390  -0.073451   0.005417   0.006655  -0.069542  -0.005628
     7  H    0.532415  -0.000286  -0.004817  -0.004730  -0.000291   0.000008
     8  H   -0.000286   0.537394  -0.001697   0.000105  -0.000043   0.000621
     9  H   -0.004817  -0.001697   0.531973  -0.000202   0.000099   0.000022
    10  H   -0.004730   0.000105  -0.000202   0.532006  -0.002073  -0.000003
    11  H   -0.000291  -0.000043   0.000099  -0.002073   0.538837  -0.000080
    12  P    0.000008   0.000621   0.000022  -0.000003  -0.000080   0.006178
    13  O   -0.000000  -0.001687  -0.000012  -0.000001  -0.000004  -0.002419
    14  O   -0.000000  -0.000006  -0.000000   0.000000  -0.000001  -0.001687
    15  H   -0.000000   0.000001  -0.000000   0.000000  -0.000000   0.000034
    16  O   -0.000004  -0.000372  -0.000010  -0.000004   0.000210  -0.001335
    17  H    0.000008   0.001891   0.000062   0.000052   0.000890   0.001075
    18  O   -0.000000   0.000243   0.000002   0.000000   0.000037  -0.000390
    19  H    0.000000  -0.000002   0.000000   0.000000   0.000000  -0.000039
              13         14         15         16         17         18
     1  C   -0.001948  -0.000003  -0.000002  -0.004097   0.011044   0.001248
     2  C    0.001275   0.000293  -0.000004   0.004523  -0.007020  -0.001091
     3  C   -0.000254  -0.000048   0.000001  -0.001369   0.002240   0.000256
     4  C    0.000528   0.000092  -0.000002   0.004017  -0.008238  -0.000639
     5  C   -0.000666   0.000017   0.000003  -0.003556   0.010680   0.000397
     6  N    0.005517   0.000212   0.000001   0.042799  -0.096181  -0.003862
     7  H   -0.000000  -0.000000  -0.000000  -0.000004   0.000008  -0.000000
     8  H   -0.001687  -0.000006   0.000001  -0.000372   0.001891   0.000243
     9  H   -0.000012  -0.000000  -0.000000  -0.000010   0.000062   0.000002
    10  H   -0.000001   0.000000   0.000000  -0.000004   0.000052   0.000000
    11  H   -0.000004  -0.000001  -0.000000   0.000210   0.000890   0.000037
    12  P   -0.002419  -0.001687   0.000034  -0.001335   0.001075  -0.000390
    13  O    0.002778   0.000466  -0.000024   0.001431  -0.001767  -0.001111
    14  O    0.000466   0.002078  -0.000110   0.000522  -0.000480  -0.000895
    15  H   -0.000024  -0.000110   0.000045   0.000047  -0.000009   0.000020
    16  O    0.001431   0.000522   0.000047   0.009791  -0.012264  -0.001858
    17  H   -0.001767  -0.000480  -0.000009  -0.012264   0.018749   0.002060
    18  O   -0.001111  -0.000895   0.000020  -0.001858   0.002060   0.002752
    19  H    0.000016  -0.000004  -0.000001  -0.000034   0.000022  -0.000023
              19
     1  C    0.000009
     2  C    0.000026
     3  C   -0.000002
     4  C   -0.000001
     5  C    0.000006
     6  N   -0.000042
     7  H    0.000000
     8  H   -0.000002
     9  H    0.000000
    10  H    0.000000
    11  H    0.000000
    12  P   -0.000039
    13  O    0.000016
    14  O   -0.000004
    15  H   -0.000001
    16  O   -0.000034
    17  H    0.000022
    18  O   -0.000023
    19  H    0.000038
 Mulliken charges:
               1
     1  C   -0.169212
     2  C    0.016529
     3  C   -0.230218
     4  C    0.013946
     5  C   -0.158321
     6  N   -0.186691
     7  H    0.133107
     8  H    0.139467
     9  H    0.132735
    10  H    0.132527
    11  H    0.130617
    12  P    0.006446
    13  O   -0.002118
    14  O   -0.000446
    15  H   -0.000000
    16  O   -0.038437
    17  H    0.077186
    18  O    0.002853
    19  H    0.000032
 Sum of Mulliken charges =  -0.00000
 Mulliken charges with hydrogens summed into heavy atoms:
               1
     1  C   -0.029745
     2  C    0.149263
     3  C   -0.097111
     4  C    0.146473
     5  C   -0.027704
     6  N   -0.186691
    12  P    0.006446
    13  O   -0.002118
    14  O   -0.000446
    16  O    0.038750
    18  O    0.002885
         Mulliken charges condensed to fragments:
      1     -0.045517
      2      0.045517
 Electronic spatial extent (au):  <R**2>=          37932.3092
 Charge=             -0.0000 electrons
 Dipole moment (field-independent basis, Debye):
    X=             -0.3602    Y=             -2.2153    Z=             -0.0686  Tot=              2.2455
 Quadrupole moment (field-independent basis, Debye-Ang):
   XX=            -39.2917   YY=            -87.1970   ZZ=            -31.1106
   XY=             -8.1482   XZ=             -6.3214   YZ=            -24.2992
 Traceless Quadrupole moment (field-independent basis, Debye-Ang):
   XX=             13.2414   YY=            -34.6638   ZZ=             21.4225
   XY=             -8.1482   XZ=             -6.3214   YZ=            -24.2992
 Octapole moment (field-independent basis, Debye-Ang**2):
  XXX=           -227.0003  YYY=          -2141.8333  ZZZ=           -973.4846  XYY=           -213.9127
  XXY=           -457.3309  XXZ=           -429.3129  XZZ=           -151.8547  YZZ=           -604.2518
  YYZ=           -937.5266  XYZ=           -115.4909
 Hexadecapole moment (field-independent basis, Debye-Ang**3):
 XXXX=           -953.5328 YYYY=         -43090.3324 ZZZZ=         -20875.3770 XXXY=          -2632.8724
 XXXZ=          -2421.4808 YYYX=          -4737.0319 YYYZ=         -22945.5368 ZZZX=          -3122.9257
 ZZZY=         -13748.6378 XXYY=          -5533.3210 XXZZ=          -4859.0823 YYZZ=         -14009.1892
 XXYZ=          -4999.8162 YYXZ=          -2607.9794 ZZXY=          -2201.3566
 N-N= 2.052261631471D+02 E-N=-9.869249402589D+02  KE= 2.470600892359D+02
 No NMR shielding tensors so no spin-rotation constants.
 Leave Link  601 at Sun Feb 19 12:41:38 2023, MaxMem=  6710886400 cpu:               2.5 elap:               0.1
 (Enter /data0/home/software/g16/l122.exe)
 CPIOFr:  IOpCl= 0 IRwI=-1 IRwCP=  731 ICalc=  1 LCPTot=      192217 Len1MO=      505607 IndFrg=     1203431
 Counterpoise: doing calculation for fragment   2 using the basis set of the full-system, NewBq=T
 Leave Link  122 at Sun Feb 19 12:41:38 2023, MaxMem=  6710886400 cpu:               0.2 elap:               0.0
 (Enter /data0/home/software/g16/l301.exe)
 Basis read from rwf:  (5D, 7F)
 No pseudopotential information found on rwf file.
   353 basis functions,   540 primitive gaussians,   375 cartesian basis functions
    25 alpha electrons       25 beta electrons
       nuclear repulsion energy       280.0399371950 Hartrees.
 IExCor= 4336 DFT=T Ex+Corr=M062X ExCW=0 ScaHFX=  0.540000
 ScaDFX=  1.000000  1.000000  1.000000  1.000000 ScalE2=  1.000000  1.000000
 IRadAn=      5 IRanWt=     -1 IRanGd=            0 ICorTp=0 IEmpDi=131
 NAtoms=   19 NActive=   19 NUniq=   19 SFac= 1.00D+00 NAtFMM=   60 NAOKFM=F Big=F
 Integral buffers will be    131072 words long.
 Raffenetti 2 integral format.
 Two-electron integral symmetry is turned off.
 R6Disp:  Grimme-D3 Dispersion energy=       -0.0000478720 Hartrees.
 Nuclear repulsion after empirical dispersion term =      280.0398893230 Hartrees.
 No density basis found on file   718.
 Leave Link  301 at Sun Feb 19 12:41:38 2023, MaxMem=  6710886400 cpu:               1.3 elap:               0.1
 (Enter /data0/home/software/g16/l302.exe)
 NPDir=0 NMtPBC=     1 NCelOv=     1 NCel=       1 NClECP=     1 NCelD=      1
         NCelK=      1 NCelE2=     1 NClLst=     1 CellRange=     0.0.
 One-electron integrals computed using PRISM.
 NBasis=   353 RedAO= T EigKep=  9.39D-06  NBF=   353
 NBsUse=   353 1.00D-06 EigRej= -1.00D+00 NBFU=   353
 Precomputing XC quadrature grid using
 IXCGrd= 4 IRadAn=           5 IRanWt=          -1 IRanGd=           0 AccXCQ= 0.00D+00.
 Generated NRdTot=       0 NPtTot=           0 NUsed=           0 NTot=          32
 NSgBfM=   375   375   375   375   375 MxSgAt=    19 MxSgA2=    19.
 Leave Link  302 at Sun Feb 19 12:41:38 2023, MaxMem=  6710886400 cpu:               5.8 elap:               0.3
 (Enter /data0/home/software/g16/l303.exe)
 DipDrv:  MaxL=1.
 Leave Link  303 at Sun Feb 19 12:41:38 2023, MaxMem=  6710886400 cpu:               0.8 elap:               0.1
 (Enter /data0/home/software/g16/l401.exe)
 ExpMin= 3.48D-02 ExpMax= 7.75D+04 ExpMxC= 2.65D+03 IAcc=3 IRadAn=         5 AccDes= 0.00D+00
 Harris functional with IExCor= 1009 and IRadAn=       5 diagonalized for initial guess.
 HarFok:  IExCor= 1009 AccDes= 0.00D+00 IRadAn=         5 IDoV= 1 UseB2=F ITyADJ=14
 ICtDFT=  3500011 ScaDFX=  1.000000  1.000000  1.000000  1.000000
 FoFCou: FMM=F IPFlag=           0 FMFlag=      100000 FMFlg1=           0
         NFxFlg=           0 DoJE=T BraDBF=F KetDBF=T FulRan=T
         wScrn=  0.000000 ICntrl=       500 IOpCl=  0 I1Cent=   200000004 NGrid=           0
         NMat0=    1 NMatS0=      1 NMatT0=    0 NMatD0=    1 NMtDS0=    0 NMtDT0=    0
 Symmetry not used in FoFCou.
 Harris En= -643.941848797126    
 JPrj=0 DoOrth=F DoCkMO=F.
 Leave Link  401 at Sun Feb 19 12:41:39 2023, MaxMem=  6710886400 cpu:              19.6 elap:               0.8
 (Enter /data0/home/software/g16/l502.exe)
 Two-electron integral symmetry not used.
 Closed shell SCF:
 Using DIIS extrapolation, IDIIS=  1040.
 NGot=  6710886400 LenX=  6710593514 LenY=  6710452448
 Requested convergence on RMS density matrix=1.00D-08 within 128 cycles.
 Requested convergence on MAX density matrix=1.00D-06.
 Requested convergence on             energy=1.00D-06.
 No special actions if energy rises.
 Fock matrices will be formed incrementally for  20 cycles.

 Cycle   1  Pass 1  IDiag  1:
 FoFJK:  IHMeth= 1 ICntrl=       0 DoSepK=F KAlg= 0 I1Cent=           0 FoldK=F
 IRaf= 850000000 NMat=       1 IRICut=       1 DoRegI=T DoRafI=F ISym2E= 0 IDoP0=0 IntGTp=1.
 FoFCou: FMM=F IPFlag=           0 FMFlag=      100000 FMFlg1=           0
         NFxFlg=           0 DoJE=F BraDBF=F KetDBF=F FulRan=T
         wScrn=  0.000000 ICntrl=         0 IOpCl=  0 I1Cent=           0 NGrid=           0
         NMat0=    1 NMatS0=      1 NMatT0=    0 NMatD0=    1 NMtDS0=    0 NMtDT0=    0
 Symmetry not used in FoFCou.
 E= -643.869216809653    
 DIIS: error= 3.18D-02 at cycle   1 NSaved=   1.
 NSaved= 1 IEnMin= 1 EnMin= -643.869216809653     IErMin= 1 ErrMin= 3.18D-02
 ErrMax= 3.18D-02  0.00D+00 EMaxC= 1.00D-01 BMatC= 5.01D-01 BMatP= 5.01D-01
 IDIUse=3 WtCom= 6.82D-01 WtEn= 3.18D-01
 Coeff-Com:  0.100D+01
 Coeff-En:   0.100D+01
 Coeff:      0.100D+01
 Gap=     0.308 Goal=   None    Shift=    0.000
 GapD=    0.308 DampG=1.000 DampE=0.500 DampFc=0.5000 IDamp=-1.
 Damping current iteration by 5.00D-01
 RMSDP=5.55D-03 MaxDP=5.10D-01              OVMax= 2.43D-01

 Cycle   2  Pass 1  IDiag  1:
 RMSU=  2.70D-03    CP:  1.06D+00
 E= -643.985817614417     Delta-E=       -0.116600804764 Rises=F Damp=T
 DIIS: error= 6.95D-03 at cycle   2 NSaved=   2.
 NSaved= 2 IEnMin= 2 EnMin= -643.985817614417     IErMin= 2 ErrMin= 6.95D-03
 ErrMax= 6.95D-03  0.00D+00 EMaxC= 1.00D-01 BMatC= 2.57D-02 BMatP= 5.01D-01
 IDIUse=3 WtCom= 9.31D-01 WtEn= 6.95D-02
 Coeff-Com:  0.638D-01 0.936D+00
 Coeff-En:   0.188D+00 0.812D+00
 Coeff:      0.724D-01 0.928D+00
 Gap=     0.364 Goal=   None    Shift=    0.000
 RMSDP=1.38D-03 MaxDP=1.48D-01 DE=-1.17D-01 OVMax= 1.54D-01

 Cycle   3  Pass 1  IDiag  1:
 RMSU=  1.04D-03    CP:  1.00D+00  7.64D-01
 E= -644.144999898851     Delta-E=       -0.159182284434 Rises=F Damp=F
 DIIS: error= 4.98D-03 at cycle   3 NSaved=   3.
 NSaved= 3 IEnMin= 3 EnMin= -644.144999898851     IErMin= 3 ErrMin= 4.98D-03
 ErrMax= 4.98D-03  0.00D+00 EMaxC= 1.00D-01 BMatC= 9.16D-03 BMatP= 2.57D-02
 IDIUse=3 WtCom= 9.50D-01 WtEn= 4.98D-02
 Coeff-Com: -0.203D-01 0.329D+00 0.692D+00
 Coeff-En:   0.000D+00 0.000D+00 0.100D+01
 Coeff:     -0.193D-01 0.312D+00 0.707D+00
 Gap=     0.354 Goal=   None    Shift=    0.000
 RMSDP=4.13D-04 MaxDP=2.17D-02 DE=-1.59D-01 OVMax= 3.34D-02

 Cycle   4  Pass 1  IDiag  1:
 RMSU=  4.05D-04    CP:  9.94D-01  7.74D-01  9.70D-01
 E= -644.148954246020     Delta-E=       -0.003954347169 Rises=F Damp=F
 DIIS: error= 2.80D-03 at cycle   4 NSaved=   4.
 NSaved= 4 IEnMin= 4 EnMin= -644.148954246020     IErMin= 4 ErrMin= 2.80D-03
 ErrMax= 2.80D-03  0.00D+00 EMaxC= 1.00D-01 BMatC= 3.70D-03 BMatP= 9.16D-03
 IDIUse=3 WtCom= 9.72D-01 WtEn= 2.80D-02
 Coeff-Com: -0.222D-01 0.513D-01 0.414D+00 0.557D+00
 Coeff-En:   0.000D+00 0.000D+00 0.289D+00 0.711D+00
 Coeff:     -0.215D-01 0.499D-01 0.410D+00 0.562D+00
 Gap=     0.360 Goal=   None    Shift=    0.000
 RMSDP=1.69D-04 MaxDP=9.11D-03 DE=-3.95D-03 OVMax= 1.14D-02

 Cycle   5  Pass 1  IDiag  1:
 RMSU=  6.12D-05    CP:  9.97D-01  7.79D-01  9.93D-01  6.22D-01
 E= -644.151417624896     Delta-E=       -0.002463378876 Rises=F Damp=F
 DIIS: error= 1.83D-04 at cycle   5 NSaved=   5.
 NSaved= 5 IEnMin= 5 EnMin= -644.151417624896     IErMin= 5 ErrMin= 1.83D-04
 ErrMax= 1.83D-04  0.00D+00 EMaxC= 1.00D-01 BMatC= 1.49D-05 BMatP= 3.70D-03
 IDIUse=3 WtCom= 9.98D-01 WtEn= 1.83D-03
 Coeff-Com: -0.289D-02 0.160D-02 0.663D-01 0.123D+00 0.812D+00
 Coeff-En:   0.000D+00 0.000D+00 0.000D+00 0.000D+00 0.100D+01
 Coeff:     -0.289D-02 0.160D-02 0.662D-01 0.122D+00 0.813D+00
 Gap=     0.359 Goal=   None    Shift=    0.000
 RMSDP=2.16D-05 MaxDP=1.42D-03 DE=-2.46D-03 OVMax= 7.35D-04

 Cycle   6  Pass 1  IDiag  1:
 RMSU=  1.67D-05    CP:  9.96D-01  7.76D-01  9.98D-01  6.39D-01  1.07D+00
 E= -644.151427486733     Delta-E=       -0.000009861837 Rises=F Damp=F
 DIIS: error= 4.35D-05 at cycle   6 NSaved=   6.
 NSaved= 6 IEnMin= 6 EnMin= -644.151427486733     IErMin= 6 ErrMin= 4.35D-05
 ErrMax= 4.35D-05  0.00D+00 EMaxC= 1.00D-01 BMatC= 1.26D-06 BMatP= 1.49D-05
 IDIUse=1 WtCom= 1.00D+00 WtEn= 0.00D+00
 Coeff-Com: -0.138D-03-0.124D-02 0.559D-02 0.166D-01 0.242D+00 0.738D+00
 Coeff:     -0.138D-03-0.124D-02 0.559D-02 0.166D-01 0.242D+00 0.738D+00
 Gap=     0.359 Goal=   None    Shift=    0.000
 RMSDP=9.01D-06 MaxDP=7.18D-04 DE=-9.86D-06 OVMax= 2.26D-04

 Cycle   7  Pass 1  IDiag  1:
 RMSU=  4.06D-06    CP:  9.96D-01  7.74D-01  9.97D-01  6.43D-01  1.14D+00
                    CP:  8.10D-01
 E= -644.151428355795     Delta-E=       -0.000000869062 Rises=F Damp=F
 DIIS: error= 2.47D-05 at cycle   7 NSaved=   7.
 NSaved= 7 IEnMin= 7 EnMin= -644.151428355795     IErMin= 7 ErrMin= 2.47D-05
 ErrMax= 2.47D-05  0.00D+00 EMaxC= 1.00D-01 BMatC= 2.44D-07 BMatP= 1.26D-06
 IDIUse=1 WtCom= 1.00D+00 WtEn= 0.00D+00
 Coeff-Com:  0.389D-03-0.731D-03-0.834D-02-0.125D-01-0.191D-01 0.294D+00
 Coeff-Com:  0.747D+00
 Coeff:      0.389D-03-0.731D-03-0.834D-02-0.125D-01-0.191D-01 0.294D+00
 Coeff:      0.747D+00
 Gap=     0.359 Goal=   None    Shift=    0.000
 RMSDP=2.78D-06 MaxDP=8.72D-05 DE=-8.69D-07 OVMax= 1.01D-04

 Cycle   8  Pass 1  IDiag  1:
 RMSU=  2.01D-06    CP:  9.96D-01  7.74D-01  9.97D-01  6.44D-01  1.16D+00
                    CP:  8.83D-01  8.36D-01
 E= -644.151428517934     Delta-E=       -0.000000162139 Rises=F Damp=F
 DIIS: error= 7.30D-06 at cycle   8 NSaved=   8.
 NSaved= 8 IEnMin= 8 EnMin= -644.151428517934     IErMin= 8 ErrMin= 7.30D-06
 ErrMax= 7.30D-06  0.00D+00 EMaxC= 1.00D-01 BMatC= 3.64D-08 BMatP= 2.44D-07
 IDIUse=1 WtCom= 1.00D+00 WtEn= 0.00D+00
 Coeff-Com:  0.175D-03-0.244D-03-0.412D-02-0.639D-02-0.197D-01 0.852D-01
 Coeff-Com:  0.355D+00 0.590D+00
 Coeff:      0.175D-03-0.244D-03-0.412D-02-0.639D-02-0.197D-01 0.852D-01
 Coeff:      0.355D+00 0.590D+00
 Gap=     0.359 Goal=   None    Shift=    0.000
 RMSDP=9.45D-07 MaxDP=6.94D-05 DE=-1.62D-07 OVMax= 3.07D-05

 Cycle   9  Pass 1  IDiag  1:
 RMSU=  3.69D-07    CP:  9.96D-01  7.74D-01  9.97D-01  6.44D-01  1.16D+00
                    CP:  8.85D-01  9.71D-01  8.04D-01
 E= -644.151428543727     Delta-E=       -0.000000025793 Rises=F Damp=F
 DIIS: error= 1.12D-06 at cycle   9 NSaved=   9.
 NSaved= 9 IEnMin= 9 EnMin= -644.151428543727     IErMin= 9 ErrMin= 1.12D-06
 ErrMax= 1.12D-06  0.00D+00 EMaxC= 1.00D-01 BMatC= 5.57D-10 BMatP= 3.64D-08
 IDIUse=1 WtCom= 1.00D+00 WtEn= 0.00D+00
 Coeff-Com: -0.261D-04 0.479D-04 0.303D-03 0.561D-03-0.150D-03-0.185D-01
 Coeff-Com: -0.337D-01 0.405D-01 0.101D+01
 Coeff:     -0.261D-04 0.479D-04 0.303D-03 0.561D-03-0.150D-03-0.185D-01
 Coeff:     -0.337D-01 0.405D-01 0.101D+01
 Gap=     0.359 Goal=   None    Shift=    0.000
 RMSDP=2.39D-07 MaxDP=1.40D-05 DE=-2.58D-08 OVMax= 7.70D-06

 Cycle  10  Pass 1  IDiag  1:
 RMSU=  1.03D-07    CP:  9.96D-01  7.74D-01  9.97D-01  6.45D-01  1.16D+00
                    CP:  8.84D-01  9.83D-01  8.87D-01  1.10D+00
 E= -644.151428544457     Delta-E=       -0.000000000730 Rises=F Damp=F
 DIIS: error= 2.62D-07 at cycle  10 NSaved=  10.
 NSaved=10 IEnMin=10 EnMin= -644.151428544457     IErMin=10 ErrMin= 2.62D-07
 ErrMax= 2.62D-07  0.00D+00 EMaxC= 1.00D-01 BMatC= 3.22D-11 BMatP= 5.57D-10
 IDIUse=1 WtCom= 1.00D+00 WtEn= 0.00D+00
 Coeff-Com: -0.942D-05 0.163D-04 0.173D-03 0.285D-03 0.511D-03-0.680D-02
 Coeff-Com: -0.184D-01-0.945D-02 0.232D+00 0.802D+00
 Coeff:     -0.942D-05 0.163D-04 0.173D-03 0.285D-03 0.511D-03-0.680D-02
 Coeff:     -0.184D-01-0.945D-02 0.232D+00 0.802D+00
 Gap=     0.359 Goal=   None    Shift=    0.000
 RMSDP=5.45D-08 MaxDP=4.59D-06 DE=-7.30D-10 OVMax= 2.19D-06

 Cycle  11  Pass 1  IDiag  1:
 RMSU=  2.85D-08    CP:  9.96D-01  7.74D-01  9.97D-01  6.45D-01  1.16D+00
[...]
 NAtoms=   19 NActive=    8 NUniq=    8 SFac= 1.00D+00 NAtFMM=   60 NAOKFM=F Big=F
 Integral buffers will be    131072 words long.
 Raffenetti 2 integral format.
 Two-electron integral symmetry is turned off.
 R6Disp:  Grimme-D3 Dispersion energy=       -0.0000478720 Hartrees.
 Nuclear repulsion after empirical dispersion term =      280.0398893230 Hartrees.
 No density basis found on file   718.
 Leave Link  301 at Sun Feb 19 12:42:16 2023, MaxMem=  6710886400 cpu:               1.3 elap:               0.1
 (Enter /data0/home/software/g16/l302.exe)
 NPDir=0 NMtPBC=     1 NCelOv=     1 NCel=       1 NClECP=     1 NCelD=      1
         NCelK=      1 NCelE2=     1 NClLst=     1 CellRange=     0.0.
 One-electron integrals computed using PRISM.
 NBasis=   161 RedAO= T EigKep=  5.07D-04  NBF=   161
 NBsUse=   161 1.00D-06 EigRej= -1.00D+00 NBFU=   161
 Precomputing XC quadrature grid using
 IXCGrd= 4 IRadAn=           5 IRanWt=          -1 IRanGd=           0 AccXCQ= 0.00D+00.
 Generated NRdTot=       0 NPtTot=           0 NUsed=           0 NTot=          32
 NSgBfM=   171   171   171   171   171 MxSgAt=     8 MxSgA2=     8.
 Leave Link  302 at Sun Feb 19 12:42:16 2023, MaxMem=  6710886400 cpu:               2.8 elap:               0.1
 (Enter /data0/home/software/g16/l303.exe)
 DipDrv:  MaxL=1.
 Leave Link  303 at Sun Feb 19 12:42:16 2023, MaxMem=  6710886400 cpu:               0.5 elap:               0.0
 (Enter /data0/home/software/g16/l401.exe)
 ExpMin= 3.48D-02 ExpMax= 7.75D+04 ExpMxC= 2.65D+03 IAcc=3 IRadAn=         5 AccDes= 0.00D+00
 Harris functional with IExCor= 1009 and IRadAn=       5 diagonalized for initial guess.
 HarFok:  IExCor= 1009 AccDes= 0.00D+00 IRadAn=         5 IDoV= 1 UseB2=F ITyADJ=14
 ICtDFT=  3500011 ScaDFX=  1.000000  1.000000  1.000000  1.000000
 FoFCou: FMM=F IPFlag=           0 FMFlag=      100000 FMFlg1=           0
         NFxFlg=           0 DoJE=T BraDBF=F KetDBF=T FulRan=T
         wScrn=  0.000000 ICntrl=       500 IOpCl=  0 I1Cent=   200000004 NGrid=           0
         NMat0=    1 NMatS0=      1 NMatT0=    0 NMatD0=    1 NMtDS0=    0 NMtDT0=    0
 Symmetry not used in FoFCou.
 Harris En= -643.940925428392    
 JPrj=0 DoOrth=F DoCkMO=F.
 Leave Link  401 at Sun Feb 19 12:42:17 2023, MaxMem=  6710886400 cpu:               6.1 elap:               0.3
 (Enter /data0/home/software/g16/l502.exe)
 Keep R1 ints in memory in canonical form, NReq=108962347.
 FoFCou: FMM=F IPFlag=           0 FMFlag=           0 FMFlg1=           0
         NFxFlg=           0 DoJE=F BraDBF=F KetDBF=F FulRan=T
         wScrn=  0.000000 ICntrl=       600 IOpCl=  0 I1Cent=           0 NGrid=           0
         NMat0=    1 NMatS0=  13041 NMatT0=    0 NMatD0=    1 NMtDS0=    0 NMtDT0=    0
 Symmetry not used in FoFCou.
 Two-electron integral symmetry not used.
 Closed shell SCF:
 Using DIIS extrapolation, IDIIS=  1040.
 NGot=  6710886400 LenX=  6625781837 LenY=  6625752155
 Requested convergence on RMS density matrix=1.00D-08 within 128 cycles.
 Requested convergence on MAX density matrix=1.00D-06.
 Requested convergence on             energy=1.00D-06.
 No special actions if energy rises.

 Cycle   1  Pass 1  IDiag  1:
 E= -643.868368792457    
 DIIS: error= 3.54D-02 at cycle   1 NSaved=   1.
 NSaved= 1 IEnMin= 1 EnMin= -643.868368792457     IErMin= 1 ErrMin= 3.54D-02
 ErrMax= 3.54D-02  0.00D+00 EMaxC= 1.00D-01 BMatC= 5.01D-01 BMatP= 5.01D-01
 IDIUse=3 WtCom= 6.46D-01 WtEn= 3.54D-01
 Coeff-Com:  0.100D+01
 Coeff-En:   0.100D+01
 Coeff:      0.100D+01
 Gap=     0.310 Goal=   None    Shift=    0.000
 GapD=    0.310 DampG=1.000 DampE=0.500 DampFc=0.5000 IDamp=-1.
 Damping current iteration by 5.00D-01
 RMSDP=6.58D-03 MaxDP=1.46D-01              OVMax= 2.42D-01

 Cycle   2  Pass 1  IDiag  1:
 E= -643.985019895857     Delta-E=       -0.116651103400 Rises=F Damp=T
 DIIS: error= 1.03D-02 at cycle   2 NSaved=   2.
 NSaved= 2 IEnMin= 2 EnMin= -643.985019895857     IErMin= 2 ErrMin= 1.03D-02
 ErrMax= 1.03D-02  0.00D+00 EMaxC= 1.00D-01 BMatC= 2.56D-02 BMatP= 5.01D-01
 IDIUse=3 WtCom= 8.97D-01 WtEn= 1.03D-01
 Coeff-Com:  0.635D-01 0.937D+00
 Coeff-En:   0.188D+00 0.812D+00
 Coeff:      0.763D-01 0.924D+00
 Gap=     0.367 Goal=   None    Shift=    0.000
 RMSDP=1.44D-03 MaxDP=4.23D-02 DE=-1.17D-01 OVMax= 1.53D-01

 Cycle   3  Pass 1  IDiag  1:
 E= -644.144389283102     Delta-E=       -0.159369387245 Rises=F Damp=F
 DIIS: error= 6.58D-03 at cycle   3 NSaved=   3.
 NSaved= 3 IEnMin= 3 EnMin= -644.144389283102     IErMin= 3 ErrMin= 6.58D-03
 ErrMax= 6.58D-03  0.00D+00 EMaxC= 1.00D-01 BMatC= 8.78D-03 BMatP= 2.56D-02
 IDIUse=3 WtCom= 9.34D-01 WtEn= 6.58D-02
 Coeff-Com: -0.173D-01 0.324D+00 0.694D+00
 Coeff-En:   0.000D+00 0.000D+00 0.100D+01
 Coeff:     -0.161D-01 0.302D+00 0.714D+00
 Gap=     0.356 Goal=   None    Shift=    0.000
 RMSDP=6.28D-04 MaxDP=1.47D-02 DE=-1.59D-01 OVMax= 3.32D-02

 Cycle   4  Pass 1  IDiag  1:
 E= -644.147986440053     Delta-E=       -0.003597156951 Rises=F Damp=F
 DIIS: error= 3.60D-03 at cycle   4 NSaved=   4.
 NSaved= 4 IEnMin= 4 EnMin= -644.147986440053     IErMin= 4 ErrMin= 3.60D-03
 ErrMax= 3.60D-03  0.00D+00 EMaxC= 1.00D-01 BMatC= 3.84D-03 BMatP= 8.78D-03
 IDIUse=3 WtCom= 9.64D-01 WtEn= 3.60D-02
 Coeff-Com: -0.199D-01 0.469D-01 0.419D+00 0.554D+00
 Coeff-En:   0.000D+00 0.000D+00 0.308D+00 0.692D+00
 Coeff:     -0.192D-01 0.452D-01 0.415D+00 0.559D+00
 Gap=     0.364 Goal=   None    Shift=    0.000
 RMSDP=2.54D-04 MaxDP=6.31D-03 DE=-3.60D-03 OVMax= 1.17D-02

 Cycle   5  Pass 1  IDiag  1:
 E= -644.150542661279     Delta-E=       -0.002556221226 Rises=F Damp=F
 DIIS: error= 2.07D-04 at cycle   5 NSaved=   5.
 NSaved= 5 IEnMin= 5 EnMin= -644.150542661279     IErMin= 5 ErrMin= 2.07D-04
 ErrMax= 2.07D-04  0.00D+00 EMaxC= 1.00D-01 BMatC= 1.52D-05 BMatP= 3.84D-03
 IDIUse=3 WtCom= 9.98D-01 WtEn= 2.07D-03
 Coeff-Com: -0.237D-02 0.556D-03 0.676D-01 0.122D+00 0.812D+00
 Coeff-En:   0.000D+00 0.000D+00 0.000D+00 0.000D+00 0.100D+01
 Coeff:     -0.237D-02 0.555D-03 0.675D-01 0.122D+00 0.812D+00
 Gap=     0.362 Goal=   None    Shift=    0.000
 RMSDP=2.33D-05 MaxDP=8.60D-04 DE=-2.56D-03 OVMax= 7.45D-04

 Cycle   6  Pass 1  IDiag  1:
 E= -644.150552791722     Delta-E=       -0.000010130443 Rises=F Damp=F
 DIIS: error= 6.81D-05 at cycle   6 NSaved=   6.
 NSaved= 6 IEnMin= 6 EnMin= -644.150552791722     IErMin= 6 ErrMin= 6.81D-05
 ErrMax= 6.81D-05  0.00D+00 EMaxC= 1.00D-01 BMatC= 1.24D-06 BMatP= 1.52D-05
 IDIUse=1 WtCom= 1.00D+00 WtEn= 0.00D+00
 Coeff-Com: -0.581D-04-0.142D-02 0.581D-02 0.166D-01 0.241D+00 0.738D+00
 Coeff:     -0.581D-04-0.142D-02 0.581D-02 0.166D-01 0.241D+00 0.738D+00
 Gap=     0.363 Goal=   None    Shift=    0.000
 RMSDP=9.05D-06 MaxDP=2.14D-04 DE=-1.01D-05 OVMax= 2.23D-04

 Cycle   7  Pass 1  IDiag  1:
 E= -644.150553654324     Delta-E=       -0.000000862601 Rises=F Damp=F
 DIIS: error= 3.35D-05 at cycle   7 NSaved=   7.
 NSaved= 7 IEnMin= 7 EnMin= -644.150553654324     IErMin= 7 ErrMin= 3.35D-05
 ErrMax= 3.35D-05  0.00D+00 EMaxC= 1.00D-01 BMatC= 2.34D-07 BMatP= 1.24D-06
 IDIUse=1 WtCom= 1.00D+00 WtEn= 0.00D+00
 Coeff-Com:  0.338D-03-0.640D-03-0.836D-02-0.123D-01-0.188D-01 0.290D+00
 Coeff-Com:  0.750D+00
 Coeff:      0.338D-03-0.640D-03-0.836D-02-0.123D-01-0.188D-01 0.290D+00
 Coeff:      0.750D+00
 Gap=     0.363 Goal=   None    Shift=    0.000
 RMSDP=3.28D-06 MaxDP=7.16D-05 DE=-8.63D-07 OVMax= 1.01D-04

 Cycle   8  Pass 1  IDiag  1:
 E= -644.150553809641     Delta-E=       -0.000000155317 Rises=F Damp=F
 DIIS: error= 1.19D-05 at cycle   8 NSaved=   8.
 NSaved= 8 IEnMin= 8 EnMin= -644.150553809641     IErMin= 8 ErrMin= 1.19D-05
 ErrMax= 1.19D-05  0.00D+00 EMaxC= 1.00D-01 BMatC= 3.66D-08 BMatP= 2.34D-07
 IDIUse=1 WtCom= 1.00D+00 WtEn= 0.00D+00
 Coeff-Com:  0.148D-03-0.193D-03-0.417D-02-0.635D-02-0.199D-01 0.840D-01
 Coeff-Com:  0.359D+00 0.587D+00
 Coeff:      0.148D-03-0.193D-03-0.417D-02-0.635D-02-0.199D-01 0.840D-01
 Coeff:      0.359D+00 0.587D+00
 Gap=     0.363 Goal=   None    Shift=    0.000
 RMSDP=8.64D-07 MaxDP=2.05D-05 DE=-1.55D-07 OVMax= 3.08D-05

 Cycle   9  Pass 1  IDiag  1:
 E= -644.150553835515     Delta-E=       -0.000000025874 Rises=F Damp=F
 DIIS: error= 1.14D-06 at cycle   9 NSaved=   9.
 NSaved= 9 IEnMin= 9 EnMin= -644.150553835515     IErMin= 9 ErrMin= 1.14D-06
 ErrMax= 1.14D-06  0.00D+00 EMaxC= 1.00D-01 BMatC= 5.64D-10 BMatP= 3.66D-08
 IDIUse=1 WtCom= 1.00D+00 WtEn= 0.00D+00
 Coeff-Com: -0.239D-04 0.454D-04 0.282D-03 0.527D-03-0.285D-03-0.179D-01
 Coeff-Com: -0.322D-01 0.423D-01 0.101D+01
 Coeff:     -0.239D-04 0.454D-04 0.282D-03 0.527D-03-0.285D-03-0.179D-01
 Coeff:     -0.322D-01 0.423D-01 0.101D+01
 Gap=     0.363 Goal=   None    Shift=    0.000
 RMSDP=2.95D-07 MaxDP=7.03D-06 DE=-2.59D-08 OVMax= 7.63D-06

 Cycle  10  Pass 1  IDiag  1:
 E= -644.150553836247     Delta-E=       -0.000000000732 Rises=F Damp=F
 DIIS: error= 3.24D-07 at cycle  10 NSaved=  10.
 NSaved=10 IEnMin=10 EnMin= -644.150553836247     IErMin=10 ErrMin= 3.24D-07
 ErrMax= 3.24D-07  0.00D+00 EMaxC= 1.00D-01 BMatC= 3.14D-11 BMatP= 5.64D-10
 IDIUse=1 WtCom= 1.00D+00 WtEn= 0.00D+00
 Coeff-Com: -0.800D-05 0.140D-04 0.167D-03 0.272D-03 0.487D-03-0.656D-02
 Coeff-Com: -0.180D-01-0.902D-02 0.225D+00 0.808D+00
 Coeff:     -0.800D-05 0.140D-04 0.167D-03 0.272D-03 0.487D-03-0.656D-02
 Coeff:     -0.180D-01-0.902D-02 0.225D+00 0.808D+00
 Gap=     0.363 Goal=   None    Shift=    0.000
 RMSDP=5.55D-08 MaxDP=8.41D-07 DE=-7.32D-10 OVMax= 2.19D-06

 Cycle  11  Pass 1  IDiag  1:
 E= -644.150553836265     Delta-E=       -0.000000000018 Rises=F Damp=F
 DIIS: error= 2.57D-07 at cycle  11 NSaved=  11.
 NSaved=11 IEnMin=11 EnMin= -644.150553836265     IErMin=11 ErrMin= 2.57D-07
 ErrMax= 2.57D-07  0.00D+00 EMaxC= 1.00D-01 BMatC= 1.52D-11 BMatP= 3.14D-11
 IDIUse=1 WtCom= 1.00D+00 WtEn= 0.00D+00
 Coeff-Com: -0.998D-07-0.283D-06 0.441D-04 0.593D-04 0.315D-03-0.742D-03
 Coeff-Com: -0.453D-02-0.113D-01-0.405D-01 0.434D+00 0.623D+00
 Coeff:     -0.998D-07-0.283D-06 0.441D-04 0.593D-04 0.315D-03-0.742D-03
 Coeff:     -0.453D-02-0.113D-01-0.405D-01 0.434D+00 0.623D+00
 Gap=     0.363 Goal=   None    Shift=    0.000
 RMSDP=2.21D-08 MaxDP=5.48D-07 DE=-1.80D-11 OVMax= 7.94D-07

 Cycle  12  Pass 1  IDiag  1:
 E= -644.150553836278     Delta-E=       -0.000000000013 Rises=F Damp=F
 DIIS: error= 3.42D-08 at cycle  12 NSaved=  12.
 NSaved=12 IEnMin=12 EnMin= -644.150553836278     IErMin=12 ErrMin= 3.42D-08
 ErrMax= 3.42D-08  0.00D+00 EMaxC= 1.00D-01 BMatC= 3.19D-13 BMatP= 1.52D-11
 IDIUse=1 WtCom= 1.00D+00 WtEn= 0.00D+00
 Coeff-Com:  0.787D-06-0.143D-05-0.655D-05-0.132D-04 0.538D-05 0.421D-03
 Coeff-Com:  0.943D-03-0.695D-03-0.288D-01 0.537D-02 0.114D+00 0.909D+00
 Coeff:      0.787D-06-0.143D-05-0.655D-05-0.132D-04 0.538D-05 0.421D-03
 Coeff:      0.943D-03-0.695D-03-0.288D-01 0.537D-02 0.114D+00 0.909D+00
 Gap=     0.363 Goal=   None    Shift=    0.000
 RMSDP=6.44D-09 MaxDP=1.20D-07 DE=-1.30D-11 OVMax= 2.21D-07

 SCF Done:  E(RM062X) =  -644.150553836     A.U. after   12 cycles
            NFock= 12  Conv=0.64D-08     -V/T= 2.0026
 KE= 6.425074063554D+02 PE=-2.087828800153D+03 EE= 5.211309506384D+02
 Leave Link  502 at Sun Feb 19 12:42:22 2023, MaxMem=  6710886400 cpu:             107.2 elap:               5.7
 (Enter /data0/home/software/g16/l601.exe)
 Copying SCF densities to generalized density rwf, IOpCl= 0 IROHF=0.

 **********************************************************************

            Population analysis using the SCF density.

 **********************************************************************

 Alpha  occ. eigenvalues --  -78.16758 -19.68477 -19.68170 -19.67654 -19.58996
 Alpha  occ. eigenvalues --   -6.97532  -5.09431  -5.09411  -5.09248  -1.24085
 Alpha  occ. eigenvalues --   -1.16644  -1.16140  -1.09213  -0.72813  -0.65676
 Alpha  occ. eigenvalues --   -0.62852  -0.56390  -0.54902  -0.51823  -0.48389
 Alpha  occ. eigenvalues --   -0.46871  -0.46157  -0.43032  -0.38747  -0.38092
 Alpha virt. eigenvalues --   -0.01835   0.01164   0.01982   0.04614   0.09078
 Alpha virt. eigenvalues --    0.10027   0.12046   0.15268   0.15641   0.16506
 Alpha virt. eigenvalues --    0.17557   0.18042   0.19240   0.20152   0.21486
 Alpha virt. eigenvalues --    0.21771   0.23298   0.25821   0.26226   0.26918
 Alpha virt. eigenvalues --    0.28386   0.29077   0.29834   0.30491   0.33882
 Alpha virt. eigenvalues --    0.34927   0.36013   0.37671   0.40508   0.44174
 Alpha virt. eigenvalues --    0.45695   0.47090   0.53006   0.55246   0.57685
 Alpha virt. eigenvalues --    0.74505   0.76356   0.77683   0.85729   0.97086
 Alpha virt. eigenvalues --    0.99736   1.02477   1.05902   1.08198   1.11723
 Alpha virt. eigenvalues --    1.13368   1.15938   1.16784   1.18707   1.20216
 Alpha virt. eigenvalues --    1.21724   1.23364   1.25790   1.27325   1.33702
 Alpha virt. eigenvalues --    1.37837   1.42538   1.44052   1.46430   1.51388
 Alpha virt. eigenvalues --    1.53116   1.55449   1.59348   1.63360   1.65370
 Alpha virt. eigenvalues --    1.66065   1.69991   1.71735   1.74429   1.79463
 Alpha virt. eigenvalues --    1.82482   1.84877   1.87239   1.89276   1.97352
 Alpha virt. eigenvalues --    2.01896   2.05413   2.07585   2.09145   2.12196
 Alpha virt. eigenvalues --    2.22006   2.22822   2.25153   2.38965   2.46945
 Alpha virt. eigenvalues --    2.49172   2.57216   2.59637   2.62915   2.70019
 Alpha virt. eigenvalues --    2.74626   2.80554   2.83838   2.91093   2.92772
 Alpha virt. eigenvalues --    5.02335   5.05393   5.06622   5.07612   5.09604
 Alpha virt. eigenvalues --    5.12640   5.19750   5.21886   5.34525   5.44887
 Alpha virt. eigenvalues --    5.49052   5.52578   6.72872   6.74315   6.74788
 Alpha virt. eigenvalues --    6.77097   6.78498   6.80448   6.81818   6.84367
 Alpha virt. eigenvalues --    6.89120   6.94959   6.95644   6.98388   6.99970
 Alpha virt. eigenvalues --    7.06306   7.10600   7.20767   7.25487   7.28239
 Alpha virt. eigenvalues --    7.34165   7.39004   7.64033  14.22044  14.24999
 Alpha virt. eigenvalues --   14.35735  49.99130  50.00166  50.00441  50.09185
 Alpha virt. eigenvalues --  163.85503
          Condensed to atoms (all electrons):
              12         13         14         15         16         17
    12  P   12.465657   0.524218   0.203221   0.037325   0.282806  -0.005703
    13  O    0.524218   8.182028  -0.019681   0.004289  -0.040414  -0.011971
    14  O    0.203221  -0.019681   8.077987   0.229561   0.000440   0.003930
    15  H    0.037325   0.004289   0.229561   0.438575  -0.013374   0.000688
    16  O    0.282806  -0.040414   0.000440  -0.013374   8.031963   0.281453
    17  H   -0.005703  -0.011971   0.003930   0.000688   0.281453   0.395765
    18  O    0.277448  -0.011050   0.009780  -0.014797  -0.001245  -0.006410
    19  H    0.000856  -0.020276  -0.001826   0.000273   0.004865   0.000461
              18         19
    12  P    0.277448   0.000856
    13  O   -0.011050  -0.020276
    14  O    0.009780  -0.001826
    15  H   -0.014797   0.000273
    16  O   -0.001245   0.004865
    17  H   -0.006410   0.000461
    18  O    8.027711   0.265001
    19  H    0.265001   0.420582
 Mulliken charges:
               1
     1  C    0.000000
     2  C    0.000000
     3  C    0.000000
     4  C    0.000000
     5  C    0.000000
     6  N    0.000000
     7  H    0.000000
     8  H    0.000000
     9  H    0.000000
    10  H    0.000000
    11  H    0.000000
    12  P    1.214171
    13  O   -0.607142
    14  O   -0.503411
    15  H    0.317461
    16  O   -0.546493
    17  H    0.341788
    18  O   -0.546438
    19  H    0.330064
 Sum of Mulliken charges =  -0.00000
 Mulliken charges with hydrogens summed into heavy atoms:
               1
     1  C    0.000000
     2  C    0.000000
     3  C    0.000000
     4  C    0.000000
     5  C    0.000000
     6  N    0.000000
    12  P    1.214171
    13  O   -0.607142
    14  O   -0.185950
    16  O   -0.204705
    18  O   -0.216374
         Mulliken charges condensed to fragments:
      1      0.000000
      2     -0.000000
 Electronic spatial extent (au):  <R**2>=          65466.5315
 Charge=             -0.0000 electrons
 Dipole moment (field-independent basis, Debye):
    X=              0.8479    Y=              0.9372    Z=              2.8797  Tot=              3.1449
 Quadrupole moment (field-independent basis, Debye-Ang):
   XX=            -23.4608   YY=             -0.9672   ZZ=             13.5597
   XY=             19.7173   XZ=             17.4311   YZ=             53.1401
 Traceless Quadrupole moment (field-independent basis, Debye-Ang):
   XX=            -19.8380   YY=              2.6556   ZZ=             17.1825
   XY=             19.7173   XZ=             17.4311   YZ=             53.1401
 Octapole moment (field-independent basis, Debye-Ang**2):
  XXX=           -301.1759  YYY=           -758.6248  ZZZ=           -407.3318  XYY=            285.5816
  XXY=           -346.8386  XXZ=           -198.8806  XZZ=             89.6571  YZZ=            268.4059
  YYZ=            678.4553  XYZ=            332.7732
 Hexadecapole moment (field-independent basis, Debye-Ang**3):
 XXXX=          -2467.0809 YYYY=         -31837.6455 ZZZZ=         -13121.4623 XXXY=          -4707.2355
 XXXZ=          -2836.0169 YYYX=           2074.1054 YYYZ=           3623.5462 ZZZX=          -1495.5223
 ZZZY=          -6166.6961 XXYY=          -5669.1409 XXZZ=          -2379.0913 YYZZ=           2450.0443
 XXYZ=          -2924.3877 YYXZ=           4995.9671 ZZXY=           1914.6033
 N-N= 2.800398893230D+02 E-N=-2.087828804314D+03  KE= 6.425074063554D+02
 No NMR shielding tensors so no spin-rotation constants.
 Leave Link  601 at Sun Feb 19 12:42:22 2023, MaxMem=  6710886400 cpu:               2.0 elap:               0.1
 (Enter /data0/home/software/g16/l122.exe)
 CPIOFr:  IOpCl= 0 IRwI=-1 IRwCP=  731 ICalc=  4 LCPTot=      192217 Len1MO=      505607 IndFrg=     2720252
 Restoring MOs from calculation   1 to rwf.
 CPIOFr:  IOpCl= 0 IRwI=-2 IRwCP=  731 ICalc=  0 LCPTot=      192217 Len1MO=      505607 IndFrg=      697824
 Counterpoise corrected energy =    -892.422497372343
                   BSSE energy =       0.001077332329
              sum of fragments =    -892.395278135462
           complexation energy =     -17.76 kcal/mole (raw)
           complexation energy =     -17.08 kcal/mole (corrected)
 Leave Link  122 at Sun Feb 19 12:42:22 2023, MaxMem=  6710886400 cpu:               0.2 elap:               0.0
 (Enter /data0/home/software/g16/l9999.exe)
 1\1\GINC-LOCALHOST\SP\RM062X\6-311+G(2d,p)\C5H8N1O4P1\WUHANYU\19-Feb-2
 023\0\\#p M062X/6-311+G(2d,p) nosymm em=GD3 counterpoise=2\\Title Card
  Required\\0,1\C,0,2.378422,12.179025,9.583402\C,0,2.162768,10.796597,
 9.50167\C,0,1.743565,10.116743,10.642273\C,0,1.550904,10.825687,11.827
 63\C,0,1.787964,12.204491,11.828136\N,0,2.192926,12.865516,10.726463\H
 ,0,1.567303,9.041671,10.610375\H,0,2.710991,12.765572,8.712274\H,0,2.3
 22107,10.271763,8.563947\H,0,1.224168,10.32145,12.732096\H,0,1.654186,
 12.813514,12.729335\P,0,3.916866,15.932432,9.544045\O,0,3.971357,15.05
 0293,8.373755\O,0,3.723175,17.444442,9.132802\H,0,3.729707,18.044071,9
 .99328\O,0,2.794953,15.680009,10.631861\H,0,2.601588,14.632675,10.6621
 9\O,0,5.208271,15.902361,10.490515\H,0,6.072496,15.836057,9.925525\\Ve
 rsion=ES64L-G16RevA.03\HF=-644.1505538\RMSD=6.440e-09\Dipole=-0.030991
 2,-1.232865,1.1196013\Quadrupole=5.4803687,-48.1598071,42.6794384,-1.0
 151989,4.1234478,8.0147427\PG=C01 [X(C5H8N1O4P1)]\\@


 CONTRAIWISE...CONTINUED TWEEDLEDEE, IF IT WAS SO, IT MIGHT BE,
 AND IF IT WERE SO, IT WOULD BE.....
 BUT AS IT ISN'T, IT AIN'T....
 THAT'S LOGIC.....
 ALICE THROUGH THE LOOKING GLASS
 Job cpu time:       0 days  0 hours 38 minutes 48.6 seconds.
 Elapsed time:       0 days  0 hours  1 minutes 41.9 seconds.
 File lengths (MBytes):  RWF=     98 Int=      0 D2E=      0 Chk=     29 Scr=      1
 Normal termination of Gaussian 16 at Sun Feb 19 12:42:23 2023.
