          45
 Energy =     -0.75155400 a.u.  #Cluster:    1
C           7.86814200     14.97228500     10.74630500
H           8.30012800     15.15193700     11.74193400
H           7.31330600     15.86878800     10.43622700
H           7.12180600     14.14045000     10.86514400
C           9.89329300     15.72654500      9.54593500
H          10.30124200     16.07794900     10.50636200
H          10.77078700     15.39633500      8.93326300
H           9.42339300     16.57754000      9.03232500
C           9.67809000     13.38991900     10.27365800
H           8.99961100     12.51916900     10.47299000
H          10.43067700     13.01054200      9.54189800
H          10.20519800     13.61490600     11.20879300
C           8.21604500     14.24831400      8.41882600
H           7.45343500     15.03138800      8.21466300
H           7.61100600     13.30842600      8.58495600
C           9.13343400     14.08703300      7.20407500
H          10.21110600     14.20768000      7.47138300
H           8.92936300     14.90036300      6.47818000
C           8.93739000     12.73962800      6.51088000
H           9.52254200     12.70443900      5.56775600
H           7.87601200     12.61083400      6.20104600
N           8.92676300     14.57851600      9.73581000
C           9.35531600     11.56967700      7.37747700
O          10.42190800     11.60832200      8.06380900
O           8.61813700     10.54724400      7.42121500
P           6.68820100     10.83898300     10.49452700
O           6.06527200      9.91275800      9.51359800
O           6.47784300     12.40647900     10.06703600
H           5.93228400     12.57056000      9.12772500
O           6.02247000     10.80464800     12.00374100
H           6.67139800     10.79041200     12.75286300
O           8.23277100     10.76401400     10.81110900
H           8.95913700     10.00486400     10.12430400
O          12.02447300     13.77997100      8.29035800
H          11.52823200     12.92054500      8.12183900
H          12.92759700     13.61088700      8.05741100
O           6.03167000     10.39672900      6.90128600
H           7.02238500     10.28505000      6.80544800
H           5.83300600      9.91241200      7.76189400
O           9.77965100      9.44101800      9.34786200
H          10.38795800     10.23558900      9.10027900
H           9.19677800      9.38031500      8.49110300
O           5.67205800     12.77077800      7.68419800
H           4.72206200     12.82568100      7.59720200
H           5.90664000     11.78009800      7.28133100
          45
 Energy =     -0.74621000 a.u.  #Cluster:    2
C           7.84504400     14.29067100     10.65979500
H           8.06794500     14.90738800     11.53950000
H           6.76657600     14.37496200     10.42729400
H           8.01631100     13.22741400     10.95902700
C           9.00551700     16.12173800      9.52184900
H           9.54847400     16.39077500     10.44403200
H           9.63974100     16.42590700      8.66891400
H           8.07634600     16.71451500      9.47970300
C           9.98230500     13.87007300      9.56944500
H          10.69293200     14.12908000      8.75693100
H          10.49690400     14.01355200     10.53011600
H           9.77618000     12.77753700      9.45797800
C           7.95308300     14.30688000      8.20080900
H           6.96222400     14.81425800      8.22409800
H           7.73040500     13.20335200      8.23802200
C           8.70052100     14.65658700      6.90602300
H           9.69677800     15.10456500      7.10197400
H           8.13512300     15.42233000      6.34000900
C           8.90143300     13.41823800      6.02819000
H           9.42690500     13.67546800      5.09092400
H           7.93885000     12.96112000      5.73233100
N           8.70632900     14.65224500      9.47815300
C           9.75470000     12.42750400      6.82839600
O          10.94453500     12.72413100      7.01710500
O           9.16002200     11.44785200      7.32652900
P           6.60656500     10.23708000     10.90373700
O           6.17856100      9.58273000      9.67281800
O           6.51487400     11.84091800     10.89449500
H           5.97719100     12.18142200     10.09081100
O           5.69536200      9.83286400     12.14296400
H           6.09226800     10.26903200     12.98699900
O           8.06159500     10.03936700     11.48074100
H           8.76839100     10.06709600     10.68306500
O          12.10838200     12.03294000      9.29738200
H          11.71789800     12.21998700      8.39371100
H          12.94026900     11.61068000      9.11485500
O           6.50163200     11.22550100      7.09068000
H           7.49843200     11.28644100      7.09155700
H           6.33849100     10.45327400      7.64539500
O          10.00486900     10.17964300      9.55056400
H           9.67414300     10.48259800      8.67197300
H          10.79573000     10.71743100      9.67433200
O           5.32869000     13.05372400      8.61786600
H           4.39841700     12.84888700      8.57356600
H           5.75306800     12.41027000      7.97535800
          45
 Energy =     -0.74599200 a.u.  #Cluster:    3
C           7.69726400     14.47829800     10.31186200
H           8.06611800     14.77684800     11.30323800
H           6.80650700     15.07362500     10.05327800
H           7.35065100     13.42395800     10.39862800
C           9.30618200     15.98814900      9.26657300
H           9.70324300     16.25680300     10.26060100
H          10.13376700     16.10129000      8.54204500
H           8.52128500     16.71481300      8.99930400
C           9.86719500     13.62231000      9.59108400
H           9.50847400     12.56656400      9.51668000
H          10.71612100     13.71184000      8.88155800
H          10.25542500     13.75806200     10.61075800
C           8.14490300     14.25461500      7.91470300
H           7.22197700     14.86228500      7.78804600
H           7.79552600     13.18548300      7.97514000
C           9.07912200     14.42960900      6.71026700
H          10.09613000     14.76032500      7.00768600
H           8.69236000     15.22181700      6.04117100
C           9.21448300     13.11769400      5.93133700
H           9.84331600     13.25063400      5.03267600
H           8.23664100     12.74144300      5.57937400
N           8.76817100     14.58795200      9.26179300
C           9.88334900     12.10438600      6.86736700
O          11.07499900     12.30019200      7.15449500
O           9.15248200     11.21799500      7.35694900
P           6.45783700     10.46571300     10.95712900
O           6.06275400      9.64702000      9.81709600
O           5.59611700     11.79527500     11.21688700
H           5.49771700     12.30024700     10.32458500
O           6.29282700      9.71380600     12.34519800
H           6.60633500     10.35560200     13.08898800
O           7.90854100     11.09817400     10.96819600
H           8.61502500     10.46770500     10.45095000
O          11.93957800     11.66401900      9.56763200
H          11.65436100     11.83581700      8.62096900
H          12.78120300     11.22914700      9.48838200
O           6.46175100     11.27764200      7.18042700
H           7.45592400     11.23043300      7.15159800
H           6.23279500     10.52464200      7.74045400
O           9.79813800      9.88351900      9.59976700
H           9.55410600     10.19307000      8.68793900
H          10.59932300     10.40435900      9.77628600
O           5.46814500     13.28343100      8.67044500
H           4.53671600     13.29358900      8.46506500
H           5.83513300     12.55982500      8.08541700
          45
 Energy =     -0.74560500 a.u.  #Cluster:    4
C           8.85751100     13.63563400     11.23109000
H           9.52012400     13.97809500     12.03684500
H           7.80770700     13.74558300     11.55421100
H           9.03502700     12.54097600     11.09255400
C           8.88643900     15.83733600     10.16496300
H           9.52329000     16.22791900     10.97542100
H           9.11318200     16.41544400      9.25119300
H           7.83325700     16.03169300     10.43146000
C          10.55011800     14.14599600      9.55745000
H          10.77583500     14.52061300      8.53549300
H          11.24737900     14.60325500     10.26964900
H          10.77825500     13.05585800      9.50362400
C           8.15677900     13.84899500      8.88710100
H           7.11323500     14.00019100      9.25348600
H           8.28515300     12.73373800      8.83147500
C           8.33913800     14.49557000      7.50623200
H           9.22777500     15.15680300      7.46989600
H           7.46539400     15.13759700      7.27712500
C           8.48583700     13.43625200      6.40999700
H           8.75186800     13.89942500      5.44314700
H           7.53228700     12.89960300      6.24289800
N           9.12058300     14.37066700      9.94490100
C           9.59750100     12.46568200      6.81870300
O          10.73280400     12.93744600      6.99322600
O           9.27430000     11.27735100      7.04600000
P           6.55689000     10.23878500     10.89947500
O           6.13110000      9.44735600      9.75393600
O           6.59202900     11.82721600     10.68255800
H           6.13212800     12.09160100      9.79561000
O           5.60500900     10.04223200     12.15600000
H           6.00961500     10.55885700     12.94908700
O           7.99187500     10.00280500     11.53249700
H           8.71666400     10.19398300     10.79722100
O          12.33690700     11.41163700      8.51139900
H          11.77389400     11.95933400      7.89262600
H          12.73493200     10.76188600      7.94221400
O           6.67489900     10.66000900      6.90861400
H           7.65977600     10.82325800      6.86979800
H           6.57207000      9.98922100      7.58907600
O           9.92358300     10.81555000      9.63474300
H           9.63062200     10.85115200      8.69236600
H          10.88769200     10.77169000      9.54131400
O           5.63950000     12.71165500      8.20597900
H           4.70103000     12.57104700      8.11261300
H           6.04902100     11.98303400      7.64475200
          45
 Energy =     -0.74439700 a.u.  #Cluster:    5
C           7.42675600     14.88808400      9.98065600
H           7.67522400     14.68074200     11.03786700
H           7.19217500     15.95469400      9.87071900
H           6.50178100     14.30544900      9.76480200
C           9.70597400     15.39520300      9.24188700
H          10.00192500     15.45579000     10.30340900
H          10.59719900     15.01452000      8.68705000
H           9.47670700     16.40612700      8.87627100
C           8.97585800     13.08290000      9.46696200
H           8.31408800     12.30938800      9.02897400
H          10.01129000     12.86257800      9.13313200
H           8.97045300     12.94581200     10.56339600
C           8.00221600     14.50124000      7.63740800
H           7.33383800     15.38662300      7.55435500
H           7.34664000     13.60044600      7.50204300
C           9.02846100     14.53799000      6.49769400
H          10.01049900     14.94635200      6.81560100
H           8.66751500     15.24567600      5.72171900
C           9.24859400     13.16814000      5.85608900
H           9.82111400     13.26335600      4.91357800
H           8.29662800     12.67447900      5.58724000
N           8.54514600     14.46285000      9.06354100
C          10.06009500     12.29754100      6.81791600
O          11.12942200     12.77440100      7.23592400
O           9.55353700     11.21539800      7.18243400
P           6.61836100     10.50308500     11.31992400
O           6.08854000      9.73867900     10.19829800
O           6.67523400     12.09302700     11.07873500
H           6.10017400     12.34331200     10.26784500
O           5.73634300     10.35065100     12.63266300
H           6.21076100     10.85362400     13.39646900
O           8.07802100     10.23440500     11.86396500
H           8.75232400     10.25303700     11.05145200
O          12.29249600     11.89237800      9.45944500
H          11.89997600     12.19537900      8.59262500
H          13.05877100     11.39020800      9.20481800
O           6.88576800     11.06582000      7.28419900
H           7.87538800     11.09730000      7.16031300
H           6.74480800     10.28290600      7.82381100
O           9.97174300     10.40067700      9.77643300
H           9.79312700     10.51549500      8.82122800
H          10.84255700     10.80751200      9.88568600
O           5.37110200     12.84905800      8.64075400
H           4.49266300     12.47121300      8.64403700
H           5.90871900     12.21648600      8.09665400
          45
 Energy =     -0.74426900 a.u.  #Cluster:    6
C           8.80708400     14.13389400     10.91143300
H           9.42720300     14.60465300     11.68545600
H           7.74786200     14.38694900     11.09229700
H           8.89622100     13.02740400     11.03767100
C           9.20285400     16.03067700      9.41909000
H           9.86281400     16.50463100     10.16415100
H           9.53316400     16.36415800      8.41882900
H           8.17836300     16.40904000      9.57651600
C          10.64767600     14.05442400      9.32023200
H          10.69058800     12.93669100      9.37494100
H          11.03530000     14.30725400      8.31479800
H          11.33498100     14.45238800     10.07737300
C           8.28276100     13.91508600      8.52163700
H           7.25137800     14.26242000      8.76071300
H           8.26749500     12.80510300      8.70439800
C           8.63136000     14.22160600      7.05802000
H           9.61529700     14.72304100      6.95876900
H           7.88417600     14.91871300      6.63095400
C           8.66468700     12.93977200      6.22043400
H           8.98436700     13.15031300      5.18436800
H           7.65955200     12.48149700      6.14795600
N           9.24368000     14.53403300      9.52838400
C           9.66425600     11.97470000      6.86441500
O          10.84628000     12.34083000      6.94717500
O           9.20938500     10.91548500      7.35744500
P           6.29824200     10.90223000     11.08943100
O           5.88060000      9.89143900     10.12846800
O           6.45007100     12.39457600     10.52414100
H           6.03947300     12.47770200      9.57702900
O           5.27351400     11.04575900     12.29491200
H           5.66968000     11.70678900     12.97698100
O           7.68099900     10.74278300     11.85108400
H           8.45676200     10.73371600     11.14354600
O          12.24479800     11.04734500      8.84840400
H          11.75586100     11.49524400      8.10167400
H          12.60018100     10.26135900      8.44817700
O           6.60265600     10.40565400      7.11341700
H           7.59620000     10.51983900      7.12467100
H           6.41849800      9.90663000      7.91410000
O           9.78088800     11.04000500      9.98875500
H           9.51700700     10.87164900      9.04833700
H          10.72293000     10.80907900      9.97694800
O           5.62346700     12.72844600      7.88381300
H           4.68299600     12.60590500      7.78595600
H           6.01641200     11.87911600      7.51271600
          45
 Energy =     -0.74392100 a.u.  #Cluster:    7
C           8.74867800     13.68996900     11.21542300
H           9.33734200     14.08875400     12.05220300
H           7.70250000     14.02710400     11.31932000
H           8.73983600     12.57884100     11.31183200
C           9.47717600     15.58192000      9.84185600
H          10.10739000     15.94665500     10.66893100
H           9.96195100     15.90154300      8.89698100
H           8.49520400     16.07832600      9.90361800
C          10.68154300     13.45644200      9.75810200
H          10.59897000     12.34615800      9.66569200
H          11.21439700     13.79502800      8.84443600
H          11.31883400     13.67659600     10.62400000
C           8.37494200     13.62699800      8.79109800
H           7.37417800     14.07446900      8.99438500
H           8.22960100     12.51999400      8.90634400
C           8.83424000     13.96890600      7.36891700
H           9.79215100     14.52627200      7.36140900
H           8.09596400     14.65368200      6.90097500
C           8.97429700     12.72651500      6.48517500
H           9.43752700     12.98976800      5.51619900
H           7.98032100     12.30048000      6.24545800
N           9.33005800     14.08837100      9.88590200
C           9.85004500     11.68663100      7.19069200
O          11.06424200     11.89287700      7.28199800
O           9.24942900     10.70628300      7.70609300
P           6.00220100     10.68689400     10.99452900
O           5.61680800      9.74396200      9.95393600
O           6.26751400     12.19608900     10.52718400
H           5.95552400     12.34815900      9.55096300
O           4.89903800     10.81858300     12.12911100
H           5.26996100     11.43586100     12.86568400
O           7.31672800     10.42345000     11.84250500
H           8.14382100     10.38791700     11.19246300
O          12.14566800     14.32969100      6.93142400
H          11.75552900     13.41785000      6.96692600
H          12.98834000     14.20920100      6.51186100
O           6.67079300     10.34233800      7.08256500
H           7.65494900     10.40253500      7.23970700
H           6.34970300      9.82987700      7.82955600
O           9.62447800     10.48351600     10.28540900
H           9.49755100     10.51428900      9.27833800
H          10.13444700      9.69026300     10.41941000
O           5.75832100     12.70472500      7.83525200
H           4.83153300     12.65803600      7.61658100
H           6.13628900     11.84820900      7.46958200
          45
 Energy =     -0.74370100 a.u.  #Cluster:    8
C           8.79557100     14.08649400     10.92727600
H           9.42103400     14.60698600     11.66431100
H           7.73184200     14.24261300     11.17852200
H           8.98885100     12.99105200     11.03515800
C           8.86251400     16.00936900      9.41498100
H           9.47696500     16.56994300     10.13838900
H           9.11407200     16.37761400      8.40412100
H           7.80258000     16.25040600      9.60547900
C          10.54530800     14.23969900      9.24115100
H          10.77505600     13.16464600      9.42728000
H          10.80710100     14.39193700      8.17168200
H          11.21753400     14.84174900      9.86436900
C           8.17414100     13.78861200      8.57171000
H           7.12263900     14.01823700      8.86184400
H           8.29941500     12.68781400      8.76464900
C           8.40622000     14.11435800      7.08915300
H           9.29955800     14.75256700      6.93702300
H           7.54513300     14.68776600      6.69235200
C           8.58418400     12.83647400      6.26422700
H           8.86737600     13.07141900      5.22284900
H           7.63852900     12.26343300      6.20551500
N           9.10354600     14.53138500      9.52322100
C           9.69393700     11.99757900      6.90438900
O          10.81788000     12.51608100      7.00494600
O           9.37822600     10.88086600      7.37416700
P           6.49933400     10.70393600     11.22306700
O           6.14978500      9.63755300     10.29560700
O           6.52379200     12.18645900     10.61334600
H           6.08626300     12.20707700      9.67473200
O           5.48402200     10.80143800     12.44093600
H           5.83753000     11.50913500     13.09907100
O           7.90176900     10.67818000     11.96493700
H           8.66176800     10.67256300     11.24133400
O          12.37721700     11.37291800      8.87003900
H          11.83036000     11.76290000      8.12945400
H          12.80871500     10.62771600      8.46653300
O           6.81515600     10.12617300      7.24634900
H           7.79242500     10.32922400      7.21892600
H           6.69976200      9.63433600      8.06378500
O           9.93196700     10.99767600     10.02386500
H           9.67707800     10.82834100      9.08503800
H          10.89869900     10.94277600      9.98051600
O           5.61999500     12.36607200      7.97728400
H           4.69516200     12.14428200      7.90580400
H           6.09000800     11.55217600      7.62063000
          45
 Energy =     -0.74217300 a.u.  #Cluster:    9
C           8.84692500     13.94171400     11.08666900
H           9.36727100     14.42884300     11.92015500
H           7.74973500     13.99565900     11.25803500
H           9.08924800     12.84873600     11.13769800
C           9.19794200     16.02816900      9.81943400
H           9.88660100     16.41582800     10.58856400
H           9.48479800     16.48549800      8.85594700
H           8.18224900     16.38382300     10.06762000
C          10.64596200     14.06654700      9.42583900
H          10.73275500     12.94935200      9.52521500
H          10.93856700     14.27091500      8.37569400
H          11.39100400     14.51118600     10.09697700
C           8.24421100     14.03141200      8.68756400
H           7.21761200     14.37485900      8.96567800
H           8.17884400     12.90899400      8.76783700
C           8.57874600     14.45389200      7.25053500
H           9.47857200     15.10125800      7.21122500
H           7.74448600     15.06928900      6.85298800
C           8.79245800     13.25543300      6.31648400
H           9.25036900     13.58267800      5.36330500
H           7.82260500     12.78913200      6.04538100
N           9.24140100     14.51627100      9.74296800
C           9.69004400     12.23180200      7.00055800
O          10.92470800     12.38455600      7.02021700
O           9.09495900     11.29730900      7.64112600
P           6.60423700     10.89049700     10.83841300
O           6.29959100     10.03719100      9.66460700
O           6.42200100     12.46604600     10.51185500
H           5.88648400     12.70950200      9.55356100
O           5.67621700     10.62274600     12.16704700
H           6.15022400     10.67548700     13.04028200
O           8.06128000     10.82876600     11.52495400
H           8.94402000     10.68746900     10.87104400
O          11.98900200     10.55425000      8.68832500
H          11.78245000     11.29815200      8.04078300
H          12.00782800      9.76615300      8.15558600
O           6.52023700     10.84092700      7.16576700
H           7.53544900     10.87007100      7.25552600
H           6.25345600     10.18714500      7.87355300
O          10.03274200     11.15184000     10.01996700
H           9.76648600     10.92105900      9.03821000
H          10.86818900     10.63799700     10.14171600
O           5.62924900     12.97197400      8.17176800
H           4.69050700     12.82957000      8.05294700
H           6.08829100     12.09003600      7.68040000
          45
 Energy =     -0.73848900 a.u.  #Cluster:   10
C           9.44452000     13.36051600     11.21110800
H           9.89032400     13.85880500     12.08136700
H           8.51821500     12.85197400     11.54559100
H          10.14276900     12.56221900     10.87130700
C           8.02920400     15.22905300     10.50633600
H           8.28015400     15.81382400     11.40289700
H           7.76126000     15.92482300      9.69313000
H           7.12183700     14.62418800     10.73238700
C          10.39760000     15.13808900      9.85028000
H          10.22162300     15.94630300      9.12221800
H          10.77581500     15.59087900     10.77930100
H          11.20500800     14.48599900      9.44046100
C           8.74738300     13.54605600      8.85967400
H           7.69764100     13.19059400      8.99317300
H           9.37549700     12.61786200      8.83008400
C           8.85879400     14.31520900      7.53850700
H           9.87556900     14.73631200      7.39385100
H           8.14133800     15.15270000      7.49715200
C           8.59400300     13.33802600      6.38589500
H           8.79740400     13.80837200      5.40903500
H           7.53936800     13.00862700      6.36325000
N           9.15856100     14.33034400     10.09550300
C           9.54850400     12.14614100      6.57866000
O          10.76192500     12.41265100      6.63600800
O           9.03393100     11.02910100      6.78563700
P           6.48903800     10.51829300     10.83957900
O           6.02694000      9.70596100      9.72339200
O           6.32754600     12.10850500     10.68952600
H           5.89765300     12.34878300      9.77789100
O           5.70540700     10.21658400     12.18736200
H           6.12729900     10.78331600     12.93667200
O           8.00195400     10.45092900     11.31007200
H           8.62580500     10.24827600     10.48088700
O          11.80712800     12.19460400      9.03779000
H          11.46857500     12.26481500      8.08714700
H          12.66823600     11.80085400      8.94445300
O           6.36035600     10.82727900      6.83509000
H           7.35112700     10.87260400      6.71555500
H           6.24705600     10.17119300      7.52807200
O           9.82116400     10.16889400      9.25772100
H           9.50319900     10.25957700      8.32775700
H          10.58330800     10.75513500      9.28547000
O           5.45976800     12.93511600      8.15933600
H           4.51604300     12.86255900      8.04974300
H           5.82416300     12.18808500      7.59369500
