          45
 G =       -0.745975 Gcorr = 0.275442 a.u. Nimag =   0 Frame:     1 Step:     1 Geom:     1
C           7.69504500     14.40812900     10.41153000
H           8.06686200     14.66857300     11.41248500
H           6.79705100     15.00498800     10.18317900
H           7.35919800     13.34768800     10.45582100
C           9.28404300     15.97605200      9.42264400
H           9.68383000     16.20593000     10.42523800
H          10.10681900     16.12732500      8.69958600
H           8.49127700     16.70610600      9.19018600
C           9.86812100     13.60374100      9.64256300
H           9.51828800     12.54890800      9.52535700
H          10.71188600     13.73111300      8.93260800
H          10.26136100     13.69952500     10.66485900
C           8.13016700     14.29126200      8.00443400
H           7.20104800     14.89525100      7.90914100
H           7.79080300     13.21734000      8.02097600
C           9.05545800     14.52636900      6.80332400
H          10.07118300     14.85359500      7.10878900
H           8.65751100     15.34288900      6.17096800
C           9.19792900     13.25029500      5.96819300
H           9.82016500     13.42731000      5.07252600
H           8.22137700     12.88050700      5.60583900
N           8.75854600     14.57241500      9.36103700
C           9.88137300     12.20420400      6.85632400
O          11.07282500     12.39883700      7.14528000
O           9.16149800     11.29088500      7.31147900
P           6.49519900     10.36005300     10.88910900
O           6.10060900      9.58844400      9.71652700
O           5.62328400     11.66914000     11.21128700
H           5.51574000     12.21177900     10.34247900
O           6.34477800      9.54707200     12.24399700
H           6.66132800     10.15720200     13.01273200
O           7.94034600     11.00448600     10.92021100
H           8.64953200     10.40410700     10.37170900
O          11.95704300     11.66607800      9.52374300
H          11.66385300     11.87667100      8.58740800
H          12.80224900     11.24333700      9.41985900
O           6.46918800     11.33453600      7.15033000
H           7.46346200     11.29775900      7.11427600
H           6.25023500     10.55600300      7.67855300
O           9.83214100      9.86660700      9.49067600
H           9.58049600     10.21323400      8.59426000
H          10.62979400     10.38644800      9.68550500
O           5.46691500     13.26438000      8.73278200
H           4.53360000     13.27272800      8.53603000
H           5.83655700     12.57072100      8.11418100
          45
 G =       -0.745992 Gcorr = 0.275425 a.u. Nimag =   0 Frame:     2 Step:     2 Geom:     2
C           7.69726400     14.47829800     10.31186200
H           8.06611800     14.77684800     11.30323800
H           6.80650700     15.07362500     10.05327800
H           7.35065100     13.42395800     10.39862800
C           9.30618200     15.98814900      9.26657300
H           9.70324300     16.25680300     10.26060100
H          10.13376700     16.10129000      8.54204500
H           8.52128500     16.71481300      8.99930400
C           9.86719500     13.62231000      9.59108400
H           9.50847400     12.56656400      9.51668000
H          10.71612100     13.71184000      8.88155800
H          10.25542500     13.75806200     10.61075800
C           8.14490300     14.25461500      7.91470300
H           7.22197700     14.86228500      7.78804600
H           7.79552600     13.18548300      7.97514000
C           9.07912200     14.42960900      6.71026700
H          10.09613000     14.76032500      7.00768600
H           8.69236000     15.22181700      6.04117100
C           9.21448300     13.11769400      5.93133700
H           9.84331600     13.25063400      5.03267600
H           8.23664100     12.74144300      5.57937400
N           8.76817100     14.58795200      9.26179300
C           9.88334900     12.10438600      6.86736700
O          11.07499900     12.30019200      7.15449500
O           9.15248200     11.21799500      7.35694900
P           6.45783700     10.46571300     10.95712900
O           6.06275400      9.64702000      9.81709600
O           5.59611700     11.79527500     11.21688700
H           5.49771700     12.30024700     10.32458500
O           6.29282700      9.71380600     12.34519800
H           6.60633500     10.35560200     13.08898800
O           7.90854100     11.09817400     10.96819600
H           8.61502500     10.46770500     10.45095000
O          11.93957800     11.66401900      9.56763200
H          11.65436100     11.83581700      8.62096900
H          12.78120300     11.22914700      9.48838200
O           6.46175100     11.27764200      7.18042700
H           7.45592400     11.23043300      7.15159800
H           6.23279500     10.52464200      7.74045400
O           9.79813800      9.88351900      9.59976700
H           9.55410600     10.19307000      8.68793900
H          10.59932300     10.40435900      9.77628600
O           5.46814500     13.28343100      8.67044500
H           4.53671600     13.29358900      8.46506500
H           5.83513300     12.55982500      8.08541700
          45
 G =       -0.744187 Gcorr = 0.278575 a.u. Nimag =   0 Frame:     3 Step:     3 Geom:     3
C           8.60861000     14.00836400     11.03477700
H           9.17459800     14.48213900     11.84748100
H           7.52866400     14.14773300     11.21643500
H           8.80148300     12.90924900     11.08849800
C           8.83417800     16.03046400      9.67767900
H           9.43962500     16.51342200     10.46219400
H           9.13947100     16.46040900      8.70672100
H           7.77696700     16.29862500      9.84476200
C          10.46187200     14.21112200      9.46939000
H          10.61072800     13.10131700      9.45008800
H          10.83220900     14.56713700      8.48900400
H          11.10158400     14.62015100     10.26153100
C           8.12803100     13.90270100      8.62816300
H           7.06618500     14.13372500      8.87447400
H           8.21740000     12.78647400      8.73638900
C           8.45811800     14.33918300      7.19355700
H           9.39072300     14.93677000      7.14252700
H           7.65167900     14.99008600      6.80292700
C           8.62024800     13.12582900      6.27308000
H           8.92630800     13.43518000      5.25790500
H           7.66409500     12.58022700      6.15604200
N           9.01680600     14.54045300      9.68799300
C           9.70244600     12.21856600      6.86540300
O          10.84309900     12.68919700      6.99034200
O           9.34759700     11.08944300      7.27900500
P           6.41763300     10.54960600     10.96073200
O           6.10298800      9.57149200      9.92930400
O           6.43273900     12.08437200     10.49812300
H           6.02175700     12.19316400      9.55401100
O           5.37582400     10.51567400     12.15964900
H           5.70485100     11.16138200     12.89025600
O           7.80408600     10.46818800     11.72778700
H           8.58206700     10.58143100     11.03150200
O          12.34067700     11.40792600      8.82182000
H          11.81739600     11.85717100      8.09928000
H          12.77590900     10.69052500      8.37463700
O           6.80132100     10.35482900      6.96736000
H           7.77916300     10.56069300      7.00285400
H           6.65708100      9.78647000      7.72905700
O           9.87914600     11.09052000      9.92062000
H           9.64289900     10.96196000      8.96647700
H          10.83842400     10.94778300      9.91112500
O           5.59729600     12.51781200      7.87338200
H           4.67368400     12.31523100      7.75186700
H           6.07235100     11.73583100      7.45380700
          45
 G =       -0.751554 Gcorr = 0.258258 a.u. Nimag =   0 Frame:     4 Step:     4 Geom:     4
C           7.86814200     14.97228500     10.74630500
H           8.30012800     15.15193700     11.74193400
H           7.31330600     15.86878800     10.43622700
H           7.12180600     14.14045000     10.86514400
C           9.89329300     15.72654500      9.54593500
H          10.30124200     16.07794900     10.50636200
H          10.77078700     15.39633500      8.93326300
H           9.42339300     16.57754000      9.03232500
C           9.67809000     13.38991900     10.27365800
H           8.99961100     12.51916900     10.47299000
H          10.43067700     13.01054200      9.54189800
H          10.20519800     13.61490600     11.20879300
C           8.21604500     14.24831400      8.41882600
H           7.45343500     15.03138800      8.21466300
H           7.61100600     13.30842600      8.58495600
C           9.13343400     14.08703300      7.20407500
H          10.21110600     14.20768000      7.47138300
H           8.92936300     14.90036300      6.47818000
C           8.93739000     12.73962800      6.51088000
H           9.52254200     12.70443900      5.56775600
H           7.87601200     12.61083400      6.20104600
N           8.92676300     14.57851600      9.73581000
C           9.35531600     11.56967700      7.37747700
O          10.42190800     11.60832200      8.06380900
O           8.61813700     10.54724400      7.42121500
P           6.68820100     10.83898300     10.49452700
O           6.06527200      9.91275800      9.51359800
O           6.47784300     12.40647900     10.06703600
H           5.93228400     12.57056000      9.12772500
O           6.02247000     10.80464800     12.00374100
H           6.67139800     10.79041200     12.75286300
O           8.23277100     10.76401400     10.81110900
H           8.95913700     10.00486400     10.12430400
O          12.02447300     13.77997100      8.29035800
H          11.52823200     12.92054500      8.12183900
H          12.92759700     13.61088700      8.05741100
O           6.03167000     10.39672900      6.90128600
H           7.02238500     10.28505000      6.80544800
H           5.83300600      9.91241200      7.76189400
O           9.77965100      9.44101800      9.34786200
H          10.38795800     10.23558900      9.10027900
H           9.19677800      9.38031500      8.49110300
O           5.67205800     12.77077800      7.68419800
H           4.72206200     12.82568100      7.59720200
H           5.90664000     11.78009800      7.28133100
          45
 G =       -0.743431 Gcorr = 0.279403 a.u. Nimag =   0 Frame:     5 Step:     5 Geom:     5
C           8.81076300     14.02273800     10.92952200
H           9.45083900     14.49821500     11.68416700
H           7.75223800     14.19934100     11.18951500
H           8.97384700     12.91917200     10.99629600
C           8.93220100     15.99862000      9.49102300
H           9.58136100     16.51360000     10.21796900
H           9.17047800     16.39442800      8.48745500
H           7.88526800     16.26588000      9.71589400
C          10.55976100     14.18657900      9.24335700
H          10.73116900     13.08436600      9.28620400
H          10.85215600     14.47725300      8.21521700
H          11.24575900     14.66091900      9.95672400
C           8.17507800     13.83308600      8.56592900
H           7.13141800     14.09097300      8.86037200
H           8.25866700     12.72266700      8.72493400
C           8.42517900     14.19542400      7.09507900
H           9.36102200     14.77419100      6.96052500
H           7.60553300     14.84030700      6.72178900
C           8.51395800     12.93692900      6.22665600
H           8.78796500     13.18978200      5.18706900
H           7.53748000     12.41806200      6.17218300
N           9.12782900     14.51095000      9.54217900
C           9.59054800     12.02043700      6.81609000
O          10.74513200     12.46869000      6.89367100
O           9.22162500     10.91351700      7.27190000
P           6.40564300     10.71362500     11.12860400
O           6.00649400      9.69325600     10.16988300
O           6.47961100     12.21438800     10.56961700
H           6.02933100     12.28605700      9.63968400
O           5.40691800     10.80622800     12.36062100
H           5.79377400     11.47601300     13.03930800
O           7.81364400     10.61072900     11.85286100
H           8.56599200     10.60953500     11.12074900
O          12.27867000     11.23755500      8.72209300
H          11.73909700     11.65931400      7.99352100
H          12.67794700     10.48342500      8.30227000
O           6.63112400     10.27317600      7.13299800
H           7.61617200     10.43858100      7.10582100
H           6.50329200      9.75529000      7.93237400
O           9.83646300     10.94361100      9.90466700
H           9.55630600     10.80369700      8.96726100
H          10.79883600     10.84892300      9.84117100
O           5.54250200     12.52955300      7.96235700
H           4.60817500     12.35177900      7.89257200
H           5.97275200     11.70917100      7.56987000
          45
 G =       -0.743701 Gcorr = 0.278976 a.u. Nimag =   0 Frame:     6 Step:     6 Geom:     6
C           8.79557100     14.08649400     10.92727600
H           9.42103400     14.60698600     11.66431100
H           7.73184200     14.24261300     11.17852200
H           8.98885100     12.99105200     11.03515800
C           8.86251400     16.00936900      9.41498100
H           9.47696500     16.56994300     10.13838900
H           9.11407200     16.37761400      8.40412100
H           7.80258000     16.25040600      9.60547900
C          10.54530800     14.23969900      9.24115100
H          10.77505600     13.16464600      9.42728000
H          10.80710100     14.39193700      8.17168200
H          11.21753400     14.84174900      9.86436900
C           8.17414100     13.78861200      8.57171000
H           7.12263900     14.01823700      8.86184400
H           8.29941500     12.68781400      8.76464900
C           8.40622000     14.11435800      7.08915300
H           9.29955800     14.75256700      6.93702300
H           7.54513300     14.68776600      6.69235200
C           8.58418400     12.83647400      6.26422700
H           8.86737600     13.07141900      5.22284900
H           7.63852900     12.26343300      6.20551500
N           9.10354600     14.53138500      9.52322100
C           9.69393700     11.99757900      6.90438900
O          10.81788000     12.51608100      7.00494600
O           9.37822600     10.88086600      7.37416700
P           6.49933400     10.70393600     11.22306700
O           6.14978500      9.63755300     10.29560700
O           6.52379200     12.18645900     10.61334600
H           6.08626300     12.20707700      9.67473200
O           5.48402200     10.80143800     12.44093600
H           5.83753000     11.50913500     13.09907100
O           7.90176900     10.67818000     11.96493700
H           8.66176800     10.67256300     11.24133400
O          12.37721700     11.37291800      8.87003900
H          11.83036000     11.76290000      8.12945400
H          12.80871500     10.62771600      8.46653300
O           6.81515600     10.12617300      7.24634900
H           7.79242500     10.32922400      7.21892600
H           6.69976200      9.63433600      8.06378500
O           9.93196700     10.99767600     10.02386500
H           9.67707800     10.82834100      9.08503800
H          10.89869900     10.94277600      9.98051600
O           5.61999500     12.36607200      7.97728400
H           4.69516200     12.14428200      7.90580400
H           6.09000800     11.55217600      7.62063000
          45
 G =       -0.742134 Gcorr = 0.255667 a.u. Nimag =   0 Frame:     7 Step:     7 Geom:     7
C           8.76071100     14.04862800     10.90099000
H           9.25934000     14.61982900     11.69337600
H           7.65989600     14.10478800     11.04644800
H           9.01395400     12.96871600     11.06082700
C           9.11444400     16.00878600      9.44652800
H           9.78456500     16.47640200     10.18703300
H           9.41446300     16.37545400      8.44888000
H           8.09067400     16.37431800      9.64150500
C          10.58994100     14.03637800      9.26879100
H          10.68654600     12.93503000      9.47646700
H          10.90060300     14.14340800      8.20954400
H          11.31713000     14.55221700      9.90785200
C           8.20301900     13.90202800      8.49380200
H           7.16826100     14.25981300      8.71805600
H           8.14571600     12.79178500      8.68103400
C           8.56199200     14.18698800      7.02910300
H           9.45533400     14.83888000      6.94405700
H           7.72931500     14.75023600      6.55778300
C           8.80715200     12.90628600      6.22022800
H           9.28122900     13.14513700      5.24888600
H           7.84778700     12.40421700      5.97704700
N           9.17487100     14.49714500      9.51584900
C           9.70068100     11.96449500      7.01771500
O          10.93364100     12.12969500      7.04210900
O           9.10147300     11.09329100      7.73865900
P           6.55621300     10.95850900     10.90833100
O           6.28028800      9.99282400      9.81741000
O           6.36501200     12.49346000     10.42736000
H           5.84688100     12.63673100      9.44139800
O           5.60594700     10.81077000     12.24013700
H           6.06318800     10.95366100     13.11223600
O           8.00038600     10.97995400     11.62277400
H           8.89797500     10.79114600     10.99955200
O          11.98477800     10.48466700      8.90068500
H          11.78088600     11.15774500      8.17902200
H          12.03158800      9.64900800      8.44852100
O           6.54344500     10.55429800      7.25629200
H           7.55575400     10.60205400      7.36181000
H           6.26778800      9.97035200      8.01941800
O           9.99866400     11.18486700     10.13300400
H           9.75533100     10.85725400      9.17198100
H          10.83481600     10.69331800     10.32147300
O           5.61188400     12.76277700      8.03419000
H           4.67706200     12.59752700      7.91359700
H           6.08939100     11.84516600      7.63825900
          45
 G =       -0.744269 Gcorr = 0.278492 a.u. Nimag =   0 Frame:     8 Step:     8 Geom:     8
C           8.80708400     14.13389400     10.91143300
H           9.42720300     14.60465300     11.68545600
H           7.74786200     14.38694900     11.09229700
H           8.89622100     13.02740400     11.03767100
C           9.20285400     16.03067700      9.41909000
H           9.86281400     16.50463100     10.16415100
H           9.53316400     16.36415800      8.41882900
H           8.17836300     16.40904000      9.57651600
C          10.64767600     14.05442400      9.32023200
H          10.69058800     12.93669100      9.37494100
H          11.03530000     14.30725400      8.31479800
H          11.33498100     14.45238800     10.07737300
C           8.28276100     13.91508600      8.52163700
H           7.25137800     14.26242000      8.76071300
H           8.26749500     12.80510300      8.70439800
C           8.63136000     14.22160600      7.05802000
H           9.61529700     14.72304100      6.95876900
H           7.88417600     14.91871300      6.63095400
C           8.66468700     12.93977200      6.22043400
H           8.98436700     13.15031300      5.18436800
H           7.65955200     12.48149700      6.14795600
N           9.24368000     14.53403300      9.52838400
C           9.66425600     11.97470000      6.86441500
O          10.84628000     12.34083000      6.94717500
O           9.20938500     10.91548500      7.35744500
P           6.29824200     10.90223000     11.08943100
O           5.88060000      9.89143900     10.12846800
O           6.45007100     12.39457600     10.52414100
H           6.03947300     12.47770200      9.57702900
O           5.27351400     11.04575900     12.29491200
H           5.66968000     11.70678900     12.97698100
O           7.68099900     10.74278300     11.85108400
H           8.45676200     10.73371600     11.14354600
O          12.24479800     11.04734500      8.84840400
H          11.75586100     11.49524400      8.10167400
H          12.60018100     10.26135900      8.44817700
O           6.60265600     10.40565400      7.11341700
H           7.59620000     10.51983900      7.12467100
H           6.41849800      9.90663000      7.91410000
O           9.78088800     11.04000500      9.98875500
H           9.51700700     10.87164900      9.04833700
H          10.72293000     10.80907900      9.97694800
O           5.62346700     12.72844600      7.88381300
H           4.68299600     12.60590500      7.78595600
H           6.01641200     11.87911600      7.51271600
          45
 G =       -0.743430 Gcorr = 0.279404 a.u. Nimag =   0 Frame:     9 Step:     9 Geom:     9
C           8.83730400     13.96656900     11.05050300
H           9.46417600     14.39815000     11.84172000
H           7.77676700     14.17909000     11.27274500
H           8.95440700     12.85606800     11.09570500
C           9.09240500     15.96944000      9.66796800
H           9.72973000     16.44155200     10.43346400
H           9.38712700     16.37921300      8.68518900
H           8.04786400     16.27186100      9.85654000
C          10.65885800     14.10169800      9.44047500
H          10.78628000     12.99299600      9.46230400
H          11.00411700     14.40502600      8.43256100
H          11.33249700     14.53191300     10.19258700
C           8.29240400     13.85718000      8.65932000
H           7.24787600     14.14770000      8.91827800
H           8.32797200     12.74086800      8.79353300
C           8.61606800     14.24452700      7.20933100
H           9.57815500     14.78902300      7.12687400
H           7.83784500     14.92995300      6.82008700
C           8.69186800     13.00450300      6.31363200
H           9.01708000     13.27101300      5.29229700
H           7.69925000     12.52575200      6.20746700
N           9.22922000     14.47451700      9.68969400
C           9.70793000     12.03272700      6.92162500
O          10.87461900     12.43373400      7.05653400
O           9.27906900     10.93036100      7.33373100
P           6.30321900     10.74731900     11.06933400
O           5.90266200      9.76725400     10.07014500
O           6.45863400     12.25677900     10.55227600
H           6.04926000     12.36894600      9.60742800
O           5.26047500     10.85087500     12.26341800
H           5.64610900     11.48782500     12.97361200
O           7.67587800     10.56939200     11.84510700
H           8.45696600     10.55945400     11.14379200
O          12.28324300     11.10295600      8.91319500
H          11.79081800     11.56294400      8.17403200
H          12.67259300     10.34539600      8.49027700
O           6.67446000     10.39570700      7.07562400
H           7.66558200     10.52302600      7.09227600
H           6.49466900      9.86214100      7.85440900
O           9.78581800     10.87451500      9.98964200
H           9.53903100     10.76647500      9.03890800
H          10.74599000     10.74573900      9.96192300
O           5.63857500     12.67175200      7.91862100
H           4.70179600     12.53082400      7.80949000
H           6.05335100     11.84527600      7.52234700
          45
 G =       -0.744046 Gcorr = 0.278715 a.u. Nimag =   0 Frame:    10 Step:    10 Geom:    10
C           8.67904200     13.94928500     11.06766700
H           9.27896800     14.41349400     11.86132200
H           7.60779700     14.09022300     11.29427100
H           8.87018300     12.84900000     11.10288800
C           8.85495800     15.98346100      9.72112300
H           9.49373600     16.45822900     10.48393500
H           9.12053700     16.42141700      8.74209700
H           7.80628900     16.25230400      9.93452700
C          10.46878300     14.16278200      9.43185200
H          10.61411300     13.05291600      9.39762900
H          10.80055400     14.52610100      8.44038000
H          11.14049400     14.56400100     10.20118800
C           8.10249500     13.86684300      8.68128000
H           7.05185900     14.09863800      8.97096100
H           8.19269600     12.74943900      8.77645800
C           8.37754800     14.31435100      7.23854900
H           9.30951600     14.90938000      7.15572500
H           7.55879900     14.97136800      6.88544400
C           8.49880200     13.10831900      6.30248000
H           8.76563500     13.42497400      5.27851000
H           7.53686500     12.56674700      6.21883600
N           9.03430100     14.49311000      9.71063700
C           9.60055200     12.19261300      6.84387600
O          10.74635500     12.65968400      6.92860800
O           9.25881900     11.06021200      7.25923300
P           6.47507000     10.49537800     11.04920700
O           6.11939200      9.52795700     10.02103100
O           6.47855900     12.03440600     10.60038100
H           6.03173100     12.15367000      9.67388100
O           5.47801100     10.45334900     12.28531200
H           5.83503500     11.09268000     13.00853600
O           7.88878600     10.40267800     11.76367000
H           8.64038700     10.52043200     11.03976600
O          12.31538800     11.36491300      8.68831400
H          11.76474600     11.81981800      7.98995800
H          12.72932300     10.64821200      8.22003300
O           6.69969400     10.33700400      7.04166100
H           7.67893600     10.53997700      7.03971100
H           6.58460700      9.76198600      7.80326100
O           9.89451700     11.03741700      9.87907400
H           9.61636800     10.91669300      8.93550400
H          10.85322800     10.90002100      9.82408900
O           5.54035800     12.49410600      8.01611500
H           4.61166000     12.29592700      7.93152000
H           5.99452900     11.71450700      7.56951000
          45
 G =       -0.744397 Gcorr = 0.274957 a.u. Nimag =   0 Frame:    11 Step:    11 Geom:    11
C           7.42675600     14.88808400      9.98065600
H           7.67522400     14.68074200     11.03786700
H           7.19217500     15.95469400      9.87071900
H           6.50178100     14.30544900      9.76480200
C           9.70597400     15.39520300      9.24188700
H          10.00192500     15.45579000     10.30340900
H          10.59719900     15.01452000      8.68705000
H           9.47670700     16.40612700      8.87627100
C           8.97585800     13.08290000      9.46696200
H           8.31408800     12.30938800      9.02897400
H          10.01129000     12.86257800      9.13313200
H           8.97045300     12.94581200     10.56339600
C           8.00221600     14.50124000      7.63740800
H           7.33383800     15.38662300      7.55435500
H           7.34664000     13.60044600      7.50204300
C           9.02846100     14.53799000      6.49769400
H          10.01049900     14.94635200      6.81560100
H           8.66751500     15.24567600      5.72171900
C           9.24859400     13.16814000      5.85608900
H           9.82111400     13.26335600      4.91357800
H           8.29662800     12.67447900      5.58724000
N           8.54514600     14.46285000      9.06354100
C          10.06009500     12.29754100      6.81791600
O          11.12942200     12.77440100      7.23592400
O           9.55353700     11.21539800      7.18243400
P           6.61836100     10.50308500     11.31992400
O           6.08854000      9.73867900     10.19829800
O           6.67523400     12.09302700     11.07873500
H           6.10017400     12.34331200     10.26784500
O           5.73634300     10.35065100     12.63266300
H           6.21076100     10.85362400     13.39646900
O           8.07802100     10.23440500     11.86396500
H           8.75232400     10.25303700     11.05145200
O          12.29249600     11.89237800      9.45944500
H          11.89997600     12.19537900      8.59262500
H          13.05877100     11.39020800      9.20481800
O           6.88576800     11.06582000      7.28419900
H           7.87538800     11.09730000      7.16031300
H           6.74480800     10.28290600      7.82381100
O           9.97174300     10.40067700      9.77643300
H           9.79312700     10.51549500      8.82122800
H          10.84255700     10.80751200      9.88568600
O           5.37110200     12.84905800      8.64075400
H           4.49266300     12.47121300      8.64403700
H           5.90871900     12.21648600      8.09665400
          45
 G =       -0.743921 Gcorr = 0.277678 a.u. Nimag =   0 Frame:    12 Step:    12 Geom:    12
C           8.74867800     13.68996900     11.21542300
H           9.33734200     14.08875400     12.05220300
H           7.70250000     14.02710400     11.31932000
H           8.73983600     12.57884100     11.31183200
C           9.47717600     15.58192000      9.84185600
H          10.10739000     15.94665500     10.66893100
H           9.96195100     15.90154300      8.89698100
H           8.49520400     16.07832600      9.90361800
C          10.68154300     13.45644200      9.75810200
H          10.59897000     12.34615800      9.66569200
H          11.21439700     13.79502800      8.84443600
H          11.31883400     13.67659600     10.62400000
C           8.37494200     13.62699800      8.79109800
H           7.37417800     14.07446900      8.99438500
H           8.22960100     12.51999400      8.90634400
C           8.83424000     13.96890600      7.36891700
H           9.79215100     14.52627200      7.36140900
H           8.09596400     14.65368200      6.90097500
C           8.97429700     12.72651500      6.48517500
H           9.43752700     12.98976800      5.51619900
H           7.98032100     12.30048000      6.24545800
N           9.33005800     14.08837100      9.88590200
C           9.85004500     11.68663100      7.19069200
O          11.06424200     11.89287700      7.28199800
O           9.24942900     10.70628300      7.70609300
P           6.00220100     10.68689400     10.99452900
O           5.61680800      9.74396200      9.95393600