
    -----------------------------------------------------------------------
          Psi4: An Open-Source Ab Initio Electronic Structure Package
                               Psi4 1.3.2 release

                         Git: Rev {HEAD} ecbda83 


    R. M. Parrish, L. A. Burns, D. G. A. Smith, A. C. Simmonett,
    A. E. DePrince III, E. G. Hohenstein, U. Bozkaya, A. Yu. Sokolov,
    R. Di Remigio, R. M. Richard, J. F. Gonthier, A. M. James,
    H. R. McAlexander, A. Kumar, M. Saitow, X. Wang, B. P. Pritchard,
    P. Verma, H. F. Schaefer III, K. Patkowski, R. A. King, E. F. Valeev,
    F. A. Evangelista, J. M. Turney, T. D. Crawford, and C. D. Sherrill,
    J. Chem. Theory Comput. 13(7) pp 3185--3197 (2017).
    (doi: 10.1021/acs.jctc.7b00174)


                         Additional Contributions by
    P. Kraus, H. Kruse, M. H. Lechner, M. C. Schieber, R. A. Shaw,
    A. Alenaizan, R. Galvelis, Z. L. Glick, S. Lehtola, and J. P. Misiewicz

    -----------------------------------------------------------------------


    Psi4 started on: Monday, 13 June 2022 09:48PM

    Process ID: 313410
    Host:       localhost.localdomain
    PSIDATADIR: /data0/home/wuhanyu/software/psi4_132/share/psi4
    Memory:     500.0 MiB
    Threads:    24
    
  ==> Input File <==

--------------------------------------------------------------------------
memory 200 GB

molecule dimer {
0 1
C      4.78700000    8.88300000    8.69100000
C      5.30300000    9.45800000    7.53500000
C      6.16400000   10.54800000    9.30900000
N      5.33600000    9.56900000    9.77600000
H      4.09200000    8.07300000    8.80500000
H      5.12100000    9.22000000    6.50400000
H      6.74600000   11.26100000    9.90900000
C      4.95400000    9.41200000   11.16700000
H      4.25300000   10.23700000   11.46000000
H      4.46100000    8.44500000   11.34700000
H      5.83800000    9.50000000   11.84000000
N      6.16700000   10.47800000    7.93500000
C      6.75500000   11.50900000    7.08000000
H      7.37900000   11.02300000    6.29700000
H      7.43900000   12.14600000    7.70900000
C      5.69200000   12.42300000    6.43100000
H      6.21500000   13.34900000    6.10000000
H      5.28900000   11.94900000    5.51800000
C      4.53700000   12.81800000    7.35200000
H      3.71800000   12.07800000    7.30700000
H      4.09600000   13.78100000    7.03200000
C      4.99800000   12.97600000    8.80700000
O      5.99300000   13.67800000    9.03400000
O      4.38300000   12.28700000    9.65300000
--
0 1
P      6.33000000   12.86200000   12.47100000
O      7.10400000   11.63400000   12.25600000
O      4.76400000   12.69200000   12.26900000
H      4.56100000   12.59900000   11.22100000
O      6.46100000   13.35000000   13.98300000
H      5.90500000   14.21700000   14.07000000
O      6.76500000   14.13400000   11.63300000
H      6.47300000   13.99200000   10.61800000
}

set {
    scf_type DF
    freeze_core True
    basis aug-cc-pVTZ
}

energy('sapt2+(3)dmp2')
--------------------------------------------------------------------------

  Memory set to 186.265 GiB by Python driver.

  //>>>>>>>>>>>>>>>>>>>>>>>>>>>>>>>>>>>//
  //              Dimer HF             //
  //<<<<<<<<<<<<<<<<<<<<<<<<<<<<<<<<<<<//


*** tstart() called on localhost.localdomain
*** at Mon Jun 13 21:48:04 2022

   => Loading Basis Set <=

    Name: AUG-CC-PVTZ
    Role: ORBITAL
    Keyword: BASIS
    atoms 1-3, 8, 13, 16, 19, 22                     entry C          line   235 file /data0/home/wuhanyu/software/psi4_132/share/psi4/basis/aug-cc-pvtz.gbs 
    atoms 4, 12                                      entry N          line   281 file /data0/home/wuhanyu/software/psi4_132/share/psi4/basis/aug-cc-pvtz.gbs 
    atoms 5-7, 9-11, 14-15, 17-18, 20-21, 28, 30, 32 entry H          line    36 file /data0/home/wuhanyu/software/psi4_132/share/psi4/basis/aug-cc-pvtz.gbs 
    atoms 23-24, 26-27, 29, 31                       entry O          line   327 file /data0/home/wuhanyu/software/psi4_132/share/psi4/basis/aug-cc-pvtz.gbs 
    atoms 25                                         entry P          line   820 file /data0/home/wuhanyu/software/psi4_132/share/psi4/basis/aug-cc-pvtz.gbs 


         ---------------------------------------------------------
                                   SCF
               by Justin Turney, Rob Parrish, Andy Simmonett
                          and Daniel G. A. Smith
                              RHF Reference
                       24 Threads, 190734 MiB Core
         ---------------------------------------------------------

  ==> Geometry <==

    Molecular point group: c1
    Full point group: C1

    Geometry (in Angstrom), charge = 0, multiplicity = 1:

       Center              X                  Y                   Z               Mass       
    ------------   -----------------  -----------------  -----------------  -----------------
         C           -0.944588690955    -2.966083920564    -1.338224345585    12.000000000000
         C           -0.428588690955    -2.391083920564    -2.494224345585    12.000000000000
         C            0.432411309045    -1.301083920564    -0.720224345585    12.000000000000
         N           -0.395588690955    -2.280083920564    -0.253224345585    14.003074004430
         H           -1.639588690955    -3.776083920564    -1.224224345585     1.007825032230
         H           -0.610588690955    -2.629083920564    -3.525224345585     1.007825032230
         H            1.014411309045    -0.588083920564    -0.120224345585     1.007825032230
         C           -0.777588690955    -2.437083920564     1.137775654415    12.000000000000
         H           -1.478588690955    -1.612083920564     1.430775654415     1.007825032230
         H           -1.270588690955    -3.404083920564     1.317775654415     1.007825032230
         H            0.106411309045    -2.349083920564     1.810775654415     1.007825032230
         N            0.435411309045    -1.371083920564    -2.094224345585    14.003074004430
         C            1.023411309045    -0.340083920564    -2.949224345585    12.000000000000
         H            1.647411309045    -0.826083920564    -3.732224345585     1.007825032230
         H            1.707411309045     0.296916079436    -2.320224345585     1.007825032230
         C           -0.039588690955     0.573916079436    -3.598224345585    12.000000000000
         H            0.483411309045     1.499916079436    -3.929224345585     1.007825032230
         H           -0.442588690955     0.099916079436    -4.511224345585     1.007825032230
         C           -1.194588690955     0.968916079436    -2.677224345585    12.000000000000
         H           -2.013588690955     0.228916079436    -2.722224345585     1.007825032230
         H           -1.635588690955     1.931916079436    -2.997224345585     1.007825032230
         C           -0.733588690955     1.126916079436    -1.222224345585    12.000000000000
         O            0.261411309045     1.828916079436    -0.995224345585    15.994914619570
         O           -1.348588690955     0.437916079436    -0.376224345585    15.994914619570
         P            0.598411309045     1.012916079436     2.441775654415    30.973761998420
         O            1.372411309045    -0.215083920564     2.226775654415    15.994914619570
         O           -0.967588690955     0.842916079436     2.239775654415    15.994914619570
         H           -1.170588690955     0.749916079436     1.191775654415     1.007825032230
         O            0.729411309045     1.500916079436     3.953775654415    15.994914619570
         H            0.173411309045     2.367916079436     4.040775654415     1.007825032230
         O            1.033411309045     2.284916079436     1.603775654415    15.994914619570
         H            0.741411309045     2.142916079436     0.588775654415     1.007825032230

  Running in c1 symmetry.

  Rotational constants: A =      0.02337  B =      0.01034  C =      0.00837 [cm^-1]
  Rotational constants: A =    700.54562  B =    310.01195  C =    250.86837 [MHz]
  Nuclear repulsion = 1547.989653660161594

  Charge       = 0
  Multiplicity = 1
  Electrons    = 140
  Nalpha       = 70
  Nbeta        = 70

  ==> Algorithm <==

  SCF Algorithm Type is DF.
  DIIS enabled.
  MOM disabled.
  Fractional occupation disabled.
  Guess Type is SAD.
  Energy threshold   = 1.00e-08
  Density threshold  = 1.00e-08
  Integral threshold = 0.00e+00

  ==> Primary Basis <==

  Basis Set: AUG-CC-PVTZ
    Blend: AUG-CC-PVTZ
    Number of shells: 375
    Number of basis function: 1131
    Number of Cartesian functions: 1314
    Spherical Harmonics?: true
    Max angular momentum: 3

   => Loading Basis Set <=

    Name: (AUG-CC-PVTZ AUX)
    Role: JKFIT
    Keyword: DF_BASIS_SCF
    atoms 1-3, 8, 13, 16, 19, 22                     entry C          line   162 file /data0/home/wuhanyu/software/psi4_132/share/psi4/basis/aug-cc-pvtz-jkfit.gbs 
    atoms 4, 12                                      entry N          line   224 file /data0/home/wuhanyu/software/psi4_132/share/psi4/basis/aug-cc-pvtz-jkfit.gbs 
    atoms 5-7, 9-11, 14-15, 17-18, 20-21, 28, 30, 32 entry H          line    70 file /data0/home/wuhanyu/software/psi4_132/share/psi4/basis/aug-cc-pvtz-jkfit.gbs 
    atoms 23-24, 26-27, 29, 31                       entry O          line   286 file /data0/home/wuhanyu/software/psi4_132/share/psi4/basis/aug-cc-pvtz-jkfit.gbs 
    atoms 25                                         entry P          line   644 file /data0/home/wuhanyu/software/psi4_132/share/psi4/basis/aug-cc-pvtz-jkfit.gbs 

  ==> Pre-Iterations <==

   -------------------------------------------------------
    Irrep   Nso     Nmo     Nalpha   Nbeta   Ndocc  Nsocc
   -------------------------------------------------------
     A       1131    1131       0       0       0       0
   -------------------------------------------------------
    Total    1131    1131      70      70      70       0
   -------------------------------------------------------

  ==> Integral Setup <==

  ==> DiskDFJK: Density-Fitted J/K Matrices <==

    J tasked:                  Yes
    K tasked:                  Yes
    wK tasked:                  No
    OpenMP threads:             24
    Integrals threads:          24
    Memory [MiB]:           143051
    Algorithm:                Core
    Integral Cache:           SAVE
    Schwarz Cutoff:          1E-12
    Fitting Condition:       1E-10

   => Auxiliary Basis Set <=

  Basis Set: (AUG-CC-PVTZ AUX)
    Blend: AUG-CC-PVTZ-JKFIT
    Number of shells: 732
    Number of basis function: 2500
    Number of Cartesian functions: 3101
    Spherical Harmonics?: true
    Max angular momentum: 4

  Minimum eigenvalue in the overlap matrix is 1.1024865430E-06.
  Using Symmetric Orthogonalization.

  SCF Guess: Superposition of Atomic Densities via on-the-fly atomic UHF.

  ==> Iterations <==

                           Total Energy        Delta E     RMS |[F,P]|

   @DF-RHF iter SAD: -1209.99063286313321   -1.20999e+03   0.00000e+00 
   @DF-RHF iter   1: -1210.41438444949017   -4.23752e-01   9.73041e-04 DIIS
   @DF-RHF iter   2: -1210.82323214025541   -4.08848e-01   5.55855e-04 DIIS
   @DF-RHF iter   3: -1210.95374179472446   -1.30510e-01   8.38969e-05 DIIS
   @DF-RHF iter   4: -1210.95967733246493   -5.93554e-03   3.17503e-05 DIIS
   @DF-RHF iter   5: -1210.96036095817362   -6.83626e-04   8.65966e-06 DIIS
   @DF-RHF iter   6: -1210.96043999912968   -7.90410e-05   3.05959e-06 DIIS
   @DF-RHF iter   7: -1210.96045505288225   -1.50538e-05   1.18332e-06 DIIS
   @DF-RHF iter   8: -1210.96045846978882   -3.41691e-06   5.90167e-07 DIIS
   @DF-RHF iter   9: -1210.96045931252502   -8.42736e-07   2.18863e-07 DIIS
   @DF-RHF iter  10: -1210.96045942802130   -1.15496e-07   8.82147e-08 DIIS
   @DF-RHF iter  11: -1210.96045943919535   -1.11741e-08   2.82736e-08 DIIS
   @DF-RHF iter  12: -1210.96045944031539   -1.12004e-09   1.01197e-08 DIIS
   @DF-RHF iter  13: -1210.96045944043840   -1.23009e-10   3.41378e-09 DIIS
  Energy and wave function converged.


  ==> Post-Iterations <==

    Orbital Energies [Eh]
    ---------------------

    Doubly Occupied:                                                      

       1A    -80.060217     2A    -20.574074     3A    -20.549710  
       4A    -20.545045     5A    -20.513540     6A    -20.511397  
       7A    -20.477507     8A    -15.683624     9A    -15.682225  
      10A    -11.387776    11A    -11.346304    12A    -11.326534  
      13A    -11.324331    14A    -11.314861    15A    -11.291803  
      16A    -11.259993    17A    -11.238884    18A     -7.577931  
      19A     -5.476586    20A     -5.475816    21A     -5.475105  
      22A     -1.416956    23A     -1.407920    24A     -1.401327  
      25A     -1.328899    26A     -1.318445    27A     -1.296264  
      28A     -1.282082    29A     -1.265541    30A     -1.102895  
      31A     -1.072666    32A     -1.016514    33A     -0.967433  
      34A     -0.892061    35A     -0.859073    36A     -0.837278  
      37A     -0.791101    38A     -0.764105    39A     -0.731217  
      40A     -0.713365    41A     -0.708389    42A     -0.689139  
      43A     -0.684845    44A     -0.668228    45A     -0.660421  
      46A     -0.650664    47A     -0.646349    48A     -0.640508  
      49A     -0.634927    50A     -0.613544    51A     -0.609249  
      52A     -0.596237    53A     -0.581080    54A     -0.574987  
      55A     -0.566990    56A     -0.556964    57A     -0.551896  
      58A     -0.536592    59A     -0.519059    60A     -0.514982  
      61A     -0.506593    62A     -0.502313    63A     -0.490005  
      64A     -0.448360    65A     -0.443005    66A     -0.431758  
      67A     -0.430055    68A     -0.426476    69A     -0.415532  
      70A     -0.371131  

    Virtual:                                                              

      71A      0.011288    72A      0.020351    73A      0.027983  
      74A      0.032441    75A      0.043054    76A      0.044595  
      77A      0.047971    78A      0.049316    79A      0.055875  
      80A      0.058660    81A      0.067777    82A      0.071058  
      83A      0.078287    84A      0.079269    85A      0.081561  
      86A      0.089547    87A      0.093356    88A      0.096102  
      89A      0.097391    90A      0.098454    91A      0.102154  
      92A      0.103769    93A      0.110564    94A      0.111439  
      95A      0.115673    96A      0.118444    97A      0.122627  
      98A      0.127066    99A      0.128910   100A      0.133118  
     101A      0.135752   102A      0.136582   103A      0.139045  
     104A      0.142399   105A      0.145123   106A      0.149742  
     107A      0.155952   108A      0.160565   109A      0.165616  
     110A      0.167452   111A      0.169951   112A      0.173384  
     113A      0.181439   114A      0.184089   115A      0.188814  
     116A      0.191314   117A      0.195083   118A      0.197701  
     119A      0.202051   120A      0.206488   121A      0.208667  
     122A      0.213666   123A      0.216014   124A      0.219339  
     125A      0.223450   126A      0.225908   127A      0.226425  
     128A      0.235060   129A      0.239006   130A      0.243758  
     131A      0.249956   132A      0.251907   133A      0.253913  
     134A      0.257660   135A      0.259571   136A      0.264161  
     137A      0.265208   138A      0.273451   139A      0.274101  
     140A      0.275205   141A      0.280899   142A      0.283550  
     143A      0.285436   144A      0.288776   145A      0.291150  
     146A      0.291965   147A      0.298985   148A      0.301649  
     149A      0.307389   150A      0.308821   151A      0.309970  
     152A      0.313258   153A      0.316444   154A      0.320051  
     155A      0.322421   156A      0.325926   157A      0.328769  
     158A      0.331851   159A      0.337840   160A      0.341688  
     161A      0.347376   162A      0.348698   163A      0.352944  
     164A      0.353604   165A      0.355670   166A      0.359174  
     167A      0.360515   168A      0.364283   169A      0.368549  
     170A      0.374383   171A      0.376798   172A      0.380812  
     173A      0.382536   174A      0.387591   175A      0.391040  
     176A      0.394797   177A      0.395591   178A      0.399808  
     179A      0.402339   180A      0.406030   181A      0.411286  
     182A      0.418012   183A      0.420901   184A      0.422706  
     185A      0.426569   186A      0.429200   187A      0.430847  
     188A      0.435173   189A      0.438889   190A      0.439606  
     191A      0.444483   192A      0.446745   193A      0.452561  
     194A      0.452812   195A      0.455421   196A      0.456560  
     197A      0.457169   198A      0.459693   199A      0.466137  
     200A      0.470053   201A      0.474502   202A      0.475727  
     203A      0.478570   204A      0.480236   205A      0.484177  
     206A      0.487728   207A      0.488426   208A      0.491496  
     209A      0.494547   210A      0.498350   211A      0.500290  
     212A      0.504335   213A      0.510094   214A      0.512155  
     215A      0.513803   216A      0.520608   217A      0.522619  
     218A      0.526869   219A      0.527444   220A      0.531284  
     221A      0.533296   222A      0.538621   223A      0.542504  
     224A      0.545980   225A      0.548623   226A      0.551669  
     227A      0.556521   228A      0.559539   229A      0.562044  
     230A      0.566394   231A      0.569489   232A      0.571791  
     233A      0.574650   234A      0.579838   235A      0.582947  
     236A      0.583948   237A      0.587375   238A      0.590800  
     239A      0.596804   240A      0.600916   241A      0.609409  
     242A      0.609783   243A      0.614416   244A      0.615331  
     245A      0.621345   246A      0.626992   247A      0.632171  
     248A      0.635550   249A      0.637780   250A      0.639270  
     251A      0.644806   252A      0.648897   253A      0.652934  
     254A      0.653387   255A      0.659679   256A      0.665019  
     257A      0.668025   258A      0.675737   259A      0.681037  
     260A      0.682880   261A      0.691902   262A      0.694711  
     263A      0.696005   264A      0.705237   265A      0.708173  
     266A      0.711478   267A      0.713814   268A      0.721357  
     269A      0.724852   270A      0.727591   271A      0.734605  
     272A      0.738453   273A      0.742682   274A      0.744788  
     275A      0.747818   276A      0.752744   277A      0.757011  
     278A      0.761826   279A      0.767616   280A      0.777825  
     281A      0.781243   282A      0.784390   283A      0.788427  
     284A      0.792038   285A      0.798845   286A      0.801287  
     287A      0.806309   288A      0.807813   289A      0.813927  
     290A      0.818223   291A      0.821376   292A      0.826378  
     293A      0.832927   294A      0.840267   295A      0.840838  
     296A      0.844565   297A      0.849246   298A      0.856564  
     299A      0.858119   300A      0.862301   301A      0.869851  
     302A      0.873294   303A      0.877264   304A      0.879297  
     305A      0.885667   306A      0.889639   307A      0.894690  
     308A      0.897368   309A      0.899309   310A      0.901627  
     311A      0.906625   312A      0.912309   313A      0.914958  
     314A      0.919613   315A      0.922240   316A      0.924456  
     317A      0.936116   318A      0.942993   319A      0.945771  
     320A      0.948036   321A      0.951202   322A      0.954524  
     323A      0.961452   324A      0.964344   325A      0.970213  
     326A      0.973011   327A      0.977636   328A      0.979336  
     329A      0.979805   330A      0.986927   331A      0.992540  
     332A      0.993209   333A      0.998976   334A      1.003919  
     335A      1.009221   336A      1.010776   337A      1.013835  
     338A      1.021346   339A      1.022176   340A      1.026360  
     341A      1.028015   342A      1.035303   343A      1.040064  
     344A      1.040846   345A      1.047120   346A      1.053874  
     347A      1.054267   348A      1.057094   349A      1.063734  
     350A      1.071266   351A      1.072292   352A      1.076166  
     353A      1.084471   354A      1.085421   355A      1.090001  
     356A      1.092408   357A      1.100218   358A      1.103250  
     359A      1.103901   360A      1.107758   361A      1.113548  
     362A      1.114320   363A      1.119989   364A      1.120248  
     365A      1.125588   366A      1.128035   367A      1.129468  
     368A      1.133394   369A      1.136910   370A      1.142646  
     371A      1.143561   372A      1.153515   373A      1.154953  
     374A      1.158043   375A      1.160721   376A      1.164467  
     377A      1.169352   378A      1.172370   379A      1.179094  
     380A      1.182553   381A      1.186948   382A      1.190205  
     383A      1.195714   384A      1.201124   385A      1.205657  
     386A      1.209282   387A      1.214733   388A      1.215983  
     389A      1.219412   390A      1.226981   391A      1.234311  
     392A      1.240800   393A      1.243724   394A      1.246102  
     395A      1.250816   396A      1.252022   397A      1.258926  
     398A      1.264577   399A      1.264860   400A      1.269086  
     401A      1.276699   402A      1.277852   403A      1.284142  
     404A      1.290601   405A      1.294426   406A      1.298726  
     407A      1.305314   408A      1.309383   409A      1.314385  
     410A      1.319981   411A      1.322674   412A      1.326484  
     413A      1.331478   414A      1.335421   415A      1.336987  
     416A      1.344971   417A      1.351521   418A      1.355912  
     419A      1.359224   420A      1.364612   421A      1.369100  
     422A      1.377654   423A      1.381698   424A      1.386856  
     425A      1.398021   426A      1.404158   427A      1.405974  
     428A      1.408070   429A      1.415122   430A      1.417096  
     431A      1.419193   432A      1.426161   433A      1.427263  
     434A      1.435766   435A      1.442422   436A      1.448309  
     437A      1.453261   438A      1.455644   439A      1.460318  
     440A      1.467613   441A      1.470980   442A      1.473465  
     443A      1.476271   444A      1.482205   445A      1.486492  
     446A      1.494241   447A      1.498097   448A      1.504496  
     449A      1.507730   450A      1.511229   451A      1.517871  
     452A      1.521819   453A      1.526680   454A      1.533380  
     455A      1.535357   456A      1.540541   457A      1.545450  
     458A      1.551432   459A      1.556937   460A      1.559676  
     461A      1.564312   462A      1.571133   463A      1.576033  
     464A      1.581389   465A      1.588007   466A      1.591408  
     467A      1.598299   468A      1.600588   469A      1.610312  
     470A      1.612933   471A      1.617910   472A      1.620144  
     473A      1.625481   474A      1.629439   475A      1.632207  
     476A      1.642507   477A      1.645481   478A      1.646996  
     479A      1.655395   480A      1.659564   481A      1.662254  
     482A      1.671512   483A      1.672179   484A      1.680128  
     485A      1.685570   486A      1.687291   487A      1.695729  
     488A      1.702128   489A      1.706267   490A      1.710404  
     491A      1.714251   492A      1.721494   493A      1.723374  
     494A      1.726201   495A      1.733558   496A      1.737679  
     497A      1.748863   498A      1.758745   499A      1.762178  
     500A      1.766111   501A      1.770350   502A      1.775654  
     503A      1.777833   504A      1.785328   505A      1.789692  
     506A      1.793001   507A      1.795536   508A      1.802436  
     509A      1.807300   510A      1.814589   511A      1.816386  
     512A      1.825831   513A      1.829694   514A      1.832652  
     515A      1.836919   516A      1.850579   517A      1.854048  
     518A      1.857709   519A      1.864294   520A      1.870410  
     521A      1.875295   522A      1.877220   523A      1.886877  
     524A      1.891803   525A      1.894729   526A      1.899920  
     527A      1.909891   528A      1.914736   529A      1.922391  
     530A      1.925606   531A      1.931668   532A      1.938630  
     533A      1.942641   534A      1.947134   535A      1.952378  
     536A      1.956120   537A      1.965202   538A      1.967779  
     539A      1.976059   540A      1.986352   541A      1.987823  
     542A      1.994127   543A      1.997687   544A      2.004577  
     545A      2.008074   546A      2.018050   547A      2.021704  
     548A      2.033092   549A      2.036559   550A      2.040655  
     551A      2.042853   552A      2.047604   553A      2.052193  
     554A      2.058115   555A      2.065679   556A      2.070546  
     557A      2.074557   558A      2.081771   559A      2.091451  
     560A      2.094207   561A      2.097735   562A      2.102776  
     563A      2.112924   564A      2.121245   565A      2.124872  
     566A      2.127354   567A      2.134907   568A      2.137848  
     569A      2.147052   570A      2.154140   571A      2.162969  
     572A      2.165931   573A      2.169216   574A      2.173070  
     575A      2.178280   576A      2.180927   577A      2.187287  
     578A      2.196564   579A      2.203397   580A      2.215163  
     581A      2.227224   582A      2.234978   583A      2.239764  
     584A      2.249732   585A      2.250981   586A      2.262122  
     587A      2.271384   588A      2.277381   589A      2.285404  
     590A      2.289598   591A      2.300106   592A      2.302335  
     593A      2.314085   594A      2.314868   595A      2.321973  
     596A      2.329599   597A      2.334679   598A      2.340770  
     599A      2.343525   600A      2.349634   601A      2.356424  
     602A      2.361432   603A      2.365580   604A      2.373688  
     605A      2.377335   606A      2.392791   607A      2.395394  
     608A      2.401593   609A      2.404058   610A      2.411684  
     611A      2.427259   612A      2.430457   613A      2.432768  
     614A      2.442054   615A      2.446355   616A      2.458715  
     617A      2.460847   618A      2.463255   619A      2.476144  
     620A      2.481358   621A      2.490247   622A      2.502141  
     623A      2.512870   624A      2.526641   625A      2.529616  
     626A      2.533715   627A      2.538643   628A      2.547830  
     629A      2.556401   630A      2.561284   631A      2.564910  
     632A      2.571534   633A      2.574667   634A      2.593164  
     635A      2.595806   636A      2.600682   637A      2.604311  
     638A      2.605698   639A      2.611312   640A      2.619726  
     641A      2.624695   642A      2.630782   643A      2.638843  
     644A      2.644959   645A      2.655833   646A      2.660949  
     647A      2.671621   648A      2.683234   649A      2.687773  
     650A      2.695897   651A      2.702449   652A      2.719685  
     653A      2.722065   654A      2.726262   655A      2.730576  
     656A      2.751853   657A      2.755543   658A      2.758912  
     659A      2.771812   660A      2.776170   661A      2.782712  
     662A      2.788807   663A      2.796876   664A      2.800897  
     665A      2.813845   666A      2.826388   667A      2.831342  
     668A      2.835783   669A      2.844707   670A      2.850808  
     671A      2.861231   672A      2.873324   673A      2.876458  
     674A      2.895059   675A      2.905177   676A      2.905853  
     677A      2.916026   678A      2.925580   679A      2.932528  
     680A      2.940711   681A      2.961924   682A      2.967468  
     683A      2.987219   684A      2.988926   685A      2.993886  
     686A      3.007786   687A      3.010590   688A      3.020804  
     689A      3.033253   690A      3.035732   691A      3.045883  
     692A      3.052808   693A      3.063237   694A      3.078611  
     695A      3.101242   696A      3.105626   697A      3.121067  
     698A      3.127701   699A      3.133042   700A      3.143084  
     701A      3.160361   702A      3.176990   703A      3.191159  
     704A      3.208082   705A      3.215237   706A      3.216638  
     707A      3.231023   708A      3.238441   709A      3.256219  
     710A      3.262221   711A      3.265215   712A      3.276101  
     713A      3.300222   714A      3.314475   715A      3.325881  
     716A      3.345419   717A      3.354128   718A      3.373243  
     719A      3.378074   720A      3.388396   721A      3.400161  
     722A      3.401476   723A      3.415018   724A      3.423685  
     725A      3.425476   726A      3.434088   727A      3.443885  
     728A      3.451242   729A      3.466154   730A      3.479657  
     731A      3.497927   732A      3.503572   733A      3.512053  
     734A      3.521531   735A      3.536754   736A      3.545870  
     737A      3.556661   738A      3.565165   739A      3.567470  
     740A      3.574551   741A      3.588803   742A      3.590426  
     743A      3.593589   744A      3.599292   745A      3.610758  
     746A      3.626816   747A      3.636174   748A      3.642866  
     749A      3.645791   750A      3.652241   751A      3.656777  
     752A      3.663300   753A      3.679313   754A      3.694194  
     755A      3.705121   756A      3.706311   757A      3.721852  
     758A      3.727551   759A      3.735544   760A      3.739321  
     761A      3.746457   762A      3.759930   763A      3.761578  
     764A      3.769783   765A      3.782110   766A      3.790889  
     767A      3.800800   768A      3.806798   769A      3.818616  
     770A      3.822802   771A      3.826660   772A      3.834063  
     773A      3.836464   774A      3.848929   775A      3.858803  
     776A      3.863358   777A      3.872056   778A      3.876601  
     779A      3.887995   780A      3.896419   781A      3.901350  
     782A      3.911998   783A      3.915254   784A      3.924431  
     785A      3.934420   786A      3.936821   787A      3.947309  
     788A      3.955822   789A      3.958692   790A      3.968905  
     791A      3.973754   792A      3.975936   793A      3.990999  
     794A      3.993731   795A      4.001934   796A      4.003649  
     797A      4.013619   798A      4.014654   799A      4.029797  
     800A      4.038271   801A      4.042909   802A      4.051556  
     803A      4.063678   804A      4.070500   805A      4.082852  
     806A      4.092125   807A      4.095092   808A      4.112356  
     809A      4.118130   810A      4.122916   811A      4.129603  
     812A      4.142377   813A      4.144531   814A      4.155046  
     815A      4.169762   816A      4.172482   817A      4.183899  
     818A      4.190347   819A      4.193299   820A      4.203137  
     821A      4.214707   822A      4.219948   823A      4.225460  
     824A      4.236029   825A      4.238927   826A      4.247311  
     827A      4.254153   828A      4.259541   829A      4.269787  
     830A      4.277468   831A      4.284136   832A      4.301102  
     833A      4.307473   834A      4.315019   835A      4.322404  
     836A      4.326713   837A      4.335042   838A      4.350977  
     839A      4.352455   840A      4.358868   841A      4.374880  
     842A      4.386478   843A      4.395378   844A      4.399132  
     845A      4.402069   846A      4.412046   847A      4.425422  
     848A      4.436161   849A      4.441075   850A      4.446785  
     851A      4.457067   852A      4.470472   853A      4.473220  
     854A      4.477811   855A      4.495646   856A      4.505400  
     857A      4.515712   858A      4.526127   859A      4.539686  
     860A      4.542424   861A      4.547277   862A      4.553197  
     863A      4.558826   864A      4.566088   865A      4.582314  
     866A      4.588177   867A      4.593272   868A      4.600991  
     869A      4.610486   870A      4.620582   871A      4.639450  
     872A      4.644506   873A      4.652972   874A      4.670235  
     875A      4.676602   876A      4.687438   877A      4.702264  
     878A      4.714276   879A      4.716011   880A      4.718237  
     881A      4.732906   882A      4.734314   883A      4.743434  
     884A      4.754850   885A      4.761612   886A      4.772231  
     887A      4.781226   888A      4.791046   889A      4.793484  
     890A      4.806322   891A      4.823111   892A      4.833930  
     893A      4.840653   894A      4.845452   895A      4.863611  
     896A      4.880009   897A      4.898219   898A      4.901536  
     899A      4.907546   900A      4.920852   901A      4.931063  
     902A      4.944675   903A      4.947647   904A      4.960964  
     905A      4.964897   906A      4.972897   907A      4.980776  
     908A      4.996348   909A      5.006005   910A      5.012363  
     911A      5.023997   912A      5.032228   913A      5.049900  
     914A      5.065586   915A      5.074426   916A      5.082755  
     917A      5.087738   918A      5.092099   919A      5.097558  
     920A      5.103304   921A      5.123682   922A      5.136027  
     923A      5.138450   924A      5.143573   925A      5.153806  
     926A      5.160504   927A      5.166894   928A      5.191797  
     929A      5.201288   930A      5.211618   931A      5.226224  
     932A      5.230067   933A      5.234505   934A      5.250962  
     935A      5.261976   936A      5.263549   937A      5.270235  
     938A      5.282908   939A      5.293684   940A      5.299197  
     941A      5.312168   942A      5.331070   943A      5.333769  
     944A      5.347880   945A      5.352388   946A      5.356165  
     947A      5.367077   948A      5.386045   949A      5.402471  
     950A      5.407340   951A      5.414242   952A      5.435090  
     953A      5.436489   954A      5.448183   955A      5.458801  
     956A      5.478461   957A      5.484775   958A      5.492214  
     959A      5.502624   960A      5.511880   961A      5.518016  
     962A      5.550270   963A      5.566084   964A      5.574478  
     965A      5.579584   966A      5.593226   967A      5.601162  
     968A      5.612322   969A      5.631628   970A      5.637771  
     971A      5.667405   972A      5.686979   973A      5.694321  
     974A      5.700071   975A      5.711277   976A      5.732671  
     977A      5.749729   978A      5.758974   979A      5.760348  
     980A      5.780966   981A      5.792417   982A      5.800521  
     983A      5.825244   984A      5.828137   985A      5.840034  
     986A      5.859178   987A      5.867851   988A      5.883669  
     989A      5.887400   990A      5.904973   991A      5.915267  
     992A      5.936803   993A      5.941509   994A      5.960070  
     995A      5.967927   996A      6.011529   997A      6.044856  
     998A      6.055512   999A      6.072553  1000A      6.079416  
    1001A      6.092720  1002A      6.102091  1003A      6.138258  
    1004A      6.156277  1005A      6.178099  1006A      6.189929  
    1007A      6.204124  1008A      6.246275  1009A      6.248759  
    1010A      6.265575  1011A      6.292388  1012A      6.309166  
    1013A      6.314169  1014A      6.341158  1015A      6.403422  
    1016A      6.462410  1017A      6.467965  1018A      6.500758  
    1019A      6.558057  1020A      6.585774  1021A      6.596636  
    1022A      6.634617  1023A      6.650037  1024A      6.669739  
    1025A      6.699222  1026A      6.723598  1027A      6.767479  
    1028A      6.789025  1029A      6.809020  1030A      6.822333  
    1031A      6.834158  1032A      6.854841  1033A      6.864369  
    1034A      6.866330  1035A      6.879418  1036A      6.892509  
    1037A      6.894690  1038A      6.908669  1039A      6.922555  
    1040A      6.926029  1041A      6.938708  1042A      6.948137  
    1043A      6.961718  1044A      6.976939  1045A      6.987334  
    1046A      6.994471  1047A      7.000001  1048A      7.011673  
    1049A      7.020983  1050A      7.031700  1051A      7.039656  
    1052A      7.050725  1053A      7.060488  1054A      7.077522  
    1055A      7.086632  1056A      7.103384  1057A      7.111162  
    1058A      7.121566  1059A      7.132547  1060A      7.142778  
    1061A      7.162378  1062A      7.179891  1063A      7.191878  
    1064A      7.201150  1065A      7.212277  1066A      7.215249  
    1067A      7.241967  1068A      7.263988  1069A      7.278557  
    1070A      7.318907  1071A      7.329994  1072A      7.357813  
    1073A      7.376468  1074A      7.384000  1075A      7.390513  
    1076A      7.400467  1077A      7.427569  1078A      7.438379  
    1079A      7.462154  1080A      7.466887  1081A      7.483434  
    1082A      7.493502  1083A      7.509020  1084A      7.545498  
    1085A      7.562212  1086A      7.588288  1087A      7.607603  
    1088A      7.615979  1089A      7.641551  1090A      7.649903  
    1091A      7.669794  1092A      7.714818  1093A      7.732040  
    1094A      7.762586  1095A      7.778846  1096A      7.792127  
    1097A      7.803367  1098A      7.827059  1099A      7.846951  
    1100A      7.928320  1101A      7.946665  1102A      7.973896  
    1103A      7.978850  1104A      8.006853  1105A      8.024932  
    1106A      8.042773  1107A      8.106764  1108A      8.136906  
    1109A      8.147965  1110A      8.212110  1111A      8.284976  
    1112A      8.341621  1113A      8.698637  1114A      8.811587  
    1115A     11.739975  1116A     13.531076  1117A     14.551542  
    1118A     14.746373  1119A     15.663629  1120A     16.181501  
    1121A     16.288345  1122A     16.726194  1123A     17.313080  
    1124A     17.923204  1125A     18.666147  1126A     18.719378  
    1127A     19.145735  1128A     19.683098  1129A     20.169647  
    1130A     21.153537  1131A     21.392125  

    Final Occupation by Irrep:
              A 
    DOCC [    70 ]

  @DF-RHF Final Energy: -1210.96045944043840

   => Energetics <=

    Nuclear Repulsion Energy =           1547.9896536601615935
    One-Electron Energy =               -4745.4428605290077030
    Two-Electron Energy =                1986.4927474284074833
    Total Energy =                      -1210.9604594404383988

Computation Completed


Properties will be evaluated at   0.000000,   0.000000,   0.000000 [a0]

Properties computed using the SCF density matrix

  Nuclear Dipole Moment: [e a0]
     X:    -4.6590      Y:    -6.3887      Z:   -15.9803

  Electronic Dipole Moment: [e a0]
     X:     3.6254      Y:     4.0113      Z:    12.8494

  Dipole Moment: [e a0]
     X:    -1.0336      Y:    -2.3774      Z:    -3.1308     Total:     4.0648

  Dipole Moment: [D]
     X:    -2.6271      Y:    -6.0428      Z:    -7.9578     Total:    10.3317


*** tstop() called on localhost.localdomain at Mon Jun 13 21:49:41 2022
Module time:
	user time   =    1884.36 seconds =      31.41 minutes
	system time =      24.27 seconds =       0.40 minutes
	total time  =         97 seconds =       1.62 minutes
Total time:
	user time   =    1884.36 seconds =      31.41 minutes
	system time =      24.27 seconds =       0.40 minutes
	total time  =         97 seconds =       1.62 minutes

*** tstart() called on localhost.localdomain
*** at Mon Jun 13 21:49:41 2022


  //>>>>>>>>>>>>>>>>>>>>>>>>>>>>>>>>>>>//
  //               DFMP2               //
  //<<<<<<<<<<<<<<<<<<<<<<<<<<<<<<<<<<<//

   => Loading Basis Set <=

    Name: (AUG-CC-PVTZ AUX)
    Role: RIFIT
    Keyword: DF_BASIS_MP2
    atoms 1-3, 8, 13, 16, 19, 22                     entry C          line   148 file /data0/home/wuhanyu/software/psi4_132/share/psi4/basis/aug-cc-pvtz-ri.gbs 
    atoms 4, 12                                      entry N          line   206 file /data0/home/wuhanyu/software/psi4_132/share/psi4/basis/aug-cc-pvtz-ri.gbs 
    atoms 5-7, 9-11, 14-15, 17-18, 20-21, 28, 30, 32 entry H          line    30 file /data0/home/wuhanyu/software/psi4_132/share/psi4/basis/aug-cc-pvtz-ri.gbs 
    atoms 23-24, 26-27, 29, 31                       entry O          line   264 file /data0/home/wuhanyu/software/psi4_132/share/psi4/basis/aug-cc-pvtz-ri.gbs 
    atoms 25                                         entry P          line   590 file /data0/home/wuhanyu/software/psi4_132/share/psi4/basis/aug-cc-pvtz-ri.gbs 

	 --------------------------------------------------------
	                          DF-MP2                         
	      2nd-Order Density-Fitted Moller-Plesset Theory     
	              RMP2 Wavefunction,  24 Threads             
	                                                         
	        Rob Parrish, Justin Turney, Andy Simmonett,      
	           Ed Hohenstein, and C. David Sherrill          
	 --------------------------------------------------------

   => Auxiliary Basis Set <=

  Basis Set: (AUG-CC-PVTZ AUX)
    Blend: AUG-CC-PVTZ-RI
    Number of shells: 695
    Number of basis function: 2533
    Number of Cartesian functions: 3192
    Spherical Harmonics?: true
    Max angular momentum: 4

	 --------------------------------------------------------
	                 NBF =  1131, NAUX =  2533
	 --------------------------------------------------------
	   CLASS    FOCC     OCC    AOCC    AVIR     VIR    FVIR
	   PAIRS      21      70      49    1061    1061       0
	 --------------------------------------------------------

	 Will save fitting metric to file 97.

	-----------------------------------------------------------
	 ==================> DF-MP2 Energies <==================== 
	-----------------------------------------------------------
	 Reference Energy          =   -1210.9604594404383988 [Eh]
	 Singles Energy            =      -0.0000000000000000 [Eh]
	 Same-Spin Energy          =      -0.8717002668857061 [Eh]
	 Opposite-Spin Energy      =      -2.5326282797115547 [Eh]
	 Correlation Energy        =      -3.4043285465972608 [Eh]
	 Total Energy              =   -1214.3647879870356974 [Eh]
	-----------------------------------------------------------
	 ================> DF-SCS-MP2 Energies <================== 
	-----------------------------------------------------------
	 SCS Same-Spin Scale       =       0.3333333333333333 [-]
	 SCS Opposite-Spin Scale   =       1.2000000000000000 [-]
	 SCS Same-Spin Energy      =      -0.2905667556285687 [Eh]
	 SCS Opposite-Spin Energy  =      -3.0391539356538657 [Eh]
	 SCS Correlation Energy    =      -3.3297206912824344 [Eh]
	 SCS Total Energy          =   -1214.2901801317209447 [Eh]
	-----------------------------------------------------------


*** tstop() called on localhost.localdomain at Mon Jun 13 21:50:14 2022
Module time:
	user time   =     478.44 seconds =       7.97 minutes
	system time =       9.01 seconds =       0.15 minutes
	total time  =         33 seconds =       0.55 minutes
Total time:
	user time   =    2362.80 seconds =      39.38 minutes
	system time =      33.28 seconds =       0.55 minutes
	total time  =        130 seconds =       2.17 minutes

  //>>>>>>>>>>>>>>>>>>>>>>>>>>>>>>>>>>>//
  //            Monomer A HF           //
  //<<<<<<<<<<<<<<<<<<<<<<<<<<<<<<<<<<<//


*** tstart() called on localhost.localdomain
*** at Mon Jun 13 21:50:14 2022

   => Loading Basis Set <=

    Name: AUG-CC-PVTZ
    Role: ORBITAL
    Keyword: BASIS
    atoms 1-3, 8, 13, 16, 19, 22                     entry C          line   235 file /data0/home/wuhanyu/software/psi4_132/share/psi4/basis/aug-cc-pvtz.gbs 
    atoms 4, 12                                      entry N          line   281 file /data0/home/wuhanyu/software/psi4_132/share/psi4/basis/aug-cc-pvtz.gbs 
    atoms 5-7, 9-11, 14-15, 17-18, 20-21, 28, 30, 32 entry H          line    36 file /data0/home/wuhanyu/software/psi4_132/share/psi4/basis/aug-cc-pvtz.gbs 
    atoms 23-24, 26-27, 29, 31                       entry O          line   327 file /data0/home/wuhanyu/software/psi4_132/share/psi4/basis/aug-cc-pvtz.gbs 
    atoms 25                                         entry P          line   820 file /data0/home/wuhanyu/software/psi4_132/share/psi4/basis/aug-cc-pvtz.gbs 


         ---------------------------------------------------------
                                   SCF
               by Justin Turney, Rob Parrish, Andy Simmonett
                          and Daniel G. A. Smith
                              RHF Reference
                       24 Threads, 190734 MiB Core
         ---------------------------------------------------------

  ==> Geometry <==

    Molecular point group: c1
    Full point group: C1

    Geometry (in Angstrom), charge = 0, multiplicity = 1:

       Center              X                  Y                   Z               Mass       
    ------------   -----------------  -----------------  -----------------  -----------------
         C           -0.944588690955    -2.966083920564    -1.338224345585    12.000000000000
         C           -0.428588690955    -2.391083920564    -2.494224345585    12.000000000000
         C            0.432411309045    -1.301083920564    -0.720224345585    12.000000000000
         N           -0.395588690955    -2.280083920564    -0.253224345585    14.003074004430
         H           -1.639588690955    -3.776083920564    -1.224224345585     1.007825032230
         H           -0.610588690955    -2.629083920564    -3.525224345585     1.007825032230
         H            1.014411309045    -0.588083920564    -0.120224345585     1.007825032230
         C           -0.777588690955    -2.437083920564     1.137775654415    12.000000000000
         H           -1.478588690955    -1.612083920564     1.430775654415     1.007825032230
         H           -1.270588690955    -3.404083920564     1.317775654415     1.007825032230
         H            0.106411309045    -2.349083920564     1.810775654415     1.007825032230
         N            0.435411309045    -1.371083920564    -2.094224345585    14.003074004430
         C            1.023411309045    -0.340083920564    -2.949224345585    12.000000000000
         H            1.647411309045    -0.826083920564    -3.732224345585     1.007825032230
         H            1.707411309045     0.296916079436    -2.320224345585     1.007825032230
         C           -0.039588690955     0.573916079436    -3.598224345585    12.000000000000
         H            0.483411309045     1.499916079436    -3.929224345585     1.007825032230
         H           -0.442588690955     0.099916079436    -4.511224345585     1.007825032230
         C           -1.194588690955     0.968916079436    -2.677224345585    12.000000000000
         H           -2.013588690955     0.228916079436    -2.722224345585     1.007825032230
         H           -1.635588690955     1.931916079436    -2.997224345585     1.007825032230
         C           -0.733588690955     1.126916079436    -1.222224345585    12.000000000000
         O            0.261411309045     1.828916079436    -0.995224345585    15.994914619570
         O           -1.348588690955     0.437916079436    -0.376224345585    15.994914619570
      Gh(P)           0.598411309045     1.012916079436     2.441775654415    30.973761998420
      Gh(O)           1.372411309045    -0.215083920564     2.226775654415    15.994914619570
      Gh(O)          -0.967588690955     0.842916079436     2.239775654415    15.994914619570
      Gh(H)          -1.170588690955     0.749916079436     1.191775654415     1.007825032230
      Gh(O)           0.729411309045     1.500916079436     3.953775654415    15.994914619570
      Gh(H)           0.173411309045     2.367916079436     4.040775654415     1.007825032230
      Gh(O)           1.033411309045     2.284916079436     1.603775654415    15.994914619570
      Gh(H)           0.741411309045     2.142916079436     0.588775654415     1.007825032230

  Running in c1 symmetry.

  Rotational constants: A =      0.02337  B =      0.01034  C =      0.00837 [cm^-1]
  Rotational constants: A =    700.54562  B =    310.01195  C =    250.86837 [MHz]
  Nuclear repulsion =  752.369032191011456

  Charge       = 0
  Multiplicity = 1
  Electrons    = 90
  Nalpha       = 45
  Nbeta        = 45

  ==> Algorithm <==

  SCF Algorithm Type is DF.
  DIIS enabled.
  MOM disabled.
  Fractional occupation disabled.
  Guess Type is SAD.
  Energy threshold   = 1.00e-08
  Density threshold  = 1.00e-08
  Integral threshold = 0.00e+00

  ==> Primary Basis <==

  Basis Set: AUG-CC-PVTZ
    Blend: AUG-CC-PVTZ
    Number of shells: 375
    Number of basis function: 1131
    Number of Cartesian functions: 1314
    Spherical Harmonics?: true
    Max angular momentum: 3

   => Loading Basis Set <=

    Name: (AUG-CC-PVTZ AUX)
    Role: JKFIT
    Keyword: DF_BASIS_SCF
    atoms 1-3, 8, 13, 16, 19, 22                     entry C          line   162 file /data0/home/wuhanyu/software/psi4_132/share/psi4/basis/aug-cc-pvtz-jkfit.gbs 
    atoms 4, 12                                      entry N          line   224 file /data0/home/wuhanyu/software/psi4_132/share/psi4/basis/aug-cc-pvtz-jkfit.gbs 
    atoms 5-7, 9-11, 14-15, 17-18, 20-21, 28, 30, 32 entry H          line    70 file /data0/home/wuhanyu/software/psi4_132/share/psi4/basis/aug-cc-pvtz-jkfit.gbs 
    atoms 23-24, 26-27, 29, 31                       entry O          line   286 file /data0/home/wuhanyu/software/psi4_132/share/psi4/basis/aug-cc-pvtz-jkfit.gbs 
    atoms 25                                         entry P          line   644 file /data0/home/wuhanyu/software/psi4_132/share/psi4/basis/aug-cc-pvtz-jkfit.gbs 

  ==> Pre-Iterations <==

   -------------------------------------------------------
    Irrep   Nso     Nmo     Nalpha   Nbeta   Ndocc  Nsocc
   -------------------------------------------------------
     A       1131    1131       0       0       0       0
   -------------------------------------------------------
    Total    1131    1131      45      45      45       0
   -------------------------------------------------------

  ==> Integral Setup <==

  ==> DiskDFJK: Density-Fitted J/K Matrices <==

    J tasked:                  Yes
    K tasked:                  Yes
    wK tasked:                  No
    OpenMP threads:             24
    Integrals threads:          24
    Memory [MiB]:           143051
    Algorithm:                Core
    Integral Cache:           LOAD
    Schwarz Cutoff:          1E-12
    Fitting Condition:       1E-10

   => Auxiliary Basis Set <=

  Basis Set: (AUG-CC-PVTZ AUX)
    Blend: AUG-CC-PVTZ-JKFIT
    Number of shells: 732
    Number of basis function: 2500
    Number of Cartesian functions: 3101
    Spherical Harmonics?: true
    Max angular momentum: 4

  Minimum eigenvalue in the overlap matrix is 1.1024865430E-06.
  Using Symmetric Orthogonalization.

  SCF Guess: Superposition of Atomic Densities via on-the-fly atomic UHF.

  ==> Iterations <==

                           Total Energy        Delta E     RMS |[F,P]|

   @DF-RHF iter SAD:  -568.12708554653034   -5.68127e+02   0.00000e+00 
   @DF-RHF iter   1:  -568.33927415829896   -2.12189e-01   7.34908e-04 DIIS
   @DF-RHF iter   2:  -568.62622952670472   -2.86955e-01   4.06105e-04 DIIS
   @DF-RHF iter   3:  -568.70208677089249   -7.58572e-02   7.13794e-05 DIIS
   @DF-RHF iter   4:  -568.70670506457952   -4.61829e-03   2.40141e-05 DIIS
   @DF-RHF iter   5:  -568.70717687749152   -4.71813e-04   6.83183e-06 DIIS
   @DF-RHF iter   6:  -568.70723684986069   -5.99724e-05   2.52051e-06 DIIS
   @DF-RHF iter   7:  -568.70724885746370   -1.20076e-05   1.08894e-06 DIIS
   @DF-RHF iter   8:  -568.70725185619676   -2.99873e-06   6.05973e-07 DIIS
   @DF-RHF iter   9:  -568.70725258094114   -7.24744e-07   2.04106e-07 DIIS
   @DF-RHF iter  10:  -568.70725267754767   -9.66065e-08   5.92230e-08 DIIS
   @DF-RHF iter  11:  -568.70725268271576   -5.16809e-09   1.97911e-08 DIIS
   @DF-RHF iter  12:  -568.70725268325509   -5.39330e-10   6.79824e-09 DIIS
  Energy and wave function converged.


  ==> Post-Iterations <==

    Orbital Energies [Eh]
    ---------------------

    Doubly Occupied:                                                      

       1A    -20.438875     2A    -20.438119     3A    -15.677552  
       4A    -15.673334     5A    -11.386205     6A    -11.319222  
       7A    -11.316750     8A    -11.305921     9A    -11.296134  
      10A    -11.277454    11A    -11.233862    12A    -11.198441  
      13A     -1.403709    14A     -1.330507    15A     -1.274917  
      16A     -1.220963    17A     -1.088482    18A     -1.056322  
      19A     -1.007008    20A     -0.949203    21A     -0.874622  
      22A     -0.850413    23A     -0.819360    24A     -0.754001  
      25A     -0.695369    26A     -0.679340    27A     -0.666382  
      28A     -0.660235    29A     -0.649972    30A     -0.639486  
      31A     -0.617990    32A     -0.611227    33A     -0.582361  
      34A     -0.571329    35A     -0.565672    36A     -0.549640  
      37A     -0.528832    38A     -0.507145    39A     -0.476908  
      40A     -0.467524    41A     -0.438358    42A     -0.374483  
      43A     -0.356137    44A     -0.349324    45A     -0.337972  

    Virtual:                                                              

      46A      0.013261    47A      0.021425    48A      0.025458  
      49A      0.036621    50A      0.039158    51A      0.043632  
      52A      0.046427    53A      0.055261    54A      0.058385  
      55A      0.061954    56A      0.062845    57A      0.068499  
      58A      0.071858    59A      0.079726    60A      0.082144  
      61A      0.087421    62A      0.090424    63A      0.093785  
      64A      0.095579    65A      0.098506    66A      0.101600  
      67A      0.103980    68A      0.109205    69A      0.112571  
      70A      0.113237    71A      0.118159    72A      0.120558  
      73A      0.123310    74A      0.127184    75A      0.131164  
      76A      0.135495    77A      0.136841    78A      0.143306  
      79A      0.143833    80A      0.147758    81A      0.152117  
      82A      0.153190    83A      0.156431    84A      0.161472  
      85A      0.166037    86A      0.169076    87A      0.175805  
      88A      0.177745    89A      0.180651    90A      0.181790  
      91A      0.188411    92A      0.191659    93A      0.193857  
      94A      0.197541    95A      0.200177    96A      0.203922  
      97A      0.209650    98A      0.212224    99A      0.213055  
     100A      0.216717   101A      0.223746   102A      0.227652  
     103A      0.228856   104A      0.233124   105A      0.238055  
     106A      0.242978   107A      0.248515   108A      0.251607  
     109A      0.254637   110A      0.257519   111A      0.258975  
     112A      0.264264   113A      0.266379   114A      0.271277  
     115A      0.271865   116A      0.276590   117A      0.278872  
     118A      0.282256   119A      0.284173   120A      0.288290  
     121A      0.291276   122A      0.298462   123A      0.300634  
     124A      0.304359   125A      0.307332   126A      0.311237  
     127A      0.313675   128A      0.316907   129A      0.320118  
     130A      0.324385   131A      0.326895   132A      0.333321  
     133A      0.334619   134A      0.337269   135A      0.338569  
     136A      0.343201   137A      0.348251   138A      0.352685  
     139A      0.355117   140A      0.359486   141A      0.363466  
     142A      0.365483   143A      0.367044   144A      0.369383  
     145A      0.373846   146A      0.379368   147A      0.383826  
     148A      0.386032   149A      0.393090   150A      0.394489  
     151A      0.395161   152A      0.400508   153A      0.403462  
     154A      0.406044   155A      0.410480   156A      0.413758  
     157A      0.414751   158A      0.421871   159A      0.425361  
     160A      0.428477   161A      0.430394   162A      0.433576  
     163A      0.439852   164A      0.441165   165A      0.448314  
     166A      0.449290   167A      0.454628   168A      0.456953  
     169A      0.460115   170A      0.462224   171A      0.463286  
     172A      0.465624   173A      0.470272   174A      0.470591  
     175A      0.471226   176A      0.476666   177A      0.480143  
     178A      0.486189   179A      0.487788   180A      0.492149  
     181A      0.493765   182A      0.498044   183A      0.498977  
     184A      0.502770   185A      0.506704   186A      0.511465  
     187A      0.515141   188A      0.517390   189A      0.521052  
     190A      0.522942   191A      0.527319   192A      0.528722  
     193A      0.532201   194A      0.539071   195A      0.545140  
     196A      0.545994   197A      0.548880   198A      0.555917  
     199A      0.556631   200A      0.559743   201A      0.564025  
     202A      0.569659   203A      0.572543   204A      0.578599  
     205A      0.579696   206A      0.581099   207A      0.584338  
     208A      0.587000   209A      0.590426   210A      0.594225  
     211A      0.600065   212A      0.604447   213A      0.605480  
     214A      0.611472   215A      0.613356   216A      0.617852  
     217A      0.619391   218A      0.624856   219A      0.629959  
     220A      0.635825   221A      0.639788   222A      0.643033  
     223A      0.648268   224A      0.652550   225A      0.655496  
     226A      0.660888   227A      0.663654   228A      0.665549  
     229A      0.672850   230A      0.682444   231A      0.685260  
     232A      0.688261   233A      0.694192   234A      0.696493  
     235A      0.699250   236A      0.706936   237A      0.708833  
     238A      0.710956   239A      0.714589   240A      0.715729  
     241A      0.726813   242A      0.730613   243A      0.736698  
     244A      0.741483   245A      0.747414   246A      0.751903  
     247A      0.757236   248A      0.762376   249A      0.763606  
     250A      0.772421   251A      0.776814   252A      0.782603  
     253A      0.787010   254A      0.788436   255A      0.789507  
     256A      0.796001   257A      0.806955   258A      0.807657  
     259A      0.815148   260A      0.820092   261A      0.823804  
     262A      0.828165   263A      0.829456   264A      0.832097  
     265A      0.842371   266A      0.844639   267A      0.850097  
     268A      0.851917   269A      0.854356   270A      0.859919  
     271A      0.865702   272A      0.869789   273A      0.876405  
     274A      0.878411   275A      0.882408   276A      0.888779  
     277A      0.891093   278A      0.894864   279A      0.900862  
     280A      0.905643   281A      0.907644   282A      0.909394  
     283A      0.912416   284A      0.915533   285A      0.922092  
     286A      0.925604   287A      0.927373   288A      0.932065  
     289A      0.935226   290A      0.938572   291A      0.943822  
     292A      0.948232   293A      0.953006   294A      0.956023  
     295A      0.958227   296A      0.964651   297A      0.966455  
     298A      0.972904   299A      0.975229   300A      0.978956  
     301A      0.981165   302A      0.987252   303A      0.989843  
     304A      0.994331   305A      0.995718   306A      0.999879  
     307A      1.003749   308A      1.013790   309A      1.017384  
     310A      1.017767   311A      1.024236   312A      1.029033  
     313A      1.033173   314A      1.035832   315A      1.039192  
     316A      1.043923   317A      1.047362   318A      1.054016  
     319A      1.056705   320A      1.061311   321A      1.062411  
     322A      1.068122   323A      1.074092   324A      1.075859  
     325A      1.079627   326A      1.084113   327A      1.091670  
     328A      1.095763   329A      1.097753   330A      1.103311  
     331A      1.107441   332A      1.108176   333A      1.110865  
     334A      1.116155   335A      1.123593   336A      1.129426  
     337A      1.130943   338A      1.135352   339A      1.139423  
     340A      1.140338   341A      1.144638   342A      1.145991  
     343A      1.147989   344A      1.153720   345A      1.158580  
     346A      1.161219   347A      1.165347   348A      1.168529  
     349A      1.176290   350A      1.178056   351A      1.180422  
     352A      1.187848   353A      1.190412   354A      1.200418  
     355A      1.207029   356A      1.207692   357A      1.210018  
     358A      1.213312   359A      1.219366   360A      1.220795  
     361A      1.224405   362A      1.232931   363A      1.234192  
     364A      1.244300   365A      1.246050   366A      1.248018  
     367A      1.257820   368A      1.261032   369A      1.265880  
     370A      1.271621   371A      1.272467   372A      1.275217  
     373A      1.279686   374A      1.284554   375A      1.291095  
     376A      1.295186   377A      1.297828   378A      1.305383  
     379A      1.312103   380A      1.315281   381A      1.321077  
     382A      1.328444   383A      1.330287   384A      1.331969  
     385A      1.341574   386A      1.348937   387A      1.352080  
     388A      1.355650   389A      1.360792   390A      1.363399  
     391A      1.368049   392A      1.369996   393A      1.370683  
     394A      1.384869   395A      1.386775   396A      1.393747  
     397A      1.398269   398A      1.403768   399A      1.410314  
     400A      1.420176   401A      1.422972   402A      1.429042  
     403A      1.436078   404A      1.440086   405A      1.441383  
     406A      1.442815   407A      1.448439   408A      1.450732  
     409A      1.456171   410A      1.463968   411A      1.467331  
     412A      1.471765   413A      1.480909   414A      1.486105  
     415A      1.486618   416A      1.488223   417A      1.493069  
     418A      1.500587   419A      1.505925   420A      1.511879  
     421A      1.514312   422A      1.518731   423A      1.523107  
     424A      1.530410   425A      1.531163   426A      1.535550  
     427A      1.537875   428A      1.548069   429A      1.553852  
     430A      1.560663   431A      1.562924   432A      1.571674  
     433A      1.575811   434A      1.579315   435A      1.581557  
     436A      1.587240   437A      1.596509   438A      1.597369  
     439A      1.603296   440A      1.606113   441A      1.610609  
     442A      1.614724   443A      1.622605   444A      1.625647  
     445A      1.630406   446A      1.635291   447A      1.646122  
     448A      1.647039   449A      1.649070   450A      1.656324  
     451A      1.662095   452A      1.664241   453A      1.671794  
     454A      1.678569   455A      1.684243   456A      1.690001  
     457A      1.694101   458A      1.700345   459A      1.703802  
     460A      1.704496   461A      1.709876   462A      1.715547  
     463A      1.725874   464A      1.732871   465A      1.737840  
     466A      1.742178   467A      1.748488   468A      1.749863  
     469A      1.753629   470A      1.761627   471A      1.767301  
     472A      1.770328   473A      1.779709   474A      1.789013  
     475A      1.792168   476A      1.793985   477A      1.800452  
     478A      1.802629   479A      1.806172   480A      1.813180  
     481A      1.820300   482A      1.825966   483A      1.835481  
     484A      1.840010   485A      1.845278   486A      1.850133  
     487A      1.851934   488A      1.859576   489A      1.866440  
     490A      1.871538   491A      1.873720   492A      1.875312  
     493A      1.883686   494A      1.898710   495A      1.900974  
     496A      1.905144   497A      1.910608   498A      1.914127  
     499A      1.924542   500A      1.926985   501A      1.928918  
     502A      1.934886   503A      1.942362   504A      1.949311  
     505A      1.950916   506A      1.962499   507A      1.964166  
     508A      1.965656   509A      1.973615   510A      1.982309  
     511A      1.987081   512A      1.987806   513A      1.998724  
     514A      2.007225   515A      2.012385   516A      2.017424  
     517A      2.027065   518A      2.030322   519A      2.038199  
     520A      2.047488   521A      2.049777   522A      2.054135  
     523A      2.061174   524A      2.064530   525A      2.067592  
     526A      2.069484   527A      2.079939   528A      2.084186  
     529A      2.088267   530A      2.091625   531A      2.099469  
     532A      2.108458   533A      2.116782   534A      2.121154  
     535A      2.134361   536A      2.137165   537A      2.148367  
     538A      2.153868   539A      2.156157   540A      2.169077  
     541A      2.172343   542A      2.180260   543A      2.187088  
     544A      2.194981   545A      2.201056   546A      2.203114  
     547A      2.210412   548A      2.212747   549A      2.234706  
     550A      2.239762   551A      2.243424   552A      2.258009  
     553A      2.258847   554A      2.267294   555A      2.272566  
     556A      2.277625   557A      2.289462   558A      2.297620  
     559A      2.308568   560A      2.315528   561A      2.323378  
     562A      2.327177   563A      2.334586   564A      2.336597  
     565A      2.344056   566A      2.352456   567A      2.355030  
     568A      2.361612   569A      2.367835   570A      2.371506  
     571A      2.387966   572A      2.394079   573A      2.398337  
     574A      2.411256   575A      2.414776   576A      2.425182  
     577A      2.434504   578A      2.439721   579A      2.452617  
     580A      2.464461   581A      2.471431   582A      2.486094  
     583A      2.494370   584A      2.502619   585A      2.507681  
     586A      2.513565   587A      2.522647   588A      2.529988  
     589A      2.536219   590A      2.540311   591A      2.546061  
     592A      2.563605   593A      2.574329   594A      2.578001  
     595A      2.589272   596A      2.594940   597A      2.599230  
     598A      2.608566   599A      2.612924   600A      2.618968  
     601A      2.626486   602A      2.630052   603A      2.631312  
     604A      2.641197   605A      2.649293   606A      2.661543  
     607A      2.670814   608A      2.672100   609A      2.682660  
     610A      2.690531   611A      2.693854   612A      2.698008  
     613A      2.703443   614A      2.709402   615A      2.722847  
     616A      2.740217   617A      2.745438   618A      2.749332  
     619A      2.758282   620A      2.759913   621A      2.774507  
     622A      2.781437   623A      2.790511   624A      2.797141  
     625A      2.803543   626A      2.810489   627A      2.818836  
     628A      2.822731   629A      2.830443   630A      2.836314  
     631A      2.850936   632A      2.867548   633A      2.873283  
     634A      2.877069   635A      2.880014   636A      2.886914  
     637A      2.898753   638A      2.901228   639A      2.908606  
     640A      2.921528   641A      2.939558   642A      2.942135  
     643A      2.950643   644A      2.955157   645A      2.965445  
     646A      2.973718   647A      2.979323   648A      2.987875  
     649A      2.991196   650A      2.995533   651A      3.006508  
     652A      3.008899   653A      3.038952   654A      3.040796  
     655A      3.051942   656A      3.056929   657A      3.064673  
     658A      3.069828   659A      3.079076   660A      3.087612  
     661A      3.097476   662A      3.103328   663A      3.109268  
     664A      3.120554   665A      3.130443   666A      3.145543  
     667A      3.151751   668A      3.161747   669A      3.168257  
     670A      3.182241   671A      3.197445   672A      3.204921  
     673A      3.217860   674A      3.218710   675A      3.224705  
     676A      3.233885   677A      3.252690   678A      3.260110  
     679A      3.264792   680A      3.272852   681A      3.281714  
     682A      3.290096   683A      3.293398   684A      3.316832  
     685A      3.320142   686A      3.325880   687A      3.343800  
     688A      3.353700   689A      3.364982   690A      3.374912  
     691A      3.375808   692A      3.389509   693A      3.398026  
     694A      3.407855   695A      3.410285   696A      3.419792  
     697A      3.430880   698A      3.437564   699A      3.446012  
     700A      3.453247   701A      3.461501   702A      3.473893  
     703A      3.501035   704A      3.507811   705A      3.512934  
     706A      3.526875   707A      3.541667   708A      3.548141  
     709A      3.560312   710A      3.564266   711A      3.573500  
     712A      3.574478   713A      3.584743   714A      3.594336  
     715A      3.602716   716A      3.612552   717A      3.613788  
     718A      3.625219   719A      3.633563   720A      3.638071  
     721A      3.653497   722A      3.662736   723A      3.671520  
     724A      3.675918   725A      3.684338   726A      3.704611  
     727A      3.707879   728A      3.709514   729A      3.720206  
     730A      3.730459   731A      3.735919   732A      3.741946  
     733A      3.759031   734A      3.764401   735A      3.770339  
     736A      3.779544   737A      3.788323   738A      3.791316  
     739A      3.805850   740A      3.818217   741A      3.822634  
     742A      3.825512   743A      3.834217   744A      3.842425  
     745A      3.848975   746A      3.855063   747A      3.860368  
     748A      3.868218   749A      3.876260   750A      3.885257  
     751A      3.892267   752A      3.905825   753A      3.908759  
     754A      3.910782   755A      3.923103   756A      3.927530  
     757A      3.934808   758A      3.939602   759A      3.948890  
     760A      3.958829   761A      3.968691   762A      3.974857  
     763A      3.979549   764A      3.984516   765A      3.988634  
     766A      3.994002   767A      4.000707   768A      4.012350  
     769A      4.019672   770A      4.020028   771A      4.033514  
     772A      4.034785   773A      4.045169   774A      4.047077  
     775A      4.058081   776A      4.066565   777A      4.076567  
     778A      4.082842   779A      4.089145   780A      4.098696  
     781A      4.109203   782A      4.110625   783A      4.121945  
     784A      4.126044   785A      4.135072   786A      4.137249  
     787A      4.142767   788A      4.143376   789A      4.164324  
     790A      4.168458   791A      4.171195   792A      4.175250  
     793A      4.181762   794A      4.193703   795A      4.199770  
     796A      4.209689   797A      4.219100   798A      4.224519  
     799A      4.237377   800A      4.241499   801A      4.243034  
     802A      4.255907   803A      4.261343   804A      4.273040  
     805A      4.275531   806A      4.283144   807A      4.293293  
     808A      4.298204   809A      4.302769   810A      4.314956  
     811A      4.332171   812A      4.338662   813A      4.342162  
     814A      4.355374   815A      4.357361   816A      4.365445  
     817A      4.379808   818A      4.393657   819A      4.398597  
     820A      4.412164   821A      4.415984   822A      4.423522  
     823A      4.429969   824A      4.437184   825A      4.457045  
     826A      4.462586   827A      4.467064   828A      4.470391  
     829A      4.475858   830A      4.480464   831A      4.496139  
     832A      4.498738   833A      4.508219   834A      4.515396  
     835A      4.523118   836A      4.531967   837A      4.548537  
     838A      4.554528   839A      4.560484   840A      4.568875  
     841A      4.575792   842A      4.589435   843A      4.601497  
     844A      4.606407   845A      4.612373   846A      4.614230  
     847A      4.620942   848A      4.631777   849A      4.638949  
     850A      4.649220   851A      4.660206   852A      4.671559  
     853A      4.680386   854A      4.699814   855A      4.715983  
     856A      4.730511   857A      4.738673   858A      4.746586  
     859A      4.758533   860A      4.766331   861A      4.780350  
     862A      4.790496   863A      4.792413   864A      4.798463  
     865A      4.817937   866A      4.830231   867A      4.839858  
     868A      4.851487   869A      4.861890   870A      4.868772  
     871A      4.880062   872A      4.882422   873A      4.898693  
     874A      4.918783   875A      4.925979   876A      4.936219  
     877A      4.941318   878A      4.959358   879A      4.963550  
     880A      4.975732   881A      4.988534   882A      4.991942  
     883A      5.001061   884A      5.007059   885A      5.015917  
     886A      5.030261   887A      5.039726   888A      5.059935  
     889A      5.069935   890A      5.080221   891A      5.092945  
     892A      5.096210   893A      5.098727   894A      5.116348  
     895A      5.125292   896A      5.127355   897A      5.134288  
     898A      5.144234   899A      5.149464   900A      5.166917  
     901A      5.178899   902A      5.186785   903A      5.200589  
     904A      5.209665   905A      5.221316   906A      5.239201  
     907A      5.245259   908A      5.255676   909A      5.262537  
     910A      5.269673   911A      5.285990   912A      5.296635  
     913A      5.309397   914A      5.323697   915A      5.344792  
     916A      5.348488   917A      5.357622   918A      5.378743  
     919A      5.381851   920A      5.391505   921A      5.408235  
     922A      5.416650   923A      5.433233   924A      5.442954  
     925A      5.455492   926A      5.466027   927A      5.483982  
     928A      5.490802   929A      5.494966   930A      5.507552  
     931A      5.513035   932A      5.520526   933A      5.528761  
     934A      5.540334   935A      5.559636   936A      5.564424  
     937A      5.576785   938A      5.581690   939A      5.592136  
     940A      5.604125   941A      5.612403   942A      5.625246  
     943A      5.635520   944A      5.657012   945A      5.670664  
     946A      5.681041   947A      5.698616   948A      5.700609  
     949A      5.705294   950A      5.723916   951A      5.736365  
     952A      5.749893   953A      5.750183   954A      5.767896  
     955A      5.778630   956A      5.788384   957A      5.814700  
     958A      5.818174   959A      5.831851   960A      5.844620  
     961A      5.871245   962A      5.878749   963A      5.886500  
     964A      5.901973   965A      5.916852   966A      5.933789  
     967A      5.938154   968A      5.951706   969A      5.955267  
     970A      5.977332   971A      5.987855   972A      6.034771  
     973A      6.059323   974A      6.065617   975A      6.080555  
     976A      6.099585   977A      6.108547   978A      6.132111  
     979A      6.142262   980A      6.169114   981A      6.195813  
     982A      6.203818   983A      6.226487   984A      6.257882  
     985A      6.269408   986A      6.294483   987A      6.304488  
     988A      6.326352   989A      6.329748   990A      6.335871  
     991A      6.354179   992A      6.399464   993A      6.453477  
     994A      6.476565   995A      6.510864   996A      6.589076  
     997A      6.593243   998A      6.629091   999A      6.643585  
    1000A      6.652712  1001A      6.671251  1002A      6.698880  
    1003A      6.731350  1004A      6.761871  1005A      6.790435  
    1006A      6.791560  1007A      6.825909  1008A      6.846183  
    1009A      6.877879  1010A      6.881563  1011A      6.912019  
    1012A      6.944814  1013A      6.949660  1014A      7.008897  
    1015A      7.021134  1016A      7.047723  1017A      7.081078  
    1018A      7.087491  1019A      7.138691  1020A      7.161077  
    1021A      7.200569  1022A      7.214775  1023A      7.228780  
    1024A      7.267037  1025A      7.277647  1026A      7.321348  
    1027A      7.338514  1028A      7.383640  1029A      7.386979  
    1030A      7.425228  1031A      7.515442  1032A      7.598308  
    1033A      7.627788  1034A      7.674066  1035A      7.712906  
    1036A      7.727390  1037A      7.738189  1038A      7.759406  
    1039A      7.789322  1040A      7.805993  1041A      7.829943  
    1042A      7.849017  1043A      7.862043  1044A      7.865922  
    1045A      7.885350  1046A      7.903745  1047A      7.909185  
    1048A      7.922425  1049A      7.935470  1050A      7.963693  
    1051A      7.985224  1052A      7.991908  1053A      8.010895  
    1054A      8.029640  1055A      8.042623  1056A      8.055900  
    1057A      8.068707  1058A      8.089109  1059A      8.111292  
    1060A      8.125058  1061A      8.149821  1062A      8.178893  
    1063A      8.215216  1064A      8.239940  1065A      8.287743  
    1066A      8.319079  1067A      8.338322  1068A      8.434239  
    1069A      8.490295  1070A      8.558304  1071A      8.605451  
    1072A      8.663772  1073A      8.721733  1074A      8.769662  
    1075A      9.659907  1076A      9.822645  1077A      9.882715  
    1078A      9.906315  1079A      9.967525  1080A      9.988269  
    1081A     10.039588  1082A     10.051626  1083A     10.113241  
    1084A     10.202413  1085A     10.225545  1086A     10.259094  
    1087A     10.299397  1088A     10.319402  1089A     10.346865  
    1090A     10.459454  1091A     10.509532  1092A     10.684773  
    1093A     10.846274  1094A     10.867265  1095A     11.134789  
    1096A     11.527884  1097A     11.693077  1098A     11.798825  
    1099A     11.841233  1100A     11.880465  1101A     11.988689  
    1102A     12.079081  1103A     12.101460  1104A     12.467867  
    1105A     12.689109  1106A     12.733792  1107A     13.040989  
    1108A     13.758418  1109A     14.058173  1110A     14.108556  
    1111A     16.135848  1112A     16.294074  1113A     16.734639  
    1114A     17.316887  1115A     17.913706  1116A     18.697967  
    1117A     18.736089  1118A     19.167620  1119A     19.551511  
    1120A     19.698387  1121A     20.174319  1122A     21.192550  
    1123A     21.433036  1124A     23.346910  1125A     23.523133  
    1126A     23.741353  1127A     61.444160  1128A     63.230394  
    1129A     63.903959  1130A     66.101247  1131A    123.983477  

    Final Occupation by Irrep:
              A 
    DOCC [    45 ]

  @DF-RHF Final Energy:  -568.70725268325509

   => Energetics <=

    Nuclear Repulsion Energy =            752.3690321910114562
    One-Electron Energy =               -2269.1184190692483753
    Two-Electron Energy =                 948.0421341949818270
    Total Energy =                       -568.7072526832550921

Computation Completed


Properties will be evaluated at   0.000000,   0.000000,   0.000000 [a0]

Properties computed using the SCF density matrix

  Nuclear Dipole Moment: [e a0]
     X:   -53.9082      Y:  -111.7670      Z:  -247.7378

  Electronic Dipole Moment: [e a0]
     X:    54.4462      Y:   108.0283      Z:   246.9102

  Dipole Moment: [e a0]
     X:     0.5380      Y:    -3.7387      Z:    -0.8275     Total:     3.8668

  Dipole Moment: [D]
     X:     1.3674      Y:    -9.5029      Z:    -2.1034     Total:     9.8285


*** tstop() called on localhost.localdomain at Mon Jun 13 21:51:05 2022
Module time:
	user time   =    1029.73 seconds =      17.16 minutes
	system time =      13.43 seconds =       0.22 minutes
	total time  =         51 seconds =       0.85 minutes
Total time:
	user time   =    3392.53 seconds =      56.54 minutes
	system time =      46.71 seconds =       0.78 minutes
	total time  =        181 seconds =       3.02 minutes

*** tstart() called on localhost.localdomain
*** at Mon Jun 13 21:51:05 2022


  //>>>>>>>>>>>>>>>>>>>>>>>>>>>>>>>>>>>//
  //               DFMP2               //
  //<<<<<<<<<<<<<<<<<<<<<<<<<<<<<<<<<<<//

   => Loading Basis Set <=

    Name: (AUG-CC-PVTZ AUX)
    Role: RIFIT
    Keyword: DF_BASIS_MP2
    atoms 1-3, 8, 13, 16, 19, 22                     entry C          line   148 file /data0/home/wuhanyu/software/psi4_132/share/psi4/basis/aug-cc-pvtz-ri.gbs 
    atoms 4, 12                                      entry N          line   206 file /data0/home/wuhanyu/software/psi4_132/share/psi4/basis/aug-cc-pvtz-ri.gbs 
[...]
     911A      5.914993   912A      5.933701   913A      5.956536  
     914A      5.975441   915A      5.989844   916A      6.014528  
     917A      6.018241   918A      6.036848   919A      6.044183  
     920A      6.060952   921A      6.076929   922A      6.101518  
     923A      6.109112   924A      6.132350   925A      6.142932  
     926A      6.150303   927A      6.165621   928A      6.196090  
     929A      6.207254   930A      6.209770   931A      6.242012  
     932A      6.259924   933A      6.287982   934A      6.297183  
     935A      6.324106   936A      6.369402   937A      6.418408  
     938A      6.441635   939A      6.446028   940A      6.495153  
     941A      6.528080   942A      6.560465   943A      6.573701  
     944A      6.579717   945A      6.584904   946A      6.606936  
     947A      6.629122   948A      6.668494   949A      6.683162  
     950A      6.708751   951A      6.740927   952A      6.760606  
     953A      6.762445   954A      6.783544   955A      6.789546  
     956A      6.814579   957A      6.819028   958A      6.823767  
     959A      6.833099   960A      6.845144   961A      6.851373  
     962A      6.859862   963A      6.868162   964A      6.882922  
     965A      6.888533   966A      6.909159   967A      6.927864  
     968A      6.931922   969A      6.942428   970A      6.955069  
     971A      6.958026   972A      6.972814   973A      6.982408  
     974A      6.986637   975A      7.009487   976A      7.016146  
     977A      7.026091   978A      7.035432   979A      7.056058  
     980A      7.075570   981A      7.086235   982A      7.099558  
     983A      7.107867   984A      7.125467   985A      7.126443  
     986A      7.141883   987A      7.157863   988A      7.166743  
     989A      7.184299   990A      7.203267   991A      7.218258  
     992A      7.231661   993A      7.280181   994A      7.283720  
     995A      7.319888   996A      7.325197   997A      7.330175  
     998A      7.338466   999A      7.352658  1000A      7.369410  
    1001A      7.378706  1002A      7.391668  1003A      7.405846  
    1004A      7.429619  1005A      7.436689  1006A      7.448434  
    1007A      7.478093  1008A      7.483307  1009A      7.510634  
    1010A      7.518177  1011A      7.532851  1012A      7.553906  
    1013A      7.581727  1014A      7.604656  1015A      7.617091  
    1016A      7.631104  1017A      7.647209  1018A      7.664799  
    1019A      7.686665  1020A      7.722735  1021A      7.736936  
    1022A      7.740374  1023A      7.752349  1024A      7.758339  
    1025A      7.784840  1026A      7.788631  1027A      7.811964  
    1028A      7.825127  1029A      7.840348  1030A      7.860816  
    1031A      7.863946  1032A      7.882787  1033A      7.894687  
    1034A      7.905302  1035A      7.914790  1036A      7.938112  
    1037A      7.950903  1038A      7.958736  1039A      7.988194  
    1040A      7.996000  1041A      8.009598  1042A      8.012399  
    1043A      8.027594  1044A      8.045681  1045A      8.071924  
    1046A      8.087365  1047A      8.120454  1048A      8.151113  
    1049A      8.171666  1050A      8.188122  1051A      8.213812  
    1052A      8.230997  1053A      8.246634  1054A      8.280238  
    1055A      8.292524  1056A      8.301562  1057A      8.334963  
    1058A      8.351135  1059A      8.360922  1060A      8.385232  
    1061A      8.400612  1062A      8.436471  1063A      8.488159  
    1064A      8.494968  1065A      8.525770  1066A      8.553004  
    1067A      8.601467  1068A      8.649350  1069A      8.726511  
    1070A      8.741123  1071A      8.767775  1072A      8.886581  
    1073A      8.972101  1074A      9.033568  1075A      9.093541  
    1076A      9.183939  1077A      9.262551  1078A      9.371430  
    1079A      9.577308  1080A      9.736352  1081A      9.784510  
    1082A      9.916112  1083A     10.036752  1084A     10.076017  
    1085A     10.103222  1086A     10.133834  1087A     10.267521  
    1088A     10.311318  1089A     10.326833  1090A     10.459259  
    1091A     10.475862  1092A     10.492781  1093A     10.598256  
    1094A     10.648529  1095A     10.668520  1096A     10.749069  
    1097A     10.767620  1098A     10.861122  1099A     10.945159  
    1100A     11.426053  1101A     11.689386  1102A     11.959777  
    1103A     12.136655  1104A     12.158450  1105A     12.218164  
    1106A     12.254830  1107A     12.318667  1108A     12.405203  
    1109A     12.445482  1110A     12.628021  1111A     12.830440  
    1112A     13.038435  1113A     13.454959  1114A     13.701527  
    1115A     14.038757  1116A     14.279786  1117A     14.525269  
    1118A     14.872659  1119A     15.784571  1120A     52.261468  
    1121A     52.652886  1122A     54.301342  1123A     55.009039  
    1124A     55.227495  1125A     55.793733  1126A     56.088422  
    1127A     56.657281  1128A     62.179127  1129A     64.082447  
    1130A     66.973793  1131A     71.661110  

    Final Occupation by Irrep:
              A 
    DOCC [    25 ]

  @DF-RHF Final Energy:  -642.17779432675673

   => Energetics <=

    Nuclear Repulsion Energy =            279.7858194464709527
    One-Electron Energy =               -1444.3988608593588197
    Two-Electron Energy =                 522.4352470861311986
    Total Energy =                       -642.1777943267567252

Computation Completed


Properties will be evaluated at   0.000000,   0.000000,   0.000000 [a0]

Properties computed using the SCF density matrix

  Nuclear Dipole Moment: [e a0]
     X:    49.2492      Y:   105.3783      Z:   231.7575

  Electronic Dipole Moment: [e a0]
     X:   -50.6352      Y:  -103.8293      Z:  -232.8986

  Dipole Moment: [e a0]
     X:    -1.3860      Y:     1.5490      Z:    -1.1411     Total:     2.3712

  Dipole Moment: [D]
     X:    -3.5227      Y:     3.9372      Z:    -2.9004     Total:     6.0269


*** tstop() called on localhost.localdomain at Mon Jun 13 21:52:21 2022
Module time:
	user time   =     890.38 seconds =      14.84 minutes
	system time =      10.60 seconds =       0.18 minutes
	total time  =         46 seconds =       0.77 minutes
Total time:
	user time   =    4716.55 seconds =      78.61 minutes
	system time =      64.44 seconds =       1.07 minutes
	total time  =        257 seconds =       4.28 minutes

*** tstart() called on localhost.localdomain
*** at Mon Jun 13 21:52:21 2022


  //>>>>>>>>>>>>>>>>>>>>>>>>>>>>>>>>>>>//
  //               DFMP2               //
  //<<<<<<<<<<<<<<<<<<<<<<<<<<<<<<<<<<<//

   => Loading Basis Set <=

    Name: (AUG-CC-PVTZ AUX)
    Role: RIFIT
    Keyword: DF_BASIS_MP2
    atoms 1-3, 8, 13, 16, 19, 22                     entry C          line   148 file /data0/home/wuhanyu/software/psi4_132/share/psi4/basis/aug-cc-pvtz-ri.gbs 
    atoms 4, 12                                      entry N          line   206 file /data0/home/wuhanyu/software/psi4_132/share/psi4/basis/aug-cc-pvtz-ri.gbs 
    atoms 5-7, 9-11, 14-15, 17-18, 20-21, 28, 30, 32 entry H          line    30 file /data0/home/wuhanyu/software/psi4_132/share/psi4/basis/aug-cc-pvtz-ri.gbs 
    atoms 23-24, 26-27, 29, 31                       entry O          line   264 file /data0/home/wuhanyu/software/psi4_132/share/psi4/basis/aug-cc-pvtz-ri.gbs 
    atoms 25                                         entry P          line   590 file /data0/home/wuhanyu/software/psi4_132/share/psi4/basis/aug-cc-pvtz-ri.gbs 

	 --------------------------------------------------------
	                          DF-MP2                         
	      2nd-Order Density-Fitted Moller-Plesset Theory     
	              RMP2 Wavefunction,  24 Threads             
	                                                         
	        Rob Parrish, Justin Turney, Andy Simmonett,      
	           Ed Hohenstein, and C. David Sherrill          
	 --------------------------------------------------------

   => Auxiliary Basis Set <=

  Basis Set: (AUG-CC-PVTZ AUX)
    Blend: AUG-CC-PVTZ-RI
    Number of shells: 695
    Number of basis function: 2533
    Number of Cartesian functions: 3192
    Spherical Harmonics?: true
    Max angular momentum: 4

	 --------------------------------------------------------
	                 NBF =  1131, NAUX =  2533
	 --------------------------------------------------------
	   CLASS    FOCC     OCC    AOCC    AVIR     VIR    FVIR
	   PAIRS       9      25      16    1106    1106       0
	 --------------------------------------------------------

	 Will attempt to load fitting metric from file 97.

	-----------------------------------------------------------
	 ==================> DF-MP2 Energies <==================== 
	-----------------------------------------------------------
	 Reference Energy          =    -642.1777943267567252 [Eh]
	 Singles Energy            =      -0.0000000000000000 [Eh]
	 Same-Spin Energy          =      -0.2986010525875267 [Eh]
	 Opposite-Spin Energy      =      -0.8472136552201209 [Eh]
	 Correlation Energy        =      -1.1458147078076477 [Eh]
	 Total Energy              =    -643.3236090345643561 [Eh]
	-----------------------------------------------------------
	 ================> DF-SCS-MP2 Energies <================== 
	-----------------------------------------------------------
	 SCS Same-Spin Scale       =       0.3333333333333333 [-]
	 SCS Opposite-Spin Scale   =       1.2000000000000000 [-]
	 SCS Same-Spin Energy      =      -0.0995336841958422 [Eh]
	 SCS Opposite-Spin Energy  =      -1.0166563862641451 [Eh]
	 SCS Correlation Energy    =      -1.1161900704599874 [Eh]
	 SCS Total Energy          =    -643.2939843972167182 [Eh]
	-----------------------------------------------------------


*** tstop() called on localhost.localdomain at Mon Jun 13 21:52:43 2022
Module time:
	user time   =     273.14 seconds =       4.55 minutes
	system time =       5.95 seconds =       0.10 minutes
	total time  =         22 seconds =       0.37 minutes
Total time:
	user time   =    4989.69 seconds =      83.16 minutes
	system time =      70.39 seconds =       1.17 minutes
	total time  =        279 seconds =       4.65 minutes
  Constructing Basis Sets for SAPT...

   => Loading Basis Set <=

    Name: (AUG-CC-PVTZ AUX)
    Role: RIFIT
    Keyword: DF_BASIS_SAPT
    atoms 1-3, 8, 13, 16, 19, 22                     entry C          line   148 file /data0/home/wuhanyu/software/psi4_132/share/psi4/basis/aug-cc-pvtz-ri.gbs 
    atoms 4, 12                                      entry N          line   206 file /data0/home/wuhanyu/software/psi4_132/share/psi4/basis/aug-cc-pvtz-ri.gbs 
    atoms 5-7, 9-11, 14-15, 17-18, 20-21, 28, 30, 32 entry H          line    30 file /data0/home/wuhanyu/software/psi4_132/share/psi4/basis/aug-cc-pvtz-ri.gbs 
    atoms 23-24, 26-27, 29, 31                       entry O          line   264 file /data0/home/wuhanyu/software/psi4_132/share/psi4/basis/aug-cc-pvtz-ri.gbs 
    atoms 25                                         entry P          line   590 file /data0/home/wuhanyu/software/psi4_132/share/psi4/basis/aug-cc-pvtz-ri.gbs 


  //>>>>>>>>>>>>>>>>>>>>>>>>>>>>>>>>>>>//
  //           SAPT2+(3)DMP2           //
  //<<<<<<<<<<<<<<<<<<<<<<<<<<<<<<<<<<<//


*** tstart() called on localhost.localdomain
*** at Mon Jun 13 21:52:43 2022

      SAPT2+(3)  
    Ed Hohenstein
     6 June 2009

      Orbital Information
  --------------------------
    NSO        =      1131
    NMO        =      1131
    NRI        =      2533
    NOCC A     =        45
    NOCC B     =        25
    FOCC A     =        12
    FOCC B     =         9
    NVIR A     =      1086
    NVIR B     =      1106

    Estimated memory usage: 84236.9 MB

    Natural Orbital Cutoff:   1.000E-06
    Disp(T3) Truncation:            Yes
    CCD (vv|vv) Truncation:         Yes
    MBPT T2 Truncation:             Yes

    Monomer A: 377 virtual orbitals dropped
    Monomer B: 832 virtual orbitals dropped

    Elst10,r            =    -0.106190685035 [Eh]
    Exch10 (S^2)        =     0.076612274472 [Eh]
    Exch10              =     0.077981920004 [Eh]
    Ind20,r (A<-B)      =    -0.035441087080 [Eh]
    Ind20,r (B<-A)      =    -0.016891421431 [Eh]
    Ind20,r             =    -0.052332508511 [Eh]
    Exch-Ind20,r (A<-B) =     0.015975413472 [Eh]
    Exch-Ind20,r (B<-A) =     0.008297855652 [Eh]
    Exch-Ind20,r        =     0.024273269123 [Eh]
    Disp20              =    -0.030767640606 [Eh]
    Disp20 (NO)         =    -0.027554064755 [Eh]
    Exch-Disp20         =     0.005841175732 [Eh]
    Elst12,r            =     0.003917505002 [Eh]
    Exch11              =     0.001023031887 [Eh]
    Exch12              =     0.011858355898 [Eh]
    Ind22               =    -0.008101772810 [Eh]
    Disp21              =     0.003334075761 [Eh]
    Disp22 (SDQ)        =    -0.001481294740 [Eh]

    (i =   1 of  16)       2447 seconds
    (i =   2 of  16)       4836 seconds
    (i =   3 of  16)       7167 seconds
    (i =   4 of  16)       9516 seconds
    (i =   5 of  16)      11850 seconds
    (i =   6 of  16)      14183 seconds
    (i =   7 of  16)      16544 seconds
    (i =   8 of  16)      18936 seconds
    (i =   9 of  16)      21344 seconds
    (i =  10 of  16)      23750 seconds
    (i =  11 of  16)      26133 seconds
    (i =  12 of  16)      28526 seconds
    (i =  13 of  16)      30895 seconds
    (i =  14 of  16)      33261 seconds
    (i =  15 of  16)      35651 seconds
    (i =  16 of  16)      38056 seconds

    Disp220 (T)         =    -0.002837588130 [Eh]

    (i =   1 of  33)        210 seconds
    (i =   2 of  33)        401 seconds
    (i =   3 of  33)        591 seconds
    (i =   4 of  33)        778 seconds
    (i =   5 of  33)        965 seconds
    (i =   6 of  33)       1153 seconds
    (i =   7 of  33)       1342 seconds
    (i =   8 of  33)       1531 seconds
    (i =   9 of  33)       1720 seconds
    (i =  10 of  33)       1908 seconds
    (i =  11 of  33)       2097 seconds
    (i =  12 of  33)       2285 seconds
    (i =  13 of  33)       2473 seconds
    (i =  14 of  33)       2661 seconds
    (i =  15 of  33)       2849 seconds
    (i =  16 of  33)       3035 seconds
    (i =  17 of  33)       3218 seconds
    (i =  18 of  33)       3401 seconds
    (i =  19 of  33)       3584 seconds
    (i =  20 of  33)       3767 seconds
    (i =  21 of  33)       3949 seconds
    (i =  22 of  33)       4131 seconds
    (i =  23 of  33)       4313 seconds
    (i =  24 of  33)       4495 seconds
    (i =  25 of  33)       4678 seconds
    (i =  26 of  33)       4861 seconds
    (i =  27 of  33)       5043 seconds
    (i =  28 of  33)       5226 seconds
    (i =  29 of  33)       5409 seconds
    (i =  30 of  33)       5592 seconds
    (i =  31 of  33)       5776 seconds
    (i =  32 of  33)       5959 seconds
    (i =  33 of  33)       6141 seconds

    Disp202 (T)         =    -0.002956277739 [Eh]

    Disp22 (T)          =    -0.005793865870 [Eh]

    Est. Disp220 (T)    =    -0.003168530399 [Eh]
    Est. Disp202 (T)    =    -0.003301062541 [Eh]

    Est. Disp22 (T)     =    -0.006469592940 [Eh]
    Elst13,r            =     0.000058842360 [Eh]
    Disp30              =     0.001055406300 [Eh]

    SAPT Results 
  --------------------------------------------------------------------------------------------------------
    Electrostatics               -102.21433767 [mEh]     -64.14046525 [kcal/mol]    -268.36370659 [kJ/mol]
      Elst10,r                   -106.19068503 [mEh]     -66.63566089 [kcal/mol]    -278.80360515 [kJ/mol]
      Elst12,r                      3.91750500 [mEh]       2.45827150 [kcal/mol]      10.28540797 [kJ/mol]
      Elst13,r                      0.05884236 [mEh]       0.03692414 [kcal/mol]       0.15449059 [kJ/mol]

    Exchange                       90.86330779 [mEh]      57.01758646 [kcal/mol]     238.56158173 [kJ/mol]
      Exch10                       77.98192000 [mEh]      48.93439359 [kcal/mol]     204.74150276 [kJ/mol]
      Exch10(S^2)                  76.61227447 [mEh]      48.07492804 [kcal/mol]     201.14549892 [kJ/mol]
      Exch11(S^2)                   1.02303189 [mEh]       0.64196220 [kcal/mol]       2.68596985 [kJ/mol]
      Exch12(S^2)                  11.85835590 [mEh]       7.44123067 [kcal/mol]      31.13410912 [kJ/mol]

    Induction                     -49.25666793 [mEh]     -30.90902577 [kcal/mol]    -129.32336384 [kJ/mol]
      Ind20,r                     -52.33250851 [mEh]     -32.83914488 [kcal/mol]    -137.39898217 [kJ/mol]
      Ind22                        -8.10177281 [mEh]      -5.08393919 [kcal/mol]     -21.27120158 [kJ/mol]
      Exch-Ind20,r                 24.27326912 [mEh]      15.23170633 [kcal/mol]      63.72945930 [kJ/mol]
      Exch-Ind22                    3.75782697 [mEh]       2.35807202 [kcal/mol]       9.86617334 [kJ/mol]
      delta HF,r (2)              -19.14442601 [mEh]     -12.01330869 [kcal/mol]     -50.26368356 [kJ/mol]
      delta MP2,r (2)               2.29094330 [mEh]       1.43758863 [kcal/mol]       6.01487082 [kJ/mol]

    Dispersion                    -28.48787049 [mEh]     -17.87640862 [kcal/mol]     -74.79489368 [kJ/mol]
      Disp20                      -30.76764061 [mEh]     -19.30698597 [kcal/mol]     -80.78042928 [kJ/mol]
      Disp30                        1.05540630 [mEh]       0.66227745 [kcal/mol]       2.77096886 [kJ/mol]
      Disp21                        3.33407576 [mEh]       2.09216413 [kcal/mol]       8.75361470 [kJ/mol]
      Disp22 (SDQ)                 -1.48129474 [mEh]      -0.92952648 [kcal/mol]      -3.88913881 [kJ/mol]
      Disp22 (T)                   -5.79386587 [mEh]      -3.63570572 [kcal/mol]     -15.21179275 [kJ/mol]
      Est. Disp22 (T)              -6.46959294 [mEh]      -4.05973086 [kcal/mol]     -16.98591392 [kJ/mol]
      Exch-Disp20                   5.84117573 [mEh]       3.66539311 [kcal/mol]      15.33600477 [kJ/mol]

  Total HF                        -75.41243043 [mEh]     -47.32201453 [kcal/mol]    -197.99530881 [kJ/mol]
  Total SAPT0                    -100.33889530 [mEh]     -62.96360739 [kcal/mol]    -263.43973332 [kJ/mol]
  Total SAPT2                     -87.88394835 [mEh]     -55.14801019 [kcal/mol]    -230.73927462 [kJ/mol]
  Total SAPT2+                    -92.50076027 [mEh]     -58.04510340 [kcal/mol]    -242.86071264 [kJ/mol]
  Total SAPT2+(3)                 -91.38651161 [mEh]     -57.34590181 [kcal/mol]    -239.93525319 [kJ/mol]
  Total SAPT2+dMP2                -90.20981697 [mEh]     -56.60751478 [kcal/mol]    -236.84584182 [kJ/mol]
  Total SAPT2+(3)dMP2             -89.09556831 [mEh]     -55.90831319 [kcal/mol]    -233.92038237 [kJ/mol]

  Special recipe for scaled SAPT0 (see Manual):
    Electrostatics sSAPT0        -106.19068503 [mEh]     -66.63566089 [kcal/mol]    -278.80360515 [kJ/mol]
    Exchange sSAPT0                77.98192000 [mEh]      48.93439359 [kcal/mol]     204.74150276 [kJ/mol]
    Induction sSAPT0              -45.87840757 [mEh]     -28.78913540 [kcal/mol]    -120.45374249 [kJ/mol]
    Dispersion sSAPT0             -24.60755176 [mEh]     -15.44147186 [kcal/mol]     -64.60711825 [kJ/mol]
  Total sSAPT0                    -98.69472437 [mEh]     -61.93187455 [kcal/mol]    -259.12296312 [kJ/mol]
  --------------------------------------------------------------------------------------------------------

*** tstop() called on localhost.localdomain at Tue Jun 14 12:44:02 2022
Module time:
	user time   =  690312.39 seconds =   11505.21 minutes
	system time =    4611.07 seconds =      76.85 minutes
	total time  =      53479 seconds =     891.32 minutes
Total time:
	user time   =  695304.63 seconds =   11588.41 minutes
	system time =    4681.51 seconds =      78.03 minutes
	total time  =      53758 seconds =     895.97 minutes

    Psi4 stopped on: Tuesday, 14 June 2022 12:44PM
    Psi4 wall time for execution: 14:55:57.96

*** Psi4 exiting successfully. Buy a developer a beer!
