 Entering Gaussian System, Link 0=g16
 Initial command:
 /data0/home/software/g16/l1.exe "/data0/home/software/g16/scratch/Gau-2922987.inp" -scrdir="/data0/home/software/g16/scratch/"
 Default is to use a total of  22 processors:
                               22 via shared-memory
                                1 via Linda
 Entering Link 1 = /data0/home/software/g16/l1.exe PID=   2922988.
  
 Copyright (c) 1988,1990,1992,1993,1995,1998,2003,2009,2016,
            Gaussian, Inc.  All Rights Reserved.
  
 This is part of the Gaussian(R) 16 program.  It is based on
 the Gaussian(R) 09 system (copyright 2009, Gaussian, Inc.),
 the Gaussian(R) 03 system (copyright 2003, Gaussian, Inc.),
 the Gaussian(R) 98 system (copyright 1998, Gaussian, Inc.),
 the Gaussian(R) 94 system (copyright 1995, Gaussian, Inc.),
 the Gaussian 92(TM) system (copyright 1992, Gaussian, Inc.),
 the Gaussian 90(TM) system (copyright 1990, Gaussian, Inc.),
 the Gaussian 88(TM) system (copyright 1988, Gaussian, Inc.),
 the Gaussian 86(TM) system (copyright 1986, Carnegie Mellon
 University), and the Gaussian 82(TM) system (copyright 1983,
 Carnegie Mellon University). Gaussian is a federally registered
 trademark of Gaussian, Inc.
  
 This software contains proprietary and confidential information,
 including trade secrets, belonging to Gaussian, Inc.
  
 This software is provided under written license and may be
 used, copied, transmitted, or stored only in accord with that
 written license.
  
 The following legend is applicable only to US Government
 contracts under FAR:
  
                    RESTRICTED RIGHTS LEGEND
  
 Use, reproduction and disclosure by the US Government is
 subject to restrictions as set forth in subparagraphs (a)
 and (c) of the Commercial Computer Software - Restricted
 Rights clause in FAR 52.227-19.
  
 Gaussian, Inc.
 340 Quinnipiac St., Bldg. 40, Wallingford CT 06492
  
  
 ---------------------------------------------------------------
 Warning -- This program may not be used in any manner that
 competes with the business of Gaussian, Inc. or will provide
 assistance to any competitor of Gaussian, Inc.  The licensee
 of this program is prohibited from giving any competitor of
 Gaussian, Inc. access to this program.  By using this program,
 the user acknowledges that Gaussian, Inc. is engaged in the
 business of creating and licensing software in the field of
 computational chemistry and represents and warrants to the
 licensee that it is not a competitor of Gaussian, Inc. and that
 it will not use this program in any manner prohibited above.
 ---------------------------------------------------------------
  

 Cite this work as:
 Gaussian 16, Revision A.03,
 M. J. Frisch, G. W. Trucks, H. B. Schlegel, G. E. Scuseria, 
 M. A. Robb, J. R. Cheeseman, G. Scalmani, V. Barone, 
 G. A. Petersson, H. Nakatsuji, X. Li, M. Caricato, A. V. Marenich, 
 J. Bloino, B. G. Janesko, R. Gomperts, B. Mennucci, H. P. Hratchian, 
 J. V. Ortiz, A. F. Izmaylov, J. L. Sonnenberg, D. Williams-Young, 
 F. Ding, F. Lipparini, F. Egidi, J. Goings, B. Peng, A. Petrone, 
 T. Henderson, D. Ranasinghe, V. G. Zakrzewski, J. Gao, N. Rega, 
 G. Zheng, W. Liang, M. Hada, M. Ehara, K. Toyota, R. Fukuda, 
 J. Hasegawa, M. Ishida, T. Nakajima, Y. Honda, O. Kitao, H. Nakai, 
 T. Vreven, K. Throssell, J. A. Montgomery, Jr., J. E. Peralta, 
 F. Ogliaro, M. J. Bearpark, J. J. Heyd, E. N. Brothers, K. N. Kudin, 
 V. N. Staroverov, T. A. Keith, R. Kobayashi, J. Normand, 
 K. Raghavachari, A. P. Rendell, J. C. Burant, S. S. Iyengar, 
 J. Tomasi, M. Cossi, J. M. Millam, M. Klene, C. Adamo, R. Cammi, 
 J. W. Ochterski, R. L. Martin, K. Morokuma, O. Farkas, 
 J. B. Foresman, and D. J. Fox, Gaussian, Inc., Wallingford CT, 2016.
 
 ******************************************
 Gaussian 16:  ES64L-G16RevA.03 25-Dec-2016
                 8-Jun-2023 
 ******************************************
 %chk=PA.chk
 %nprocshared=16
 Will use up to   16 processors via shared memory.
 %mem=50GB
 ------------------------------------
 #p 6-311+g(2d,p) nosymm em=gd3 m062x
 ------------------------------------
 1/38=1,172=1/1;
 2/12=2,15=1,17=6,18=5,40=1/2;
 3/5=4,6=6,7=112,11=2,25=1,30=1,74=-55,124=31/1,2,3;
 4//1;
 5/5=2,38=5/2;
 6/7=2,8=2,9=2,10=2,28=1/1;
 99/5=1,9=1/99;
 Leave Link    1 at Thu Jun  8 16:08:44 2023, MaxMem=  6710886400 cpu:               0.5 elap:               0.0
 (Enter /data0/home/software/g16/l101.exe)
 -------------------
 Title Card Required
 -------------------
 Symbolic Z-matrix:
 Charge =  0 Multiplicity = 1
 P                     15.59207   15.93201   15.08497 
 O                     15.59743   14.60096   15.71128 
 O                     16.21187   16.04687   13.64177 
 H                     15.5893   15.49032   12.95356 
 O                     14.17177   16.63603   15.07797 
 H                     13.50172   16.06318   14.47359 
 O                     16.48438   16.93378   15.95147 
 H                     16.46344   17.84804   15.47257 
 
 ITRead=  0  0  0  0  0  0  0  0
 MicOpt= -1 -1 -1 -1 -1 -1 -1 -1
 NAtoms=      8 NQM=        8 NQMF=       0 NMMI=      0 NMMIF=      0
                NMic=       0 NMicF=      0.
                    Isotopes and Nuclear Properties:
 (Nuclear quadrupole moments (NQMom) in fm**2, nuclear magnetic moments (NMagM)
  in nuclear magnetons)

  Atom         1           2           3           4           5           6           7           8
 IAtWgt=          31          16          16           1          16           1          16           1
 AtmWgt=  30.9737634  15.9949146  15.9949146   1.0078250  15.9949146   1.0078250  15.9949146   1.0078250
 NucSpn=           1           0           0           1           0           1           0           1
 AtZEff=  -0.0000000  -0.0000000  -0.0000000  -0.0000000  -0.0000000  -0.0000000  -0.0000000  -0.0000000
 NQMom=    0.0000000   0.0000000   0.0000000   0.0000000   0.0000000   0.0000000   0.0000000   0.0000000
 NMagM=    1.1316000   0.0000000   0.0000000   2.7928460   0.0000000   2.7928460   0.0000000   2.7928460
 AtZNuc=  15.0000000   8.0000000   8.0000000   1.0000000   8.0000000   1.0000000   8.0000000   1.0000000
 Leave Link  101 at Thu Jun  8 16:08:44 2023, MaxMem=  6710886400 cpu:               2.0 elap:               0.1
 (Enter /data0/home/software/g16/l202.exe)
                          Input orientation:                          
 ---------------------------------------------------------------------
 Center     Atomic      Atomic             Coordinates (Angstroms)
 Number     Number       Type             X           Y           Z
 ---------------------------------------------------------------------
      1         15           0       15.592068   15.932012   15.084966
      2          8           0       15.597429   14.600959   15.711283
      3          8           0       16.211873   16.046873   13.641773
      4          1           0       15.589300   15.490322   12.953563
      5          8           0       14.171768   16.636026   15.077968
      6          1           0       13.501721   16.063182   14.473590
      7          8           0       16.484383   16.933778   15.951465
      8          1           0       16.463438   17.848042   15.472570
 ---------------------------------------------------------------------
                    Distance matrix (angstroms):
                    1          2          3          4          5
     1  P    0.000000
     2  O    1.471055   0.000000
     3  O    1.574852   2.598284   0.000000
     4  H    2.176689   2.897594   1.082118   0.000000
     5  O    1.585225   2.564195   2.563549   2.799130   0.000000
     6  H    2.181865   2.839361   2.834980   2.645116   1.068825
     7  O    1.597054   2.507273   2.489084   3.445599   2.489948
     8  H    2.140255   3.369051   2.580564   3.559264   2.622298
                    6          7          8
     6  H    0.000000
     7  O    3.440687   0.000000
     8  H    3.599369   1.032307   0.000000
 Symmetry turned off by external request.
 Stoichiometry    H3O4P
 Framework group  C1[X(H3O4P)]
 Deg. of freedom    18
 Full point group                 C1      NOp   1
 Rotational constants (GHZ):           4.5319076           4.5097391           4.4541296
 Leave Link  202 at Thu Jun  8 16:08:44 2023, MaxMem=  6710886400 cpu:               0.0 elap:               0.0
 (Enter /data0/home/software/g16/l301.exe)
 Standard basis: 6-311+G(2d,p) (5D, 7F)
 Ernie: Thresh=  0.10000D-02 Tol=  0.10000D-05 Strict=F.
   161 basis functions,   248 primitive gaussians,   171 cartesian basis functions
    25 alpha electrons       25 beta electrons
       nuclear repulsion energy       279.8691956117 Hartrees.
 IExCor= 4336 DFT=T Ex+Corr=M062X ExCW=0 ScaHFX=  0.540000
 ScaDFX=  1.000000  1.000000  1.000000  1.000000 ScalE2=  1.000000  1.000000
 IRadAn=      5 IRanWt=     -1 IRanGd=            0 ICorTp=0 IEmpDi=131
 NAtoms=    8 NActive=    8 NUniq=    8 SFac= 1.00D+00 NAtFMM=   60 NAOKFM=F Big=F
 Integral buffers will be    131072 words long.
 Raffenetti 2 integral format.
 Two-electron integral symmetry is turned off.
 R6Disp:  Grimme-D3 Dispersion energy=       -0.0000452359 Hartrees.
 Nuclear repulsion after empirical dispersion term =      279.8691503758 Hartrees.
 Leave Link  301 at Thu Jun  8 16:08:44 2023, MaxMem=  6710886400 cpu:               0.7 elap:               0.1
 (Enter /data0/home/software/g16/l302.exe)
 NPDir=0 NMtPBC=     1 NCelOv=     1 NCel=       1 NClECP=     1 NCelD=      1
         NCelK=      1 NCelE2=     1 NClLst=     1 CellRange=     0.0.
 One-electron integrals computed using PRISM.
 NBasis=   161 RedAO= T EigKep=  6.44D-04  NBF=   161
 NBsUse=   161 1.00D-06 EigRej= -1.00D+00 NBFU=   161
 Precomputing XC quadrature grid using
 IXCGrd= 4 IRadAn=           5 IRanWt=          -1 IRanGd=           0 AccXCQ= 0.00D+00.
 Generated NRdTot=       0 NPtTot=           0 NUsed=           0 NTot=          32
 NSgBfM=   171   171   171   171   171 MxSgAt=     8 MxSgA2=     8.
 Leave Link  302 at Thu Jun  8 16:08:44 2023, MaxMem=  6710886400 cpu:               2.1 elap:               0.1
 (Enter /data0/home/software/g16/l303.exe)
 DipDrv:  MaxL=1.
 Leave Link  303 at Thu Jun  8 16:08:45 2023, MaxMem=  6710886400 cpu:               0.6 elap:               0.1
 (Enter /data0/home/software/g16/l401.exe)
 ExpMin= 3.48D-02 ExpMax= 7.75D+04 ExpMxC= 2.65D+03 IAcc=3 IRadAn=         5 AccDes= 0.00D+00
 Harris functional with IExCor= 1009 and IRadAn=       5 diagonalized for initial guess.
 HarFok:  IExCor= 1009 AccDes= 0.00D+00 IRadAn=         5 IDoV= 1 UseB2=F ITyADJ=14
 ICtDFT=  3500011 ScaDFX=  1.000000  1.000000  1.000000  1.000000
 FoFCou: FMM=F IPFlag=           0 FMFlag=      100000 FMFlg1=           0
         NFxFlg=           0 DoJE=T BraDBF=F KetDBF=T FulRan=T
         wScrn=  0.000000 ICntrl=       500 IOpCl=  0 I1Cent=   200000004 NGrid=           0
         NMat0=    1 NMatS0=      1 NMatT0=    0 NMatD0=    1 NMtDS0=    0 NMtDT0=    0
 Symmetry not used in FoFCou.
 Harris En= -643.936401742105    
 JPrj=0 DoOrth=F DoCkMO=F.
 Leave Link  401 at Thu Jun  8 16:08:45 2023, MaxMem=  6710886400 cpu:               4.2 elap:               0.3
 (Enter /data0/home/software/g16/l502.exe)
 Keep R1 ints in memory in canonical form, NReq=100986924.
 FoFCou: FMM=F IPFlag=           0 FMFlag=           0 FMFlg1=           0
         NFxFlg=           0 DoJE=F BraDBF=F KetDBF=F FulRan=T
         wScrn=  0.000000 ICntrl=       600 IOpCl=  0 I1Cent=           0 NGrid=           0
         NMat0=    1 NMatS0=  13041 NMatT0=    0 NMatD0=    1 NMtDS0=    0 NMtDT0=    0
 Symmetry not used in FoFCou.
 Two-electron integral symmetry not used.
 Closed shell SCF:
 Using DIIS extrapolation, IDIIS=  1040.
 NGot=  6710886400 LenX=  6625783546 LenY=  6625753864
 Requested convergence on RMS density matrix=1.00D-08 within 128 cycles.
 Requested convergence on MAX density matrix=1.00D-06.
 Requested convergence on             energy=1.00D-06.
 No special actions if energy rises.

 Cycle   1  Pass 1  IDiag  1:
 E= -643.838836500866    
 DIIS: error= 4.92D-02 at cycle   1 NSaved=   1.
 NSaved= 1 IEnMin= 1 EnMin= -643.838836500866     IErMin= 1 ErrMin= 4.92D-02
 ErrMax= 4.92D-02  0.00D+00 EMaxC= 1.00D-01 BMatC= 5.11D-01 BMatP= 5.11D-01
 IDIUse=3 WtCom= 5.08D-01 WtEn= 4.92D-01
 Coeff-Com:  0.100D+01
 Coeff-En:   0.100D+01
 Coeff:      0.100D+01
 Gap=     0.230 Goal=   None    Shift=    0.000
 GapD=    0.230 DampG=1.000 DampE=0.500 DampFc=0.5000 IDamp=-1.
 Damping current iteration by 5.00D-01
 RMSDP=8.14D-03 MaxDP=1.94D-01              OVMax= 2.83D-01

 Cycle   2  Pass 1  IDiag  1:
 E= -643.954968543271     Delta-E=       -0.116132042406 Rises=F Damp=T
 DIIS: error= 9.61D-03 at cycle   2 NSaved=   2.
 NSaved= 2 IEnMin= 2 EnMin= -643.954968543271     IErMin= 2 ErrMin= 9.61D-03
 ErrMax= 9.61D-03  0.00D+00 EMaxC= 1.00D-01 BMatC= 2.85D-02 BMatP= 5.11D-01
 IDIUse=3 WtCom= 9.04D-01 WtEn= 9.61D-02
 Coeff-Com:  0.805D-01 0.920D+00
 Coeff-En:   0.218D+00 0.782D+00
 Coeff:      0.937D-01 0.906D+00
 Gap=     0.334 Goal=   None    Shift=    0.000
 RMSDP=2.00D-03 MaxDP=7.07D-02 DE=-1.16D-01 OVMax= 1.88D-01

 Cycle   3  Pass 1  IDiag  1:
 E= -644.127215659629     Delta-E=       -0.172247116358 Rises=F Damp=F
 DIIS: error= 7.24D-03 at cycle   3 NSaved=   3.
 NSaved= 3 IEnMin= 3 EnMin= -644.127215659629     IErMin= 3 ErrMin= 7.24D-03
 ErrMax= 7.24D-03  0.00D+00 EMaxC= 1.00D-01 BMatC= 1.08D-02 BMatP= 2.85D-02
 IDIUse=3 WtCom= 9.28D-01 WtEn= 7.24D-02
 Coeff-Com: -0.122D-01 0.341D+00 0.671D+00
 Coeff-En:   0.000D+00 0.000D+00 0.100D+01
 Coeff:     -0.113D-01 0.317D+00 0.695D+00
 Gap=     0.323 Goal=   None    Shift=    0.000
 RMSDP=6.92D-04 MaxDP=1.53D-02 DE=-1.72D-01 OVMax= 3.64D-02

 Cycle   4  Pass 1  IDiag  1:
 E= -644.132085393421     Delta-E=       -0.004869733792 Rises=F Damp=F
 DIIS: error= 4.39D-03 at cycle   4 NSaved=   4.
 NSaved= 4 IEnMin= 4 EnMin= -644.132085393421     IErMin= 4 ErrMin= 4.39D-03
 ErrMax= 4.39D-03  0.00D+00 EMaxC= 1.00D-01 BMatC= 4.14D-03 BMatP= 1.08D-02
 IDIUse=3 WtCom= 9.56D-01 WtEn= 4.39D-02
 Coeff-Com: -0.213D-01 0.482D-01 0.404D+00 0.569D+00
 Coeff-En:   0.000D+00 0.000D+00 0.277D+00 0.723D+00
 Coeff:     -0.204D-01 0.461D-01 0.398D+00 0.576D+00
 Gap=     0.329 Goal=   None    Shift=    0.000
 RMSDP=2.74D-04 MaxDP=6.32D-03 DE=-4.87D-03 OVMax= 1.18D-02

 Cycle   5  Pass 1  IDiag  1:
 E= -644.134829986198     Delta-E=       -0.002744592777 Rises=F Damp=F
 DIIS: error= 2.45D-04 at cycle   5 NSaved=   5.
 NSaved= 5 IEnMin= 5 EnMin= -644.134829986198     IErMin= 5 ErrMin= 2.45D-04
 ErrMax= 2.45D-04  0.00D+00 EMaxC= 1.00D-01 BMatC= 1.80D-05 BMatP= 4.14D-03
 IDIUse=3 WtCom= 9.98D-01 WtEn= 2.45D-03
 Coeff-Com: -0.227D-02-0.443D-03 0.556D-01 0.117D+00 0.830D+00
 Coeff-En:   0.000D+00 0.000D+00 0.000D+00 0.000D+00 0.100D+01
 Coeff:     -0.227D-02-0.442D-03 0.554D-01 0.117D+00 0.830D+00
 Gap=     0.328 Goal=   None    Shift=    0.000
 RMSDP=3.09D-05 MaxDP=7.11D-04 DE=-2.74D-03 OVMax= 7.94D-04

 Cycle   6  Pass 1  IDiag  1:
 E= -644.134841931279     Delta-E=       -0.000011945082 Rises=F Damp=F
 DIIS: error= 9.17D-05 at cycle   6 NSaved=   6.
 NSaved= 6 IEnMin= 6 EnMin= -644.134841931279     IErMin= 6 ErrMin= 9.17D-05
 ErrMax= 9.17D-05  0.00D+00 EMaxC= 1.00D-01 BMatC= 1.72D-06 BMatP= 1.80D-05
 IDIUse=1 WtCom= 1.00D+00 WtEn= 0.00D+00
 Coeff-Com:  0.127D-04-0.181D-02 0.285D-02 0.150D-01 0.259D+00 0.725D+00
 Coeff:      0.127D-04-0.181D-02 0.285D-02 0.150D-01 0.259D+00 0.725D+00
 Gap=     0.329 Goal=   None    Shift=    0.000
 RMSDP=1.14D-05 MaxDP=2.06D-04 DE=-1.19D-05 OVMax= 3.22D-04

 Cycle   7  Pass 1  IDiag  1:
 E= -644.134843056368     Delta-E=       -0.000001125088 Rises=F Damp=F
 DIIS: error= 4.55D-05 at cycle   7 NSaved=   7.
 NSaved= 7 IEnMin= 7 EnMin= -644.134843056368     IErMin= 7 ErrMin= 4.55D-05
 ErrMax= 4.55D-05  0.00D+00 EMaxC= 1.00D-01 BMatC= 4.27D-07 BMatP= 1.72D-06
 IDIUse=1 WtCom= 1.00D+00 WtEn= 0.00D+00
 Coeff-Com:  0.410D-03-0.692D-03-0.927D-02-0.150D-01-0.268D-01 0.332D+00
 Coeff-Com:  0.720D+00
 Coeff:      0.410D-03-0.692D-03-0.927D-02-0.150D-01-0.268D-01 0.332D+00
 Coeff:      0.720D+00
 Gap=     0.329 Goal=   None    Shift=    0.000
 RMSDP=4.95D-06 MaxDP=1.04D-04 DE=-1.13D-06 OVMax= 1.33D-04

 Cycle   8  Pass 1  IDiag  1:
 E= -644.134843356859     Delta-E=       -0.000000300492 Rises=F Damp=F
 DIIS: error= 9.74D-06 at cycle   8 NSaved=   8.
 NSaved= 8 IEnMin= 8 EnMin= -644.134843356859     IErMin= 8 ErrMin= 9.74D-06
 ErrMax= 9.74D-06  0.00D+00 EMaxC= 1.00D-01 BMatC= 2.88D-08 BMatP= 4.27D-07
 IDIUse=1 WtCom= 1.00D+00 WtEn= 0.00D+00
 Coeff-Com:  0.145D-03-0.179D-03-0.376D-02-0.604D-02-0.176D-01 0.932D-01
 Coeff-Com:  0.292D+00 0.642D+00
 Coeff:      0.145D-03-0.179D-03-0.376D-02-0.604D-02-0.176D-01 0.932D-01
 Coeff:      0.292D+00 0.642D+00
 Gap=     0.329 Goal=   None    Shift=    0.000
 RMSDP=8.87D-07 MaxDP=2.78D-05 DE=-3.00D-07 OVMax= 3.67D-05

 Cycle   9  Pass 1  IDiag  1:
 E= -644.134843379604     Delta-E=       -0.000000022745 Rises=F Damp=F
 DIIS: error= 1.74D-06 at cycle   9 NSaved=   9.
 NSaved= 9 IEnMin= 9 EnMin= -644.134843379604     IErMin= 9 ErrMin= 1.74D-06
 ErrMax= 1.74D-06  0.00D+00 EMaxC= 1.00D-01 BMatC= 1.03D-09 BMatP= 2.88D-08
 IDIUse=1 WtCom= 1.00D+00 WtEn= 0.00D+00
 Coeff-Com: -0.292D-04 0.572D-04 0.296D-03 0.640D-03-0.709D-03-0.204D-01
 Coeff-Com: -0.301D-01 0.821D-01 0.968D+00
 Coeff:     -0.292D-04 0.572D-04 0.296D-03 0.640D-03-0.709D-03-0.204D-01
 Coeff:     -0.301D-01 0.821D-01 0.968D+00
 Gap=     0.329 Goal=   None    Shift=    0.000
 RMSDP=4.11D-07 MaxDP=1.00D-05 DE=-2.27D-08 OVMax= 1.51D-05

 Cycle  10  Pass 1  IDiag  1:
 E= -644.134843380948     Delta-E=       -0.000000001344 Rises=F Damp=F
 DIIS: error= 2.61D-07 at cycle  10 NSaved=  10.
 NSaved=10 IEnMin=10 EnMin= -644.134843380948     IErMin=10 ErrMin= 2.61D-07
 ErrMax= 2.61D-07  0.00D+00 EMaxC= 1.00D-01 BMatC= 2.12D-11 BMatP= 1.03D-09
 IDIUse=1 WtCom= 1.00D+00 WtEn= 0.00D+00
 Coeff-Com: -0.299D-05 0.474D-05 0.107D-03 0.172D-03 0.502D-03-0.367D-02
 Coeff-Com: -0.118D-01-0.201D-01 0.163D-01 0.102D+01
 Coeff:     -0.299D-05 0.474D-05 0.107D-03 0.172D-03 0.502D-03-0.367D-02
 Coeff:     -0.118D-01-0.201D-01 0.163D-01 0.102D+01
 Gap=     0.329 Goal=   None    Shift=    0.000
 RMSDP=8.59D-08 MaxDP=1.28D-06 DE=-1.34D-09 OVMax= 4.01D-06

 Cycle  11  Pass 1  IDiag  1:
 E= -644.134843380988     Delta-E=       -0.000000000040 Rises=F Damp=F
 DIIS: error= 2.51D-07 at cycle  11 NSaved=  11.
 NSaved=11 IEnMin=11 EnMin= -644.134843380988     IErMin=11 ErrMin= 2.51D-07
 ErrMax= 2.51D-07  0.00D+00 EMaxC= 1.00D-01 BMatC= 8.39D-12 BMatP= 2.12D-11
 IDIUse=1 WtCom= 1.00D+00 WtEn= 0.00D+00
 Coeff-Com:  0.512D-06-0.132D-05 0.301D-04 0.394D-04 0.251D-03-0.491D-03
 Coeff-Com: -0.332D-02-0.125D-01-0.474D-01 0.449D+00 0.614D+00
 Coeff:      0.512D-06-0.132D-05 0.301D-04 0.394D-04 0.251D-03-0.491D-03
 Coeff:     -0.332D-02-0.125D-01-0.474D-01 0.449D+00 0.614D+00
 Gap=     0.329 Goal=   None    Shift=    0.000
 RMSDP=1.90D-08 MaxDP=4.55D-07 DE=-4.02D-11 OVMax= 7.02D-07

 Cycle  12  Pass 1  IDiag  1:
 E= -644.134843380987     Delta-E=        0.000000000001 Rises=F Damp=F
 DIIS: error= 9.00D-08 at cycle  12 NSaved=  12.
 NSaved=12 IEnMin=11 EnMin= -644.134843380988     IErMin=12 ErrMin= 9.00D-08
 ErrMax= 9.00D-08  0.00D+00 EMaxC= 1.00D-01 BMatC= 1.08D-12 BMatP= 8.39D-12
 IDIUse=1 WtCom= 1.00D+00 WtEn= 0.00D+00
 Coeff-Com:  0.800D-06-0.148D-05-0.699D-05-0.144D-04 0.901D-05 0.498D-03
 Coeff-Com:  0.101D-02-0.112D-02-0.239D-01-0.762D-02 0.260D+00 0.771D+00
 Coeff:      0.800D-06-0.148D-05-0.699D-05-0.144D-04 0.901D-05 0.498D-03
 Coeff:      0.101D-02-0.112D-02-0.239D-01-0.762D-02 0.260D+00 0.771D+00
 Gap=     0.329 Goal=   None    Shift=    0.000
 RMSDP=9.15D-09 MaxDP=1.71D-07 DE= 9.09D-13 OVMax= 3.96D-07

 SCF Done:  E(RM062X) =  -644.134843381     A.U. after   12 cycles
            NFock= 12  Conv=0.91D-08     -V/T= 2.0026
 KE= 6.424808483694D+02 PE=-2.087392684344D+03 EE= 5.209078422176D+02
 Leave Link  502 at Thu Jun  8 16:08:51 2023, MaxMem=  6710886400 cpu:              86.6 elap:               6.6
 (Enter /data0/home/software/g16/l601.exe)
 Copying SCF densities to generalized density rwf, IOpCl= 0 IROHF=0.

 **********************************************************************

            Population analysis using the SCF density.

 **********************************************************************

 Alpha  occ. eigenvalues --  -78.16715 -19.69768 -19.69037 -19.67828 -19.57868
 Alpha  occ. eigenvalues --   -6.97512  -5.09428  -5.09406  -5.09176  -1.24507
 Alpha  occ. eigenvalues --   -1.17410  -1.16467  -1.08095  -0.72639  -0.65563
 Alpha  occ. eigenvalues --   -0.63624  -0.58800  -0.52632  -0.52360  -0.50077
 Alpha  occ. eigenvalues --   -0.46485  -0.45077  -0.44712  -0.37765  -0.36713
 Alpha virt. eigenvalues --   -0.03838   0.01023   0.02463   0.04671   0.07922
 Alpha virt. eigenvalues --    0.09472   0.10615   0.12291   0.15669   0.16961
 Alpha virt. eigenvalues --    0.17816   0.18604   0.19750   0.20120   0.21707
 Alpha virt. eigenvalues --    0.22661   0.24079   0.25593   0.25968   0.27579
 Alpha virt. eigenvalues --    0.28130   0.28993   0.30189   0.32133   0.34192
 Alpha virt. eigenvalues --    0.34681   0.36743   0.38626   0.40484   0.41947
 Alpha virt. eigenvalues --    0.43647   0.45477   0.51673   0.56567   0.57576
 Alpha virt. eigenvalues --    0.73656   0.76307   0.77010   0.85887   0.97380
 Alpha virt. eigenvalues --    1.00069   1.01092   1.05550   1.05811   1.11720
 Alpha virt. eigenvalues --    1.12929   1.15122   1.18962   1.19935   1.20289
 Alpha virt. eigenvalues --    1.21545   1.22620   1.26088   1.26688   1.32849
 Alpha virt. eigenvalues --    1.33442   1.41840   1.43680   1.50560   1.52740
 Alpha virt. eigenvalues --    1.53036   1.55036   1.57741   1.59449   1.63929
 Alpha virt. eigenvalues --    1.65267   1.66444   1.69967   1.73739   1.82776
 Alpha virt. eigenvalues --    1.83677   1.84552   1.87358   1.90771   1.95878
 Alpha virt. eigenvalues --    1.97893   2.04513   2.10080   2.12021   2.13272
 Alpha virt. eigenvalues --    2.17074   2.22080   2.25473   2.37350   2.43311
 Alpha virt. eigenvalues --    2.45536   2.55043   2.61038   2.61845   2.71621
 Alpha virt. eigenvalues --    2.73292   2.79758   2.86462   2.90810   2.95035
 Alpha virt. eigenvalues --    5.00920   5.03974   5.06288   5.06470   5.10850
 Alpha virt. eigenvalues --    5.13446   5.17293   5.23869   5.34895   5.41153
 Alpha virt. eigenvalues --    5.45035   5.52109   6.71602   6.74209   6.75351
 Alpha virt. eigenvalues --    6.76618   6.78689   6.80290   6.82548   6.85482
 Alpha virt. eigenvalues --    6.91968   6.93870   6.94837   6.98867   7.00020
 Alpha virt. eigenvalues --    7.00635   7.11155   7.25298   7.25783   7.28206
 Alpha virt. eigenvalues --    7.31685   7.40506   7.64401  14.23263  14.24838
 Alpha virt. eigenvalues --   14.33732  49.97464  49.99144  50.00816  50.10251
 Alpha virt. eigenvalues --  163.85757
          Condensed to atoms (all electrons):
               1          2          3          4          5          6
     1  P   12.471528   0.540344   0.234692   0.001067   0.235041  -0.000247
     2  O    0.540344   8.177100  -0.007841  -0.014267  -0.013438  -0.016131
     3  O    0.234692  -0.007841   8.042077   0.250679   0.042972  -0.003904
     4  H    0.001067  -0.014267   0.250679   0.442807  -0.001879  -0.004166
     5  O    0.235041  -0.013438   0.042972  -0.001879   8.045769   0.256592
     6  H   -0.000247  -0.016131  -0.003904  -0.004166   0.256592   0.446810
     7  O    0.184069  -0.037480   0.008273   0.001556   0.010362   0.001503
     8  H    0.043325   0.001561  -0.012821   0.001466  -0.012097   0.001530
               7          8
     1  P    0.184069   0.043325
     2  O   -0.037480   0.001561
     3  O    0.008273  -0.012821
     4  H    0.001556   0.001466
     5  O    0.010362  -0.012097
     6  H    0.001503   0.001530
     7  O    8.092918   0.223032
     8  H    0.223032   0.453407
 Mulliken charges:
               1
     1  P    1.290180
     2  O   -0.629847
     3  O   -0.554127
     4  H    0.322737
     5  O   -0.563321
     6  H    0.318014
     7  O   -0.484233
     8  H    0.300597
 Sum of Mulliken charges =  -0.00000
 Mulliken charges with hydrogens summed into heavy atoms:
               1
     1  P    1.290180
     2  O   -0.629847
     3  O   -0.231390
     5  O   -0.245307
     7  O   -0.183635
 Electronic spatial extent (au):  <R**2>=         130219.3196
 Charge=             -0.0000 electrons
 Dipole moment (field-independent basis, Debye):
    X=             -2.1786    Y=              2.4554    Z=             -4.4463  Tot=              5.5267
 Quadrupole moment (field-independent basis, Debye-Ang):
   XX=           -100.9225   YY=             41.6538   ZZ=           -167.2304
   XY=              6.7341   XZ=            -98.4423   YZ=            -29.6777
 Traceless Quadrupole moment (field-independent basis, Debye-Ang):
   XX=            -25.4228   YY=            117.1535   ZZ=            -91.7307
   XY=              6.7341   XZ=            -98.4423   YZ=            -29.6777
 Octapole moment (field-independent basis, Debye-Ang**2):
  XXX=          -3143.9710  YYY=            129.6670  ZZZ=          -4544.7401  XYY=            203.7640
  XXY=           -917.7120  XXZ=          -2491.1036  XZZ=          -2996.4776  YZZ=          -1990.0993
  YYZ=           -370.8710  XYZ=           -879.7262
 Hexadecapole moment (field-independent basis, Debye-Ang**3):
 XXXX=         -82033.1309 YYYY=         -15600.1575 ZZZZ=        -107081.5272 XXXY=         -38721.6590
 XXXZ=         -61751.5695 YYYX=          -4054.7676 YYYZ=         -12971.2282 ZZZX=         -76063.4054
 ZZZY=         -61553.7730 XXYY=         -12365.7483 XXZZ=         -60485.4996 YYZZ=         -29403.1998
 XXYZ=         -28299.5263 YYXZ=         -11579.0701 ZZXY=         -36533.6198
 N-N= 2.798691503758D+02 E-N=-2.087392688121D+03  KE= 6.424808483694D+02
 No NMR shielding tensors so no spin-rotation constants.
 Leave Link  601 at Thu Jun  8 16:08:52 2023, MaxMem=  6710886400 cpu:               1.3 elap:               0.1
 (Enter /data0/home/software/g16/l9999.exe)
 1\1\GINC-LOCALHOST\SP\RM062X\6-311+G(2d,p)\H3O4P1\WUHANYU\08-Jun-2023\
 0\\#p 6-311+g(2d,p) nosymm em=gd3 m062x\\Title Card Required\\0,1\P,0,
 15.592068,15.932012,15.084966\O,0,15.597429,14.600959,15.711283\O,0,16
 .211873,16.046873,13.641773\H,0,15.5893,15.490322,12.953563\O,0,14.171
 768,16.636026,15.077968\H,0,13.501721,16.063182,14.47359\O,0,16.484383
 ,16.933778,15.951465\H,0,16.463438,17.848042,15.47257\\Version=ES64L-G
 16RevA.03\HF=-644.1348434\RMSD=9.145e-09\Dipole=-0.8571294,0.9660095,-
 1.7492991\Quadrupole=-18.9012314,87.1007261,-68.1994948,5.0066688,-73.
 1894616,-22.0646602\PG=C01 [X(H3O4P1)]\\@


 A BIRD IN THE HAND IS SAFER THAN ONE OVERHEAD.

                       -- NEWTON'S SEVENTH LAW
 Job cpu time:       0 days  0 hours  1 minutes 38.6 seconds.
 Elapsed time:       0 days  0 hours  0 minutes  7.4 seconds.
 File lengths (MBytes):  RWF=     15 Int=      0 D2E=      0 Chk=      3 Scr=      1
 Normal termination of Gaussian 16 at Thu Jun  8 16:08:52 2023.
