 Entering Gaussian System, Link 0=g16
 Initial command:
 /data0/home/software/g16/l1.exe "/data0/home/software/g16/scratch/Gau-237290.inp" -scrdir="/data0/home/software/g16/scratch/"
 Default is to use a total of  22 processors:
                               22 via shared-memory
                                1 via Linda
 Entering Link 1 = /data0/home/software/g16/l1.exe PID=    237291.
  
 Copyright (c) 1988,1990,1992,1993,1995,1998,2003,2009,2016,
            Gaussian, Inc.  All Rights Reserved.
  
 This is part of the Gaussian(R) 16 program.  It is based on
 the Gaussian(R) 09 system (copyright 2009, Gaussian, Inc.),
 the Gaussian(R) 03 system (copyright 2003, Gaussian, Inc.),
 the Gaussian(R) 98 system (copyright 1998, Gaussian, Inc.),
 the Gaussian(R) 94 system (copyright 1995, Gaussian, Inc.),
 the Gaussian 92(TM) system (copyright 1992, Gaussian, Inc.),
 the Gaussian 90(TM) system (copyright 1990, Gaussian, Inc.),
 the Gaussian 88(TM) system (copyright 1988, Gaussian, Inc.),
 the Gaussian 86(TM) system (copyright 1986, Carnegie Mellon
 University), and the Gaussian 82(TM) system (copyright 1983,
 Carnegie Mellon University). Gaussian is a federally registered
 trademark of Gaussian, Inc.
  
 This software contains proprietary and confidential information,
 including trade secrets, belonging to Gaussian, Inc.
  
 This software is provided under written license and may be
 used, copied, transmitted, or stored only in accord with that
 written license.
  
 The following legend is applicable only to US Government
 contracts under FAR:
  
                    RESTRICTED RIGHTS LEGEND
  
 Use, reproduction and disclosure by the US Government is
 subject to restrictions as set forth in subparagraphs (a)
 and (c) of the Commercial Computer Software - Restricted
 Rights clause in FAR 52.227-19.
  
 Gaussian, Inc.
 340 Quinnipiac St., Bldg. 40, Wallingford CT 06492
  
  
 ---------------------------------------------------------------
 Warning -- This program may not be used in any manner that
 competes with the business of Gaussian, Inc. or will provide
 assistance to any competitor of Gaussian, Inc.  The licensee
 of this program is prohibited from giving any competitor of
 Gaussian, Inc. access to this program.  By using this program,
 the user acknowledges that Gaussian, Inc. is engaged in the
 business of creating and licensing software in the field of
 computational chemistry and represents and warrants to the
 licensee that it is not a competitor of Gaussian, Inc. and that
 it will not use this program in any manner prohibited above.
 ---------------------------------------------------------------
  

 Cite this work as:
 Gaussian 16, Revision A.03,
 M. J. Frisch, G. W. Trucks, H. B. Schlegel, G. E. Scuseria, 
 M. A. Robb, J. R. Cheeseman, G. Scalmani, V. Barone, 
 G. A. Petersson, H. Nakatsuji, X. Li, M. Caricato, A. V. Marenich, 
 J. Bloino, B. G. Janesko, R. Gomperts, B. Mennucci, H. P. Hratchian, 
 J. V. Ortiz, A. F. Izmaylov, J. L. Sonnenberg, D. Williams-Young, 
 F. Ding, F. Lipparini, F. Egidi, J. Goings, B. Peng, A. Petrone, 
 T. Henderson, D. Ranasinghe, V. G. Zakrzewski, J. Gao, N. Rega, 
 G. Zheng, W. Liang, M. Hada, M. Ehara, K. Toyota, R. Fukuda, 
 J. Hasegawa, M. Ishida, T. Nakajima, Y. Honda, O. Kitao, H. Nakai, 
 T. Vreven, K. Throssell, J. A. Montgomery, Jr., J. E. Peralta, 
 F. Ogliaro, M. J. Bearpark, J. J. Heyd, E. N. Brothers, K. N. Kudin, 
 V. N. Staroverov, T. A. Keith, R. Kobayashi, J. Normand, 
 K. Raghavachari, A. P. Rendell, J. C. Burant, S. S. Iyengar, 
 J. Tomasi, M. Cossi, J. M. Millam, M. Klene, C. Adamo, R. Cammi, 
 J. W. Ochterski, R. L. Martin, K. Morokuma, O. Farkas, 
 J. B. Foresman, and D. J. Fox, Gaussian, Inc., Wallingford CT, 2016.
 
 ******************************************
 Gaussian 16:  ES64L-G16RevA.03 25-Dec-2016
                17-Feb-2023 
 ******************************************
 %nproc=24
 Will use up to   24 processors via shared memory.
 %mem=50GB
 ---------------------------------------------------
 #p M062X/6-311+G(2d,p) nosymm em=GD3 counterpoise=5
 ---------------------------------------------------
 1/38=1,62=5,172=1/1;
 2/12=2,15=1,17=6,18=5,40=1/2;
 1/38=1,53=2,62=5,63=1/22;
 3/5=4,6=6,7=112,11=2,25=1,30=1,74=-55,124=31/1,2,3;
 4//1;
 5/5=2,38=5/2;
 6/7=2,8=2,9=2,10=2,28=1/1;
 1/53=2,62=5,63=1/22;
 3/5=7,6=11,7=112,11=2,25=1,30=1,74=-55,82=7,124=31/1,2,3;
 4//1;
 5/5=2,38=5/2;
 6/7=2,8=2,9=2,10=2,28=1/1;
 1/53=2,62=5,63=1/22(-4);
 99/5=1,9=1/99;
 Leave Link    1 at Fri Feb 17 21:43:22 2023, MaxMem=  6710886400 cpu:               0.7 elap:               0.0
 (Enter /data0/home/software/g16/l101.exe)
 -------------------
 Title Card Required
 -------------------
 Symbolic Z-matrix:
 Charge =  0 Multiplicity = 1 in supermolecule
 Charge =  0 Multiplicity = 1 in fragment      1.
 Charge =  0 Multiplicity = 1 in fragment      2.
 Charge =  0 Multiplicity = 1 in fragment      3.
 Charge =  0 Multiplicity = 1 in fragment      4.
 Charge =  0 Multiplicity = 1 in fragment      5.
 P                     7.6155    9.41781   12.71068    
 O                     6.14748   9.403     12.78679    
 O                     8.43155   9.06886   14.01295    
 H                     8.08809   8.13171   14.3865    
 O                     8.28215   8.49175   11.60857    
 H                     7.55877   8.16037   10.93745    
 O                     8.1212    10.88796   12.36108    
 H                     9.15083   10.88279   12.36193    
 O                     3.67244   8.51085   10.12043    
 H                     3.93197   9.39889   10.47557    
 H                     3.11131   8.69084   9.37243    
 O                     4.41556   10.89725   11.10308    
 H                     4.95702   10.5222   11.82902    
 H                     5.05604   11.37715   10.57377    
 O                     6.34072   7.36789   9.86927    
 H                     6.26272   6.53466   10.34283    
 H                     5.46631   7.77545   9.94487    
 O                     7.50022   6.71841   15.13437    
 H                     6.75515   6.98626   15.67244    
 H                     7.07432   6.15855   14.43277    
 
 ITRead=  0  0  0  0  0  0  0  0  0  0  0  0  0  0  0  0  0  0  0  0
 MicOpt= -1 -1 -1 -1 -1 -1 -1 -1 -1 -1 -1 -1 -1 -1 -1 -1 -1 -1 -1 -1
 NAtoms=     20 NQM=       20 NQMF=       0 NMMI=      0 NMMIF=      0
                NMic=       0 NMicF=      0.
                    Isotopes and Nuclear Properties:
 (Nuclear quadrupole moments (NQMom) in fm**2, nuclear magnetic moments (NMagM)
  in nuclear magnetons)

  Atom         1           2           3           4           5           6           7           8           9          10
 IAtWgt=          31          16          16           1          16           1          16           1          16           1
 AtmWgt=  30.9737634  15.9949146  15.9949146   1.0078250  15.9949146   1.0078250  15.9949146   1.0078250  15.9949146   1.0078250
 NucSpn=           1           0           0           1           0           1           0           1           0           1
 AtZEff=  -0.0000000  -0.0000000  -0.0000000  -0.0000000  -0.0000000  -0.0000000  -0.0000000  -0.0000000  -0.0000000  -0.0000000
 NQMom=    0.0000000   0.0000000   0.0000000   0.0000000   0.0000000   0.0000000   0.0000000   0.0000000   0.0000000   0.0000000
 NMagM=    1.1316000   0.0000000   0.0000000   2.7928460   0.0000000   2.7928460   0.0000000   2.7928460   0.0000000   2.7928460
 AtZNuc=  15.0000000   8.0000000   8.0000000   1.0000000   8.0000000   1.0000000   8.0000000   1.0000000   8.0000000   1.0000000

  Atom        11          12          13          14          15          16          17          18          19          20
 IAtWgt=           1          16           1           1          16           1           1          16           1           1
 AtmWgt=   1.0078250  15.9949146   1.0078250   1.0078250  15.9949146   1.0078250   1.0078250  15.9949146   1.0078250   1.0078250
 NucSpn=           1           0           1           1           0           1           1           0           1           1
 AtZEff=  -0.0000000  -0.0000000  -0.0000000  -0.0000000  -0.0000000  -0.0000000  -0.0000000  -0.0000000  -0.0000000  -0.0000000
 NQMom=    0.0000000   0.0000000   0.0000000   0.0000000   0.0000000   0.0000000   0.0000000   0.0000000   0.0000000   0.0000000
 NMagM=    2.7928460   0.0000000   2.7928460   2.7928460   0.0000000   2.7928460   2.7928460   0.0000000   2.7928460   2.7928460
 AtZNuc=   1.0000000   8.0000000   1.0000000   1.0000000   8.0000000   1.0000000   1.0000000   8.0000000   1.0000000   1.0000000
 Leave Link  101 at Fri Feb 17 21:43:22 2023, MaxMem=  6710886400 cpu:               2.1 elap:               0.1
 (Enter /data0/home/software/g16/l202.exe)
                          Input orientation:                          
 ---------------------------------------------------------------------
 Center     Atomic      Atomic             Coordinates (Angstroms)
 Number     Number       Type             X           Y           Z
 ---------------------------------------------------------------------
      1         15           0        7.615498    9.417807   12.710682
      2          8           0        6.147478    9.402998   12.786794
      3          8           0        8.431551    9.068864   14.012951
      4          1           0        8.088088    8.131710   14.386505
      5          8           0        8.282148    8.491752   11.608566
      6          1           0        7.558770    8.160368   10.937453
      7          8           0        8.121203   10.887963   12.361081
      8          1           0        9.150834   10.882786   12.361933
      9          8           0        3.672439    8.510855   10.120425
     10          1           0        3.931973    9.398895   10.475567
     11          1           0        3.111310    8.690845    9.372432
     12          8           0        4.415563   10.897246   11.103081
     13          1           0        4.957023   10.522205   11.829021
     14          1           0        5.056042   11.377145   10.573773
     15          8           0        6.340723    7.367890    9.869274
     16          1           0        6.262719    6.534657   10.342832
     17          1           0        5.466309    7.775445    9.944871
     18          8           0        7.500217    6.718414   15.134370
     19          1           0        6.755145    6.986262   15.672441
     20          1           0        7.074324    6.158545   14.432774
 ---------------------------------------------------------------------
                    Distance matrix (angstroms):
                    1          2          3          4          5
     1  P    0.000000
     2  O    1.470066   0.000000
     3  O    1.575947   2.613828   0.000000
     4  H    2.164664   2.818016   1.065724   0.000000
     5  O    1.586398   2.602961   2.477185   2.807888   0.000000
     6  H    2.174560   2.637411   3.323522   3.489550   1.040905
     7  O    1.593523   2.506380   2.476714   3.420580   2.516746
     8  H    2.150592   3.374971   2.556079   3.577253   2.653153
     9  O    4.804134   3.745832   6.173514   6.151516   4.844001
    10  H    4.308649   3.201601   5.733080   5.845895   4.585915
    11  H    5.653326   4.624213   7.069815   7.086740   5.637153
    12  O    3.874623   2.840281   5.285687   5.649469   4.581746
    13  H    3.010733   1.893974   4.353630   4.696675   3.902281
    14  H    3.867325   3.160056   5.343236   5.853467   4.450174
    15  O    3.728379   3.562433   4.943170   4.903273   2.838544
    16  H    3.968536   3.770094   4.959416   4.715277   3.083893
    17  H    3.868601   3.345063   5.197583   5.169987   3.348123
    18  O    3.629639   3.814185   2.765787   1.703614   4.023361
    19  H    3.927421   3.812720   3.146661   2.177710   4.594923
    20  H    3.725756   3.754300   3.238560   2.218837   3.857311
                    6          7          8          9         10
     6  H    0.000000
     7  O    3.127750   0.000000
     8  H    3.460545   1.029644   0.000000
     9  O    3.986721   5.519301   6.376772   0.000000
    10  H    3.860174   4.829300   5.744286   0.991009   0.000000
    11  H    4.744533   6.233649   7.086436   0.952237   1.546522
    12  O    4.171053   3.913364   4.899766   2.685649   1.694901
    13  H    3.625225   3.229381   4.242884   2.935129   2.035778
    14  H    4.091890   3.581757   4.495468   3.214887   2.277421
    15  O    1.803515   4.665847   5.144372   2.913621   3.208528
    16  H    2.162466   5.145733   5.596803   3.265635   3.695112
    17  H    2.347718   4.751242   5.391983   1.946694   2.295956
    18  O    4.438105   5.045978   5.268106   6.557772   6.451495
    19  H    4.944133   5.296649   5.646387   6.530876   6.387378
    20  H    4.057000   5.268326   5.560461   5.975160   6.002810
                   11         12         13         14         15
    11  H    0.000000
    12  O    3.092641   0.000000
    13  H    3.577061   0.980216   0.000000
    14  H    3.527238   0.959522   1.521964   0.000000
    15  O    3.525077   4.205339   3.962946   4.268589   0.000000
    16  H    3.939823   4.798140   4.451308   4.995908   0.961571
    17  H    2.590688   3.491584   3.369582   3.679141   0.967686
    18  O    7.506858   6.574878   5.644643   6.962529   5.430238
    19  H    7.474841   6.453564   5.523406   6.939973   5.830449
    20  H    6.908334   6.372688   5.504909   6.796995   4.777679
                   16         17         18         19         20
    16  H    0.000000
    17  H    1.527153   0.000000
    18  O    4.952172   5.673182   0.000000
    19  H    5.371328   5.923594   0.957285   0.000000
    20  H    4.186620   5.034019   0.993517   1.524390   0.000000
 Symmetry turned off by external request.
 Stoichiometry    H11O8P
 Framework group  C1[X(H11O8P)]
 Deg. of freedom    54
 Full point group                 C1      NOp   1
 Rotational constants (GHZ):           1.1296358           0.5833173           0.5115629
 Leave Link  202 at Fri Feb 17 21:43:22 2023, MaxMem=  6710886400 cpu:               0.1 elap:               0.0
 (Enter /data0/home/software/g16/l122.exe)
 Counterpoise: doing full-system calculation.
 Leave Link  122 at Fri Feb 17 21:43:22 2023, MaxMem=  6710886400 cpu:               0.0 elap:               0.0
 (Enter /data0/home/software/g16/l301.exe)
 Standard basis: 6-311+G(2d,p) (5D, 7F)
 Ernie: Thresh=  0.10000D-02 Tol=  0.10000D-05 Strict=F.
   317 basis functions,   480 primitive gaussians,   335 cartesian basis functions
    45 alpha electrons       45 beta electrons
       nuclear repulsion energy       657.8395847864 Hartrees.
 IExCor= 4336 DFT=T Ex+Corr=M062X ExCW=0 ScaHFX=  0.540000
 ScaDFX=  1.000000  1.000000  1.000000  1.000000 ScalE2=  1.000000  1.000000
 IRadAn=      5 IRanWt=     -1 IRanGd=            0 ICorTp=0 IEmpDi=131
 NAtoms=   20 NActive=   20 NUniq=   20 SFac= 1.00D+00 NAtFMM=   60 NAOKFM=F Big=F
 Integral buffers will be    131072 words long.
 Raffenetti 2 integral format.
 Two-electron integral symmetry is turned off.
 R6Disp:  Grimme-D3 Dispersion energy=       -0.0008245099 Hartrees.
 Nuclear repulsion after empirical dispersion term =      657.8387602764 Hartrees.
 Leave Link  301 at Fri Feb 17 21:43:22 2023, MaxMem=  6710886400 cpu:               1.1 elap:               0.1
 (Enter /data0/home/software/g16/l302.exe)
 NPDir=0 NMtPBC=     1 NCelOv=     1 NCel=       1 NClECP=     1 NCelD=      1
         NCelK=      1 NCelE2=     1 NClLst=     1 CellRange=     0.0.
 One-electron integrals computed using PRISM.
 NBasis=   317 RedAO= T EigKep=  3.06D-04  NBF=   317
 NBsUse=   317 1.00D-06 EigRej= -1.00D+00 NBFU=   317
 Precomputing XC quadrature grid using
 IXCGrd= 4 IRadAn=           5 IRanWt=          -1 IRanGd=           0 AccXCQ= 0.00D+00.
 Generated NRdTot=       0 NPtTot=           0 NUsed=           0 NTot=          32
 NSgBfM=   334   334   334   334   334 MxSgAt=    20 MxSgA2=    20.
 Leave Link  302 at Fri Feb 17 21:43:22 2023, MaxMem=  6710886400 cpu:               5.2 elap:               0.2
 (Enter /data0/home/software/g16/l303.exe)
 DipDrv:  MaxL=1.
 Leave Link  303 at Fri Feb 17 21:43:22 2023, MaxMem=  6710886400 cpu:               0.8 elap:               0.0
 (Enter /data0/home/software/g16/l401.exe)
 ExpMin= 3.48D-02 ExpMax= 7.75D+04 ExpMxC= 2.65D+03 IAcc=3 IRadAn=         5 AccDes= 0.00D+00
 Harris functional with IExCor= 1009 and IRadAn=       5 diagonalized for initial guess.
 HarFok:  IExCor= 1009 AccDes= 0.00D+00 IRadAn=         5 IDoV= 1 UseB2=F ITyADJ=14
 ICtDFT=  3500011 ScaDFX=  1.000000  1.000000  1.000000  1.000000
 FoFCou: FMM=F IPFlag=           0 FMFlag=      100000 FMFlg1=           0
         NFxFlg=           0 DoJE=T BraDBF=F KetDBF=T FulRan=T
         wScrn=  0.000000 ICntrl=       500 IOpCl=  0 I1Cent=   200000004 NGrid=           0
         NMat0=    1 NMatS0=      1 NMatT0=    0 NMatD0=    1 NMtDS0=    0 NMtDT0=    0
 Symmetry not used in FoFCou.
 Harris En= -949.625546157630    
 JPrj=0 DoOrth=F DoCkMO=F.
 Leave Link  401 at Fri Feb 17 21:43:23 2023, MaxMem=  6710886400 cpu:              16.8 elap:               0.7
 (Enter /data0/home/software/g16/l502.exe)
 Two-electron integral symmetry not used.
 Closed shell SCF:
 Using DIIS extrapolation, IDIIS=  1040.
 NGot=  6710886400 LenX=  6710651443 LenY=  6710538777
 Requested convergence on RMS density matrix=1.00D-08 within 128 cycles.
 Requested convergence on MAX density matrix=1.00D-06.
 Requested convergence on             energy=1.00D-06.
 No special actions if energy rises.
 Fock matrices will be formed incrementally for  20 cycles.

 Cycle   1  Pass 1  IDiag  1:
 FoFJK:  IHMeth= 1 ICntrl=       0 DoSepK=F KAlg= 0 I1Cent=           0 FoldK=F
 IRaf= 860000000 NMat=       1 IRICut=       1 DoRegI=T DoRafI=F ISym2E= 0 IDoP0=0 IntGTp=1.
 FoFCou: FMM=F IPFlag=           0 FMFlag=      100000 FMFlg1=           0
         NFxFlg=           0 DoJE=F BraDBF=F KetDBF=F FulRan=T
         wScrn=  0.000000 ICntrl=         0 IOpCl=  0 I1Cent=           0 NGrid=           0
         NMat0=    1 NMatS0=      1 NMatT0=    0 NMatD0=    1 NMtDS0=    0 NMtDT0=    0
 Symmetry not used in FoFCou.
 E= -949.407761359088    
 DIIS: error= 3.40D-02 at cycle   1 NSaved=   1.
 NSaved= 1 IEnMin= 1 EnMin= -949.407761359088     IErMin= 1 ErrMin= 3.40D-02
 ErrMax= 3.40D-02  0.00D+00 EMaxC= 1.00D-01 BMatC= 8.97D-01 BMatP= 8.97D-01
 IDIUse=3 WtCom= 6.60D-01 WtEn= 3.40D-01
 Coeff-Com:  0.100D+01
 Coeff-En:   0.100D+01
 Coeff:      0.100D+01
 Gap=     0.319 Goal=   None    Shift=    0.000
 GapD=    0.319 DampG=1.000 DampE=0.500 DampFc=0.5000 IDamp=-1.
 Damping current iteration by 5.00D-01
 RMSDP=4.49D-03 MaxDP=1.63D-01              OVMax= 2.00D-01

 Cycle   2  Pass 1  IDiag  1:
 RMSU=  2.25D-03    CP:  1.00D+00
 E= -949.632245161683     Delta-E=       -0.224483802595 Rises=F Damp=T
 DIIS: error= 8.82D-03 at cycle   2 NSaved=   2.
 NSaved= 2 IEnMin= 2 EnMin= -949.632245161683     IErMin= 2 ErrMin= 8.82D-03
 ErrMax= 8.82D-03  0.00D+00 EMaxC= 1.00D-01 BMatC= 3.69D-02 BMatP= 8.97D-01
 IDIUse=3 WtCom= 9.12D-01 WtEn= 8.82D-02
 Coeff-Com:  0.388D-01 0.961D+00
 Coeff-En:   0.135D+00 0.865D+00
 Coeff:      0.473D-01 0.953D+00
 Gap=     0.369 Goal=   None    Shift=    0.000
 RMSDP=8.60D-04 MaxDP=3.69D-02 DE=-2.24D-01 OVMax= 1.18D-01

 Cycle   3  Pass 1  IDiag  1:
 RMSU=  7.32D-04    CP:  9.93D-01  8.04D-01
 E= -949.909747644742     Delta-E=       -0.277502483060 Rises=F Damp=F
 DIIS: error= 3.35D-03 at cycle   3 NSaved=   3.
 NSaved= 3 IEnMin= 3 EnMin= -949.909747644742     IErMin= 3 ErrMin= 3.35D-03
 ErrMax= 3.35D-03  0.00D+00 EMaxC= 1.00D-01 BMatC= 6.62D-03 BMatP= 3.69D-02
 IDIUse=3 WtCom= 9.66D-01 WtEn= 3.35D-02
 Coeff-Com: -0.278D-01 0.215D+00 0.813D+00
 Coeff-En:   0.000D+00 0.000D+00 0.100D+01
 Coeff:     -0.268D-01 0.207D+00 0.819D+00
 Gap=     0.369 Goal=   None    Shift=    0.000
 RMSDP=3.22D-04 MaxDP=1.44D-02 DE=-2.78D-01 OVMax= 3.07D-02

 Cycle   4  Pass 1  IDiag  1:
 RMSU=  3.01D-04    CP:  9.92D-01  8.37D-01  8.82D-01
 E= -949.911361179272     Delta-E=       -0.001613534529 Rises=F Damp=F
 DIIS: error= 3.15D-03 at cycle   4 NSaved=   4.
 NSaved= 4 IEnMin= 4 EnMin= -949.911361179272     IErMin= 4 ErrMin= 3.15D-03
 ErrMax= 3.15D-03  0.00D+00 EMaxC= 1.00D-01 BMatC= 4.55D-03 BMatP= 6.62D-03
 IDIUse=3 WtCom= 9.68D-01 WtEn= 3.15D-02
 Coeff-Com: -0.196D-01 0.415D-01 0.488D+00 0.490D+00
 Coeff-En:   0.000D+00 0.000D+00 0.402D+00 0.598D+00
 Coeff:     -0.190D-01 0.402D-01 0.486D+00 0.493D+00
 Gap=     0.369 Goal=   None    Shift=    0.000
 RMSDP=1.58D-04 MaxDP=7.61D-03 DE=-1.61D-03 OVMax= 1.32D-02

 Cycle   5  Pass 1  IDiag  1:
 RMSU=  4.52D-05    CP:  9.92D-01  8.33D-01  9.68D-01  5.44D-01
 E= -949.914411026243     Delta-E=       -0.003049846972 Rises=F Damp=F
 DIIS: error= 1.79D-04 at cycle   5 NSaved=   5.
 NSaved= 5 IEnMin= 5 EnMin= -949.914411026243     IErMin= 5 ErrMin= 1.79D-04
 ErrMax= 1.79D-04  0.00D+00 EMaxC= 1.00D-01 BMatC= 2.49D-05 BMatP= 4.55D-03
 IDIUse=3 WtCom= 9.98D-01 WtEn= 1.79D-03
 Coeff-Com: -0.328D-02 0.346D-02 0.102D+00 0.132D+00 0.766D+00
 Coeff-En:   0.000D+00 0.000D+00 0.000D+00 0.000D+00 0.100D+01
 Coeff:     -0.328D-02 0.345D-02 0.102D+00 0.132D+00 0.766D+00
 Gap=     0.366 Goal=   None    Shift=    0.000
 RMSDP=1.85D-05 MaxDP=1.07D-03 DE=-3.05D-03 OVMax= 9.06D-04

 Cycle   6  Pass 1  IDiag  1:
 RMSU=  1.50D-05    CP:  9.92D-01  8.29D-01  9.73D-01  5.63D-01  9.11D-01
 E= -949.914428911751     Delta-E=       -0.000017885508 Rises=F Damp=F
 DIIS: error= 5.16D-05 at cycle   6 NSaved=   6.
 NSaved= 6 IEnMin= 6 EnMin= -949.914428911751     IErMin= 6 ErrMin= 5.16D-05
 ErrMax= 5.16D-05  0.00D+00 EMaxC= 1.00D-01 BMatC= 2.43D-06 BMatP= 2.49D-05
 IDIUse=1 WtCom= 1.00D+00 WtEn= 0.00D+00
 Coeff-Com:  0.578D-04-0.121D-02 0.482D-02 0.138D-01 0.247D+00 0.736D+00
 Coeff:      0.578D-04-0.121D-02 0.482D-02 0.138D-01 0.247D+00 0.736D+00
 Gap=     0.367 Goal=   None    Shift=    0.000
 RMSDP=5.66D-06 MaxDP=1.99D-04 DE=-1.79D-05 OVMax= 2.41D-04

 Cycle   7  Pass 1  IDiag  1:
 RMSU=  3.22D-06    CP:  9.92D-01  8.29D-01  9.74D-01  5.65D-01  9.98D-01
                    CP:  9.07D-01
 E= -949.914430784250     Delta-E=       -0.000001872499 Rises=F Damp=F
 DIIS: error= 2.09D-05 at cycle   7 NSaved=   7.
 NSaved= 7 IEnMin= 7 EnMin= -949.914430784250     IErMin= 7 ErrMin= 2.09D-05
 ErrMax= 2.09D-05  0.00D+00 EMaxC= 1.00D-01 BMatC= 2.39D-07 BMatP= 2.43D-06
 IDIUse=1 WtCom= 1.00D+00 WtEn= 0.00D+00
 Coeff-Com:  0.401D-03-0.705D-03-0.118D-01-0.128D-01-0.197D-01 0.201D+00
 Coeff-Com:  0.844D+00
 Coeff:      0.401D-03-0.705D-03-0.118D-01-0.128D-01-0.197D-01 0.201D+00
 Coeff:      0.844D+00
 Gap=     0.367 Goal=   None    Shift=    0.000
 RMSDP=2.37D-06 MaxDP=1.06D-04 DE=-1.87D-06 OVMax= 1.17D-04

 Cycle   8  Pass 1  IDiag  1:
 RMSU=  1.60D-06    CP:  9.92D-01  8.28D-01  9.74D-01  5.66D-01  1.02D+00
                    CP:  9.85D-01  9.47D-01
 E= -949.914430969198     Delta-E=       -0.000000184948 Rises=F Damp=F
 DIIS: error= 1.14D-05 at cycle   8 NSaved=   8.
 NSaved= 8 IEnMin= 8 EnMin= -949.914430969198     IErMin= 8 ErrMin= 1.14D-05
 ErrMax= 1.14D-05  0.00D+00 EMaxC= 1.00D-01 BMatC= 5.71D-08 BMatP= 2.39D-07
 IDIUse=1 WtCom= 1.00D+00 WtEn= 0.00D+00
 Coeff-Com:  0.173D-03-0.228D-03-0.576D-02-0.670D-02-0.234D-01 0.379D-01
 Coeff-Com:  0.397D+00 0.601D+00
 Coeff:      0.173D-03-0.228D-03-0.576D-02-0.670D-02-0.234D-01 0.379D-01
 Coeff:      0.397D+00 0.601D+00
 Gap=     0.367 Goal=   None    Shift=    0.000
 RMSDP=5.52D-07 MaxDP=3.65D-05 DE=-1.85D-07 OVMax= 3.47D-05

 Cycle   9  Pass 1  IDiag  1:
 RMSU=  3.28D-07    CP:  9.92D-01  8.28D-01  9.74D-01  5.67D-01  1.02D+00
                    CP:  9.97D-01  1.05D+00  8.76D-01
 E= -949.914431009435     Delta-E=       -0.000000040237 Rises=F Damp=F
 DIIS: error= 1.32D-06 at cycle   9 NSaved=   9.
 NSaved= 9 IEnMin= 9 EnMin= -949.914431009435     IErMin= 9 ErrMin= 1.32D-06
 ErrMax= 1.32D-06  0.00D+00 EMaxC= 1.00D-01 BMatC= 8.69D-10 BMatP= 5.71D-08
 IDIUse=1 WtCom= 1.00D+00 WtEn= 0.00D+00
 Coeff-Com: -0.396D-04 0.673D-04 0.829D-03 0.865D-03-0.108D-03-0.190D-01
 Coeff-Com: -0.597D-01 0.975D-02 0.107D+01
 Coeff:     -0.396D-04 0.673D-04 0.829D-03 0.865D-03-0.108D-03-0.190D-01
 Coeff:     -0.597D-01 0.975D-02 0.107D+01
 Gap=     0.367 Goal=   None    Shift=    0.000
 RMSDP=1.99D-07 MaxDP=6.76D-06 DE=-4.02D-08 OVMax= 1.11D-05

 Cycle  10  Pass 1  IDiag  1:
 RMSU=  8.65D-08    CP:  9.92D-01  8.28D-01  9.74D-01  5.67D-01  1.02D+00
                    CP:  9.98D-01  1.08D+00  9.65D-01  1.14D+00
 E= -949.914431010813     Delta-E=       -0.000000001379 Rises=F Damp=F
 DIIS: error= 3.09D-07 at cycle  10 NSaved=  10.
 NSaved=10 IEnMin=10 EnMin= -949.914431010813     IErMin=10 ErrMin= 3.09D-07
 ErrMax= 3.09D-07  0.00D+00 EMaxC= 1.00D-01 BMatC= 8.78D-11 BMatP= 8.69D-10
 IDIUse=1 WtCom= 1.00D+00 WtEn= 0.00D+00
 Coeff-Com: -0.143D-04 0.237D-04 0.370D-03 0.389D-03 0.379D-03-0.644D-02
 Coeff-Com: -0.282D-01-0.150D-01 0.322D+00 0.726D+00
 Coeff:     -0.143D-04 0.237D-04 0.370D-03 0.389D-03 0.379D-03-0.644D-02
 Coeff:     -0.282D-01-0.150D-01 0.322D+00 0.726D+00
 Gap=     0.367 Goal=   None    Shift=    0.000
 RMSDP=3.92D-08 MaxDP=2.13D-06 DE=-1.38D-09 OVMax= 2.30D-06

 Cycle  11  Pass 1  IDiag  1:
 RMSU=  3.06D-08    CP:  9.92D-01  8.28D-01  9.74D-01  5.67D-01  1.02D+00
                    CP:  9.98D-01  1.08D+00  9.73D-01  1.20D+00  9.73D-01
 E= -949.914431010831     Delta-E=       -0.000000000018 Rises=F Damp=F
 DIIS: error= 2.05D-07 at cycle  11 NSaved=  11.
 NSaved=11 IEnMin=11 EnMin= -949.914431010831     IErMin=11 ErrMin= 2.05D-07
 ErrMax= 2.05D-07  0.00D+00 EMaxC= 1.00D-01 BMatC= 2.33D-11 BMatP= 8.78D-11
 IDIUse=1 WtCom= 1.00D+00 WtEn= 0.00D+00
 Coeff-Com:  0.314D-06-0.474D-06 0.402D-04 0.398D-04 0.194D-03 0.121D-03
 Coeff-Com: -0.391D-02-0.944D-02-0.201D-01 0.345D+00 0.688D+00
 Coeff:      0.314D-06-0.474D-06 0.402D-04 0.398D-04 0.194D-03 0.121D-03
 Coeff:     -0.391D-02-0.944D-02-0.201D-01 0.345D+00 0.688D+00
 Gap=     0.367 Goal=   None    Shift=    0.000
 RMSDP=1.29D-08 MaxDP=5.53D-07 DE=-1.77D-11 OVMax= 6.35D-07

 Cycle  12  Pass 1  IDiag  1:
 RMSU=  8.75D-09    CP:  9.92D-01  8.28D-01  9.74D-01  5.67D-01  1.02D+00
                    CP:  9.98D-01  1.08D+00  9.74D-01  1.21D+00  1.05D+00
                    CP:  8.62D-01
 E= -949.914431010873     Delta-E=       -0.000000000041 Rises=F Damp=F
 DIIS: error= 2.33D-08 at cycle  12 NSaved=  12.
 NSaved=12 IEnMin=12 EnMin= -949.914431010873     IErMin=12 ErrMin= 2.33D-08
 ErrMax= 2.33D-08  0.00D+00 EMaxC= 1.00D-01 BMatC= 6.28D-13 BMatP= 2.33D-11
 IDIUse=1 WtCom= 1.00D+00 WtEn= 0.00D+00
 Coeff-Com:  0.111D-05-0.182D-05-0.126D-04-0.142D-04 0.288D-04 0.471D-03
 Coeff-Com:  0.104D-02-0.123D-02-0.281D-01 0.384D-01 0.180D+00 0.810D+00
 Coeff:      0.111D-05-0.182D-05-0.126D-04-0.142D-04 0.288D-04 0.471D-03
 Coeff:      0.104D-02-0.123D-02-0.281D-01 0.384D-01 0.180D+00 0.810D+00
 Gap=     0.367 Goal=   None    Shift=    0.000
 RMSDP=3.67D-09 MaxDP=9.87D-08 DE=-4.14D-11 OVMax= 1.57D-07

 SCF Done:  E(RM062X) =  -949.914431011     A.U. after   12 cycles
            NFock= 12  Conv=0.37D-08     -V/T= 2.0027
 KE= 9.473861584512D+02 PE=-3.567036743701D+03 EE= 1.011897393962D+03
 Leave Link  502 at Fri Feb 17 21:43:44 2023, MaxMem=  6710886400 cpu:             491.9 elap:              20.6
 (Enter /data0/home/software/g16/l601.exe)
 Copying SCF densities to generalized density rwf, IOpCl= 0 IROHF=0.

 **********************************************************************

            Population analysis using the SCF density.

 **********************************************************************

 Alpha  occ. eigenvalues --  -78.15810 -19.68720 -19.66459 -19.65231 -19.64983
 Alpha  occ. eigenvalues --  -19.63640 -19.62397 -19.60600 -19.59447  -6.96547
 Alpha  occ. eigenvalues --   -5.08459  -5.08400  -5.08306  -1.22427  -1.19130
 Alpha  occ. eigenvalues --   -1.15107  -1.14550  -1.13878  -1.13747  -1.11231
 Alpha  occ. eigenvalues --   -1.09558  -0.71072  -0.65698  -0.63819  -0.62540
 Alpha  occ. eigenvalues --   -0.62032  -0.61284  -0.59391  -0.55822  -0.53950
 Alpha  occ. eigenvalues --   -0.53013  -0.50339  -0.49826  -0.49322  -0.47326
 Alpha  occ. eigenvalues --   -0.46319  -0.45703  -0.45129  -0.44413  -0.41379
 Alpha  occ. eigenvalues --   -0.40986  -0.40078  -0.39065  -0.38729  -0.38140
 Alpha virt. eigenvalues --   -0.01483   0.00737   0.02773   0.03745   0.07341
 Alpha virt. eigenvalues --    0.08839   0.09840   0.10239   0.11144   0.12938
 Alpha virt. eigenvalues --    0.13326   0.14504   0.14705   0.15133   0.15447
 Alpha virt. eigenvalues --    0.15691   0.16681   0.17195   0.17776   0.18550
 Alpha virt. eigenvalues --    0.18934   0.19597   0.20187   0.20896   0.21312
 Alpha virt. eigenvalues --    0.22391   0.22770   0.23167   0.23599   0.24780
 Alpha virt. eigenvalues --    0.25115   0.26140   0.26343   0.27113   0.28445
 Alpha virt. eigenvalues --    0.29331   0.29976   0.30600   0.31321   0.31824
 Alpha virt. eigenvalues --    0.32618   0.32918   0.34145   0.35242   0.36384
 Alpha virt. eigenvalues --    0.37080   0.38890   0.39057   0.40422   0.42625
 Alpha virt. eigenvalues --    0.44154   0.45734   0.46464   0.48246   0.49384
 Alpha virt. eigenvalues --    0.52881   0.54062   0.55023   0.55962   0.57191
 Alpha virt. eigenvalues --    0.58340   0.59470   0.61718   0.65078   0.65693
 Alpha virt. eigenvalues --    0.68521   0.68976   0.78179   0.78950   0.80962
 Alpha virt. eigenvalues --    0.87802   0.93506   0.98441   0.99657   1.00189
 Alpha virt. eigenvalues --    1.01087   1.01943   1.03545   1.04474   1.04882
 Alpha virt. eigenvalues --    1.06065   1.06963   1.08374   1.10185   1.11654
 Alpha virt. eigenvalues --    1.12307   1.12562   1.12904   1.13933   1.15308
 Alpha virt. eigenvalues --    1.17150   1.17289   1.19341   1.19904   1.20778
 Alpha virt. eigenvalues --    1.21422   1.22045   1.23278   1.25071   1.25560
 Alpha virt. eigenvalues --    1.26711   1.27858   1.29889   1.30686   1.31906
 Alpha virt. eigenvalues --    1.33536   1.33932   1.35435   1.37225   1.38242
 Alpha virt. eigenvalues --    1.41820   1.42104   1.42869   1.45319   1.46577
 Alpha virt. eigenvalues --    1.47541   1.49157   1.52658   1.52852   1.54509
 Alpha virt. eigenvalues --    1.58943   1.60880   1.64730   1.65487   1.66548
 Alpha virt. eigenvalues --    1.66982   1.69539   1.71281   1.71717   1.72416
 Alpha virt. eigenvalues --    1.72658   1.75856   1.76425   1.77413   1.78229
 Alpha virt. eigenvalues --    1.79775   1.81211   1.84533   1.86424   1.87881
 Alpha virt. eigenvalues --    1.91607   1.95578   1.97523   1.98572   1.99555
 Alpha virt. eigenvalues --    2.01541   2.03023   2.04091   2.06000   2.08697
 Alpha virt. eigenvalues --    2.10564   2.12644   2.14008   2.15753   2.16795
 Alpha virt. eigenvalues --    2.20291   2.21948   2.24205   2.25647   2.26618
 Alpha virt. eigenvalues --    2.27835   2.29081   2.32902   2.35851   2.39152
 Alpha virt. eigenvalues --    2.44250   2.46075   2.48034   2.49146   2.51867
 Alpha virt. eigenvalues --    2.53390   2.54840   2.55334   2.56822   2.59966
 Alpha virt. eigenvalues --    2.61306   2.62596   2.65147   2.66381   2.69453
 Alpha virt. eigenvalues --    2.72387   2.75492   2.80248   2.86280   2.88469
 Alpha virt. eigenvalues --    2.90491   2.94152   2.95337   2.98142   2.99978
 Alpha virt. eigenvalues --    3.02014   3.03611   3.12376   3.13801   3.16375
 Alpha virt. eigenvalues --    5.06203   5.07727   5.09123   5.10877   5.11654
 Alpha virt. eigenvalues --    5.12343   5.12882   5.15504   5.17509   5.18074
 Alpha virt. eigenvalues --    5.25449   5.27427   5.41616   5.47273   5.51599
 Alpha virt. eigenvalues --    5.53540   5.55827   5.58589   5.59867   5.61886
 Alpha virt. eigenvalues --    5.83181   5.92866   5.96052   5.99431   6.73268
 Alpha virt. eigenvalues --    6.74258   6.75518   6.77356   6.78036   6.79002
 Alpha virt. eigenvalues --    6.79362   6.80381   6.81353   6.81764   6.82392
 Alpha virt. eigenvalues --    6.83449   6.84305   6.85470   6.86156   6.87706
 Alpha virt. eigenvalues --    6.89039   6.89884   6.91342   6.91709   6.92943
 Alpha virt. eigenvalues --    6.95605   6.95877   6.97679   6.98590   6.98827
 Alpha virt. eigenvalues --    7.01012   7.04819   7.05515   7.06905   7.10074
 Alpha virt. eigenvalues --    7.13334   7.14985   7.17525   7.23246   7.24788
 Alpha virt. eigenvalues --    7.28385   7.33566   7.36440   7.42253   7.67100
 Alpha virt. eigenvalues --   14.25758  14.26093  14.37602  49.94448  49.99531
 Alpha virt. eigenvalues --   50.00666  50.03782  50.05146  50.06030  50.06984
 Alpha virt. eigenvalues --   50.10808 163.90297
          Condensed to atoms (all electrons):
               1          2          3          4          5          6
     1  P   12.540087   0.486691   0.214702  -0.010908   0.343795   0.012024
     2  O    0.486691   8.244487  -0.021264   0.002016  -0.024409  -0.013415
     3  O    0.214702  -0.021264   8.191107   0.265243  -0.039509   0.009384
     4  H   -0.010908   0.002016   0.265243   0.320380   0.009473  -0.000966
     5  O    0.343795  -0.024409  -0.039509   0.009473   8.076972   0.241588
     6  H    0.012024  -0.013415   0.009384  -0.000966   0.241588   0.339963
     7  O    0.223325  -0.038268  -0.013542  -0.004223  -0.008875   0.004898
     8  H    0.024012   0.003695  -0.010155   0.001216  -0.010540  -0.001437
     9  O   -0.006584   0.006818   0.000027  -0.000019   0.000049  -0.000994
    10  H    0.005479  -0.003406   0.000074   0.000007  -0.000007   0.000106
    11  H    0.000517  -0.000231   0.000007  -0.000000  -0.000168   0.000081
    12  O   -0.026457   0.023210  -0.000637  -0.000132  -0.003637  -0.000024
    13  H    0.019337   0.018619   0.001085   0.000183   0.002389   0.000115
    14  H    0.005709  -0.006512   0.000045   0.000010   0.000270  -0.000259
    15  O   -0.018884   0.014938  -0.003170   0.000497   0.041351  -0.045804
    16  H    0.000142  -0.001841   0.000334  -0.000053  -0.006080   0.005800
    17  H    0.006023   0.000757   0.000303  -0.000079  -0.009763   0.016550
    18  O    0.052292  -0.013141   0.029765  -0.073491  -0.016139   0.000759
    19  H   -0.008658   0.001087  -0.001083   0.006880   0.000821   0.000005
    20  H   -0.006210   0.000002  -0.003606   0.008993   0.002674  -0.000338
               7          8          9         10         11         12
     1  P    0.223325   0.024012  -0.006584   0.005479   0.000517  -0.026457
     2  O   -0.038268   0.003695   0.006818  -0.003406  -0.000231   0.023210
     3  O   -0.013542  -0.010155   0.000027   0.000074   0.000007  -0.000637
     4  H   -0.004223   0.001216  -0.000019   0.000007  -0.000000  -0.000132
     5  O   -0.008875  -0.010540   0.000049  -0.000007  -0.000168  -0.003637
     6  H    0.004898  -0.001437  -0.000994   0.000106   0.000081  -0.000024
     7  O    8.091497   0.239129   0.000176  -0.000242  -0.000000   0.001716
     8  H    0.239129   0.443233  -0.000021   0.000009  -0.000000   0.000024
     9  O    0.000176  -0.000021   8.211935   0.261511   0.294531   0.008501
    10  H   -0.000242   0.000009   0.261511   0.339659  -0.022707  -0.070161
    11  H   -0.000000  -0.000000   0.294531  -0.022707   0.432085   0.003719
    12  O    0.001716   0.000024   0.008501  -0.070161   0.003719   8.251587
    13  H    0.002605   0.000133  -0.009896   0.022797   0.000908   0.200540
    14  H    0.001392   0.000079  -0.004606   0.004082  -0.000173   0.281175
    15  O   -0.005590   0.000120  -0.008947   0.002227   0.002428  -0.005899
    16  H    0.000253   0.000000   0.004441  -0.000216   0.000016   0.000469
    17  H    0.000699   0.000007  -0.010738   0.003030  -0.002813   0.004025
    18  O    0.004604  -0.000076   0.000020   0.000002   0.000000   0.000051
    19  H   -0.000363   0.000019  -0.000003  -0.000000  -0.000000  -0.000012
    20  H   -0.000332   0.000014  -0.000007  -0.000001  -0.000000  -0.000008
              13         14         15         16         17         18
     1  P    0.019337   0.005709  -0.018884   0.000142   0.006023   0.052292
     2  O    0.018619  -0.006512   0.014938  -0.001841   0.000757  -0.013141
     3  O    0.001085   0.000045  -0.003170   0.000334   0.000303   0.029765
     4  H    0.000183   0.000010   0.000497  -0.000053  -0.000079  -0.073491
     5  O    0.002389   0.000270   0.041351  -0.006080  -0.009763  -0.016139
     6  H    0.000115  -0.000259  -0.045804   0.005800   0.016550   0.000759
     7  O    0.002605   0.001392  -0.005590   0.000253   0.000699   0.004604
     8  H    0.000133   0.000079   0.000120   0.000000   0.000007  -0.000076
     9  O   -0.009896  -0.004606  -0.008947   0.004441  -0.010738   0.000020
    10  H    0.022797   0.004082   0.002227  -0.000216   0.003030   0.000002
    11  H    0.000908  -0.000173   0.002428   0.000016  -0.002813   0.000000
    12  O    0.200540   0.281175  -0.005899   0.000469   0.004025   0.000051
    13  H    0.373228   0.002693   0.000758  -0.000014  -0.000967  -0.000146
    14  H    0.002693   0.426703   0.000405  -0.000041  -0.000104  -0.000002
    15  O    0.000758   0.000405   8.085354   0.306169   0.283735  -0.000202
    16  H   -0.000014  -0.000041   0.306169   0.426542  -0.016473  -0.000014
    17  H   -0.000967  -0.000104   0.283735  -0.016473   0.331739   0.000037
    18  O   -0.000146  -0.000002  -0.000202  -0.000014   0.000037   7.965669
    19  H    0.000029   0.000000  -0.000029   0.000009   0.000002   0.326804
    20  H    0.000019   0.000000   0.000008   0.000037  -0.000016   0.313548
              19         20
     1  P   -0.008658  -0.006210
     2  O    0.001087   0.000002
     3  O   -0.001083  -0.003606
     4  H    0.006880   0.008993
     5  O    0.000821   0.002674
     6  H    0.000005  -0.000338
     7  O   -0.000363  -0.000332
     8  H    0.000019   0.000014
     9  O   -0.000003  -0.000007
    10  H   -0.000000  -0.000001
    11  H   -0.000000  -0.000000
    12  O   -0.000012  -0.000008
    13  H    0.000029   0.000019
    14  H    0.000000   0.000000
    15  O   -0.000029   0.000008
    16  H    0.000009   0.000037
    17  H    0.000002  -0.000016
    18  O    0.326804   0.313548
    19  H    0.387449  -0.017952
    20  H   -0.017952   0.395961
 Mulliken charges:
               1
     1  P    1.143568
     2  O   -0.679831
     3  O   -0.619108
     4  H    0.474973
     5  O   -0.600255
     6  H    0.431967
     7  O   -0.498859
     8  H    0.310541
     9  O   -0.746196
    10  H    0.457760
    11  H    0.291801
    12  O   -0.668050
    13  H    0.365585
    14  H    0.289134
    15  O   -0.649466
    16  H    0.280520
    17  H    0.394047
    18  O   -0.590338
    19  H    0.304995
    20  H    0.307214
 Sum of Mulliken charges =  -0.00000
 Mulliken charges with hydrogens summed into heavy atoms:
               1
     1  P    1.143568
     2  O   -0.679831
     3  O   -0.144135
     5  O   -0.168288
     7  O   -0.188318
     9  O    0.003365
    12  O   -0.013331
    15  O    0.025101
    18  O    0.021870
         Mulliken charges condensed to fragments:
      1     -0.037005
      2      0.003365
      3     -0.013331
      4      0.025101
      5      0.021870
 Electronic spatial extent (au):  <R**2>=          90488.6791
 Charge=             -0.0000 electrons
 Dipole moment (field-independent basis, Debye):
    X=              0.5222    Y=             -2.3252    Z=              0.6419  Tot=              2.4680
 Quadrupole moment (field-independent basis, Debye-Ang):
   XX=            -60.1281   YY=            -94.4537   ZZ=            -40.9258
   XY=             -3.7478   XZ=             10.8243   YZ=            -32.0978
 Traceless Quadrupole moment (field-independent basis, Debye-Ang):
   XX=              5.0411   YY=            -29.2845   ZZ=             24.2434
   XY=             -3.7478   XZ=             10.8243   YZ=            -32.0978
 Octapole moment (field-independent basis, Debye-Ang**2):
  XXX=          -1269.8849  YYY=          -2014.0196  ZZZ=          -1767.1354  XYY=           -460.8516
  XXY=           -533.9534  XXZ=           -724.4445  XZZ=           -237.2648  YZZ=           -944.7155
  YYZ=          -1270.7923  XYZ=            -58.3868
 Hexadecapole moment (field-independent basis, Debye-Ang**3):
 XXXX=         -18197.4753 YYYY=         -33984.5715 ZZZZ=         -45947.5499 XXXY=         -10748.6597
 XXXZ=         -15956.0318 YYYX=         -11270.7414 YYYZ=         -26356.1109 ZZZX=         -12724.1275
 ZZZY=         -24331.5484 XXYY=          -7390.8156 XXZZ=         -12144.5333 YYZZ=         -21772.5188
 XXYZ=          -6684.1456 YYXZ=          -6328.4530 ZZXY=          -4634.6113
 N-N= 6.578387602764D+02 E-N=-3.567036748003D+03  KE= 9.473861584512D+02
 No NMR shielding tensors so no spin-rotation constants.
 Leave Link  601 at Fri Feb 17 21:43:44 2023, MaxMem=  6710886400 cpu:               2.4 elap:               0.1
 (Enter /data0/home/software/g16/l122.exe)
 CPIOFr:  IOpCl= 0 IRwI=-1 IRwCP=  731 ICalc= -1 LCPTot=      156386 Len1MO=      408861 IndFrg=      156386
 CPIOFr:  IOpCl= 0 IRwI=-1 IRwCP=  731 ICalc=  0 LCPTot=      156386 Len1MO=      408861 IndFrg=      565247
 Counterpoise: doing calculation for fragment   1 using the basis set of the full-system, NewBq=T
 Leave Link  122 at Fri Feb 17 21:43:44 2023, MaxMem=  6710886400 cpu:               0.2 elap:               0.0
 (Enter /data0/home/software/g16/l301.exe)
 Basis read from rwf:  (5D, 7F)
 No pseudopotential information found on rwf file.
   317 basis functions,   480 primitive gaussians,   335 cartesian basis functions
    25 alpha electrons       25 beta electrons
       nuclear repulsion energy       280.2494260127 Hartrees.
 IExCor= 4336 DFT=T Ex+Corr=M062X ExCW=0 ScaHFX=  0.540000
 ScaDFX=  1.000000  1.000000  1.000000  1.000000 ScalE2=  1.000000  1.000000
 IRadAn=      5 IRanWt=     -1 IRanGd=            0 ICorTp=0 IEmpDi=131
 NAtoms=   20 NActive=   20 NUniq=   20 SFac= 1.00D+00 NAtFMM=   60 NAOKFM=F Big=F
 Integral buffers will be    131072 words long.
 Raffenetti 2 integral format.
 Two-electron integral symmetry is turned off.
 R6Disp:  Grimme-D3 Dispersion energy=       -0.0000470931 Hartrees.
 Nuclear repulsion after empirical dispersion term =      280.2493789197 Hartrees.
 No density basis found on file   718.
 Leave Link  301 at Fri Feb 17 21:43:44 2023, MaxMem=  6710886400 cpu:               1.2 elap:               0.1
 (Enter /data0/home/software/g16/l302.exe)
 NPDir=0 NMtPBC=     1 NCelOv=     1 NCel=       1 NClECP=     1 NCelD=      1
         NCelK=      1 NCelE2=     1 NClLst=     1 CellRange=     0.0.
 One-electron integrals computed using PRISM.
 NBasis=   317 RedAO= T EigKep=  3.06D-04  NBF=   317
 NBsUse=   317 1.00D-06 EigRej= -1.00D+00 NBFU=   317
 Precomputing XC quadrature grid using
 IXCGrd= 4 IRadAn=           5 IRanWt=          -1 IRanGd=           0 AccXCQ= 0.00D+00.
 Generated NRdTot=       0 NPtTot=           0 NUsed=           0 NTot=          32
 NSgBfM=   334   334   334   334   334 MxSgAt=    20 MxSgA2=    20.
 Leave Link  302 at Fri Feb 17 21:43:44 2023, MaxMem=  6710886400 cpu:               5.2 elap:               0.2
 (Enter /data0/home/software/g16/l303.exe)
 DipDrv:  MaxL=1.
 Leave Link  303 at Fri Feb 17 21:43:44 2023, MaxMem=  6710886400 cpu:               0.7 elap:               0.0
 (Enter /data0/home/software/g16/l401.exe)
 ExpMin= 3.48D-02 ExpMax= 7.75D+04 ExpMxC= 2.65D+03 IAcc=3 IRadAn=         5 AccDes= 0.00D+00
 Harris functional with IExCor= 1009 and IRadAn=       5 diagonalized for initial guess.
 HarFok:  IExCor= 1009 AccDes= 0.00D+00 IRadAn=         5 IDoV= 1 UseB2=F ITyADJ=14
 ICtDFT=  3500011 ScaDFX=  1.000000  1.000000  1.000000  1.000000
 FoFCou: FMM=F IPFlag=           0 FMFlag=      100000 FMFlg1=           0
         NFxFlg=           0 DoJE=T BraDBF=F KetDBF=T FulRan=T
         wScrn=  0.000000 ICntrl=       500 IOpCl=  0 I1Cent=   200000004 NGrid=           0
         NMat0=    1 NMatS0=      1 NMatT0=    0 NMatD0=    1 NMtDS0=    0 NMtDT0=    0
 Symmetry not used in FoFCou.
 Harris En= -643.943274012102    
 JPrj=0 DoOrth=F DoCkMO=F.
 Leave Link  401 at Fri Feb 17 21:43:45 2023, MaxMem=  6710886400 cpu:              15.9 elap:               0.7
 (Enter /data0/home/software/g16/l502.exe)
 Two-electron integral symmetry not used.
 Closed shell SCF:
 Using DIIS extrapolation, IDIIS=  1040.
 NGot=  6710886400 LenX=  6710651443 LenY=  6710538777
 Requested convergence on RMS density matrix=1.00D-08 within 128 cycles.
 Requested convergence on MAX density matrix=1.00D-06.
 Requested convergence on             energy=1.00D-06.
 No special actions if energy rises.
 Fock matrices will be formed incrementally for  20 cycles.

 Cycle   1  Pass 1  IDiag  1:
 FoFJK:  IHMeth= 1 ICntrl=       0 DoSepK=F KAlg= 0 I1Cent=           0 FoldK=F
 IRaf= 860000000 NMat=       1 IRICut=       1 DoRegI=T DoRafI=F ISym2E= 0 IDoP0=0 IntGTp=1.
 FoFCou: FMM=F IPFlag=           0 FMFlag=      100000 FMFlg1=           0
         NFxFlg=           0 DoJE=F BraDBF=F KetDBF=F FulRan=T
         wScrn=  0.000000 ICntrl=         0 IOpCl=  0 I1Cent=           0 NGrid=           0
         NMat0=    1 NMatS0=      1 NMatT0=    0 NMatD0=    1 NMtDS0=    0 NMtDT0=    0
 Symmetry not used in FoFCou.
 E= -643.866793534331    
 DIIS: error= 2.76D-02 at cycle   1 NSaved=   1.
 NSaved= 1 IEnMin= 1 EnMin= -643.866793534331     IErMin= 1 ErrMin= 2.76D-02
 ErrMax= 2.76D-02  0.00D+00 EMaxC= 1.00D-01 BMatC= 5.04D-01 BMatP= 5.04D-01
 IDIUse=3 WtCom= 7.24D-01 WtEn= 2.76D-01
 Coeff-Com:  0.100D+01
 Coeff-En:   0.100D+01
 Coeff:      0.100D+01
 Gap=     0.316 Goal=   None    Shift=    0.000
 GapD=    0.316 DampG=1.000 DampE=0.500 DampFc=0.5000 IDamp=-1.
 Damping current iteration by 5.00D-01
 RMSDP=3.65D-03 MaxDP=1.51D-01              OVMax= 2.53D-01

 Cycle   2  Pass 1  IDiag  1:
 RMSU=  1.83D-03    CP:  1.00D+00
 E= -643.982981130444     Delta-E=       -0.116187596112 Rises=F Damp=T
 DIIS: error= 7.91D-03 at cycle   2 NSaved=   2.
 NSaved= 2 IEnMin= 2 EnMin= -643.982981130444     IErMin= 2 ErrMin= 7.91D-03
 ErrMax= 7.91D-03  0.00D+00 EMaxC= 1.00D-01 BMatC= 2.65D-02 BMatP= 5.04D-01
 IDIUse=3 WtCom= 9.21D-01 WtEn= 7.91D-02
 Coeff-Com:  0.674D-01 0.933D+00
 Coeff-En:   0.196D+00 0.804D+00
 Coeff:      0.776D-01 0.922D+00
 Gap=     0.363 Goal=   None    Shift=    0.000
 RMSDP=8.52D-04 MaxDP=4.84D-02 DE=-1.16D-01 OVMax= 1.53D-01

 Cycle   3  Pass 1  IDiag  1:
 RMSU=  6.58D-04    CP:  9.89D-01  7.09D-01
 E= -644.144551390441     Delta-E=       -0.161570259998 Rises=F Damp=F
 DIIS: error= 4.18D-03 at cycle   3 NSaved=   3.
 NSaved= 3 IEnMin= 3 EnMin= -644.144551390441     IErMin= 3 ErrMin= 4.18D-03
 ErrMax= 4.18D-03  0.00D+00 EMaxC= 1.00D-01 BMatC= 9.96D-03 BMatP= 2.65D-02
 IDIUse=3 WtCom= 9.58D-01 WtEn= 4.18D-02
 Coeff-Com: -0.178D-01 0.339D+00 0.679D+00
 Coeff-En:   0.000D+00 0.000D+00 0.100D+01
 Coeff:     -0.171D-01 0.324D+00 0.693D+00
 Gap=     0.350 Goal=   None    Shift=    0.000
 RMSDP=3.41D-04 MaxDP=1.49D-02 DE=-1.62D-01 OVMax= 3.39D-02

 Cycle   4  Pass 1  IDiag  1:
 RMSU=  2.90D-04    CP:  9.89D-01  7.93D-01  8.62D-01
 E= -644.149100559453     Delta-E=       -0.004549169011 Rises=F Damp=F
 DIIS: error= 3.14D-03 at cycle   4 NSaved=   4.
 NSaved= 4 IEnMin= 4 EnMin= -644.149100559453     IErMin= 4 ErrMin= 3.14D-03
 ErrMax= 3.14D-03  0.00D+00 EMaxC= 1.00D-01 BMatC= 3.67D-03 BMatP= 9.96D-03
 IDIUse=3 WtCom= 9.69D-01 WtEn= 3.14D-02
 Coeff-Com: -0.223D-01 0.511D-01 0.401D+00 0.570D+00
 Coeff-En:   0.000D+00 0.000D+00 0.269D+00 0.731D+00
 Coeff:     -0.216D-01 0.495D-01 0.397D+00 0.575D+00
 Gap=     0.358 Goal=   None    Shift=    0.000
 RMSDP=1.34D-04 MaxDP=5.96D-03 DE=-4.55D-03 OVMax= 1.09D-02

 Cycle   5  Pass 1  IDiag  1:
 RMSU=  3.94D-05    CP:  9.88D-01  7.73D-01  9.55D-01  6.32D-01
 E= -644.151534887652     Delta-E=       -0.002434328199 Rises=F Damp=F
 DIIS: error= 1.81D-04 at cycle   5 NSaved=   5.
 NSaved= 5 IEnMin= 5 EnMin= -644.151534887652     IErMin= 5 ErrMin= 1.81D-04
 ErrMax= 1.81D-04  0.00D+00 EMaxC= 1.00D-01 BMatC= 1.48D-05 BMatP= 3.67D-03
 IDIUse=3 WtCom= 9.98D-01 WtEn= 1.81D-03
 Coeff-Com: -0.272D-02 0.118D-02 0.601D-01 0.121D+00 0.821D+00
 Coeff-En:   0.000D+00 0.000D+00 0.000D+00 0.000D+00 0.100D+01
 Coeff:     -0.272D-02 0.118D-02 0.600D-01 0.120D+00 0.821D+00
 Gap=     0.357 Goal=   None    Shift=    0.000
 RMSDP=1.34D-05 MaxDP=8.36D-04 DE=-2.43D-03 OVMax= 7.55D-04

 Cycle   6  Pass 1  IDiag  1:
 RMSU=  1.04D-05    CP:  9.88D-01  7.70D-01  9.59D-01  6.53D-01  1.02D+00
 E= -644.151544934024     Delta-E=       -0.000010046373 Rises=F Damp=F
 DIIS: error= 3.56D-05 at cycle   6 NSaved=   6.
 NSaved= 6 IEnMin= 6 EnMin= -644.151544934024     IErMin= 6 ErrMin= 3.56D-05
 ErrMax= 3.56D-05  0.00D+00 EMaxC= 1.00D-01 BMatC= 9.79D-07 BMatP= 1.48D-05
 IDIUse=1 WtCom= 1.00D+00 WtEn= 0.00D+00
 Coeff-Com:  0.248D-04-0.135D-02 0.143D-02 0.969D-02 0.201D+00 0.789D+00
 Coeff:      0.248D-04-0.135D-02 0.143D-02 0.969D-02 0.201D+00 0.789D+00
 Gap=     0.357 Goal=   None    Shift=    0.000
 RMSDP=4.95D-06 MaxDP=2.38D-04 DE=-1.00D-05 OVMax= 2.19D-04

 Cycle   7  Pass 1  IDiag  1:
 RMSU=  2.50D-06    CP:  9.88D-01  7.69D-01  9.60D-01  6.56D-01  1.10D+00
                    CP:  9.25D-01
 E= -644.151545671382     Delta-E=       -0.000000737358 Rises=F Damp=F
 DIIS: error= 1.82D-05 at cycle   7 NSaved=   7.
 NSaved= 7 IEnMin= 7 EnMin= -644.151545671382     IErMin= 7 ErrMin= 1.82D-05
 ErrMax= 1.82D-05  0.00D+00 EMaxC= 1.00D-01 BMatC= 1.70D-07 BMatP= 9.79D-07
 IDIUse=1 WtCom= 1.00D+00 WtEn= 0.00D+00
 Coeff-Com:  0.374D-03-0.639D-03-0.790D-02-0.127D-01-0.249D-01 0.282D+00
 Coeff-Com:  0.764D+00
 Coeff:      0.374D-03-0.639D-03-0.790D-02-0.127D-01-0.249D-01 0.282D+00
 Coeff:      0.764D+00
 Gap=     0.357 Goal=   None    Shift=    0.000
 RMSDP=1.56D-06 MaxDP=5.92D-05 DE=-7.37D-07 OVMax= 8.21D-05

 Cycle   8  Pass 1  IDiag  1:
 RMSU=  1.05D-06    CP:  9.88D-01  7.69D-01  9.61D-01  6.56D-01  1.12D+00
                    CP:  9.98D-01  9.79D-01
 E= -644.151545786762     Delta-E=       -0.000000115380 Rises=F Damp=F
 DIIS: error= 7.51D-06 at cycle   8 NSaved=   8.
 NSaved= 8 IEnMin= 8 EnMin= -644.151545786762     IErMin= 8 ErrMin= 7.51D-06
 ErrMax= 7.51D-06  0.00D+00 EMaxC= 1.00D-01 BMatC= 3.09D-08 BMatP= 1.70D-07
 IDIUse=1 WtCom= 1.00D+00 WtEn= 0.00D+00
 Coeff-Com:  0.165D-03-0.228D-03-0.380D-02-0.621D-02-0.187D-01 0.936D-01
 Coeff-Com:  0.380D+00 0.555D+00
 Coeff:      0.165D-03-0.228D-03-0.380D-02-0.621D-02-0.187D-01 0.936D-01
 Coeff:      0.380D+00 0.555D+00
 Gap=     0.357 Goal=   None    Shift=    0.000
 RMSDP=4.04D-07 MaxDP=2.02D-05 DE=-1.15D-07 OVMax= 2.80D-05

 Cycle   9  Pass 1  IDiag  1:
 RMSU=  2.74D-07    CP:  9.88D-01  7.69D-01  9.61D-01  6.56D-01  1.12D+00
                    CP:  1.01D+00  1.06D+00  8.06D-01
 E= -644.151545808188     Delta-E=       -0.000000021426 Rises=F Damp=F
 DIIS: error= 9.13D-07 at cycle   9 NSaved=   9.
 NSaved= 9 IEnMin= 9 EnMin= -644.151545808188     IErMin= 9 ErrMin= 9.13D-07
 ErrMax= 9.13D-07  0.00D+00 EMaxC= 1.00D-01 BMatC= 7.31D-10 BMatP= 3.09D-08
 IDIUse=1 WtCom= 1.00D+00 WtEn= 0.00D+00
 Coeff-Com: -0.260D-04 0.484D-04 0.281D-03 0.569D-03-0.293D-03-0.198D-01
 Coeff-Com: -0.312D-01 0.802D-01 0.970D+00
 Coeff:     -0.260D-04 0.484D-04 0.281D-03 0.569D-03-0.293D-03-0.198D-01
 Coeff:     -0.312D-01 0.802D-01 0.970D+00
 Gap=     0.357 Goal=   None    Shift=    0.000
 RMSDP=1.59D-07 MaxDP=7.25D-06 DE=-2.14D-08 OVMax= 8.33D-06

 Cycle  10  Pass 1  IDiag  1:
 RMSU=  6.68D-08    CP:  9.88D-01  7.69D-01  9.61D-01  6.56D-01  1.12D+00
                    CP:  1.01D+00  1.09D+00  8.87D-01  1.10D+00
 E= -644.151545809053     Delta-E=       -0.000000000865 Rises=F Damp=F
 DIIS: error= 1.28D-07 at cycle  10 NSaved=  10.
 NSaved=10 IEnMin=10 EnMin= -644.151545809053     IErMin=10 ErrMin= 1.28D-07
 ErrMax= 1.28D-07  0.00D+00 EMaxC= 1.00D-01 BMatC= 1.21D-11 BMatP= 7.31D-10
 IDIUse=1 WtCom= 1.00D+00 WtEn= 0.00D+00
 Coeff-Com: -0.397D-05 0.642D-05 0.106D-03 0.170D-03 0.491D-03-0.378D-02
 Coeff-Com: -0.138D-01-0.138D-01 0.331D-01 0.997D+00
 Coeff:     -0.397D-05 0.642D-05 0.106D-03 0.170D-03 0.491D-03-0.378D-02
 Coeff:     -0.138D-01-0.138D-01 0.331D-01 0.997D+00
 Gap=     0.357 Goal=   None    Shift=    0.000
 RMSDP=2.97D-08 MaxDP=8.08D-07 DE=-8.65D-10 OVMax= 1.70D-06

 Cycle  11  Pass 1  IDiag  1:
 RMSU=  1.58D-08    CP:  9.88D-01  7.69D-01  9.61D-01  6.56D-01  1.12D+00
                    CP:  1.01D+00  1.09D+00  8.98D-01  1.15D+00  1.17D+00
 E= -644.151545809063     Delta-E=       -0.000000000010 Rises=F Damp=F
 DIIS: error= 7.04D-08 at cycle  11 NSaved=  11.
 NSaved=11 IEnMin=11 EnMin= -644.151545809063     IErMin=11 ErrMin= 7.04D-08
 ErrMax= 7.04D-08  0.00D+00 EMaxC= 1.00D-01 BMatC= 3.24D-12 BMatP= 1.21D-11
 IDIUse=1 WtCom= 1.00D+00 WtEn= 0.00D+00
 Coeff-Com:  0.334D-06-0.752D-06 0.207D-04 0.260D-04 0.178D-03-0.253D-03
 Coeff-Com: -0.285D-02-0.881D-02-0.437D-01 0.362D+00 0.694D+00
 Coeff:      0.334D-06-0.752D-06 0.207D-04 0.260D-04 0.178D-03-0.253D-03
 Coeff:     -0.285D-02-0.881D-02-0.437D-01 0.362D+00 0.694D+00
 Gap=     0.357 Goal=   None    Shift=    0.000
 RMSDP=7.00D-09 MaxDP=3.67D-07 DE=-1.02D-11 OVMax= 5.64D-07

 SCF Done:  E(RM062X) =  -644.151545809     A.U. after   11 cycles
            NFock= 11  Conv=0.70D-08     -V/T= 2.0025
 KE= 6.425249660663D+02 PE=-2.088240853592D+03 EE= 5.213149627975D+02
 Leave Link  502 at Fri Feb 17 21:44:03 2023, MaxMem=  6710886400 cpu:             432.9 elap:              18.1
 (Enter /data0/home/software/g16/l601.exe)
 Copying SCF densities to generalized density rwf, IOpCl= 0 IROHF=0.

 **********************************************************************

            Population analysis using the SCF density.

 **********************************************************************

 Alpha  occ. eigenvalues --  -78.16748 -19.68907 -19.68334 -19.67364 -19.58757
 Alpha  occ. eigenvalues --   -6.97527  -5.09418  -5.09410  -5.09243  -1.24303
 Alpha  occ. eigenvalues --   -1.17034  -1.16268  -1.08883  -0.72961  -0.65070
 Alpha  occ. eigenvalues --   -0.63938  -0.57153  -0.54668  -0.51204  -0.48741
 Alpha  occ. eigenvalues --   -0.47705  -0.45801  -0.42885  -0.38412  -0.37976
 Alpha virt. eigenvalues --   -0.02241   0.00779   0.01323   0.04321   0.06467
 Alpha virt. eigenvalues --    0.07879   0.08382   0.09779   0.11230   0.11936
 Alpha virt. eigenvalues --    0.12904   0.13192   0.13957   0.14974   0.15260
 Alpha virt. eigenvalues --    0.15801   0.16777   0.17960   0.18114   0.19808
 Alpha virt. eigenvalues --    0.20213   0.20754   0.21849   0.22331   0.22582
 Alpha virt. eigenvalues --    0.23154   0.23969   0.24830   0.25790   0.26820
 Alpha virt. eigenvalues --    0.27391   0.28434   0.29087   0.29266   0.29737
 Alpha virt. eigenvalues --    0.30181   0.32132   0.32776   0.33191   0.33965
 Alpha virt. eigenvalues --    0.35041   0.35191   0.35517   0.35813   0.37969
 Alpha virt. eigenvalues --    0.39018   0.40270   0.40928   0.42467   0.42883
 Alpha virt. eigenvalues --    0.43498   0.45323   0.48345   0.49311   0.51835
 Alpha virt. eigenvalues --    0.53498   0.57569   0.62488   0.64225   0.65630
 Alpha virt. eigenvalues --    0.66258   0.68390   0.69832   0.70657   0.72843
 Alpha virt. eigenvalues --    0.74090   0.76173   0.76912   0.78315   0.79028
 Alpha virt. eigenvalues --    0.81384   0.81584   0.82276   0.83773   0.85383
 Alpha virt. eigenvalues --    0.89177   0.91135   0.92247   0.92805   0.94897
 Alpha virt. eigenvalues --    0.97573   0.99660   1.00413   1.02946   1.04920
 Alpha virt. eigenvalues --    1.05752   1.07960   1.08437   1.09588   1.12467
 Alpha virt. eigenvalues --    1.14596   1.14781   1.17124   1.19969   1.22268
 Alpha virt. eigenvalues --    1.24663   1.25038   1.25752   1.26020   1.27643
 Alpha virt. eigenvalues --    1.28958   1.34056   1.38590   1.42198   1.44840
 Alpha virt. eigenvalues --    1.47150   1.50351   1.52888   1.56489   1.60460
 Alpha virt. eigenvalues --    1.60759   1.64292   1.65964   1.67018   1.70186
 Alpha virt. eigenvalues --    1.71684   1.72861   1.75380   1.76159   1.78285
 Alpha virt. eigenvalues --    1.80021   1.80200   1.81262   1.84840   1.85858
 Alpha virt. eigenvalues --    1.87617   1.89137   1.91049   1.91448   1.94527
 Alpha virt. eigenvalues --    1.97257   2.01751   2.03802   2.05037   2.05688
 Alpha virt. eigenvalues --    2.06402   2.07611   2.08777   2.12546   2.15486
 Alpha virt. eigenvalues --    2.16938   2.19942   2.20940   2.22407   2.23757
 Alpha virt. eigenvalues --    2.24549   2.28557   2.29460   2.32289   2.34538
 Alpha virt. eigenvalues --    2.36696   2.38636   2.40250   2.41754   2.43293
 Alpha virt. eigenvalues --    2.46085   2.50161   2.50717   2.52151   2.53912
 Alpha virt. eigenvalues --    2.54376   2.56986   2.58369   2.58653   2.61340
 Alpha virt. eigenvalues --    2.61595   2.62196   2.63072   2.63533   2.65859
 Alpha virt. eigenvalues --    2.66679   2.67038   2.68282   2.68755   2.71899
 Alpha virt. eigenvalues --    2.72551   2.74163   2.77254   2.80044   2.81205
 Alpha virt. eigenvalues --    2.83304   2.88072   2.90463   2.90714   2.91260
 Alpha virt. eigenvalues --    2.93943   2.95636   2.97490   2.98162   3.04094
 Alpha virt. eigenvalues --    3.07997   3.09875   3.12432   3.15380   3.19452
 Alpha virt. eigenvalues --    3.45975   3.51294   3.55552   3.56840   3.60614
 Alpha virt. eigenvalues --    3.68729   3.70803   3.81080   4.47329   4.55675
 Alpha virt. eigenvalues --    4.58198   4.72300   4.99038   5.04306   5.06777
 Alpha virt. eigenvalues --    5.08517   5.09736   5.10852   5.13152   5.15161
 Alpha virt. eigenvalues --    5.16651   5.25511   5.27539   5.28211   5.44486
 Alpha virt. eigenvalues --    5.54132   5.59554   5.61467   6.71576   6.75003
 Alpha virt. eigenvalues --    6.77536   6.78459   6.80598   6.81266   6.84199
 Alpha virt. eigenvalues --    6.88167   6.89960   6.95005   6.97247   6.97874
 Alpha virt. eigenvalues --    7.02497   7.07744   7.13696   7.23438   7.27733
 Alpha virt. eigenvalues --    7.30563   7.34078   7.42673   7.65843   9.77272
 Alpha virt. eigenvalues --    9.78031   9.81716   9.84541   9.87933   9.88966
 Alpha virt. eigenvalues --    9.92634   9.93613   9.96687   9.98092  10.00916
 Alpha virt. eigenvalues --   10.04702  10.07316  10.07650  10.12571  10.18117
 Alpha virt. eigenvalues --   10.20125  10.23916  10.29400  10.50246  12.84962
 Alpha virt. eigenvalues --   12.93968  13.00124  13.20425  13.24969  13.30610
 Alpha virt. eigenvalues --   13.38878  13.59111  13.64467  13.78438  13.80255
 Alpha virt. eigenvalues --   14.14405  14.24842  14.25239  14.36679  17.62224
 Alpha virt. eigenvalues --   17.75317  17.83627  18.22763  50.01286  50.02112
 Alpha virt. eigenvalues --   50.03241  50.11172 135.57914 136.70213 136.75974
 Alpha virt. eigenvalues --  139.02592 163.89357
          Condensed to atoms (all electrons):
               1          2          3          4          5          6
     1  P   12.553278   0.539768   0.199599  -0.007877   0.295659  -0.003828
     2  O    0.539768   8.116835  -0.023490  -0.008622  -0.033513  -0.004968
     3  O    0.199599  -0.023490   8.095650   0.296172  -0.005569   0.007061
     4  H   -0.007877  -0.008622   0.296172   0.307403  -0.000564  -0.000347
     5  O    0.295659  -0.033513  -0.005569  -0.000564   8.002838   0.301196
     6  H   -0.003828  -0.004968   0.007061  -0.000347   0.301196   0.304424
     7  O    0.233785  -0.020277  -0.005807   0.000946   0.012333  -0.001767
     8  H    0.033643   0.003989  -0.013373   0.001146  -0.012146  -0.001109
     9  O   -0.001429   0.003084   0.000036  -0.000001  -0.000275  -0.000486
    10  H    0.002452  -0.002508   0.000059   0.000000  -0.000247   0.000381
    11  H    0.000258   0.000054   0.000003  -0.000000  -0.000102   0.000095
    12  O   -0.009504   0.019306  -0.000452  -0.000012  -0.001184  -0.000493
    13  H    0.008242  -0.010880   0.000355  -0.000000   0.001917   0.000221
    14  H    0.000262  -0.002282  -0.000002   0.000002   0.000185  -0.000045
    15  O    0.004208   0.009036  -0.001058   0.000215   0.016204   0.000675
    16  H   -0.001742  -0.002528   0.000291  -0.000006  -0.003954   0.001732
    17  H   -0.000188  -0.002132   0.000060  -0.000042  -0.001105   0.002407
    18  O    0.011968   0.005083   0.014206   0.009625  -0.003717   0.000225
    19  H   -0.003190  -0.002046  -0.001220   0.000423   0.000395   0.000002
    20  H   -0.005370  -0.001338  -0.000106   0.000599   0.000815  -0.000117
               7          8          9         10         11         12
     1  P    0.233785   0.033643  -0.001429   0.002452   0.000258  -0.009504
     2  O   -0.020277   0.003989   0.003084  -0.002508   0.000054   0.019306
     3  O   -0.005807  -0.013373   0.000036   0.000059   0.000003  -0.000452
     4  H    0.000946   0.001146  -0.000001   0.000000  -0.000000  -0.000012
     5  O    0.012333  -0.012146  -0.000275  -0.000247  -0.000102  -0.001184
     6  H   -0.001767  -0.001109  -0.000486   0.000381   0.000095  -0.000493
     7  O    8.014884   0.229923   0.000063  -0.000115   0.000001  -0.002818
     8  H    0.229923   0.455377  -0.000009  -0.000002  -0.000000   0.000562
     9  O    0.000063  -0.000009   0.006929  -0.003043  -0.003459   0.000557
    10  H   -0.000115  -0.000002  -0.003043   0.003076   0.000845  -0.002788
    11  H    0.000001  -0.000000  -0.003459   0.000845   0.002449   0.000000
    12  O   -0.002818   0.000562   0.000557  -0.002788   0.000000   0.021908
    13  H    0.002861  -0.000529  -0.000252   0.001378   0.000043  -0.015503
    14  H    0.001028  -0.000154   0.000274   0.000069  -0.000047  -0.004610
    15  O   -0.000843   0.000178   0.002456  -0.000944  -0.000796   0.000281
    16  H   -0.000016   0.000002  -0.000364   0.000204   0.000135  -0.000067
    17  H    0.000089   0.000006  -0.002551   0.000713   0.000836   0.000255
    18  O    0.000980  -0.000051   0.000003   0.000002   0.000000  -0.000015
    19  H   -0.000126   0.000016  -0.000001   0.000000   0.000000   0.000005
    20  H   -0.000139   0.000013   0.000001  -0.000000  -0.000000   0.000002
              13         14         15         16         17         18
     1  P    0.008242   0.000262   0.004208  -0.001742  -0.000188   0.011968
     2  O   -0.010880  -0.002282   0.009036  -0.002528  -0.002132   0.005083
     3  O    0.000355  -0.000002  -0.001058   0.000291   0.000060   0.014206
     4  H   -0.000000   0.000002   0.000215  -0.000006  -0.000042   0.009625
     5  O    0.001917   0.000185   0.016204  -0.003954  -0.001105  -0.003717
     6  H    0.000221  -0.000045   0.000675   0.001732   0.002407   0.000225
     7  O    0.002861   0.001028  -0.000843  -0.000016   0.000089   0.000980
     8  H   -0.000529  -0.000154   0.000178   0.000002   0.000006  -0.000051
     9  O   -0.000252   0.000274   0.002456  -0.000364  -0.002551   0.000003
    10  H    0.001378   0.000069  -0.000944   0.000204   0.000713   0.000002
    11  H    0.000043  -0.000047  -0.000796   0.000135   0.000836   0.000000
    12  O   -0.015503  -0.004610   0.000281  -0.000067   0.000255  -0.000015
    13  H    0.014220   0.002489  -0.000401   0.000027   0.000046  -0.000001
    14  H    0.002489   0.001867   0.000103  -0.000007  -0.000141   0.000000
    15  O   -0.000401   0.000103   0.035708  -0.012400  -0.013625  -0.000080
    16  H    0.000027  -0.000007  -0.012400   0.007062   0.003038  -0.000019
    17  H    0.000046  -0.000141  -0.013625   0.003038   0.008887   0.000019
    18  O   -0.000001   0.000000  -0.000080  -0.000019   0.000019   0.023430
    19  H   -0.000005  -0.000000  -0.000012   0.000006   0.000003  -0.008074
    20  H    0.000000  -0.000000   0.000011   0.000041  -0.000011  -0.007605
              19         20
     1  P   -0.003190  -0.005370
     2  O   -0.002046  -0.001338
     3  O   -0.001220  -0.000106
     4  H    0.000423   0.000599
     5  O    0.000395   0.000815
     6  H    0.000002  -0.000117
     7  O   -0.000126  -0.000139
     8  H    0.000016   0.000013
     9  O   -0.000001   0.000001
    10  H    0.000000  -0.000000
    11  H    0.000000  -0.000000
    12  O    0.000005   0.000002
    13  H   -0.000005   0.000000
    14  H   -0.000000  -0.000000
    15  O   -0.000012   0.000011
    16  H    0.000006   0.000041
    17  H    0.000003  -0.000011
    18  O   -0.008074  -0.007605
    19  H    0.004656   0.002086
    20  H    0.002086   0.004345
 Mulliken charges:
               1
     1  P    1.150006
     2  O   -0.582570
     3  O   -0.562414
     4  H    0.400940
     5  O   -0.569168
     6  H    0.394741
     7  O   -0.464986
     8  H    0.302519
     9  O   -0.001536
    10  H    0.000470
    11  H   -0.000315
    12  O   -0.005431
    13  H   -0.004229
    14  H    0.001010
    15  O   -0.038914
    16  H    0.008565
    17  H    0.003437
    18  O   -0.045980
    19  H    0.007082
    20  H    0.006772
 Sum of Mulliken charges =  -0.00000
 Mulliken charges with hydrogens summed into heavy atoms:
               1
     1  P    1.150006
     2  O   -0.582570
     3  O   -0.161474
     5  O   -0.174427
     7  O   -0.162467
     9  O   -0.001381
    12  O   -0.008649
    15  O   -0.026913
    18  O   -0.032125
         Mulliken charges condensed to fragments:
      1      0.069068
      2     -0.001381
      3     -0.008649
      4     -0.026913
      5     -0.032125
 Electronic spatial extent (au):  <R**2>=          55714.3742
 Charge=             -0.0000 electrons
 Dipole moment (field-independent basis, Debye):
    X=              2.9666    Y=             -2.2477    Z=             -0.5431  Tot=              3.7614
 Quadrupole moment (field-independent basis, Debye-Ang):
   XX=              5.7357   YY=            -74.6790   ZZ=            -44.5124
   XY=             14.5658   XZ=             34.5314   YZ=            -34.7938
 Traceless Quadrupole moment (field-independent basis, Debye-Ang):
   XX=             43.5543   YY=            -36.8604   ZZ=             -6.6939
   XY=             14.5658   XZ=             34.5314   YZ=            -34.7938
 Octapole moment (field-independent basis, Debye-Ang**2):
  XXX=           -381.4023  YYY=          -1521.4481  ZZZ=          -1436.4053  XYY=           -235.5381
  XXY=            -11.3661  XXZ=             54.5278  XZZ=            157.3591  YZZ=           -823.3566
  YYZ=          -1014.7523  XYZ=            142.4874
 Hexadecapole moment (field-independent basis, Debye-Ang**3):
 XXXX=          -8540.3168 YYYY=         -25234.4578 ZZZZ=         -34471.9742 XXXY=          -3739.4549
 XXXZ=          -4959.2205 YYYX=          -8119.6501 YYYZ=         -19990.9207 ZZZX=          -4658.4924
 ZZZY=         -19168.6771 XXYY=          -2651.3318 XXZZ=          -1490.5448 YYZZ=         -16729.7886
 XXYZ=           -450.9567 YYXZ=          -3485.6474 ZZXY=          -1099.6490
 N-N= 2.802493789197D+02 E-N=-2.088240856774D+03  KE= 6.425249660663D+02
 No NMR shielding tensors so no spin-rotation constants.
 Leave Link  601 at Fri Feb 17 21:44:03 2023, MaxMem=  6710886400 cpu:               2.5 elap:               0.1
 (Enter /data0/home/software/g16/l122.exe)
 CPIOFr:  IOpCl= 0 IRwI=-1 IRwCP=  731 ICalc=  1 LCPTot=      156386 Len1MO=      408861 IndFrg=      974108
 Counterpoise: doing calculation for fragment   2 using the basis set of the full-system, NewBq=T
 Leave Link  122 at Fri Feb 17 21:44:03 2023, MaxMem=  6710886400 cpu:               0.1 elap:               0.0
 (Enter /data0/home/software/g16/l301.exe)
 Basis read from rwf:  (5D, 7F)
 No pseudopotential information found on rwf file.
   317 basis functions,   480 primitive gaussians,   335 cartesian basis functions
     5 alpha electrons        5 beta electrons
       nuclear repulsion energy         9.0597579287 Hartrees.
 IExCor= 4336 DFT=T Ex+Corr=M062X ExCW=0 ScaHFX=  0.540000
 ScaDFX=  1.000000  1.000000  1.000000  1.000000 ScalE2=  1.000000  1.000000
 IRadAn=      5 IRanWt=     -1 IRanGd=            0 ICorTp=0 IEmpDi=131
 NAtoms=   20 NActive=   20 NUniq=   20 SFac= 1.00D+00 NAtFMM=   60 NAOKFM=F Big=F
 Integral buffers will be    131072 words long.
 Raffenetti 2 integral format.
 Two-electron integral symmetry is turned off.
 R6Disp:  Grimme-D3 Dispersion energy=       -0.0000000085 Hartrees.
 Nuclear repulsion after empirical dispersion term =        9.0597579202 Hartrees.
 No density basis found on file   718.
 Leave Link  301 at Fri Feb 17 21:44:03 2023, MaxMem=  6710886400 cpu:               1.3 elap:               0.1
 (Enter /data0/home/software/g16/l302.exe)
 NPDir=0 NMtPBC=     1 NCelOv=     1 NCel=       1 NClECP=     1 NCelD=      1
         NCelK=      1 NCelE2=     1 NClLst=     1 CellRange=     0.0.
 One-electron integrals computed using PRISM.
 NBasis=   317 RedAO= T EigKep=  3.06D-04  NBF=   317
 NBsUse=   317 1.00D-06 EigRej= -1.00D+00 NBFU=   317
 Precomputing XC quadrature grid using
 IXCGrd= 4 IRadAn=           5 IRanWt=          -1 IRanGd=           0 AccXCQ= 0.00D+00.
 Generated NRdTot=       0 NPtTot=           0 NUsed=           0 NTot=          32
 NSgBfM=   334   334   334   334   334 MxSgAt=    20 MxSgA2=    20.
 Leave Link  302 at Fri Feb 17 21:44:03 2023, MaxMem=  6710886400 cpu:               5.2 elap:               0.2
 (Enter /data0/home/software/g16/l303.exe)
 DipDrv:  MaxL=1.
 Leave Link  303 at Fri Feb 17 21:44:03 2023, MaxMem=  6710886400 cpu:               0.7 elap:               0.1
 (Enter /data0/home/software/g16/l401.exe)
 ExpMin= 3.48D-02 ExpMax= 7.75D+04 ExpMxC= 2.65D+03 IAcc=3 IRadAn=         5 AccDes= 0.00D+00
 Harris functional with IExCor= 1009 and IRadAn=       5 diagonalized for initial guess.
 HarFok:  IExCor= 1009 AccDes= 0.00D+00 IRadAn=         5 IDoV= 1 UseB2=F ITyADJ=14
 ICtDFT=  3500011 ScaDFX=  1.000000  1.000000  1.000000  1.000000
 FoFCou: FMM=F IPFlag=           0 FMFlag=      100000 FMFlg1=           0
         NFxFlg=           0 DoJE=T BraDBF=F KetDBF=T FulRan=T
         wScrn=  0.000000 ICntrl=       500 IOpCl=  0 I1Cent=   200000004 NGrid=           0
         NMat0=    1 NMatS0=      1 NMatT0=    0 NMatD0=    1 NMtDS0=    0 NMtDT0=    0
 Symmetry not used in FoFCou.
 Harris En= -76.4166205998976    
 JPrj=0 DoOrth=F DoCkMO=F.
 Leave Link  401 at Fri Feb 17 21:44:04 2023, MaxMem=  6710886400 cpu:              15.7 elap:               0.7
 (Enter /data0/home/software/g16/l502.exe)
 Two-electron integral symmetry not used.
 Closed shell SCF:
 Using DIIS extrapolation, IDIIS=  1040.
 NGot=  6710886400 LenX=  6710651443 LenY=  6710538777
 Requested convergence on RMS density matrix=1.00D-08 within 128 cycles.
 Requested convergence on MAX density matrix=1.00D-06.
 Requested convergence on             energy=1.00D-06.
 No special actions if energy rises.
 Fock matrices will be formed incrementally for  20 cycles.

 Cycle   1  Pass 1  IDiag  1:
 FoFJK:  IHMeth= 1 ICntrl=       0 DoSepK=F KAlg= 0 I1Cent=           0 FoldK=F
 IRaf= 860000000 NMat=       1 IRICut=       1 DoRegI=T DoRafI=F ISym2E= 0 IDoP0=0 IntGTp=1.
 FoFCou: FMM=F IPFlag=           0 FMFlag=      100000 FMFlg1=           0
         NFxFlg=           0 DoJE=F BraDBF=F KetDBF=F FulRan=T
         wScrn=  0.000000 ICntrl=         0 IOpCl=  0 I1Cent=           0 NGrid=           0
         NMat0=    1 NMatS0=      1 NMatT0=    0 NMatD0=    1 NMtDS0=    0 NMtDT0=    0
 Symmetry not used in FoFCou.
 E= -76.3469459648864    
 DIIS: error= 1.87D-02 at cycle   1 NSaved=   1.
 NSaved= 1 IEnMin= 1 EnMin= -76.3469459648864     IErMin= 1 ErrMin= 1.87D-02
 ErrMax= 1.87D-02  0.00D+00 EMaxC= 1.00D-01 BMatC= 1.20D-01 BMatP= 1.20D-01
 IDIUse=3 WtCom= 8.13D-01 WtEn= 1.87D-01
 Coeff-Com:  0.100D+01
 Coeff-En:   0.100D+01
 Coeff:      0.100D+01
 Gap=     0.280 Goal=   None    Shift=    0.000
 GapD=    0.280 DampG=1.000 DampE=0.500 DampFc=0.5000 IDamp=-1.
 Damping current iteration by 5.00D-01
 RMSDP=2.00D-03 MaxDP=9.92D-02              OVMax= 1.73D-01

 Cycle   2  Pass 1  IDiag  1:
 RMSU=  1.00D-03    CP:  1.00D+00
 E= -76.3777274336360     Delta-E=       -0.030781468750 Rises=F Damp=T
 DIIS: error= 4.01D-03 at cycle   2 NSaved=   2.
 NSaved= 2 IEnMin= 2 EnMin= -76.3777274336360     IErMin= 2 ErrMin= 4.01D-03
 ErrMax= 4.01D-03  0.00D+00 EMaxC= 1.00D-01 BMatC= 5.08D-03 BMatP= 1.20D-01
 IDIUse=3 WtCom= 9.60D-01 WtEn= 4.01D-02
 Coeff-Com:  0.888D-01 0.911D+00
 Coeff-En:   0.200D+00 0.800D+00
 Coeff:      0.932D-01 0.907D+00
 Gap=     0.403 Goal=   None    Shift=    0.000
 RMSDP=3.29D-04 MaxDP=2.09D-02 DE=-3.08D-02 OVMax= 1.05D-01

 Cycle   3  Pass 1  IDiag  1:
 RMSU=  2.17D-04    CP:  1.00D+00  7.52D-01
 E= -76.4220743134794     Delta-E=       -0.044346879843 Rises=F Damp=F
 DIIS: error= 7.32D-04 at cycle   3 NSaved=   3.
 NSaved= 3 IEnMin= 3 EnMin= -76.4220743134794     IErMin= 3 ErrMin= 7.32D-04
 ErrMax= 7.32D-04  0.00D+00 EMaxC= 1.00D-01 BMatC= 1.74D-04 BMatP= 5.08D-03
 IDIUse=3 WtCom= 9.93D-01 WtEn= 7.32D-03
 Coeff-Com: -0.296D-01 0.557D-01 0.974D+00
 Coeff-En:   0.000D+00 0.000D+00 0.100D+01
 Coeff:     -0.294D-01 0.553D-01 0.974D+00
 Gap=     0.405 Goal=   None    Shift=    0.000
 RMSDP=2.42D-05 MaxDP=1.43D-03 DE=-4.43D-02 OVMax= 4.09D-03

 Cycle   4  Pass 1  IDiag  1:
 RMSU=  1.90D-05    CP:  1.00D+00  7.58D-01  1.05D+00
 E= -76.4222113049466     Delta-E=       -0.000136991467 Rises=F Damp=F
 DIIS: error= 1.05D-04 at cycle   4 NSaved=   4.
 NSaved= 4 IEnMin= 4 EnMin= -76.4222113049466     IErMin= 4 ErrMin= 1.05D-04
 ErrMax= 1.05D-04  0.00D+00 EMaxC= 1.00D-01 BMatC= 2.76D-06 BMatP= 1.74D-04
 IDIUse=3 WtCom= 9.99D-01 WtEn= 1.05D-03
 Coeff-Com: -0.359D-02 0.140D-02 0.150D+00 0.852D+00
 Coeff-En:   0.000D+00 0.000D+00 0.000D+00 0.100D+01
 Coeff:     -0.358D-02 0.139D-02 0.150D+00 0.852D+00
 Gap=     0.406 Goal=   None    Shift=    0.000
 RMSDP=5.32D-06 MaxDP=3.09D-04 DE=-1.37D-04 OVMax= 5.11D-04

 Cycle   5  Pass 1  IDiag  1:
 RMSU=  2.80D-06    CP:  1.00D+00  7.55D-01  1.06D+00  1.08D+00
 E= -76.4222130721198     Delta-E=       -0.000001767173 Rises=F Damp=F
 DIIS: error= 2.03D-05 at cycle   5 NSaved=   5.
 NSaved= 5 IEnMin= 5 EnMin= -76.4222130721198     IErMin= 5 ErrMin= 2.03D-05
 ErrMax= 2.03D-05  0.00D+00 EMaxC= 1.00D-01 BMatC= 7.89D-08 BMatP= 2.76D-06
 IDIUse=1 WtCom= 1.00D+00 WtEn= 0.00D+00
 Coeff-Com:  0.155D-02-0.244D-02-0.371D-01-0.571D-01 0.110D+01
 Coeff:      0.155D-02-0.244D-02-0.371D-01-0.571D-01 0.110D+01
 Gap=     0.406 Goal=   None    Shift=    0.000
 RMSDP=4.21D-06 MaxDP=1.94D-04 DE=-1.77D-06 OVMax= 2.20D-04

 Cycle   6  Pass 1  IDiag  1:
 RMSU=  8.49D-07    CP:  1.00D+00  7.51D-01  1.07D+00  1.17D+00  1.30D+00
 E= -76.4222132138286     Delta-E=       -0.000000141709 Rises=F Damp=F
 DIIS: error= 2.02D-06 at cycle   6 NSaved=   6.
 NSaved= 6 IEnMin= 6 EnMin= -76.4222132138286     IErMin= 6 ErrMin= 2.02D-06
 ErrMax= 2.02D-06  0.00D+00 EMaxC= 1.00D-01 BMatC= 1.80D-09 BMatP= 7.89D-08
 IDIUse=1 WtCom= 1.00D+00 WtEn= 0.00D+00
 Coeff-Com: -0.265D-03 0.372D-03 0.344D-02-0.584D-02-0.148D+00 0.115D+01
 Coeff:     -0.265D-03 0.372D-03 0.344D-02-0.584D-02-0.148D+00 0.115D+01
 Gap=     0.406 Goal=   None    Shift=    0.000
 RMSDP=5.65D-07 MaxDP=2.65D-05 DE=-1.42D-07 OVMax= 4.01D-05

 Cycle   7  Pass 1  IDiag  1:
 RMSU=  1.09D-07    CP:  1.00D+00  7.51D-01  1.07D+00  1.18D+00  1.37D+00
                    CP:  1.23D+00
 E= -76.4222132175564     Delta-E=       -0.000000003728 Rises=F Damp=F
 DIIS: error= 3.56D-07 at cycle   7 NSaved=   7.
 NSaved= 7 IEnMin= 7 EnMin= -76.4222132175564     IErMin= 7 ErrMin= 3.56D-07
 ErrMax= 3.56D-07  0.00D+00 EMaxC= 1.00D-01 BMatC= 3.74D-11 BMatP= 1.80D-09
 IDIUse=1 WtCom= 1.00D+00 WtEn= 0.00D+00
 Coeff-Com: -0.221D-04 0.480D-04 0.427D-03 0.118D-02-0.252D-01 0.282D-01
 Coeff-Com:  0.995D+00
 Coeff:     -0.221D-04 0.480D-04 0.427D-03 0.118D-02-0.252D-01 0.282D-01
 Coeff:      0.995D+00
 Gap=     0.406 Goal=   None    Shift=    0.000
 RMSDP=7.36D-08 MaxDP=3.09D-06 DE=-3.73D-09 OVMax= 5.37D-06

 Cycle   8  Pass 1  IDiag  1:
 RMSU=  1.93D-08    CP:  1.00D+00  7.51D-01  1.07D+00  1.18D+00  1.38D+00
                    CP:  1.26D+00  1.11D+00
 E= -76.4222132176240     Delta-E=       -0.000000000068 Rises=F Damp=F
 DIIS: error= 1.20D-07 at cycle   8 NSaved=   8.
 NSaved= 8 IEnMin= 8 EnMin= -76.4222132176240     IErMin= 8 ErrMin= 1.20D-07
 ErrMax= 1.20D-07  0.00D+00 EMaxC= 1.00D-01 BMatC= 2.54D-12 BMatP= 3.74D-11
 IDIUse=1 WtCom= 1.00D+00 WtEn= 0.00D+00
 Coeff-Com:  0.140D-04-0.164D-04-0.155D-03 0.580D-03 0.481D-02-0.568D-01
 Coeff-Com:  0.117D+00 0.934D+00
 Coeff:      0.140D-04-0.164D-04-0.155D-03 0.580D-03 0.481D-02-0.568D-01
 Coeff:      0.117D+00 0.934D+00
 Gap=     0.406 Goal=   None    Shift=    0.000
 RMSDP=1.18D-08 MaxDP=5.91D-07 DE=-6.76D-11 OVMax= 1.05D-06

 Cycle   9  Pass 1  IDiag  1:
 RMSU=  3.91D-09    CP:  1.00D+00  7.51D-01  1.07D+00  1.18D+00  1.38D+00
                    CP:  1.27D+00  1.16D+00  1.00D+00
 E= -76.4222132176256     Delta-E=       -0.000000000002 Rises=F Damp=F
 DIIS: error= 1.52D-08 at cycle   9 NSaved=   9.
 NSaved= 9 IEnMin= 9 EnMin= -76.4222132176256     IErMin= 9 ErrMin= 1.52D-08
 ErrMax= 1.52D-08  0.00D+00 EMaxC= 1.00D-01 BMatC= 5.03D-14 BMatP= 2.54D-12
 IDIUse=1 WtCom= 1.00D+00 WtEn= 0.00D+00
 Coeff-Com: -0.905D-06-0.102D-06 0.187D-04-0.489D-04 0.785D-04 0.436D-02
 Coeff-Com: -0.368D-01-0.822D-01 0.111D+01
 Coeff:     -0.905D-06-0.102D-06 0.187D-04-0.489D-04 0.785D-04 0.436D-02
 Coeff:     -0.368D-01-0.822D-01 0.111D+01
 Gap=     0.406 Goal=   None    Shift=    0.000
 RMSDP=1.27D-09 MaxDP=5.23D-08 DE=-1.65D-12 OVMax= 1.62D-07

 SCF Done:  E(RM062X) =  -76.4222132176     A.U. after    9 cycles
            NFock=  9  Conv=0.13D-08     -V/T= 2.0033
 KE= 7.616980359076D+01 PE=-1.989554840723D+02 EE= 3.730370934375D+01
 Leave Link  502 at Fri Feb 17 21:44:18 2023, MaxMem=  6710886400 cpu:             339.2 elap:              14.2
 (Enter /data0/home/software/g16/l601.exe)
 Copying SCF densities to generalized density rwf, IOpCl= 0 IROHF=0.

 **********************************************************************

            Population analysis using the SCF density.

 **********************************************************************

 Alpha  occ. eigenvalues --  -19.62704  -1.13079  -0.60777  -0.47277  -0.39961
 Alpha virt. eigenvalues --    0.00621   0.03879   0.05347   0.05454   0.07796
 Alpha virt. eigenvalues --    0.09696   0.11176   0.12157   0.12856   0.14561
 Alpha virt. eigenvalues --    0.15011   0.16091   0.16981   0.17340   0.18557
 Alpha virt. eigenvalues --    0.18883   0.19251   0.20099   0.21054   0.21949
 Alpha virt. eigenvalues --    0.22473   0.23378   0.24219   0.24459   0.25515
 Alpha virt. eigenvalues --    0.27189   0.27888   0.28590   0.29266   0.30403
 Alpha virt. eigenvalues --    0.31032   0.32532   0.33070   0.33736   0.34366
 Alpha virt. eigenvalues --    0.35225   0.36719   0.37233   0.38092   0.39066
 Alpha virt. eigenvalues --    0.39830   0.40062   0.41640   0.42464   0.43732
 Alpha virt. eigenvalues --    0.45126   0.46149   0.47990   0.48627   0.51427
 Alpha virt. eigenvalues --    0.54220   0.54899   0.61667   0.62783   0.65827
 Alpha virt. eigenvalues --    0.70048   0.72388   0.73670   0.75912   0.75957
 Alpha virt. eigenvalues --    0.77432   0.78115   0.78591   0.79873   0.80705
 Alpha virt. eigenvalues --    0.81180   0.82746   0.84890   0.85681   0.86278
 Alpha virt. eigenvalues --    0.88531   0.89336   0.90969   0.92811   0.93556
 Alpha virt. eigenvalues --    0.94572   0.96106   0.98064   0.99286   0.99777
 Alpha virt. eigenvalues --    1.01783   1.03339   1.05631   1.06664   1.07372
 Alpha virt. eigenvalues --    1.09157   1.12271   1.12907   1.13504   1.15769
 Alpha virt. eigenvalues --    1.17857   1.19753   1.21857   1.24408   1.25481
 Alpha virt. eigenvalues --    1.27422   1.28602   1.30766   1.33505   1.34522
 Alpha virt. eigenvalues --    1.39942   1.46001   1.50507   1.53205   1.58091
 Alpha virt. eigenvalues --    1.58816   1.67435   1.74181   1.77245   1.78307
 Alpha virt. eigenvalues --    1.79472   1.83642   1.84408   1.88021   1.91925
 Alpha virt. eigenvalues --    1.95256   1.98813   2.00349   2.03034   2.05177
[...]
 Alpha virt. eigenvalues --    0.23232   0.51539   0.53353   0.97849   1.00152
 Alpha virt. eigenvalues --    1.06049   1.18806   1.19892   1.32570   1.33759
 Alpha virt. eigenvalues --    1.69605   1.74205   1.75899   2.08398   2.08934
 Alpha virt. eigenvalues --    2.35290   2.42581   2.54387   2.88958   3.01261
 Alpha virt. eigenvalues --    5.05703   5.48017   5.93636   6.78228   6.80296
 Alpha virt. eigenvalues --    6.87014   6.91523   7.09424  49.96066
          Condensed to atoms (all electrons):
              15         16         17
    15  O    7.913582   0.322411   0.321375
    16  H    0.322411   0.424042  -0.024667
    17  H    0.321375  -0.024667   0.424137
 Mulliken charges:
               1
     1  P    0.000000
     2  O    0.000000
     3  O    0.000000
     4  H    0.000000
     5  O    0.000000
     6  H    0.000000
     7  O    0.000000
     8  H    0.000000
     9  O    0.000000
    10  H    0.000000
    11  H    0.000000
    12  O    0.000000
    13  H    0.000000
    14  H    0.000000
    15  O   -0.557368
    16  H    0.278214
    17  H    0.279154
    18  O    0.000000
    19  H    0.000000
    20  H    0.000000
 Sum of Mulliken charges =  -0.00000
 Mulliken charges with hydrogens summed into heavy atoms:
               1
     1  P    0.000000
     2  O    0.000000
     3  O    0.000000
     5  O    0.000000
     7  O    0.000000
     9  O    0.000000
    12  O    0.000000
    15  O   -0.000000
    18  O    0.000000
         Mulliken charges condensed to fragments:
      1      0.000000
      2      0.000000
      3      0.000000
      4     -0.000000
      5      0.000000
 Electronic spatial extent (au):  <R**2>=           6855.8112
 Charge=             -0.0000 electrons
 Dipole moment (field-independent basis, Debye):
    X=             -1.7006    Y=             -0.7639    Z=              0.9826  Tot=              2.1074
 Quadrupole moment (field-independent basis, Debye-Ang):
   XX=            -27.1858   YY=            -16.5243   ZZ=             12.2903
   XY=            -18.2596   XZ=            -10.7907   YZ=             -1.3256
 Traceless Quadrupole moment (field-independent basis, Debye-Ang):
   XX=            -16.7125   YY=             -6.0510   ZZ=             22.7635
   XY=            -18.2596   XZ=            -10.7907   YZ=             -1.3256
 Octapole moment (field-independent basis, Debye-Ang**2):
  XXX=           -312.1286  YYY=           -241.3497  ZZZ=             76.2679  XYY=           -210.1453
  XXY=           -241.4309  XXZ=           -231.9225  XZZ=            -92.0226  YZZ=             -4.3063
  YYZ=           -124.4038  XYZ=           -142.5533
 Hexadecapole moment (field-independent basis, Debye-Ang**3):
 XXXX=          -3099.2729 YYYY=          -2959.4550 ZZZZ=           -400.8308 XXXY=          -2586.3850
 XXXZ=          -2860.8525 YYYX=          -2354.6726 YYYZ=          -2146.3747 ZZZX=          -1209.3448
 ZZZY=           -478.1632 XXYY=          -2295.8975 XXZZ=          -2213.3426 YYZZ=          -1236.8005
 XXYZ=          -2155.7969 YYXZ=          -1841.5562 ZZXY=          -1365.6315
 N-N= 9.123902354324D+00 E-N=-1.991029875127D+02  KE= 7.620288341124D+01
 No NMR shielding tensors so no spin-rotation constants.
 Leave Link  601 at Fri Feb 17 21:45:11 2023, MaxMem=  6710886400 cpu:               1.7 elap:               0.1
 (Enter /data0/home/software/g16/l122.exe)
 CPIOFr:  IOpCl= 0 IRwI=-1 IRwCP=  731 ICalc=  9 LCPTot=      156386 Len1MO=      408861 IndFrg=     4244996
 Counterpoise: doing calculation for fragment   5 using the basis set of the fragment.
 Leave Link  122 at Fri Feb 17 21:45:11 2023, MaxMem=  6710886400 cpu:               0.1 elap:               0.0
 (Enter /data0/home/software/g16/l301.exe)
 Basis read from rwf:  (5D, 7F)
 No pseudopotential information found on rwf file.
    39 basis functions,    58 primitive gaussians,    41 cartesian basis functions
     5 alpha electrons        5 beta electrons
       nuclear repulsion energy         9.0304996962 Hartrees.
 IExCor= 4336 DFT=T Ex+Corr=M062X ExCW=0 ScaHFX=  0.540000
 ScaDFX=  1.000000  1.000000  1.000000  1.000000 ScalE2=  1.000000  1.000000
 IRadAn=      5 IRanWt=     -1 IRanGd=            0 ICorTp=0 IEmpDi=131
 NAtoms=   20 NActive=    3 NUniq=    3 SFac= 1.00D+00 NAtFMM=   60 NAOKFM=F Big=F
 Integral buffers will be    131072 words long.
 Raffenetti 2 integral format.
 Two-electron integral symmetry is turned off.
 R6Disp:  Grimme-D3 Dispersion energy=       -0.0000000077 Hartrees.
 Nuclear repulsion after empirical dispersion term =        9.0304996885 Hartrees.
 No density basis found on file   718.
 Leave Link  301 at Fri Feb 17 21:45:12 2023, MaxMem=  6710886400 cpu:               1.3 elap:               0.1
 (Enter /data0/home/software/g16/l302.exe)
 NPDir=0 NMtPBC=     1 NCelOv=     1 NCel=       1 NClECP=     1 NCelD=      1
         NCelK=      1 NCelE2=     1 NClLst=     1 CellRange=     0.0.
 One-electron integrals computed using PRISM.
 NBasis=    39 RedAO= T EigKep=  3.08D-03  NBF=    39
 NBsUse=    39 1.00D-06 EigRej= -1.00D+00 NBFU=    39
 Precomputing XC quadrature grid using
 IXCGrd= 4 IRadAn=           5 IRanWt=          -1 IRanGd=           0 AccXCQ= 0.00D+00.
 Generated NRdTot=       0 NPtTot=           0 NUsed=           0 NTot=          32
 NSgBfM=    41    41    41    41    41 MxSgAt=     3 MxSgA2=     3.
 Leave Link  302 at Fri Feb 17 21:45:12 2023, MaxMem=  6710886400 cpu:               2.3 elap:               0.1
 (Enter /data0/home/software/g16/l303.exe)
 DipDrv:  MaxL=1.
 Leave Link  303 at Fri Feb 17 21:45:12 2023, MaxMem=  6710886400 cpu:               0.4 elap:               0.0
 (Enter /data0/home/software/g16/l401.exe)
 ExpMin= 8.45D-02 ExpMax= 8.59D+03 ExpMxC= 1.30D+03 IAcc=3 IRadAn=         5 AccDes= 0.00D+00
 Harris functional with IExCor= 1009 and IRadAn=       5 diagonalized for initial guess.
 HarFok:  IExCor= 1009 AccDes= 0.00D+00 IRadAn=         5 IDoV= 1 UseB2=F ITyADJ=14
 ICtDFT=  3500011 ScaDFX=  1.000000  1.000000  1.000000  1.000000
 FoFCou: FMM=F IPFlag=           0 FMFlag=      100000 FMFlg1=           0
         NFxFlg=           0 DoJE=T BraDBF=F KetDBF=T FulRan=T
         wScrn=  0.000000 ICntrl=       500 IOpCl=  0 I1Cent=   200000004 NGrid=           0
         NMat0=    1 NMatS0=      1 NMatT0=    0 NMatD0=    1 NMtDS0=    0 NMtDT0=    0
 Symmetry not used in FoFCou.
 Harris En= -76.4151777742186    
 JPrj=0 DoOrth=F DoCkMO=F.
 Leave Link  401 at Fri Feb 17 21:45:12 2023, MaxMem=  6710886400 cpu:               2.9 elap:               0.1
 (Enter /data0/home/software/g16/l502.exe)
 Keep R1 ints in memory in canonical form, NReq=21039229.
 FoFCou: FMM=F IPFlag=           0 FMFlag=           0 FMFlg1=           0
         NFxFlg=           0 DoJE=F BraDBF=F KetDBF=F FulRan=T
         wScrn=  0.000000 ICntrl=       600 IOpCl=  0 I1Cent=           0 NGrid=           0
         NMat0=    1 NMatS0=    780 NMatT0=    0 NMatD0=    1 NMtDS0=    0 NMtDT0=    0
 Symmetry not used in FoFCou.
 Two-electron integral symmetry not used.
 Closed shell SCF:
 Using DIIS extrapolation, IDIIS=  1040.
 NGot=  6710886400 LenX=  6710576467 LenY=  6710574345
 Requested convergence on RMS density matrix=1.00D-08 within 128 cycles.
 Requested convergence on MAX density matrix=1.00D-06.
 Requested convergence on             energy=1.00D-06.
 No special actions if energy rises.
 Integral accuracy reduced to 1.0D-05 until final iterations.

 Cycle   1  Pass 0  IDiag  1:
 E= -76.3463129084756    
 DIIS: error= 6.92D-02 at cycle   1 NSaved=   1.
 NSaved= 1 IEnMin= 1 EnMin= -76.3463129084756     IErMin= 1 ErrMin= 6.92D-02
 ErrMax= 6.92D-02  0.00D+00 EMaxC= 1.00D-01 BMatC= 1.19D-01 BMatP= 1.19D-01
 IDIUse=3 WtCom= 3.08D-01 WtEn= 6.92D-01
 Coeff-Com:  0.100D+01
 Coeff-En:   0.100D+01
 Coeff:      0.100D+01
 Gap=     0.323 Goal=   None    Shift=    0.000
 GapD=    0.323 DampG=1.000 DampE=0.500 DampFc=0.5000 IDamp=-1.
 Damping current iteration by 5.00D-01
 RMSDP=7.98D-03 MaxDP=9.97D-02              OVMax= 1.67D-01

 Cycle   2  Pass 0  IDiag  1:
 E= -76.3771251846641     Delta-E=       -0.030812276189 Rises=F Damp=T
 DIIS: error= 1.09D-02 at cycle   2 NSaved=   2.
 NSaved= 2 IEnMin= 2 EnMin= -76.3771251846641     IErMin= 2 ErrMin= 1.09D-02
 ErrMax= 1.09D-02  0.00D+00 EMaxC= 1.00D-01 BMatC= 4.95D-03 BMatP= 1.19D-01
 IDIUse=3 WtCom= 8.91D-01 WtEn= 1.09D-01
 Coeff-Com:  0.866D-01 0.913D+00
 Coeff-En:   0.194D+00 0.806D+00
 Coeff:      0.983D-01 0.902D+00
 Gap=     0.455 Goal=   None    Shift=    0.000
 RMSDP=9.66D-04 MaxDP=1.44D-02 DE=-3.08D-02 OVMax= 1.00D-01

 Cycle   3  Pass 0  IDiag  1:
 E= -76.4208458810393     Delta-E=       -0.043720696375 Rises=F Damp=F
 DIIS: error= 2.20D-03 at cycle   3 NSaved=   3.
 NSaved= 3 IEnMin= 3 EnMin= -76.4208458810393     IErMin= 3 ErrMin= 2.20D-03
 ErrMax= 2.20D-03  0.00D+00 EMaxC= 1.00D-01 BMatC= 9.43D-05 BMatP= 4.95D-03
 IDIUse=3 WtCom= 9.78D-01 WtEn= 2.20D-02
 Coeff-Com: -0.201D-01 0.408D-01 0.979D+00
 Coeff-En:   0.000D+00 0.000D+00 0.100D+01
 Coeff:     -0.197D-01 0.399D-01 0.980D+00
 Gap=     0.459 Goal=   None    Shift=    0.000
 RMSDP=1.17D-04 MaxDP=9.57D-04 DE=-4.37D-02 OVMax= 3.39D-03

 Cycle   4  Pass 0  IDiag  1:
 E= -76.4209264161669     Delta-E=       -0.000080535128 Rises=F Damp=F
 DIIS: error= 4.26D-04 at cycle   4 NSaved=   4.
 NSaved= 4 IEnMin= 4 EnMin= -76.4209264161669     IErMin= 4 ErrMin= 4.26D-04
 ErrMax= 4.26D-04  0.00D+00 EMaxC= 1.00D-01 BMatC= 3.45D-06 BMatP= 9.43D-05
 IDIUse=3 WtCom= 9.96D-01 WtEn= 4.26D-03
 Coeff-Com: -0.203D-02-0.220D-02 0.165D+00 0.840D+00
 Coeff-En:   0.000D+00 0.000D+00 0.000D+00 0.100D+01
 Coeff:     -0.203D-02-0.219D-02 0.164D+00 0.840D+00
 Gap=     0.460 Goal=   None    Shift=    0.000
 RMSDP=2.26D-05 MaxDP=3.60D-04 DE=-8.05D-05 OVMax= 5.54D-04

 Cycle   5  Pass 0  IDiag  1:
 E= -76.4209285580152     Delta-E=       -0.000002141848 Rises=F Damp=F
 DIIS: error= 9.26D-05 at cycle   5 NSaved=   5.
 NSaved= 5 IEnMin= 5 EnMin= -76.4209285580152     IErMin= 5 ErrMin= 9.26D-05
 ErrMax= 9.26D-05  0.00D+00 EMaxC= 1.00D-01 BMatC= 8.80D-08 BMatP= 3.45D-06
 IDIUse=1 WtCom= 1.00D+00 WtEn= 0.00D+00
 Coeff-Com:  0.122D-02-0.186D-02-0.376D-01-0.689D-01 0.111D+01
 Coeff:      0.122D-02-0.186D-02-0.376D-01-0.689D-01 0.111D+01
 Gap=     0.460 Goal=   None    Shift=    0.000
 RMSDP=9.30D-06 MaxDP=1.04D-04 DE=-2.14D-06 OVMax= 2.13D-04

 Initial convergence to 1.0D-05 achieved.  Increase integral accuracy.
 Cycle   6  Pass 1  IDiag  1:
 E= -76.4209327696010     Delta-E=       -0.000004211586 Rises=F Damp=F
 DIIS: error= 1.86D-05 at cycle   1 NSaved=   1.
 NSaved= 1 IEnMin= 1 EnMin= -76.4209327696010     IErMin= 1 ErrMin= 1.86D-05
 ErrMax= 1.86D-05  0.00D+00 EMaxC= 1.00D-01 BMatC= 1.35D-08 BMatP= 1.35D-08
 IDIUse=1 WtCom= 1.00D+00 WtEn= 0.00D+00
 Coeff-Com:  0.100D+01
 Coeff:      0.100D+01
 Gap=     0.460 Goal=   None    Shift=    0.000
 RMSDP=9.30D-06 MaxDP=1.04D-04 DE=-4.21D-06 OVMax= 3.72D-05

 Cycle   7  Pass 1  IDiag  1:
 E= -76.4209327807462     Delta-E=       -0.000000011145 Rises=F Damp=F
 DIIS: error= 1.04D-05 at cycle   2 NSaved=   2.
 NSaved= 2 IEnMin= 2 EnMin= -76.4209327807462     IErMin= 2 ErrMin= 1.04D-05
 ErrMax= 1.04D-05  0.00D+00 EMaxC= 1.00D-01 BMatC= 1.53D-09 BMatP= 1.35D-08
 IDIUse=1 WtCom= 1.00D+00 WtEn= 0.00D+00
 Coeff-Com:  0.113D+00 0.887D+00
 Coeff:      0.113D+00 0.887D+00
 Gap=     0.460 Goal=   None    Shift=    0.000
 RMSDP=8.36D-07 MaxDP=1.16D-05 DE=-1.11D-08 OVMax= 2.13D-05

 Cycle   8  Pass 1  IDiag  1:
 E= -76.4209327811286     Delta-E=       -0.000000000382 Rises=F Damp=F
 DIIS: error= 6.69D-06 at cycle   3 NSaved=   3.
 NSaved= 3 IEnMin= 3 EnMin= -76.4209327811286     IErMin= 3 ErrMin= 6.69D-06
 ErrMax= 6.69D-06  0.00D+00 EMaxC= 1.00D-01 BMatC= 1.22D-09 BMatP= 1.53D-09
 IDIUse=1 WtCom= 1.00D+00 WtEn= 0.00D+00
 Coeff-Com: -0.519D-01 0.478D+00 0.574D+00
 Coeff:     -0.519D-01 0.478D+00 0.574D+00
 Gap=     0.460 Goal=   None    Shift=    0.000
 RMSDP=4.13D-07 MaxDP=5.52D-06 DE=-3.82D-10 OVMax= 9.17D-06

 Cycle   9  Pass 1  IDiag  1:
 E= -76.4209327819358     Delta-E=       -0.000000000807 Rises=F Damp=F
 DIIS: error= 6.86D-07 at cycle   4 NSaved=   4.
 NSaved= 4 IEnMin= 4 EnMin= -76.4209327819358     IErMin= 4 ErrMin= 6.86D-07
 ErrMax= 6.86D-07  0.00D+00 EMaxC= 1.00D-01 BMatC= 5.22D-12 BMatP= 1.22D-09
 IDIUse=1 WtCom= 1.00D+00 WtEn= 0.00D+00
 Coeff-Com: -0.760D-02 0.208D-01 0.597D-01 0.927D+00
 Coeff:     -0.760D-02 0.208D-01 0.597D-01 0.927D+00
 Gap=     0.460 Goal=   None    Shift=    0.000
 RMSDP=6.27D-08 MaxDP=3.91D-07 DE=-8.07D-10 OVMax= 1.37D-06

 Cycle  10  Pass 1  IDiag  1:
 E= -76.4209327819426     Delta-E=       -0.000000000007 Rises=F Damp=F
 DIIS: error= 1.01D-07 at cycle   5 NSaved=   5.
 NSaved= 5 IEnMin= 5 EnMin= -76.4209327819426     IErMin= 5 ErrMin= 1.01D-07
 ErrMax= 1.01D-07  0.00D+00 EMaxC= 1.00D-01 BMatC= 2.31D-13 BMatP= 5.22D-12
 IDIUse=1 WtCom= 1.00D+00 WtEn= 0.00D+00
 Coeff-Com:  0.310D-02-0.341D-01-0.383D-01 0.265D-01 0.104D+01
 Coeff:      0.310D-02-0.341D-01-0.383D-01 0.265D-01 0.104D+01
 Gap=     0.460 Goal=   None    Shift=    0.000
 RMSDP=2.76D-08 MaxDP=1.73D-07 DE=-6.78D-12 OVMax= 4.73D-07

 Cycle  11  Pass 1  IDiag  1:
 E= -76.4209327819432     Delta-E=       -0.000000000001 Rises=F Damp=F
 DIIS: error= 9.31D-09 at cycle   6 NSaved=   6.
 NSaved= 6 IEnMin= 6 EnMin= -76.4209327819432     IErMin= 6 ErrMin= 9.31D-09
 ErrMax= 9.31D-09  0.00D+00 EMaxC= 1.00D-01 BMatC= 3.29D-15 BMatP= 2.31D-13
 IDIUse=1 WtCom= 1.00D+00 WtEn= 0.00D+00
 Coeff-Com: -0.168D-05 0.141D-02 0.417D-03-0.183D-01-0.613D-01 0.108D+01
 Coeff:     -0.168D-05 0.141D-02 0.417D-03-0.183D-01-0.613D-01 0.108D+01
 Gap=     0.460 Goal=   None    Shift=    0.000
 RMSDP=3.24D-09 MaxDP=2.05D-08 DE=-6.39D-13 OVMax= 6.12D-08

 SCF Done:  E(RM062X) =  -76.4209327819     A.U. after   11 cycles
            NFock= 11  Conv=0.32D-08     -V/T= 2.0033
 KE= 7.616991373021D+01 PE=-1.988988638702D+02 EE= 3.727751766952D+01
 Leave Link  502 at Fri Feb 17 21:45:12 2023, MaxMem=  6710886400 cpu:               8.8 elap:               0.4
 (Enter /data0/home/software/g16/l601.exe)
 Copying SCF densities to generalized density rwf, IOpCl= 0 IROHF=0.

 **********************************************************************

            Population analysis using the SCF density.

 **********************************************************************

 Alpha  occ. eigenvalues --  -19.62787  -1.13092  -0.60137  -0.47666  -0.39950
 Alpha virt. eigenvalues --    0.06051   0.13194   0.17445   0.17949   0.18899
 Alpha virt. eigenvalues --    0.23471   0.49914   0.53430   0.98188   1.00498
 Alpha virt. eigenvalues --    1.05981   1.17379   1.20012   1.31782   1.34351
 Alpha virt. eigenvalues --    1.70097   1.73724   1.75128   2.06133   2.09796
 Alpha virt. eigenvalues --    2.36160   2.38621   2.54720   2.86430   3.00713
 Alpha virt. eigenvalues --    5.05572   5.47649   5.88315   6.78526   6.80044
 Alpha virt. eigenvalues --    6.87410   6.91526   7.09988  49.94933
          Condensed to atoms (all electrons):
              18         19         20
    18  O    7.924436   0.317946   0.311976
    19  H    0.317946   0.430742  -0.023243
    20  H    0.311976  -0.023243   0.431464
 Mulliken charges:
               1
     1  P    0.000000
     2  O    0.000000
     3  O    0.000000
     4  H    0.000000
     5  O    0.000000
     6  H    0.000000
     7  O    0.000000
     8  H    0.000000
     9  O    0.000000
    10  H    0.000000
    11  H    0.000000
    12  O    0.000000
    13  H    0.000000
    14  H    0.000000
    15  O    0.000000
    16  H    0.000000
    17  H    0.000000
    18  O   -0.554358
    19  H    0.274555
    20  H    0.279803
 Sum of Mulliken charges =  -0.00000
 Mulliken charges with hydrogens summed into heavy atoms:
               1
     1  P    0.000000
     2  O    0.000000
     3  O    0.000000
     5  O    0.000000
     7  O    0.000000
     9  O    0.000000
    12  O    0.000000
    15  O    0.000000
    18  O   -0.000000
         Mulliken charges condensed to fragments:
      1      0.000000
      2      0.000000
      3      0.000000
      4      0.000000
      5     -0.000000
 Electronic spatial extent (au):  <R**2>=          11760.1362
 Charge=              0.0000 electrons
 Dipole moment (field-independent basis, Debye):
    X=             -2.0684    Y=             -0.5025    Z=             -0.2700  Tot=              2.1456
 Quadrupole moment (field-independent basis, Debye-Ang):
   XX=            -36.8218   YY=            -13.4247   ZZ=            -13.7015
   XY=            -17.6101   XZ=            -33.6694   YZ=             -7.8960
 Traceless Quadrupole moment (field-independent basis, Debye-Ang):
   XX=            -15.5058   YY=              7.8913   ZZ=              7.6145
   XY=            -17.6101   XZ=            -33.6694   YZ=             -7.8960
 Octapole moment (field-independent basis, Debye-Ang**2):
  XXX=           -478.8832  YYY=           -202.4215  ZZZ=           -436.6605  XYY=           -193.1701
  XXY=           -274.5817  XXZ=           -577.1288  XZZ=           -587.1808  YZZ=           -161.3069
  YYZ=           -195.1729  XYZ=           -271.5449
 Hexadecapole moment (field-independent basis, Debye-Ang**3):
 XXXX=          -5436.8497 YYYY=          -2421.0082 ZZZZ=         -11355.6321 XXXY=          -3414.8233
 XXXZ=          -7409.4441 YYYX=          -2135.1404 YYYZ=          -2944.6760 ZZZX=         -10694.8824
 ZZZY=          -3640.5073 XXYY=          -2403.1507 XXZZ=          -9353.2313 YYZZ=          -3087.9475
 XXYZ=          -4211.4120 YYXZ=          -2886.2345 ZZXY=          -4468.5326
 N-N= 9.030499688482D+00 E-N=-1.988988637629D+02  KE= 7.616991373021D+01
 No NMR shielding tensors so no spin-rotation constants.
 Leave Link  601 at Fri Feb 17 21:45:12 2023, MaxMem=  6710886400 cpu:               1.8 elap:               0.1
 (Enter /data0/home/software/g16/l122.exe)
 CPIOFr:  IOpCl= 0 IRwI=-1 IRwCP=  731 ICalc= 10 LCPTot=      156386 Len1MO=      408861 IndFrg=     4653857
 Restoring MOs from calculation   1 to rwf.
 CPIOFr:  IOpCl= 0 IRwI=-2 IRwCP=  731 ICalc=  0 LCPTot=      156386 Len1MO=      408861 IndFrg=      565247
 Counterpoise corrected energy =    -949.908560832303
                   BSSE energy =       0.005870178569
              sum of fragments =    -949.836099619427
           complexation energy =     -49.15 kcal/mole (raw)
           complexation energy =     -45.47 kcal/mole (corrected)
 Leave Link  122 at Fri Feb 17 21:45:12 2023, MaxMem=  6710886400 cpu:               0.2 elap:               0.0
 (Enter /data0/home/software/g16/l9999.exe)
 1\1\GINC-LOCALHOST\SP\RM062X\6-311+G(2d,p)\H11O8P1\WUHANYU\17-Feb-2023
 \0\\#p M062X/6-311+G(2d,p) nosymm em=GD3 counterpoise=5\\Title Card Re
 quired\\0,1\P,0,7.615498,9.417807,12.710682\O,0,6.147478,9.402998,12.7
 86794\O,0,8.431551,9.068864,14.012951\H,0,8.088088,8.13171,14.386505\O
 ,0,8.282148,8.491752,11.608566\H,0,7.55877,8.160368,10.937453\O,0,8.12
 1203,10.887963,12.361081\H,0,9.150834,10.882786,12.361933\O,0,3.672439
 ,8.510855,10.120425\H,0,3.931973,9.398895,10.475567\H,0,3.11131,8.6908
 45,9.372432\O,0,4.415563,10.897246,11.103081\H,0,4.957023,10.522205,11
 .829021\H,0,5.056042,11.377145,10.573773\O,0,6.340723,7.36789,9.869274
 \H,0,6.262719,6.534657,10.342832\H,0,5.466309,7.775445,9.944871\O,0,7.
 500217,6.718414,15.13437\H,0,6.755145,6.986262,15.672441\H,0,7.074324,
 6.158545,14.432774\\Version=ES64L-G16RevA.03\HF=-76.4209328\RMSD=3.239
 e-09\Dipole=0.1566808,-0.9063588,0.2509063\Quadrupole=2.5841105,-20.91
 10957,18.3269852,-3.3425447,6.8981033,-23.9342081\PG=C01 [X(H11O8P1)]\
 \@


 TIMES HAVE CHANGED. IN THE BIBLE WHEN AN ASS
 SPOKE IT WAS CONSIDERED A MIRACLE.
 Job cpu time:       0 days  0 hours 42 minutes 46.5 seconds.
 Elapsed time:       0 days  0 hours  1 minutes 50.4 seconds.
 File lengths (MBytes):  RWF=    104 Int=      0 D2E=      0 Chk=     42 Scr=      1
 Normal termination of Gaussian 16 at Fri Feb 17 21:45:12 2023.
