          40
 G =       -0.631789 Gcorr = 0.232914 a.u. Nimag =   0 Frame:     1 Step:     1 Geom:     1
C          10.02632200      8.18751200      8.91916300
H           9.87225000      8.15520200      7.82631800
H          10.11268800      7.16667000      9.32201900
H          11.01542800      8.68563000      9.06725900
C           8.93382400     10.36734800      9.01613200
H           8.65552800     10.30473000      7.93993600
H          10.00700200     10.72599700      9.02948400
C           9.18061000      8.99355700     11.07831800
H           8.31771300      9.38904100     11.63041700
H           9.42784700      7.98762500     11.46655200
H          10.05754400      9.64407400     11.32002800
C           7.62189000      8.28706300      9.33299100
H           7.61695900      7.26107100      9.73884800
H           6.78584900      8.84060600      9.79230100
H           7.42626900      8.22340400      8.24788400
C           8.05282800     11.37943800      9.75106200
H           8.41590700     11.53488000     10.79439000
H           7.01126400     11.01990000      9.83620800
C           8.07481500     12.71133600      9.00527700
H           7.33345100     13.40540300      9.43976400
H           7.78568600     12.59131800      7.94883400
N           8.93338300      8.96732300      9.60043300
S           9.70150900     13.53476000      9.06725500
O          10.11184500     13.43445300     10.49435000
O          10.57487200     12.63483300      8.22449900
O           9.48489600     14.86724500      8.53574700
P          12.82336300     11.28994300     10.48950100
O          11.95781800     10.09413400     10.48740800
O          13.05707200     11.92325000      9.06130500
H          12.10238200     12.23083800      8.67258500
O          12.40713300     12.43178900     11.48564900
H          11.46999200     12.86183300     11.14000200
O          14.28744700     10.87114500     10.96455100
H          14.86359500     11.72818500     10.96286100
O          10.82675600     10.24290300      6.77769100
H          11.77147500     10.17077800      6.66446600
H          10.71343700     11.14123900      7.16402000
O          11.61520800      7.35618400     11.29988000
H          12.38310400      7.01718800     11.75287900
H          11.85305200      8.27020200     11.07175500
          40
 G =       -0.631864 Gcorr = 0.233158 a.u. Nimag =   0 Frame:     2 Step:     2 Geom:     2
C          10.02814400      8.15857900      9.02326000
H           9.87846800      8.06646700      7.93327900
H          10.12595900      7.16149200      9.47972100
H          11.01064600      8.67596300      9.14760200
C           8.91874900     10.33221900      9.01200800
H           8.65225700     10.21783800      7.93702900
H           9.98860200     10.70060000      9.01926800
C           9.15852000      9.05405200     11.13635900
H           8.30363900      9.50578300     11.65775300
H           9.36673400      8.06322100     11.57754300
H          10.05323800      9.68922200     11.35371200
C           7.61904000      8.25894000      9.41270100
H           7.62035700      7.24928400      9.85751400
H           6.77638300      8.82275800      9.84666700
H           7.42920400      8.15186500      8.32995000
C           8.02172500     11.36941300      9.69040300
H           8.37970700     11.58427000     10.72498700
H           6.98467700     11.00107100      9.79133900
C           8.02834500     12.66081400      8.87615300
H           7.27782200     13.36737100      9.27326800
H           7.74255300     12.48248100      7.82719300
N           8.92364400      8.96006100      9.65918800
S           9.64472000     13.50666900      8.89782600
O          10.04854000     13.49213100     10.33008100
O          10.53246400     12.57150800      8.11053900
O           9.41458200     14.80427500      8.29089100
P          12.78187700     11.37998800     10.45807900
O          11.93134300     10.17463400     10.51300700
O          13.01768400     11.94060600      9.00018600
H          12.06151000     12.21055800      8.58752000
O          12.34595500     12.56707500     11.39069800
H          11.40768600     12.96903400     11.01552000
O          14.24765300     11.00451200     10.96303700
H          14.81289300     11.86777100     10.92285100
O          10.83257200     10.10716400      6.80016800
H          11.77945800     10.04308500      6.69990600
H          10.70232200     11.02313100      7.13581700
O          11.71191200      7.43968800     11.37655200
H          12.50960700      7.14341100     11.80760300
H          11.89883100      8.36101700     11.13283800
          40
 G =       -0.632311 Gcorr = 0.232506 a.u. Nimag =   0 Frame:     3 Step:     3 Geom:     3
C          10.10621300      8.14057900      9.00646800
H           9.97706300      8.09628000      7.91001300
H          10.18519700      7.12469400      9.42305800
H          11.08981300      8.63941100      9.17286600
C           9.01906600     10.32361100      9.06076900
H           8.72641500     10.25772800      7.98670000
H          10.09872200     10.66259000      9.05889300
C           9.19183000      8.95384300     11.13667300
H           8.31219700      9.35741000     11.65664200
H           9.41673400      7.94845800     11.53499800
H          10.06130000      9.60114600     11.40958400
C           7.68990200      8.25138500      9.34232100
H           7.66158300      7.23015200      9.75796600
H           6.84130500      8.81737200      9.76179700
H           7.53534300      8.17757500      8.25072300
C           8.16634400     11.35847100      9.79693500
H           8.59757100     11.57856100     10.80255700
H           7.14169700     10.98485500      9.97493400
C           8.10574200     12.64553700      8.97850800
H           7.37476100     13.34566700      9.42113000
H           7.75413100     12.45944500      7.95124700
N           8.99546100      8.92632400      9.65142400
S           9.70748500     13.51460400      8.89159400
O          10.13752200     13.63707300     10.30861200
O          10.59805600     12.53240400      8.16456700
O           9.43810100     14.74720900      8.17388200
P          12.79245700     11.44204300     10.63540800
O          11.91471400     10.26323100     10.76259900
O          13.06315300     11.89653700      9.14637800
H          12.12268500     12.15292100      8.69916700
O          12.38025200     12.70206400     11.47919600
H          11.46592400     13.10941700     11.05829100
O          14.24357000     11.06666300     11.18409200
H          14.83033300     11.91104000     11.09506800
O          10.58582700     10.20468500      6.66588800
H          11.31943100     10.24519200      6.06281000
H          10.61185800     11.07711600      7.13091900
O          11.80237000      7.43879100     11.31632100
H          12.61560700      7.13009800     11.70818400
H          11.95228300      8.38783200     11.17083400
          40
 G =       -0.629661 Gcorr = 0.236112 a.u. Nimag =   0 Frame:     4 Step:     4 Geom:     4
C           9.99078900      7.99194500      9.22105500
H          10.19145400      7.17237200      9.93771400
H          10.96733100      8.50318900      9.04979000
H           9.67008300      7.56444100      8.26130200
C           8.91152300     10.15051100      8.81746700
H           8.79150300      9.79024900      7.77183100
H           9.92965400     10.63231800      8.84717400
C           9.39378600      9.40549600     11.13456600
H           8.72227800     10.18320800     11.54037200
H           9.46877900      8.55879200     11.83225400
H          10.39548300      9.89498700     11.10447300
C           7.64870200      8.26888200      9.84528600
H           7.72211100      7.34227300     10.44073300
H           6.89317800      8.91436400     10.32591600
H           7.27700500      8.00268300      8.84174700
C           7.80964500     11.15739600      9.17322100
H           7.63763200     11.19800100     10.27148700
H           6.84614900     10.84078600      8.72722300
C           8.16647600     12.55031300      8.66758300
H           7.30738600     13.23504700      8.78137100
H           8.38262300     12.53072900      7.58135800
N           8.97696900      8.96176700      9.76271800
S           9.60064700     13.27369000      9.52951900
O           9.83477800     12.37027400     10.70118600
O          10.70654900     13.06756600      8.52533100
O           9.25732900     14.64905900      9.83289500
P          13.09790000     11.20004700     10.20326500
O          12.53581500      9.91151200      9.75904600
O          13.22649400     12.32872500      9.11519000
H          12.23459700     12.65980600      8.84125200
O          12.38302100     11.79935300     11.48155100
H          11.36865800     12.03877700     11.23986200
O          14.59847700     10.97790000     10.69487400
H          14.97129100     11.90315800     10.96255400
O          10.54739800     11.11037000      6.57523200
H          11.45340000     10.90762200      6.36003500
H          10.62302300     11.88181900      7.18292000
O          11.77433600      7.69413000     11.45056300
H          12.45341100      7.55184300     12.10544000
H          12.11235300      8.43462000     10.91266200
          40
 G =       -0.631787 Gcorr = 0.232915 a.u. Nimag =   0 Frame:     5 Step:     5 Geom:     5
C          10.00962700      8.19637800      9.00631600
H          10.14246600      7.19574300      9.44561400
H          10.99053600      8.72507800      9.08678300
H           9.80564400      8.11430700      7.92424900
C           8.86398700     10.34993800      9.06659300
H           8.53836100     10.23529100      8.00816300
H           9.92641600     10.73600400      9.01467200
C           9.24423300      9.07074100     11.16873600
H           8.39801200      9.46803200     11.74492600
H           9.53561400      8.08838900     11.58566100
H          10.11394900      9.75219200     11.34124000
C           7.62528300      8.25241300      9.53037600
H           7.66749700      7.24419700      9.97666600
H           6.79709900      8.80294200     10.00718300
H           7.38038200      8.13917400      8.45941000
C           7.99033700     11.36915100      9.80049700
H           8.39663700     11.57709400     10.81843300
H           6.96399800     10.98702900      9.94890100
C           7.94154900     12.66899400      9.00145300
H           7.20263300     13.36178000      9.44232700
H           7.60700200     12.49803900      7.96568300
N           8.92884300      8.97610900      9.70672900
S           9.54645700     13.53499800      8.95297800
O          10.02510900     13.50433600     10.36165700
O          10.40397900     12.62320700      8.10649300
O           9.26917800     14.83830800      8.37888600
P          12.79254000     11.43111600     10.31288400
O          11.96242000     10.21365100     10.40055400
O          12.93986200     12.01171400      8.85142700
H          11.95893400     12.27779500      8.49738600
O          12.39231600     12.60132600     11.28270300
H          11.42944100     12.99322900     10.96592900
O          14.28886100     11.07119700     10.73263300
H          14.83868000     11.94335100     10.67299700
O          10.65572700     10.17922600      6.74886900
H          11.59582300     10.12622400      6.59425700
H          10.53585200     11.08974300      7.10312100
O          11.72797800      7.50492700     11.34206000
H          12.52603400      7.20233300     11.76792600
H          11.93072200      8.41432300     11.06664600
          40
 G =       -0.631762 Gcorr = 0.233469 a.u. Nimag =   0 Frame:     6 Step:     6 Geom:     6
C           9.84971800      8.12241400      9.04205500
H          10.00560700      7.11674300      9.46227500
H          10.84958200      8.61436100      8.98577400
H           9.49783800      8.04867600      7.99793900
C           8.83513200     10.33028700      9.27725200
H           8.38675500     10.25635300      8.26084100
H           9.90259300     10.66754600      9.11166900
C           9.39155600      8.98356200     11.29572400
H           8.64499500      9.42240600     11.97176900
H           9.66417600      7.97812200     11.66273200
H          10.31559900      9.60811400     11.37516600
C           7.55062000      8.28595800      9.84691200
H           7.59309700      7.26383800     10.25982700
H           6.81553100      8.86190200     10.43382100
H           7.17252100      8.21779500      8.81127300
C           8.10293500     11.37168800     10.12604000
H           8.67069100     11.58332100     11.06319700
H           7.10807400     11.00894900     10.44207300
C           7.94513000     12.66327300      9.32811100
H           7.29923600     13.37380700      9.87433500
H           7.44389900     12.48806900      8.36291700
N           8.90214700      8.93923600      9.87983700
S           9.53332000     13.50269800      9.00894200
O          10.19583100     13.55604200     10.33933900
O          10.26393200     12.52950100      8.11345600
O           9.18480600     14.77003300      8.39397400
P          12.87882500     11.38943600     10.09182300
O          12.04032300     10.20565600     10.35831800
O          12.85726000     11.87489800      8.58771700
H          11.85071500     12.15683800      8.34106700
O          12.63346100     12.63038500     11.02377400
H          11.64947200     13.03492100     10.80103900
O          14.40817000     11.00934700     10.34191400
H          14.96597800     11.85880000     10.15974100
O          10.35189700     10.07050200      6.77739900
H          11.26331200     10.01591300      6.50057500
H          10.27646500     10.98750400      7.12820400
O          11.94642300      7.39649600     10.99151700
H          12.80634600      7.06856900     11.24296200
H          12.09605000      8.33606400     10.79671900
          40
 G =       -0.631913 Gcorr = 0.233110 a.u. Nimag =   0 Frame:     7 Step:     7 Geom:     7
C          10.00453300      8.20432200      8.96845100
H          10.16472600      7.19221300      9.37095300
H          10.98812800      8.73320700      9.00466800
H           9.73652100      8.15157700      7.89863100
C           8.87166300     10.35694400      9.16470400
H           8.48461100     10.27819900      8.12368200
H           9.93063400     10.74234500      9.06339200
C           9.36323900      9.00456400     11.19809500
H           8.56438400      9.41830400     11.82850900
H           9.63523700      8.00205100     11.57359000
H          10.26610100      9.64910400     11.34075700
C           7.65263800      8.24762500      9.62540400
H           7.71609900      7.22305500     10.02976800
H           6.85536500      8.78136700     10.16928700
H           7.34627900      8.17548600      8.56667500
C           8.04651100     11.35342400      9.98129800
H           8.52072300     11.53791200     10.97417800
H           7.03360400     10.96328600     10.18921000
C           7.93988800     12.67259200      9.22048400
H           7.23069300     13.35069400      9.72785700
H           7.53649100     12.52629600      8.20568600
N           8.96707700      8.96190300      9.75340800
S           9.53532500     13.54709400      9.08576800
O          10.10137200     13.49521100     10.46103600
O          10.34097800     12.65396400      8.17152300
O           9.21733000     14.85849400      8.55270400
P          12.85477300     11.41929600     10.20908300
O          12.02982800     10.20032700     10.32210500
O          12.91697300     12.02610000      8.75191000
H          11.91831400     12.30176500      8.46234800
O          12.51449300     12.57145500     11.22177500
H          11.53436700     12.96950400     10.96990300
O          14.37272000     11.05028300     10.53244200
H          14.91976200     11.92280800     10.45691300
O          10.52255300     10.24668500      6.74074100
H          11.45285000     10.20266200      6.53292900
H          10.41875600     11.14768800      7.12303200
O          11.95179100      7.42751800     11.08524600
H          12.79818700      7.13094700     11.41021100
H          12.09450300      8.36174500     10.86166100
          40
 G =       -0.631890 Gcorr = 0.233134 a.u. Nimag =   0 Frame:     8 Step:     8 Geom:     8
C          10.04639100      8.18697300      8.96132500
H          10.19855600      7.17098100      9.35712800
H          11.02390500      8.72229200      9.04228000
H           9.82068100      8.14602700      7.88131600
C           8.89222500     10.32966700      9.14205500
H           8.55043700     10.26298400      8.08447500
H           9.95151500     10.72403400      9.09168900
C           9.31180800      8.95211300     11.17446800
H           8.48747700      9.35617800     11.77780600
H           9.57123700      7.94550800     11.54778500
H          10.20658900      9.59679700     11.36090300
C           7.66994500      8.20660800      9.52474800
H           7.72474800      7.17633000      9.91566500
H           6.84855200      8.72681900     10.04530600
H           7.40548900      8.14891200      8.45392900
C           8.02505600     11.30833600      9.93639700
H           8.45335100     11.48003700     10.95214700
H           7.00647500     10.90908500     10.09282600
C           7.94384600     12.63859600      9.19187500
H           7.20848500     13.30469000      9.67748800
H           7.58680200     12.50576400      8.15804400
N           8.97350400      8.92709300      9.71469400
S           9.53820700     13.52383400      9.14178500
O          10.04598100     13.44724900     10.53866800
O          10.38697200     12.65329000      8.24506400
O           9.23544100     14.84416900      8.62206100
P          12.82554100     11.39967100     10.36177600
O          12.00823300     10.17151300     10.41475200
O          12.94314200     12.03784600      8.92145300
H          11.95490100     12.30876900      8.59476700
O          12.43189000     12.52732100     11.38263000
H          11.46043900     12.92382000     11.09577800
O          14.33196500     11.03704200     10.74133800
H          14.87357300     11.91552100     10.70637300
O          10.64404300     10.26607200      6.79016900
H          11.58217700     10.22950200      6.61960800
H          10.51985000     11.16093600      7.18067600
O          11.90967100      7.39248800     11.15032700
H          12.74346700      7.09567200     11.50620800
H          12.05745300      8.32947900     10.94223600
          40
 G =       -0.632615 Gcorr = 0.231991 a.u. Nimag =   0 Frame:     9 Step:     9 Geom:     9
C          10.14792100      8.17420100      8.99492900
H          10.28878200      7.15100600      9.37539000
H          11.12422900      8.70404300      9.11310200
H           9.94876800      8.15617700      7.90835500
C           8.96360500     10.30062900      9.15337600
H           8.58060900     10.22512400      8.10881500
H          10.02206200     10.68870000      9.05771700
C           9.37387400      8.93201600     11.19798100
H           8.52970000      9.31019300     11.79052500
H           9.65595500      7.93159200     11.57186100
H          10.24720900      9.60055200     11.39991700
C           7.76397700      8.16629900      9.52760500
H           7.81828900      7.14371500      9.93755100
H           6.92686200      8.68986800     10.01885800
H           7.52472600      8.08773300      8.45182400
C           8.13227800     11.29248500      9.96874800
H           8.61343600     11.49277000     10.95541500
H           7.12744500     10.88922700     10.19037600
C           7.99887400     12.60230800      9.19598600
H           7.27441800     13.26946700      9.69633700
H           7.60003800     12.43830800      8.18205900
N           9.05687400      8.90215900      9.73382100
S           9.57400500     13.51152500      9.05634300
O          10.11038800     13.53539100     10.44274400
O          10.42239000     12.60485800      8.19331400
O           9.23257100     14.78907300      8.45846300
P          12.85360800     11.42779500     10.37404200
O          12.02528000     10.21045900     10.48164700
O          12.98110100     12.00261500      8.90869300
H          11.99490100     12.24922800      8.56097000
O          12.47277000     12.60251100     11.34613300
H          11.51452900     13.00722700     11.03345700
O          14.35576200     11.06603500     10.77342100
H          14.90715600     11.93572100     10.70206700
O          10.30995900     10.32096900      6.62523600
H          11.02009500     10.37491700      5.99554100
H          10.35896300     11.17989800      7.11208600
O          12.00660400      7.42008200     11.18929100
H          12.85076500      7.13968800     11.53380700
H          12.12924400      8.36345700     10.99221500
          40
 G =       -0.631909 Gcorr = 0.233114 a.u. Nimag =   0 Frame:    10 Step:    10 Geom:    10
C          10.13431700      8.18879000      8.94796200
H          10.30893000      7.17414200      9.33796100
H          11.09855100      8.74644500      9.03646300
H           9.91379500      8.14936000      7.86681000
C           8.92855200     10.30214500      9.13665700
H           8.58980400     10.23361200      8.07823400
H           9.97846100     10.72117200      9.08993800
C           9.37339200      8.92290800     11.16273400
H           8.53608300      9.30006800     11.76560200
H           9.65894900      7.92124200     11.53028100
H          10.24952200      9.59045100     11.35701600
C           7.75602900      8.14831800      9.50235600
H           7.83400000      7.11731300      9.88735400
H           6.92050100      8.64563500     10.02281500
H           7.49693100      8.09079500      8.43021000
C           8.03813100     11.25606600      9.93533100
H           8.46209300     11.43306600     10.95202900
H           7.02936100     10.83187300     10.08965100
C           7.92536700     12.58750900      9.19710500
H           7.17363200     13.23325400      9.68511600
H           7.57263900     12.45117900      8.16227800
N           9.04126900      8.89856800      9.70155500
S           9.49779500     13.51155700      9.15287200
O          10.00352900     13.44579900     10.55079500
O          10.37026100     12.66336500      8.25721900
O           9.16386100     14.82454000      8.63351200
P          12.82864400     11.45907700     10.37780600
O          12.03880700     10.21286000     10.42521900
O          12.93590800     12.10426900      8.94002700
H          11.94232100     12.35383200      8.61113600
O          12.40735100     12.57450800     11.40132900
H          11.42888400     12.95054200     11.11330500
O          14.34170300     11.12894900     10.76073000
H          14.86358700     12.01942100     10.73054600
O          10.68599100     10.29249200      6.78751100
H          11.62451700     10.28045800      6.61561100
H          10.53987400     11.18157900      7.18345800
O          12.01096900      7.42603000     11.13556700
H          12.85088400      7.14864900     11.49278200
H          12.13482100      8.36818700     10.93513100
          40
 G =       -0.631764 Gcorr = 0.233467 a.u. Nimag =   0 Frame:    11 Step:    11 Geom:    11
C           9.99720600      8.15990500      9.00740200
H          10.13416300      7.15495800      9.43583400
H          10.98873000      8.67038600      9.04142600
H           9.74015700      8.08555900      7.93603900
C           8.92421800     10.34729700      9.16048300
H           8.56917000     10.27036000      8.10799700
H           9.99543900     10.70563500      9.09173800
C           9.32635700      9.00046500     11.21514000
H           8.51568600      9.42343900     11.82417400
H           9.58300200      7.99811100     11.60145300
H          10.22887400      9.64020800     11.37776500
C           7.63355600      8.27647200      9.60743500
H           7.65883600      7.25332000     10.01922400
H           6.83884500      8.83576600     10.12912900
H           7.34955200      8.20631100      8.54227600
C           8.09943600     11.37013900      9.94445500
H           8.57671800     11.58673300     10.92966100
H           7.08724000     10.98735500     10.16838900
C           7.98956100     12.66310900      9.14082400
H           7.28388800     13.35846100      9.62957900
H           7.58058400     12.48422700      8.13376100
N           8.96432300      8.95460700      9.76152000
S           9.58387900     13.53359100      8.96945500
O          10.12340400     13.58977600     10.35420600
O          10.40985300     12.58018900      8.13790600
O           9.26800600     14.79862200      8.33248600
P          12.86072000     11.47589600     10.33411800
O          12.02547200     10.27428000     10.51830800
O          12.96337600     11.97099100      8.83650800
H          11.97756300     12.23648500      8.50335000
O          12.50856200     12.70563800     11.24652200
H          11.53830100     13.08940800     10.94180700
O          14.36893600     11.12393800     10.71777000
H          14.92319200     11.98601800     10.59305500
O          10.66089800     10.13028800      6.80427900
H          11.59423800     10.09390600      6.60942000
H          10.53763300     11.04376800      7.15068500
O          11.92689700      7.46178600     11.13296300
H          12.76798500      7.14762300     11.45558000
H          12.07555700      8.40499900     10.95590000
          40
 G =       -0.631755 Gcorr = 0.232947 a.u. Nimag =   0 Frame:    12 Step:    12 Geom:    12
C          10.04302000      8.18265700      9.04272700
H          10.16792900      7.18197000      9.48412900
H          11.03181000      8.69863400      9.10960200
H           9.82532300      8.09995400      7.96341500
C           8.92701800     10.35163200      9.10935000
H           8.59000400     10.23772300      8.05443300
H           9.99359200     10.72435600      9.04679100
C           9.31495700      9.07416200     11.21099700
H           8.48171700      9.48642100     11.79546400
H           9.59643300      8.08907200     11.62826700
H          10.19697200      9.74290600     11.37059800
C           7.66603100      8.27201800      9.59460500
H           7.70024700      7.26489100     10.04400700
H           6.85090800      8.83505200     10.07922300
H           7.40721300      8.15843300      8.52698400
C           8.07238800     11.38339700      9.84815700
H           8.48827600     11.58675000     10.86309200
H           7.04187000     11.01560800     10.00368100
C           8.03625000     12.68304600      9.04805200
H           7.31010600     13.38648800      9.49324500
H           7.69215500     12.51571300      8.01479500
N           8.98104400      8.97897500      9.75316800
S           9.65277500     13.52636200      8.98759700
O          10.14383300     13.48369900     10.39177800
O          10.48956800     12.60541900      8.13036700
O           9.38898000     14.83557400      8.42064800
P          12.88644700     11.38030700     10.30959700
O          12.04240200     10.17291800     10.40420300
O          13.02557800     11.96086300      8.84734200
H          12.04465900     12.24050300      8.50428700
O          12.51056000     12.55378400     11.28516500
H          11.54821600     12.95639300     10.98023800
O          14.38254900     11.00153700     10.71334200
H          14.94283200     11.86648100     10.64663500
O          10.69500000     10.15392200      6.77770400
H          11.63451400     10.08678400      6.62429500
H          10.58831600     11.06772500      7.12793100
O          11.77594900      7.47491200     11.36499200
H          12.57195300      7.16416100     11.78874400
H          11.99062300      8.37881200     11.08036800
          40
 G =       -0.631851 Gcorr = 0.233172 a.u. Nimag =   0 Frame:    13 Step:    13 Geom:    13
C          10.06687800      8.18319500      9.13400900
H           9.86668200      8.07446900      8.05372200
H          10.19653100      7.19353600      9.59859800
H          11.04883600      8.71181800      9.20421400
C           8.93652100     10.34589900      9.14688800
H           8.62339700     10.21428200      8.08655900
H          10.00132500     10.72560700      9.10127200
C           9.28931500      9.09912000     11.27386500
H           8.45629200      9.55142300     11.82914200
H           9.52650100      8.11622600     11.71824200
H          10.18789300      9.74431200     11.44000600
C           7.67811800      8.26592500      9.63583500
H           7.71130000      7.26179200     10.09183600
H           6.85147900      8.82666400     10.10328900
H           7.43751000      8.14382300      8.56482200
C           8.05901400     11.38242700      9.85141600
H           8.45847000     11.61247100     10.86740100
H           7.03088100     11.00560300     10.00044000
C           8.01856700     12.66433600      9.02344300
H           7.27869200     13.36851800      9.44404400
H           7.69039400     12.47139800      7.98953600
N           8.98574300      8.98270100      9.81094400
S           9.62642600     13.52451800      8.96642100
O          10.09580300     13.52260300     10.37871000
O          10.48573300     12.59193100      8.14531100
O           9.35707800     14.81627000      8.36325300
P          12.85629400     11.44358300     10.39448000
O          12.02143300     10.23103000     10.50376300
O          13.01601900     11.98882300      8.92048500
H          12.03925700     12.25126200      8.55399600
O          12.45348600     12.63743900     11.33333200
H          11.49215400     13.02311100     11.00204800
O          14.34844200     11.08793300     10.83223800
H          14.90246500     11.95595200     10.75461900
O          10.75293500     10.11213500      6.85539900
H          11.69574100     10.05290700      6.71959600
H          10.62930700     11.03200700      7.18294500
O          11.86411000      7.50823100     11.41678900
H          12.68316000      7.22768500     11.81728100
H          12.02983700      8.42706000     11.14983000
          40