 Entering Gaussian System, Link 0=g16
 Initial command:
 /data0/home/software/g16/l1.exe "/data0/home/software/g16/scratch/Gau-1630736.inp" -scrdir="/data0/home/software/g16/scratch/"
 Default is to use a total of  22 processors:
                               22 via shared-memory
                                1 via Linda
 Entering Link 1 = /data0/home/software/g16/l1.exe PID=   1630737.
  
 Copyright (c) 1988,1990,1992,1993,1995,1998,2003,2009,2016,
            Gaussian, Inc.  All Rights Reserved.
  
 This is part of the Gaussian(R) 16 program.  It is based on
 the Gaussian(R) 09 system (copyright 2009, Gaussian, Inc.),
 the Gaussian(R) 03 system (copyright 2003, Gaussian, Inc.),
 the Gaussian(R) 98 system (copyright 1998, Gaussian, Inc.),
 the Gaussian(R) 94 system (copyright 1995, Gaussian, Inc.),
 the Gaussian 92(TM) system (copyright 1992, Gaussian, Inc.),
 the Gaussian 90(TM) system (copyright 1990, Gaussian, Inc.),
 the Gaussian 88(TM) system (copyright 1988, Gaussian, Inc.),
 the Gaussian 86(TM) system (copyright 1986, Carnegie Mellon
 University), and the Gaussian 82(TM) system (copyright 1983,
 Carnegie Mellon University). Gaussian is a federally registered
 trademark of Gaussian, Inc.
  
 This software contains proprietary and confidential information,
 including trade secrets, belonging to Gaussian, Inc.
  
 This software is provided under written license and may be
 used, copied, transmitted, or stored only in accord with that
 written license.
  
 The following legend is applicable only to US Government
 contracts under FAR:
  
                    RESTRICTED RIGHTS LEGEND
  
 Use, reproduction and disclosure by the US Government is
 subject to restrictions as set forth in subparagraphs (a)
 and (c) of the Commercial Computer Software - Restricted
 Rights clause in FAR 52.227-19.
  
 Gaussian, Inc.
 340 Quinnipiac St., Bldg. 40, Wallingford CT 06492
  
  
 ---------------------------------------------------------------
 Warning -- This program may not be used in any manner that
 competes with the business of Gaussian, Inc. or will provide
 assistance to any competitor of Gaussian, Inc.  The licensee
 of this program is prohibited from giving any competitor of
 Gaussian, Inc. access to this program.  By using this program,
 the user acknowledges that Gaussian, Inc. is engaged in the
 business of creating and licensing software in the field of
 computational chemistry and represents and warrants to the
 licensee that it is not a competitor of Gaussian, Inc. and that
 it will not use this program in any manner prohibited above.
 ---------------------------------------------------------------
  

 Cite this work as:
 Gaussian 16, Revision A.03,
 M. J. Frisch, G. W. Trucks, H. B. Schlegel, G. E. Scuseria, 
 M. A. Robb, J. R. Cheeseman, G. Scalmani, V. Barone, 
 G. A. Petersson, H. Nakatsuji, X. Li, M. Caricato, A. V. Marenich, 
 J. Bloino, B. G. Janesko, R. Gomperts, B. Mennucci, H. P. Hratchian, 
 J. V. Ortiz, A. F. Izmaylov, J. L. Sonnenberg, D. Williams-Young, 
 F. Ding, F. Lipparini, F. Egidi, J. Goings, B. Peng, A. Petrone, 
 T. Henderson, D. Ranasinghe, V. G. Zakrzewski, J. Gao, N. Rega, 
 G. Zheng, W. Liang, M. Hada, M. Ehara, K. Toyota, R. Fukuda, 
 J. Hasegawa, M. Ishida, T. Nakajima, Y. Honda, O. Kitao, H. Nakai, 
 T. Vreven, K. Throssell, J. A. Montgomery, Jr., J. E. Peralta, 
 F. Ogliaro, M. J. Bearpark, J. J. Heyd, E. N. Brothers, K. N. Kudin, 
 V. N. Staroverov, T. A. Keith, R. Kobayashi, J. Normand, 
 K. Raghavachari, A. P. Rendell, J. C. Burant, S. S. Iyengar, 
 J. Tomasi, M. Cossi, J. M. Millam, M. Klene, C. Adamo, R. Cammi, 
 J. W. Ochterski, R. L. Martin, K. Morokuma, O. Farkas, 
 J. B. Foresman, and D. J. Fox, Gaussian, Inc., Wallingford CT, 2016.
 
 ******************************************
 Gaussian 16:  ES64L-G16RevA.03 25-Dec-2016
                12-Dec-2022 
 ******************************************
 %nproc=24
 Will use up to   24 processors via shared memory.
 %mem=50GB
 -------------------------------------------------------
 #p B3LYP/6-311+G(2d,p) opt freq scrf(smd,solvent=water)
 -------------------------------------------------------
 1/18=20,19=15,26=3,38=1/1,3;
 2/9=110,12=2,17=6,18=5,40=1/2;
 3/5=4,6=6,7=112,11=2,25=1,30=1,70=32201,71=1,72=1,74=-5/1,2,3;
 4//1;
 5/5=2,38=5,53=1/2;
 6/7=2,8=2,9=2,10=2,28=1/1;
 7//1,2,3,16;
 1/18=20,19=15,26=3/3(2);
 2/9=110/2;
 99//99;
 2/9=110/2;
 3/5=4,6=6,7=112,11=2,25=1,30=1,70=32205,71=1,72=1,74=-5/1,2,3;
 4/5=5,16=3,69=1/1;
 5/5=2,38=5,53=1/2;
 7//1,2,3,16;
 1/18=20,19=15,26=3/3(-5);
 2/9=110/2;
 6/7=2,8=2,9=2,10=2,19=2,28=1/1;
 99/9=1/99;
 Leave Link    1 at Mon Dec 12 12:33:10 2022, MaxMem=  6710886400 cpu:               1.2 elap:               0.1
 (Enter /data0/home/software/g16/l101.exe)
 -------------------
 Title Card Required
 -------------------
 Symbolic Z-matrix:
 Charge =  0 Multiplicity = 1
 C                     4.78741   8.88272   8.69111 
 C                     5.30345   9.45765   7.53487 
 C                     6.16405   10.54757   9.30937 
 N                     5.33586   9.56948   9.77563 
 H                     4.09181   8.07275   8.8052 
 H                     5.12141   9.22022   6.50385 
 H                     6.74621   11.26138   9.90895 
 C                     4.9538    9.41185   11.16716 
 H                     4.25326   10.23693   11.46015 
 H                     4.46103   8.44495   11.34679 
 H                     5.8376    9.49958   11.8396 
 N                     6.16684   10.47766   7.93452 
 C                     6.75502   11.5094   7.07998 
 H                     7.37866   11.02256   6.2974 
 H                     7.43866   12.14572   7.70881 
 C                     5.6923    12.42279   6.43145 
 H                     6.21523   13.34893   6.10037 
 H                     5.28866   11.94876   5.5181 
 C                     4.53724   12.81832   7.35224 
 H                     3.71794   12.07825   7.30706 
 H                     4.09641   13.7812   7.03216 
 C                     4.99797   12.9763   8.80666 
 O                     5.99348   13.67793   9.03422 
 O                     4.38256   12.28708   9.65287 
 P                     6.32953   12.86153   12.47149 
 O                     7.10412   11.63432   12.25567 
 O                     4.76357   12.69224   12.26888 
 H                     4.56121   12.59895   11.22061 
 O                     6.46136   13.35025   13.98322 
 H                     5.90513   14.21654   14.07041 
 O                     6.76536   14.13395   11.63288 
 H                     6.47288   13.99228   10.61833 
 
 Add virtual bond connecting atoms H28        and O24        Dist= 3.04D+00.
 Add virtual bond connecting atoms H32        and O23        Dist= 3.18D+00.
 ITRead=  0  0  0  0  0  0  0  0  0  0  0  0  0  0  0  0  0  0  0  0
 ITRead=  0  0  0  0  0  0  0  0  0  0  0  0
 MicOpt= -1 -1 -1 -1 -1 -1 -1 -1 -1 -1 -1 -1 -1 -1 -1 -1 -1 -1 -1 -1
 MicOpt= -1 -1 -1 -1 -1 -1 -1 -1 -1 -1 -1 -1
 NAtoms=     32 NQM=       32 NQMF=       0 NMMI=      0 NMMIF=      0
                NMic=       0 NMicF=      0.
                    Isotopes and Nuclear Properties:
 (Nuclear quadrupole moments (NQMom) in fm**2, nuclear magnetic moments (NMagM)
  in nuclear magnetons)

  Atom         1           2           3           4           5           6           7           8           9          10
 IAtWgt=          12          12          12          14           1           1           1          12           1           1
 AtmWgt=  12.0000000  12.0000000  12.0000000  14.0030740   1.0078250   1.0078250   1.0078250  12.0000000   1.0078250   1.0078250
 NucSpn=           0           0           0           2           1           1           1           0           1           1
 AtZEff=  -0.0000000  -0.0000000  -0.0000000  -0.0000000  -0.0000000  -0.0000000  -0.0000000  -0.0000000  -0.0000000  -0.0000000
 NQMom=    0.0000000   0.0000000   0.0000000   2.0440000   0.0000000   0.0000000   0.0000000   0.0000000   0.0000000   0.0000000
 NMagM=    0.0000000   0.0000000   0.0000000   0.4037610   2.7928460   2.7928460   2.7928460   0.0000000   2.7928460   2.7928460
 AtZNuc=   6.0000000   6.0000000   6.0000000   7.0000000   1.0000000   1.0000000   1.0000000   6.0000000   1.0000000   1.0000000

  Atom        11          12          13          14          15          16          17          18          19          20
 IAtWgt=           1          14          12           1           1          12           1           1          12           1
 AtmWgt=   1.0078250  14.0030740  12.0000000   1.0078250   1.0078250  12.0000000   1.0078250   1.0078250  12.0000000   1.0078250
 NucSpn=           1           2           0           1           1           0           1           1           0           1
 AtZEff=  -0.0000000  -0.0000000  -0.0000000  -0.0000000  -0.0000000  -0.0000000  -0.0000000  -0.0000000  -0.0000000  -0.0000000
 NQMom=    0.0000000   2.0440000   0.0000000   0.0000000   0.0000000   0.0000000   0.0000000   0.0000000   0.0000000   0.0000000
 NMagM=    2.7928460   0.4037610   0.0000000   2.7928460   2.7928460   0.0000000   2.7928460   2.7928460   0.0000000   2.7928460
 AtZNuc=   1.0000000   7.0000000   6.0000000   1.0000000   1.0000000   6.0000000   1.0000000   1.0000000   6.0000000   1.0000000

  Atom        21          22          23          24          25          26          27          28          29          30
 IAtWgt=           1          12          16          16          31          16          16           1          16           1
 AtmWgt=   1.0078250  12.0000000  15.9949146  15.9949146  30.9737634  15.9949146  15.9949146   1.0078250  15.9949146   1.0078250
 NucSpn=           1           0           0           0           1           0           0           1           0           1
 AtZEff=  -0.0000000  -0.0000000  -0.0000000  -0.0000000  -0.0000000  -0.0000000  -0.0000000  -0.0000000  -0.0000000  -0.0000000
 NQMom=    0.0000000   0.0000000   0.0000000   0.0000000   0.0000000   0.0000000   0.0000000   0.0000000   0.0000000   0.0000000
 NMagM=    2.7928460   0.0000000   0.0000000   0.0000000   1.1316000   0.0000000   0.0000000   2.7928460   0.0000000   2.7928460
 AtZNuc=   1.0000000   6.0000000   8.0000000   8.0000000  15.0000000   8.0000000   8.0000000   1.0000000   8.0000000   1.0000000

  Atom        31          32
 IAtWgt=          16           1
 AtmWgt=  15.9949146   1.0078250
 NucSpn=           0           1
 AtZEff=  -0.0000000  -0.0000000
 NQMom=    0.0000000   0.0000000
 NMagM=    0.0000000   2.7928460
 AtZNuc=   8.0000000   1.0000000
 Leave Link  101 at Mon Dec 12 12:33:10 2022, MaxMem=  6710886400 cpu:               8.4 elap:               0.4
 (Enter /data0/home/software/g16/l103.exe)

 GradGradGradGradGradGradGradGradGradGradGradGradGradGradGradGradGradGrad
 Berny optimization.
 Initialization pass.
                           ----------------------------
                           !    Initial Parameters    !
                           ! (Angstroms and Degrees)  !
 --------------------------                            --------------------------
 ! Name  Definition              Value          Derivative Info.                !
 --------------------------------------------------------------------------------
 ! R1    R(1,2)                  1.3906         estimate D2E/DX2                !
 ! R2    R(1,4)                  1.3959         estimate D2E/DX2                !
 ! R3    R(1,5)                  1.0737         estimate D2E/DX2                !
 ! R4    R(2,6)                  1.0736         estimate D2E/DX2                !
 ! R5    R(2,12)                 1.3948         estimate D2E/DX2                !
 ! R6    R(3,4)                  1.3638         estimate D2E/DX2                !
 ! R7    R(3,7)                  1.0991         estimate D2E/DX2                !
 ! R8    R(3,12)                 1.3766         estimate D2E/DX2                !
 ! R9    R(4,8)                  1.4516         estimate D2E/DX2                !
 ! R10   R(8,9)                  1.1213         estimate D2E/DX2                !
 ! R11   R(8,10)                 1.1            estimate D2E/DX2                !
 ! R12   R(8,11)                 1.114          estimate D2E/DX2                !
 ! R13   R(12,13)                1.4631         estimate D2E/DX2                !
 ! R14   R(13,14)                1.1128         estimate D2E/DX2                !
 ! R15   R(13,15)                1.1259         estimate D2E/DX2                !
 ! R16   R(13,16)                1.5441         estimate D2E/DX2                !
 ! R17   R(16,17)                1.1139         estimate D2E/DX2                !
 ! R18   R(16,18)                1.1054         estimate D2E/DX2                !
 ! R19   R(16,19)                1.5292         estimate D2E/DX2                !
 ! R20   R(19,20)                1.105          estimate D2E/DX2                !
 ! R21   R(19,21)                1.1063         estimate D2E/DX2                !
 ! R22   R(19,22)                1.5338         estimate D2E/DX2                !
 ! R23   R(22,23)                1.239          estimate D2E/DX2                !
 ! R24   R(22,24)                1.2529         estimate D2E/DX2                !
 ! R25   R(23,32)                1.6847         estimate D2E/DX2                !
 ! R26   R(24,28)                1.6084         estimate D2E/DX2                !
 ! R27   R(25,26)                1.4672         estimate D2E/DX2                !
 ! R28   R(25,27)                1.5881         estimate D2E/DX2                !
 ! R29   R(25,29)                1.5942         estimate D2E/DX2                !
 ! R30   R(25,31)                1.585          estimate D2E/DX2                !
 ! R31   R(27,28)                1.0717         estimate D2E/DX2                !
 ! R32   R(29,30)                1.0332         estimate D2E/DX2                !
 ! R33   R(31,32)                1.0653         estimate D2E/DX2                !
 ! A1    A(2,1,4)              107.2647         estimate D2E/DX2                !
 ! A2    A(2,1,5)              129.8387         estimate D2E/DX2                !
 ! A3    A(4,1,5)              122.8943         estimate D2E/DX2                !
 ! A4    A(1,2,6)              130.1038         estimate D2E/DX2                !
 ! A5    A(1,2,12)             107.0858         estimate D2E/DX2                !
 ! A6    A(6,2,12)             122.8104         estimate D2E/DX2                !
 ! A7    A(4,3,7)              126.9369         estimate D2E/DX2                !
 ! A8    A(4,3,12)             107.8333         estimate D2E/DX2                !
 ! A9    A(7,3,12)             125.2224         estimate D2E/DX2                !
 ! A10   A(1,4,3)              109.0145         estimate D2E/DX2                !
 ! A11   A(1,4,8)              126.0102         estimate D2E/DX2                !
 ! A12   A(3,4,8)              124.433          estimate D2E/DX2                !
 ! A13   A(4,8,9)              109.5723         estimate D2E/DX2                !
 ! A14   A(4,8,10)             111.7092         estimate D2E/DX2                !
 ! A15   A(4,8,11)             111.1793         estimate D2E/DX2                !
 ! A16   A(9,8,10)             108.9198         estimate D2E/DX2                !
 ! A17   A(9,8,11)             106.259          estimate D2E/DX2                !
 ! A18   A(10,8,11)            109.0303         estimate D2E/DX2                !
 ! A19   A(2,12,3)             108.7862         estimate D2E/DX2                !
 ! A20   A(2,12,13)            126.667          estimate D2E/DX2                !
 ! A21   A(3,12,13)            123.2509         estimate D2E/DX2                !
 ! A22   A(12,13,14)           109.1187         estimate D2E/DX2                !
 ! A23   A(12,13,15)           108.4472         estimate D2E/DX2                !
 ! A24   A(12,13,16)           112.6911         estimate D2E/DX2                !
 ! A25   A(14,13,15)           107.4414         estimate D2E/DX2                !
 ! A26   A(14,13,16)           110.4336         estimate D2E/DX2                !
 ! A27   A(15,13,16)           108.5513         estimate D2E/DX2                !
 ! A28   A(13,16,17)           107.0707         estimate D2E/DX2                !
 ! A29   A(13,16,18)           110.1627         estimate D2E/DX2                !
 ! A30   A(13,16,19)           114.8316         estimate D2E/DX2                !
 ! A31   A(17,16,18)           106.4031         estimate D2E/DX2                !
 ! A32   A(17,16,19)           108.5734         estimate D2E/DX2                !
 ! A33   A(18,16,19)           109.429          estimate D2E/DX2                !
 ! A34   A(16,19,20)           111.235          estimate D2E/DX2                !
 ! A35   A(16,19,21)           110.6024         estimate D2E/DX2                !
 ! A36   A(16,19,22)           111.7604         estimate D2E/DX2                !
 ! A37   A(20,19,21)           106.0004         estimate D2E/DX2                !
 ! A38   A(20,19,22)           109.2978         estimate D2E/DX2                !
 ! A39   A(21,19,22)           107.7218         estimate D2E/DX2                !
 ! A40   A(19,22,23)           118.2835         estimate D2E/DX2                !
 ! A41   A(19,22,24)           115.8631         estimate D2E/DX2                !
 ! A42   A(23,22,24)           125.6002         estimate D2E/DX2                !
 ! A43   A(22,23,32)           120.4647         estimate D2E/DX2                !
 ! A44   A(22,24,28)           119.8071         estimate D2E/DX2                !
 ! A45   A(26,25,27)           114.3726         estimate D2E/DX2                !
 ! A46   A(26,25,29)           110.6251         estimate D2E/DX2                !
 ! A47   A(26,25,31)           116.6467         estimate D2E/DX2                !
 ! A48   A(27,25,29)           103.6032         estimate D2E/DX2                !
 ! A49   A(27,25,31)           106.8107         estimate D2E/DX2                !
 ! A50   A(29,25,31)           103.466          estimate D2E/DX2                !
 ! A51   A(25,27,28)           108.6788         estimate D2E/DX2                !
 ! A52   A(25,29,30)           107.0109         estimate D2E/DX2                !
 ! A53   A(25,31,32)           108.7611         estimate D2E/DX2                !
 ! A54   L(24,28,27,8,-1)      173.3165         estimate D2E/DX2                !
 ! A55   L(23,32,31,8,-1)      176.8179         estimate D2E/DX2                !
 ! A56   L(24,28,27,8,-2)      176.3902         estimate D2E/DX2                !
 ! A57   L(23,32,31,8,-2)      179.6575         estimate D2E/DX2                !
 ! D1    D(4,1,2,6)           -179.4392         estimate D2E/DX2                !
 ! D2    D(4,1,2,12)             0.5064         estimate D2E/DX2                !
 ! D3    D(5,1,2,6)              0.0115         estimate D2E/DX2                !
 ! D4    D(5,1,2,12)           179.9571         estimate D2E/DX2                !
 ! D5    D(2,1,4,3)              0.2838         estimate D2E/DX2                !
 ! D6    D(2,1,4,8)            172.1038         estimate D2E/DX2                !
 ! D7    D(5,1,4,3)           -179.2138         estimate D2E/DX2                !
 ! D8    D(5,1,4,8)             -7.3938         estimate D2E/DX2                !
 ! D9    D(1,2,12,3)            -1.1124         estimate D2E/DX2                !
 ! D10   D(1,2,12,13)         -168.3455         estimate D2E/DX2                !
 ! D11   D(6,2,12,3)           178.8381         estimate D2E/DX2                !
 ! D12   D(6,2,12,13)           11.605          estimate D2E/DX2                !
 ! D13   D(7,3,4,1)            179.9874         estimate D2E/DX2                !
 ! D14   D(7,3,4,8)              8.0089         estimate D2E/DX2                !
 ! D15   D(12,3,4,1)            -0.9733         estimate D2E/DX2                !
 ! D16   D(12,3,4,8)          -172.9518         estimate D2E/DX2                !
 ! D17   D(4,3,12,2)             1.2939         estimate D2E/DX2                !
 ! D18   D(4,3,12,13)          169.0567         estimate D2E/DX2                !
 ! D19   D(7,3,12,2)          -179.6461         estimate D2E/DX2                !
 ! D20   D(7,3,12,13)          -11.8833         estimate D2E/DX2                !
 ! D21   D(1,4,8,9)            -99.2555         estimate D2E/DX2                !
 ! D22   D(1,4,8,10)            21.5384         estimate D2E/DX2                !
 ! D23   D(1,4,8,11)           143.5874         estimate D2E/DX2                !
 ! D24   D(3,4,8,9)             71.3578         estimate D2E/DX2                !
 ! D25   D(3,4,8,10)          -167.8483         estimate D2E/DX2                !
 ! D26   D(3,4,8,11)           -45.7992         estimate D2E/DX2                !
 ! D27   D(2,12,13,14)         -60.7677         estimate D2E/DX2                !
 ! D28   D(2,12,13,15)        -177.5141         estimate D2E/DX2                !
 ! D29   D(2,12,13,16)          62.2873         estimate D2E/DX2                !
 ! D30   D(3,12,13,14)         133.7199         estimate D2E/DX2                !
 ! D31   D(3,12,13,15)          16.9736         estimate D2E/DX2                !
 ! D32   D(3,12,13,16)        -103.2251         estimate D2E/DX2                !
 ! D33   D(12,13,16,17)        161.2966         estimate D2E/DX2                !
 ! D34   D(12,13,16,18)        -83.3976         estimate D2E/DX2                !
 ! D35   D(12,13,16,19)         40.6833         estimate D2E/DX2                !
 ! D36   D(14,13,16,17)        -76.3853         estimate D2E/DX2                !
 ! D37   D(14,13,16,18)         38.9206         estimate D2E/DX2                !
 ! D38   D(14,13,16,19)        163.0015         estimate D2E/DX2                !
 ! D39   D(15,13,16,17)         41.1579         estimate D2E/DX2                !
 ! D40   D(15,13,16,18)        156.4637         estimate D2E/DX2                !
 ! D41   D(15,13,16,19)        -79.4554         estimate D2E/DX2                !
 ! D42   D(13,16,19,20)        -88.5902         estimate D2E/DX2                !
 ! D43   D(13,16,19,21)        153.8933         estimate D2E/DX2                !
 ! D44   D(13,16,19,22)         33.8801         estimate D2E/DX2                !
 ! D45   D(17,16,19,20)        151.6267         estimate D2E/DX2                !
 ! D46   D(17,16,19,21)         34.1102         estimate D2E/DX2                !
 ! D47   D(17,16,19,22)        -85.903          estimate D2E/DX2                !
 ! D48   D(18,16,19,20)         35.8782         estimate D2E/DX2                !
 ! D49   D(18,16,19,21)        -81.6382         estimate D2E/DX2                !
 ! D50   D(18,16,19,22)        158.3486         estimate D2E/DX2                !
 ! D51   D(16,19,22,23)         50.0192         estimate D2E/DX2                !
 ! D52   D(16,19,22,24)       -124.5269         estimate D2E/DX2                !
 ! D53   D(20,19,22,23)        173.5902         estimate D2E/DX2                !
 ! D54   D(20,19,22,24)         -0.9559         estimate D2E/DX2                !
 ! D55   D(21,19,22,23)        -71.67           estimate D2E/DX2                !
 ! D56   D(21,19,22,24)        113.7839         estimate D2E/DX2                !
 ! D57   D(19,22,23,32)        174.9679         estimate D2E/DX2                !
 ! D58   D(24,22,23,32)        -11.0699         estimate D2E/DX2                !
 ! D59   D(19,22,24,28)       -166.9934         estimate D2E/DX2                !
 ! D60   D(23,22,24,28)         18.9149         estimate D2E/DX2                !
 ! D61   D(22,23,31,25)         29.9702         estimate D2E/DX2                !
 ! D62   D(22,24,27,25)        -43.5258         estimate D2E/DX2                !
 ! D63   D(26,25,27,28)        -73.2159         estimate D2E/DX2                !
 ! D64   D(29,25,27,28)        166.2862         estimate D2E/DX2                !
 ! D65   D(31,25,27,28)         57.4178         estimate D2E/DX2                !
 ! D66   D(26,25,29,30)        179.5055         estimate D2E/DX2                !
 ! D67   D(27,25,29,30)        -57.488          estimate D2E/DX2                !
 ! D68   D(31,25,29,30)         53.8527         estimate D2E/DX2                !
 ! D69   D(26,25,31,32)         72.7745         estimate D2E/DX2                !
 ! D70   D(27,25,31,32)        -56.5653         estimate D2E/DX2                !
 ! D71   D(29,25,31,32)       -165.53           estimate D2E/DX2                !
 --------------------------------------------------------------------------------
 Trust Radius=3.00D-01 FncErr=1.00D-07 GrdErr=1.00D-06 EigMax=2.50D+02 EigMin=1.00D-04
 Number of steps in this run=    171 maximum allowed number of steps=    192.
 GradGradGradGradGradGradGradGradGradGradGradGradGradGradGradGradGradGrad

 Leave Link  103 at Mon Dec 12 12:33:10 2022, MaxMem=  6710886400 cpu:               0.2 elap:               0.0
 (Enter /data0/home/software/g16/l202.exe)
                          Input orientation:                          
 ---------------------------------------------------------------------
 Center     Atomic      Atomic             Coordinates (Angstroms)
 Number     Number       Type             X           Y           Z
 ---------------------------------------------------------------------
      1          6           0        4.787407    8.882723    8.691109
      2          6           0        5.303449    9.457646    7.534868
      3          6           0        6.164054   10.547574    9.309367
      4          7           0        5.335858    9.569481    9.775630
      5          1           0        4.091810    8.072748    8.805199
      6          1           0        5.121412    9.220217    6.503848
      7          1           0        6.746206   11.261377    9.908949
      8          6           0        4.953803    9.411846   11.167163
      9          1           0        4.253263   10.236933   11.460149
     10          1           0        4.461026    8.444948   11.346787
     11          1           0        5.837596    9.499578   11.839597
     12          7           0        6.166841   10.477662    7.934524
     13          6           0        6.755019   11.509402    7.079983
     14          1           0        7.378663   11.022562    6.297396
     15          1           0        7.438660   12.145724    7.708806
     16          6           0        5.692298   12.422793    6.431451
     17          1           0        6.215230   13.348926    6.100371
     18          1           0        5.288656   11.948756    5.518100
     19          6           0        4.537240   12.818318    7.352244
     20          1           0        3.717943   12.078248    7.307063
     21          1           0        4.096407   13.781197    7.032162
     22          6           0        4.997969   12.976303    8.806663
     23          8           0        5.993484   13.677935    9.034217
     24          8           0        4.382556   12.287076    9.652869
     25         15           0        6.329534   12.861526   12.471492
     26          8           0        7.104123   11.634319   12.255673
     27          8           0        4.763566   12.692243   12.268883
     28          1           0        4.561212   12.598947   11.220606
     29          8           0        6.461359   13.350253   13.983215
     30          1           0        5.905125   14.216538   14.070411
     31          8           0        6.765357   14.133946   11.632884
     32          1           0        6.472877   13.992277   10.618332
 ---------------------------------------------------------------------
                    Distance matrix (angstroms):
                    1          2          3          4          5
     1  C    0.000000
     2  C    1.390586   0.000000
     3  C    2.247027   2.253315   0.000000
     4  N    1.395930   2.243785   1.363809   0.000000
     5  H    1.073746   2.236013   3.266978   2.174765   0.000000
     6  H    2.238207   1.073551   3.274128   3.297352   2.770015
     7  H    3.313310   3.312288   1.099052   2.206664   4.293185
     8  C    2.537420   3.649372   2.491183   1.451613   2.848700
     9  H    3.128382   4.137392   2.893697   2.110713   3.429070
    10  H    2.711235   4.033108   3.387096   2.120953   2.595096
    11  H    3.375853   4.337945   2.758067   2.125226   3.780368
    12  N    2.240332   1.394849   1.376622   2.214723   3.293545
    13  C    3.656045   2.554149   2.498901   3.611623   4.677568
    14  H    4.125940   2.878682   3.282203   4.287494   5.078768
    15  H    4.317550   3.437316   2.596247   3.915427   5.384479
    16  C    4.296158   3.187606   3.467189   4.410439   5.207603
    17  H    5.357011   4.246314   4.260029   5.344626   6.297862
    18  H    4.440698   3.205183   4.135618   4.877473   5.221197
    19  C    4.164619   3.451745   3.410738   4.131045   4.982963
    20  H    3.642899   3.071364   3.512213   3.873678   4.292810
    21  H    5.217723   4.516941   4.462863   5.177008   5.977464
    22  C    4.100620   3.753895   2.740655   3.558019   4.986580
    23  O    4.956451   4.531560   3.147056   4.226294   5.923423
    24  O    3.560689   3.652348   2.513483   2.882564   4.308554
    25  P    5.700906   6.083544   3.921835   4.369511   6.432846
    26  O    5.064047   5.501485   3.278027   3.679800   5.802119
    27  O    5.226230   5.758905   3.914040   4.036765   5.812753
    28  H    4.501093   4.899322   3.229562   3.444662   5.151796
    29  O    7.125119   7.620651   5.457862   5.767561   7.763934
    30  H    7.657399   8.106935   6.016301   6.353294   8.291967
    31  O    6.335745   6.387385   4.315363   5.131004   7.202901
    32  H    5.715115   5.606977   3.697937   4.643714   6.633080
                    6          7          8          9         10
     6  H    0.000000
     7  H    4.289639   0.000000
     8  C    4.670259   2.866457   0.000000
     9  H    5.133450   3.109738   1.121323   0.000000
    10  H    4.948859   3.901499   1.099993   1.807547   0.000000
    11  H    5.390842   2.767112   1.113981   1.788235   1.802790
    12  N    2.172769   2.201869   3.613500   4.018677   4.322646
    13  C    2.870709   2.839831   4.934487   5.202289   5.732268
    14  H    2.895903   3.674282   5.673534   6.085997   6.375974
    15  H    3.921754   2.470261   5.060517   5.278524   5.983055
    16  C    3.253866   3.814787   5.660225   5.668916   6.442035
    17  H    4.290160   4.375507   6.539433   6.500849   7.392639
    18  H    2.905958   4.677232   6.201609   6.269794   6.850929
    19  C    3.742641   3.720260   5.131392   4.859946   5.923559
    20  H    3.283781   4.075226   4.851538   4.574400   5.483832
    21  H    4.704497   4.652616   6.076561   5.673930   6.872008
    22  C    4.407536   2.685580   4.275426   3.885836   5.222424
    23  O    5.199474   2.677965   4.881589   4.555657   5.922884
    24  O    4.457338   2.589300   3.299448   2.736067   4.199698
    25  P    7.094467   3.049708   3.936268   3.496027   4.925692
    26  O    6.545420   2.402978   3.278432   3.273064   4.240769
    27  O    6.739336   3.398165   3.465686   2.634959   4.356754
    28  H    5.829018   2.878148   3.211635   2.394018   4.157122
    29  O    8.648329   4.587394   5.070890   4.575403   5.917271
    30  H    9.101116   5.172829   5.693762   5.037794   6.543302
    31  O    7.290699   3.350220   5.079060   4.639737   6.144631
    32  H    6.444222   2.834739   4.856866   4.442741   5.945675
                   11         12         13         14         15
    11  H    0.000000
    12  N    4.039139   0.000000
    13  C    5.247379   1.463107   0.000000
    14  H    5.950660   2.108463   1.112829   0.000000
    15  H    5.160323   2.109716   1.125917   1.804763   0.000000
    16  C    6.149337   2.503588   1.544103   2.196006   2.181326
    17  H    6.920896   3.407435   2.152873   2.608518   2.351922
    18  H    6.801554   2.962167   2.186946   2.415216   3.075794
    19  C    5.730733   2.910897   2.589581   3.522943   2.999626
    20  H    5.629061   2.992104   3.098222   3.941417   3.742951
    21  H    6.668990   4.001787   3.497364   4.350075   3.781967
    22  C    4.689486   2.893112   2.867132   3.972559   2.802164
    23  O    5.035189   3.388381   3.016869   4.057082   2.488558
    24  O    3.830022   3.067631   3.585122   4.672778   3.624794
    25  P    3.456008   5.127705   5.574733   6.527015   4.942237
    26  O    2.516809   4.570414   5.188954   5.995889   4.587750
    27  O    3.395723   5.065592   5.682401   6.729430   5.314989
    28  H    3.408577   4.228029   4.810889   5.887361   4.562659
    29  O    4.451053   6.702625   7.150495   8.082785   6.463298
    30  H    5.218314   7.190049   7.544335   8.531856   6.863674
    31  O    4.730839   5.234931   5.255211   6.206794   4.450253
    32  H    4.698874   4.432719   4.331765   5.320728   3.578804
                   16         17         18         19         20
    16  C    0.000000
    17  H    1.113909   0.000000
    18  H    1.105372   1.777092   0.000000
    19  C    1.529202   2.159718   2.164451   0.000000
    20  H    2.187118   3.050766   2.384176   1.104985   0.000000
    21  H    2.180134   2.354677   2.659263   1.106310   1.766024
    22  C    2.535764   2.990751   3.457600   1.533807   2.166511
    23  O    2.905251   2.960552   3.981196   2.385083   3.274163
    24  O    3.480140   4.135996   4.246386   2.366225   2.447065
    25  P    6.089388   6.390759   7.089869   5.424102   5.839971
    26  O    6.044543   6.451182   6.984961   5.659890   6.012656
    27  O    5.916989   6.370958   6.811869   4.923460   5.107835
    28  H    4.924062   5.432776   5.785369   3.874651   4.037084
    29  O    7.647272   7.886686   8.660115   6.924952   7.329075
    30  H    7.849620   8.023120   8.869323   6.997135   7.422865
    31  O    5.579821   5.614944   6.659301   5.001926   5.676738
    32  H    4.539004   4.570805   5.620563   3.973940   4.713562
                   21         22         23         24         25
    21  H    0.000000
    22  C    2.146980   0.000000
    23  O    2.760034   1.238999   0.000000
    24  O    3.030245   1.252929   2.216373   0.000000
    25  P    5.951383   3.900924   3.548847   3.473522   0.000000
    26  O    6.398477   4.258224   3.973369   3.821990   1.467175
    27  O    5.390192   3.481753   3.598243   2.674483   1.588069
    28  H    4.376851   2.481990   2.827705   1.608409   2.181886
    29  O    7.354988   5.392406   4.981853   4.919722   1.594220
    30  H    7.279968   5.483444   5.065684   5.055266   2.138393
    31  O    5.330513   3.528643   2.748964   3.606817   1.585010
    32  H    4.307294   2.547489   1.684651   2.865183   2.175626
                   26         27         28         29         30
    26  O    0.000000
    27  O    2.568576   0.000000
    28  H    2.910029   1.071698   0.000000
    29  O    2.518328   2.500882   3.436136   0.000000
    30  H    3.376200   2.621476   3.541764   1.033174   0.000000
    31  O    2.598223   2.547581   2.717434   2.496126   2.586186
    32  H    2.939273   2.708533   2.441017   3.425604   3.505636
                   31         32
    31  O    0.000000
    32  H    1.065331   0.000000
 Stoichiometry    C8H15N2O6P
 Framework group  C1[X(C8H15N2O6P)]
 Deg. of freedom    90
 Full point group                 C1      NOp   1
 Largest Abelian subgroup         C1      NOp   1
 Largest concise Abelian subgroup C1      NOp   1
                         Standard orientation:                         
 ---------------------------------------------------------------------
 Center     Atomic      Atomic             Coordinates (Angstroms)
 Number     Number       Type             X           Y           Z
 ---------------------------------------------------------------------
      1          6           0        2.380228    2.316544    0.340326
      2          6           0        3.163678    1.287868   -0.171300
      3          6           0        1.013956    0.866992   -0.699496
      4          7           0        1.055769    2.037803   -0.001336
      5          1           0        2.666571    3.183295    0.905729
      6          1           0        4.224434    1.132664   -0.114544
      7          1           0        0.121371    0.374253   -1.109878
      8          6           0       -0.115385    2.758289    0.463937
      9          1           0       -0.592216    2.194893    1.308083
     10          1           0        0.140578    3.770469    0.810289
     11          1           0       -0.886594    2.832462   -0.336494
     12          7           0        2.304679    0.405423   -0.826293
     13          6           0        2.633220   -0.935147   -1.311693
     14          1           0        3.447205   -0.860046   -2.066793
     15          1           0        1.728320   -1.357428   -1.831812
     16          6           0        3.039877   -1.897331   -0.174554
     17          1           0        2.934163   -2.933501   -0.569484
     18          1           0        4.109148   -1.764982    0.072410
     19          6           0        2.204366   -1.774368    1.100302
     20          1           0        2.628505   -1.018243    1.785411
     21          1           0        2.206045   -2.728429    1.660380
     22          6           0        0.745127   -1.416812    0.791531
     23          8           0        0.143258   -2.088413   -0.058072
     24          8           0        0.302443   -0.390300    1.357337
     25         15           0       -2.767094   -0.065391   -0.235689
     26          8           0       -2.223995    0.887594   -1.210095
     27          8           0       -2.305740    0.193721    1.261634
     28          1           0       -1.279157   -0.097870    1.359810
     29          8           0       -4.355581    0.048911   -0.163706
     30          1           0       -4.677701   -0.647601    0.528073
     31          8           0       -2.520711   -1.602894   -0.531723
     32          1           0       -1.495195   -1.826813   -0.349766
 ---------------------------------------------------------------------
 Rotational constants (GHZ):           0.7004974           0.3099943           0.2508600
 Leave Link  202 at Mon Dec 12 12:33:11 2022, MaxMem=  6710886400 cpu:               0.1 elap:               0.0
 (Enter /data0/home/software/g16/l301.exe)
 Standard basis: 6-311+G(2d,p) (5D, 7F)
 Ernie: Thresh=  0.10000D-02 Tol=  0.10000D-05 Strict=F.
 There are   591 symmetry adapted cartesian basis functions of A   symmetry.
 There are   557 symmetry adapted basis functions of A   symmetry.
   557 basis functions,   848 primitive gaussians,   591 cartesian basis functions
    70 alpha electrons       70 beta electrons
       nuclear repulsion energy      1547.9421575736 Hartrees.
 IExCor=  402 DFT=T Ex+Corr=B3LYP ExCW=0 ScaHFX=  0.200000
 ScaDFX=  0.800000  0.720000  1.000000  0.810000 ScalE2=  1.000000  1.000000
 IRadAn=      5 IRanWt=     -1 IRanGd=            0 ICorTp=0 IEmpDi=  4
 NAtoms=   32 NActive=   32 NUniq=   32 SFac= 1.00D+00 NAtFMM=   60 NAOKFM=F Big=F
 Integral buffers will be    131072 words long.
 Raffenetti 2 integral format.
 Two-electron integral symmetry is turned on.
 ------------------------------------------------------------------------------
 Polarizable Continuum Model (PCM)
 =================================
 Model                : PCM.
 Atomic radii         : SMD-Coulomb.
 Polarization charges : Total charges.
 Charge compensation  : None.
 Solution method      : On-the-fly selection.
 Cavity type          : VdW (van der Waals Surface) (Alpha=1.000).
 Cavity algorithm     : GePol (No added spheres)
                        Default sphere list used, NSphG=   32.
                        Lebedev-Laikov grids with approx.  5.0 points / Ang**2.
                        Smoothing algorithm: York/Karplus (Gamma=1.0000).
                        Polarization charges: spherical gaussians, with
                                              point-specific exponents (IZeta= 3).
                        Self-potential: point-specific (ISelfS= 7).
                        Self-field    : sphere-specific E.n sum rule (ISelfD= 2).
 1st derivatives      : Analytical E(r).r(x)/FMM algorithm (CHGder, D1EAlg=3).
                        Cavity 1st derivative terms included.
 Solvent              : Water, Eps=  78.355300 Eps(inf)=   1.777849
 ------------------------------------------------------------------------------
 GePol: Number of generator spheres                  =      32
 GePol: Total number of spheres                      =      32
 GePol: Number of exposed spheres                    =      32 (100.00%)
 GePol: Number of points                             =    2246
 GePol: Average weight of points                     =       0.12
 GePol: Minimum weight of points                     =   0.30D-10
 GePol: Maximum weight of points                     =    0.21991
 GePol: Number of points with low weight             =     137
 GePol: Fraction of low-weight points (<1% of avg)   =       6.10%
 GePol: Cavity surface area                          =    261.563 Ang**2
 GePol: Cavity volume                                =    235.964 Ang**3
 ------------------------------------------------------------------------------
 Atomic radii for non-electrostatic terms: SMD-CDS.
 ------------------------------------------------------------------------------
 PCM non-electrostatic energy =         0.0148978153 Hartrees.
 Nuclear repulsion after PCM non-electrostatic terms =     1547.9570553889 Hartrees.
 Leave Link  301 at Mon Dec 12 12:33:11 2022, MaxMem=  6710886400 cpu:               2.2 elap:               0.1
 (Enter /data0/home/software/g16/l302.exe)
 NPDir=0 NMtPBC=     1 NCelOv=     1 NCel=       1 NClECP=     1 NCelD=      1
         NCelK=      1 NCelE2=     1 NClLst=     1 CellRange=     0.0.
 One-electron integrals computed using PRISM.
 One-electron integral symmetry used in STVInt
 NBasis=   557 RedAO= T EigKep=  9.05D-06  NBF=   557
 NBsUse=   557 1.00D-06 EigRej= -1.00D+00 NBFU=   557
 Precomputing XC quadrature grid using
 IXCGrd= 4 IRadAn=           5 IRanWt=          -1 IRanGd=           0 AccXCQ= 0.00D+00.
 Generated NRdTot=       0 NPtTot=           0 NUsed=           0 NTot=          32
 NSgBfM=   591   591   591   591   591 MxSgAt=    32 MxSgA2=    32.
 Leave Link  302 at Mon Dec 12 12:33:12 2022, MaxMem=  6710886400 cpu:              23.1 elap:               1.0
 (Enter /data0/home/software/g16/l303.exe)
 DipDrv:  MaxL=1.
 Leave Link  303 at Mon Dec 12 12:33:12 2022, MaxMem=  6710886400 cpu:               1.9 elap:               0.1
 (Enter /data0/home/software/g16/l401.exe)
 ExpMin= 3.48D-02 ExpMax= 7.75D+04 ExpMxC= 2.65D+03 IAcc=3 IRadAn=         5 AccDes= 0.00D+00
 Harris functional with IExCor=  402 and IRadAn=       5 diagonalized for initial guess.
 HarFok:  IExCor=  402 AccDes= 0.00D+00 IRadAn=         5 IDoV= 1 UseB2=F ITyADJ=14
 ICtDFT=  3500011 ScaDFX=  1.000000  1.000000  1.000000  1.000000
 FoFCou: FMM=F IPFlag=           0 FMFlag=      100000 FMFlg1=           0
         NFxFlg=           0 DoJE=T BraDBF=F KetDBF=T FulRan=T
         wScrn=  0.000000 ICntrl=       500 IOpCl=  0 I1Cent=   200000004 NGrid=           0
         NMat0=    1 NMatS0=      1 NMatT0=    0 NMatD0=    1 NMtDS0=    0 NMtDT0=    0
 Petite list used in FoFCou.
 Harris En= -1216.60244944455    
 JPrj=0 DoOrth=F DoCkMO=F.
 Leave Link  401 at Mon Dec 12 12:33:16 2022, MaxMem=  6710886400 cpu:              91.0 elap:               3.8
 (Enter /data0/home/software/g16/l502.exe)
 Integral symmetry usage will be decided dynamically.
 Closed shell SCF:
 Using DIIS extrapolation, IDIIS=  1040.
 NGot=  6710886400 LenX=  6710168201 LenY=  6709818329
 Requested convergence on RMS density matrix=1.00D-08 within 128 cycles.
 Requested convergence on MAX density matrix=1.00D-06.
 Requested convergence on             energy=1.00D-06.
 No special actions if energy rises.
 Fock matrices will be formed incrementally for  20 cycles.

 Cycle   1  Pass 1  IDiag  1:
 FoFJK:  IHMeth= 1 ICntrl=       0 DoSepK=F KAlg= 0 I1Cent=           0 FoldK=F
 IRaf= 860000000 NMat=       1 IRICut=       1 DoRegI=T DoRafI=F ISym2E= 0 IDoP0=0 IntGTp=1.
 FoFCou: FMM=F IPFlag=           0 FMFlag=      100000 FMFlg1=           0
         NFxFlg=           0 DoJE=F BraDBF=F KetDBF=F FulRan=T
         wScrn=  0.000000 ICntrl=         0 IOpCl=  0 I1Cent=           0 NGrid=           0
         NMat0=    1 NMatS0=      1 NMatT0=    0 NMatD0=    1 NMtDS0=    0 NMtDT0=    0
 Symmetry not used in FoFCou.
 Inv3:  Mode=1 IEnd=    15133548.
 Iteration    1 A*A^-1 deviation from unit magnitude is 6.00D-15 for    459.
 Iteration    1 A*A^-1 deviation from orthogonality  is 1.92D-15 for    481    459.
 Iteration    1 A^-1*A deviation from unit magnitude is 4.66D-15 for    459.
 Iteration    1 A^-1*A deviation from orthogonality  is 2.88D-15 for   1705   1698.
 E= -1215.97792175866    
 DIIS: error= 3.99D-02 at cycle   1 NSaved=   1.
 NSaved= 1 IEnMin= 1 EnMin= -1215.97792175866     IErMin= 1 ErrMin= 3.99D-02
 ErrMax= 3.99D-02  0.00D+00 EMaxC= 1.00D-01 BMatC= 8.89D-01 BMatP= 8.89D-01
 IDIUse=3 WtCom= 6.01D-01 WtEn= 3.99D-01
 Coeff-Com:  0.100D+01
 Coeff-En:   0.100D+01
 Coeff:      0.100D+01
 Gap=     0.212 Goal=   None    Shift=    0.000
 GapD=    0.212 DampG=1.000 DampE=0.500 DampFc=0.5000 IDamp=-1.
 Damping current iteration by 5.00D-01
 RMSDP=3.94D-03 MaxDP=4.00D-01              OVMax= 2.80D-01

 Cycle   2  Pass 1  IDiag  1:
 RMSU=  1.85D-03    CP:  9.34D-01
 E= -1216.16284857845     Delta-E=       -0.184926819789 Rises=F Damp=T
 DIIS: error= 9.84D-03 at cycle   2 NSaved=   2.
 NSaved= 2 IEnMin= 2 EnMin= -1216.16284857845     IErMin= 2 ErrMin= 9.84D-03
 ErrMax= 9.84D-03  0.00D+00 EMaxC= 1.00D-01 BMatC= 7.43D-02 BMatP= 8.89D-01
 IDIUse=3 WtCom= 9.02D-01 WtEn= 9.84D-02
 Coeff-Com:  0.173D+00 0.827D+00
 Coeff-En:   0.317D+00 0.683D+00
 Coeff:      0.187D+00 0.813D+00
 Gap=     0.253 Goal=   None    Shift=    0.000
 RMSDP=1.22D-03 MaxDP=1.95D-01 DE=-1.85D-01 OVMax= 1.55D-01

 Cycle   3  Pass 1  IDiag  1:
 RMSU=  1.13D-03    CP:  8.96D-01  8.52D-01
 E= -1216.54738346309     Delta-E=       -0.384534884637 Rises=F Damp=F
 DIIS: error= 4.64D-03 at cycle   3 NSaved=   3.
 NSaved= 3 IEnMin= 3 EnMin= -1216.54738346309     IErMin= 3 ErrMin= 4.64D-03
 ErrMax= 4.64D-03  0.00D+00 EMaxC= 1.00D-01 BMatC= 2.62D-02 BMatP= 7.43D-02
 IDIUse=3 WtCom= 9.54D-01 WtEn= 4.64D-02
 Coeff-Com:  0.404D-01 0.380D+00 0.580D+00
 Coeff-En:   0.000D+00 0.000D+00 0.100D+01
 Coeff:      0.385D-01 0.362D+00 0.599D+00
 Gap=     0.227 Goal=   None    Shift=    0.000
 RMSDP=3.91D-04 MaxDP=2.56D-02 DE=-3.85D-01 OVMax= 4.87D-02

 Cycle   4  Pass 1  IDiag  1:
 RMSU=  3.77D-04    CP:  8.93D-01  8.89D-01  9.40D-01
 E= -1216.56141058451     Delta-E=       -0.014027121428 Rises=F Damp=F
 DIIS: error= 3.41D-03 at cycle   4 NSaved=   4.
 NSaved= 4 IEnMin= 4 EnMin= -1216.56141058451     IErMin= 4 ErrMin= 3.41D-03
 ErrMax= 3.41D-03  0.00D+00 EMaxC= 1.00D-01 BMatC= 8.06D-03 BMatP= 2.62D-02
 IDIUse=3 WtCom= 9.66D-01 WtEn= 3.41D-02
 Coeff-Com: -0.722D-02 0.990D-01 0.371D+00 0.538D+00
 Coeff-En:   0.000D+00 0.000D+00 0.236D+00 0.764D+00
 Coeff:     -0.697D-02 0.956D-01 0.366D+00 0.545D+00
 Gap=     0.226 Goal=   None    Shift=    0.000
 RMSDP=1.66D-04 MaxDP=2.09D-02 DE=-1.40D-02 OVMax= 1.83D-02

 Cycle   5  Pass 1  IDiag  1:
 RMSU=  1.10D-04    CP:  8.89D-01  8.91D-01  9.85D-01  7.18D-01
 E= -1216.56683703116     Delta-E=       -0.005426446647 Rises=F Damp=F
 DIIS: error= 6.53D-04 at cycle   5 NSaved=   5.
 NSaved= 5 IEnMin= 5 EnMin= -1216.56683703116     IErMin= 5 ErrMin= 6.53D-04
 ErrMax= 6.53D-04  0.00D+00 EMaxC= 1.00D-01 BMatC= 3.63D-04 BMatP= 8.06D-03
 IDIUse=3 WtCom= 9.93D-01 WtEn= 6.53D-03
 Coeff-Com: -0.596D-02 0.217D-01 0.136D+00 0.271D+00 0.577D+00
 Coeff-En:   0.000D+00 0.000D+00 0.000D+00 0.000D+00 0.100D+01
 Coeff:     -0.592D-02 0.215D-01 0.135D+00 0.269D+00 0.580D+00
 Gap=     0.226 Goal=   None    Shift=    0.000
 RMSDP=3.92D-05 MaxDP=1.86D-03 DE=-5.43D-03 OVMax= 3.10D-03

 Cycle   6  Pass 1  IDiag  1:
 RMSU=  3.32D-05    CP:  8.88D-01  8.97D-01  9.88D-01  7.40D-01  8.85D-01
 E= -1216.56709556162     Delta-E=       -0.000258530463 Rises=F Damp=F
 DIIS: error= 1.11D-04 at cycle   6 NSaved=   6.
 NSaved= 6 IEnMin= 6 EnMin= -1216.56709556162     IErMin= 6 ErrMin= 1.11D-04
 ErrMax= 1.11D-04  0.00D+00 EMaxC= 1.00D-01 BMatC= 2.56D-05 BMatP= 3.63D-04
 IDIUse=3 WtCom= 9.99D-01 WtEn= 1.11D-03
 Coeff-Com: -0.221D-02 0.358D-02 0.389D-01 0.907D-01 0.288D+00 0.581D+00
 Coeff-En:   0.000D+00 0.000D+00 0.000D+00 0.000D+00 0.000D+00 0.100D+01
 Coeff:     -0.221D-02 0.357D-02 0.388D-01 0.906D-01 0.288D+00 0.581D+00
 Gap=     0.226 Goal=   None    Shift=    0.000
 RMSDP=1.34D-05 MaxDP=9.67D-04 DE=-2.59D-04 OVMax= 8.31D-04

 Cycle   7  Pass 1  IDiag  1:
 RMSU=  7.97D-06    CP:  8.88D-01  8.96D-01  9.92D-01  7.50D-01  8.74D-01
                    CP:  7.28D-01
 E= -1216.56711703096     Delta-E=       -0.000021469332 Rises=F Damp=F
 DIIS: error= 2.53D-05 at cycle   7 NSaved=   7.
 NSaved= 7 IEnMin= 7 EnMin= -1216.56711703096     IErMin= 7 ErrMin= 2.53D-05
 ErrMax= 2.53D-05  0.00D+00 EMaxC= 1.00D-01 BMatC= 1.51D-06 BMatP= 2.56D-05
 IDIUse=1 WtCom= 1.00D+00 WtEn= 0.00D+00
 Coeff-Com: -0.631D-03 0.401D-03 0.112D-01 0.282D-01 0.109D+00 0.276D+00
 Coeff-Com:  0.576D+00
 Coeff:     -0.631D-03 0.401D-03 0.112D-01 0.282D-01 0.109D+00 0.276D+00
 Coeff:      0.576D+00
 Gap=     0.226 Goal=   None    Shift=    0.000
 RMSDP=2.72D-06 MaxDP=2.11D-04 DE=-2.15D-05 OVMax= 2.66D-04

 Cycle   8  Pass 1  IDiag  1:
 RMSU=  2.32D-06    CP:  8.88D-01  8.96D-01  9.92D-01  7.50D-01  8.75D-01
                    CP:  7.44D-01  8.43D-01
 E= -1216.56711811043     Delta-E=       -0.000001079477 Rises=F Damp=F
 DIIS: error= 1.11D-05 at cycle   8 NSaved=   8.
 NSaved= 8 IEnMin= 8 EnMin= -1216.56711811043     IErMin= 8 ErrMin= 1.11D-05
 ErrMax= 1.11D-05  0.00D+00 EMaxC= 1.00D-01 BMatC= 2.24D-07 BMatP= 1.51D-06
 IDIUse=1 WtCom= 1.00D+00 WtEn= 0.00D+00
 Coeff-Com: -0.352D-04-0.218D-03 0.142D-02 0.394D-02 0.235D-01 0.748D-01
 Coeff-Com:  0.309D+00 0.588D+00
 Coeff:     -0.352D-04-0.218D-03 0.142D-02 0.394D-02 0.235D-01 0.748D-01
 Coeff:      0.309D+00 0.588D+00
 Gap=     0.226 Goal=   None    Shift=    0.000
 RMSDP=1.10D-06 MaxDP=2.11D-04 DE=-1.08D-06 OVMax= 8.71D-05

 Cycle   9  Pass 1  IDiag  1:
 RMSU=  7.17D-07    CP:  8.88D-01  8.96D-01  9.92D-01  7.50D-01  8.79D-01
                    CP:  7.50D-01  8.50D-01  8.48D-01
 E= -1216.56711825996     Delta-E=       -0.000000149530 Rises=F Damp=F
 DIIS: error= 3.27D-06 at cycle   9 NSaved=   9.
 NSaved= 9 IEnMin= 9 EnMin= -1216.56711825996     IErMin= 9 ErrMin= 3.27D-06
 ErrMax= 3.27D-06  0.00D+00 EMaxC= 1.00D-01 BMatC= 2.17D-08 BMatP= 2.24D-07
 IDIUse=1 WtCom= 1.00D+00 WtEn= 0.00D+00
 Coeff-Com:  0.329D-04-0.146D-03-0.130D-03-0.184D-03 0.369D-02 0.160D-01
 Coeff-Com:  0.111D+00 0.309D+00 0.561D+00
 Coeff:      0.329D-04-0.146D-03-0.130D-03-0.184D-03 0.369D-02 0.160D-01
 Coeff:      0.111D+00 0.309D+00 0.561D+00
 Gap=     0.226 Goal=   None    Shift=    0.000
 RMSDP=3.49D-07 MaxDP=2.66D-05 DE=-1.50D-07 OVMax= 3.53D-05

 Cycle  10  Pass 1  IDiag  1:
 RMSU=  2.65D-07    CP:  8.88D-01  8.96D-01  9.92D-01  7.50D-01  8.80D-01
                    CP:  7.51D-01  8.68D-01  8.68D-01  8.43D-01
 E= -1216.56711827602     Delta-E=       -0.000000016055 Rises=F Damp=F
 DIIS: error= 1.23D-06 at cycle  10 NSaved=  10.
 NSaved=10 IEnMin=10 EnMin= -1216.56711827602     IErMin=10 ErrMin= 1.23D-06
 ErrMax= 1.23D-06  0.00D+00 EMaxC= 1.00D-01 BMatC= 2.15D-09 BMatP= 2.17D-08
 IDIUse=1 WtCom= 1.00D+00 WtEn= 0.00D+00
 Coeff-Com:  0.186D-04-0.590D-04-0.180D-03-0.399D-03 0.945D-04 0.243D-02
 Coeff-Com:  0.325D-01 0.114D+00 0.304D+00 0.548D+00
 Coeff:      0.186D-04-0.590D-04-0.180D-03-0.399D-03 0.945D-04 0.243D-02
 Coeff:      0.325D-01 0.114D+00 0.304D+00 0.548D+00
 Gap=     0.226 Goal=   None    Shift=    0.000
 RMSDP=1.06D-07 MaxDP=1.02D-05 DE=-1.61D-08 OVMax= 1.42D-05

 Cycle  11  Pass 1  IDiag  1:
 RMSU=  8.64D-08    CP:  8.88D-01  8.96D-01  9.92D-01  7.50D-01  8.80D-01
                    CP:  7.51D-01  8.69D-01  8.77D-01  8.86D-01  8.90D-01
 E= -1216.56711827771     Delta-E=       -0.000000001692 Rises=F Damp=F
 DIIS: error= 5.21D-07 at cycle  11 NSaved=  11.
 NSaved=11 IEnMin=11 EnMin= -1216.56711827771     IErMin=11 ErrMin= 5.21D-07
 ErrMax= 5.21D-07  0.00D+00 EMaxC= 1.00D-01 BMatC= 3.77D-10 BMatP= 2.15D-09
 IDIUse=1 WtCom= 1.00D+00 WtEn= 0.00D+00
 Coeff-Com:  0.715D-05-0.168D-04-0.106D-03-0.245D-03-0.492D-03-0.661D-03
 Coeff-Com:  0.564D-02 0.307D-01 0.118D+00 0.337D+00 0.509D+00
 Coeff:      0.715D-05-0.168D-04-0.106D-03-0.245D-03-0.492D-03-0.661D-03
 Coeff:      0.564D-02 0.307D-01 0.118D+00 0.337D+00 0.509D+00
 Gap=     0.226 Goal=   None    Shift=    0.000
 RMSDP=4.45D-08 MaxDP=5.63D-06 DE=-1.69D-09 OVMax= 4.10D-06

 Cycle  12  Pass 1  IDiag  1:
 RMSU=  3.06D-08    CP:  8.88D-01  8.96D-01  9.92D-01  7.50D-01  8.80D-01
                    CP:  7.51D-01  8.69D-01  8.80D-01  9.02D-01  9.29D-01
                    CP:  8.13D-01
 E= -1216.56711827794     Delta-E=       -0.000000000234 Rises=F Damp=F
 DIIS: error= 1.00D-07 at cycle  12 NSaved=  12.
 NSaved=12 IEnMin=12 EnMin= -1216.56711827794     IErMin=12 ErrMin= 1.00D-07
 ErrMax= 1.00D-07  0.00D+00 EMaxC= 1.00D-01 BMatC= 2.29D-11 BMatP= 3.77D-10
 IDIUse=1 WtCom= 1.00D+00 WtEn= 0.00D+00
 Coeff-Com:  0.148D-07 0.969D-06-0.255D-04-0.530D-04-0.232D-03-0.597D-03
 Coeff-Com: -0.195D-02-0.198D-02 0.113D-01 0.752D-01 0.233D+00 0.685D+00
 Coeff:      0.148D-07 0.969D-06-0.255D-04-0.530D-04-0.232D-03-0.597D-03
 Coeff:     -0.195D-02-0.198D-02 0.113D-01 0.752D-01 0.233D+00 0.685D+00
 Gap=     0.226 Goal=   None    Shift=    0.000
 RMSDP=1.57D-08 MaxDP=2.42D-06 DE=-2.34D-10 OVMax= 1.13D-06

 Cycle  13  Pass 1  IDiag  1:
 RMSU=  8.22D-09    CP:  8.88D-01  8.96D-01  9.92D-01  7.50D-01  8.80D-01
                    CP:  7.51D-01  8.70D-01  8.82D-01  9.10D-01  9.51D-01
                    CP:  8.77D-01  9.00D-01
 E= -1216.56711827801     Delta-E=       -0.000000000069 Rises=F Damp=F
 DIIS: error= 4.30D-08 at cycle  13 NSaved=  13.
 NSaved=13 IEnMin=13 EnMin= -1216.56711827801     IErMin=13 ErrMin= 4.30D-08
 ErrMax= 4.30D-08  0.00D+00 EMaxC= 1.00D-01 BMatC= 3.47D-12 BMatP= 2.29D-11
 IDIUse=1 WtCom= 1.00D+00 WtEn= 0.00D+00
 Coeff-Com: -0.583D-06 0.169D-05-0.662D-05-0.109D-04-0.857D-04-0.257D-03
 Coeff-Com: -0.137D-02-0.286D-02-0.132D-02 0.184D-01 0.936D-01 0.374D+00
 Coeff-Com:  0.519D+00
 Coeff:     -0.583D-06 0.169D-05-0.662D-05-0.109D-04-0.857D-04-0.257D-03
 Coeff:     -0.137D-02-0.286D-02-0.132D-02 0.184D-01 0.936D-01 0.374D+00
 Coeff:      0.519D+00
 Gap=     0.226 Goal=   None    Shift=    0.000
 RMSDP=4.65D-09 MaxDP=3.80D-07 DE=-6.91D-11 OVMax= 7.97D-07

 Error on total polarization charges =  0.06656
 SCF Done:  E(RB3LYP) =  -1216.56711828     A.U. after   13 cycles
            NFock= 13  Conv=0.47D-08     -V/T= 2.0036
 KE= 1.212164890625D+03 PE=-5.959811638837D+03 EE= 1.983122574545D+03
 SMD-CDS (non-electrostatic) energy       (kcal/mol) =       9.35
 (included in total energy above)
 Leave Link  502 at Mon Dec 12 12:36:35 2022, MaxMem=  6710886400 cpu:            4733.5 elap:             199.8
 (Enter /data0/home/software/g16/l601.exe)
 Copying SCF densities to generalized density rwf, IOpCl= 0 IROHF=0.

 **********************************************************************

            Population analysis using the SCF density.

 **********************************************************************

 Orbital symmetries:
       Occupied  (A) (A) (A) (A) (A) (A) (A) (A) (A) (A) (A) (A)
                 (A) (A) (A) (A) (A) (A) (A) (A) (A) (A) (A) (A)
                 (A) (A) (A) (A) (A) (A) (A) (A) (A) (A) (A) (A)
                 (A) (A) (A) (A) (A) (A) (A) (A) (A) (A) (A) (A)
                 (A) (A) (A) (A) (A) (A) (A) (A) (A) (A) (A) (A)
                 (A) (A) (A) (A) (A) (A) (A) (A) (A) (A)
       Virtual   (A) (A) (A) (A) (A) (A) (A) (A) (A) (A) (A) (A)
                 (A) (A) (A) (A) (A) (A) (A) (A) (A) (A) (A) (A)
                 (A) (A) (A) (A) (A) (A) (A) (A) (A) (A) (A) (A)
                 (A) (A) (A) (A) (A) (A) (A) (A) (A) (A) (A) (A)
                 (A) (A) (A) (A) (A) (A) (A) (A) (A) (A) (A) (A)
                 (A) (A) (A) (A) (A) (A) (A) (A) (A) (A) (A) (A)
                 (A) (A) (A) (A) (A) (A) (A) (A) (A) (A) (A) (A)
                 (A) (A) (A) (A) (A) (A) (A) (A) (A) (A) (A) (A)
                 (A) (A) (A) (A) (A) (A) (A) (A) (A) (A) (A) (A)
                 (A) (A) (A) (A) (A) (A) (A) (A) (A) (A) (A) (A)
                 (A) (A) (A) (A) (A) (A) (A) (A) (A) (A) (A) (A)
                 (A) (A) (A) (A) (A) (A) (A) (A) (A) (A) (A) (A)
                 (A) (A) (A) (A) (A) (A) (A) (A) (A) (A) (A) (A)
                 (A) (A) (A) (A) (A) (A) (A) (A) (A) (A) (A) (A)
                 (A) (A) (A) (A) (A) (A) (A) (A) (A) (A) (A) (A)
                 (A) (A) (A) (A) (A) (A) (A) (A) (A) (A) (A) (A)
                 (A) (A) (A) (A) (A) (A) (A) (A) (A) (A) (A) (A)
                 (A) (A) (A) (A) (A) (A) (A) (A) (A) (A) (A) (A)
                 (A) (A) (A) (A) (A) (A) (A) (A) (A) (A) (A) (A)
                 (A) (A) (A) (A) (A) (A) (A) (A) (A) (A) (A) (A)
                 (A) (A) (A) (A) (A) (A) (A) (A) (A) (A) (A) (A)
                 (A) (A) (A) (A) (A) (A) (A) (A) (A) (A) (A) (A)
                 (A) (A) (A) (A) (A) (A) (A) (A) (A) (A) (A) (A)
                 (A) (A) (A) (A) (A) (A) (A) (A) (A) (A) (A) (A)
                 (A) (A) (A) (A) (A) (A) (A) (A) (A) (A) (A) (A)
                 (A) (A) (A) (A) (A) (A) (A) (A) (A) (A) (A) (A)
                 (A) (A) (A) (A) (A) (A) (A) (A) (A) (A) (A) (A)
                 (A) (A) (A) (A) (A) (A) (A) (A) (A) (A) (A) (A)
                 (A) (A) (A) (A) (A) (A) (A) (A) (A) (A) (A) (A)
                 (A) (A) (A) (A) (A) (A) (A) (A) (A) (A) (A) (A)
                 (A) (A) (A) (A) (A) (A) (A) (A) (A) (A) (A) (A)
                 (A) (A) (A) (A) (A) (A) (A) (A) (A) (A) (A) (A)
                 (A) (A) (A) (A) (A) (A) (A) (A) (A) (A) (A) (A)
                 (A) (A) (A) (A) (A) (A) (A) (A) (A) (A) (A) (A)
                 (A) (A) (A) (A) (A) (A) (A) (A) (A) (A) (A) (A)
                 (A) (A) (A) (A) (A) (A) (A) (A) (A) (A) (A) (A)
                 (A) (A) (A) (A) (A) (A) (A) (A) (A) (A) (A) (A)
                 (A) (A) (A) (A) (A) (A) (A) (A) (A) (A) (A) (A)
                 (A) (A) (A) (A) (A) (A) (A) (A) (A) (A) (A) (A)
                 (A) (A) (A) (A) (A) (A) (A) (A) (A) (A) (A) (A)
                 (A) (A) (A) (A) (A) (A) (A)
 The electronic state is 1-A.
 Alpha  occ. eigenvalues --  -77.18141 -19.16432 -19.14599 -19.13786 -19.10139
 Alpha  occ. eigenvalues --  -19.09748 -19.09178 -14.40720 -14.40517 -10.28001
 Alpha  occ. eigenvalues --  -10.27472 -10.22803 -10.22701 -10.22245 -10.21192
 Alpha  occ. eigenvalues --  -10.17724 -10.16868  -6.66041  -4.82355  -4.82277
 Alpha  occ. eigenvalues --   -4.82085  -1.09617  -1.07500  -1.05750  -1.02371
 Alpha  occ. eigenvalues --   -1.01115  -0.98048  -0.97769  -0.95338  -0.80860
 Alpha  occ. eigenvalues --   -0.78130  -0.74582  -0.70322  -0.64885  -0.62321
 Alpha  occ. eigenvalues --   -0.61428  -0.60182  -0.55318  -0.55048  -0.54380
 Alpha  occ. eigenvalues --   -0.52014  -0.50857  -0.48853  -0.47746  -0.47381
 Alpha  occ. eigenvalues --   -0.46965  -0.46548  -0.46447  -0.45326  -0.43574
 Alpha  occ. eigenvalues --   -0.43497  -0.43308  -0.41922  -0.41626  -0.40748
 Alpha  occ. eigenvalues --   -0.39773  -0.39709  -0.36978  -0.36762  -0.36517
 Alpha  occ. eigenvalues --   -0.35778  -0.34703  -0.34052  -0.32206  -0.30511
 Alpha  occ. eigenvalues --   -0.30082  -0.29631  -0.27838  -0.27450  -0.25618
 Alpha virt. eigenvalues --   -0.03031  -0.00640  -0.00361   0.01114   0.01632
 Alpha virt. eigenvalues --    0.02165   0.03123   0.03214   0.04130   0.04255
 Alpha virt. eigenvalues --    0.04493   0.05437   0.05982   0.06140   0.06652
 Alpha virt. eigenvalues --    0.07290   0.07583   0.07882   0.08365   0.09160
 Alpha virt. eigenvalues --    0.09580   0.10053   0.10644   0.11126   0.11450
 Alpha virt. eigenvalues --    0.12068   0.12298   0.12510   0.13290   0.13346
 Alpha virt. eigenvalues --    0.13961   0.14289   0.14469   0.14657   0.15273
 Alpha virt. eigenvalues --    0.15885   0.16543   0.16875   0.17045   0.17318
 Alpha virt. eigenvalues --    0.17663   0.17959   0.18205   0.18856   0.19282
 Alpha virt. eigenvalues --    0.19421   0.19529   0.19684   0.19857   0.20220
 Alpha virt. eigenvalues --    0.20691   0.21189   0.21344   0.21709   0.21904
 Alpha virt. eigenvalues --    0.21941   0.22733   0.23456   0.24012   0.24826
 Alpha virt. eigenvalues --    0.24862   0.25375   0.25849   0.25947   0.26154
 Alpha virt. eigenvalues --    0.26511   0.27455   0.27632   0.27812   0.28222
 Alpha virt. eigenvalues --    0.28312   0.28898   0.29192   0.29785   0.29897
 Alpha virt. eigenvalues --    0.30475   0.30585   0.31257   0.31715   0.32154
 Alpha virt. eigenvalues --    0.32318   0.32871   0.33436   0.34280   0.34701
 Alpha virt. eigenvalues --    0.34957   0.35972   0.36682   0.37214   0.37749
 Alpha virt. eigenvalues --    0.38353   0.38592   0.38870   0.40039   0.40659
 Alpha virt. eigenvalues --    0.40850   0.42193   0.42521   0.43139   0.44189
 Alpha virt. eigenvalues --    0.44824   0.45412   0.46301   0.46325   0.48092
 Alpha virt. eigenvalues --    0.49025   0.49498   0.50327   0.50732   0.51676
 Alpha virt. eigenvalues --    0.52712   0.53307   0.53634   0.54205   0.55183
 Alpha virt. eigenvalues --    0.55290   0.55935   0.56847   0.58324   0.58878
 Alpha virt. eigenvalues --    0.59864   0.60365   0.61035   0.61832   0.62982
 Alpha virt. eigenvalues --    0.64051   0.64263   0.64814   0.65361   0.65636
 Alpha virt. eigenvalues --    0.66268   0.67202   0.67435   0.68160   0.68356
 Alpha virt. eigenvalues --    0.69397   0.70155   0.71055   0.72222   0.73302
 Alpha virt. eigenvalues --    0.73774   0.74214   0.74830   0.75517   0.75701
 Alpha virt. eigenvalues --    0.76387   0.76708   0.77359   0.78544   0.79010
 Alpha virt. eigenvalues --    0.80828   0.81502   0.82890   0.83939   0.84644
 Alpha virt. eigenvalues --    0.85700   0.86010   0.88001   0.88908   0.89055
 Alpha virt. eigenvalues --    0.90644   0.92568   0.93662   0.95316   0.96595
 Alpha virt. eigenvalues --    0.97860   0.98118   0.99999   1.02123   1.02530
 Alpha virt. eigenvalues --    1.03071   1.03400   1.04144   1.05037   1.05972
 Alpha virt. eigenvalues --    1.06275   1.07766   1.07967   1.09261   1.10107
 Alpha virt. eigenvalues --    1.11324   1.11866   1.12000   1.12675   1.13659
 Alpha virt. eigenvalues --    1.15437   1.16703   1.17344   1.17675   1.18692
 Alpha virt. eigenvalues --    1.19257   1.19582   1.20195   1.21033   1.21719
 Alpha virt. eigenvalues --    1.21793   1.22979   1.24555   1.25048   1.25246
 Alpha virt. eigenvalues --    1.26237   1.26473   1.27248   1.28184   1.28396
 Alpha virt. eigenvalues --    1.29799   1.30543   1.31195   1.31949   1.33135
 Alpha virt. eigenvalues --    1.34178   1.35567   1.35933   1.36625   1.37846
 Alpha virt. eigenvalues --    1.38944   1.39040   1.39679   1.40910   1.41105
 Alpha virt. eigenvalues --    1.42617   1.43606   1.44578   1.45724   1.46420
 Alpha virt. eigenvalues --    1.47634   1.48460   1.49360   1.50894   1.51282
 Alpha virt. eigenvalues --    1.51841   1.53011   1.54032   1.54702   1.56499
 Alpha virt. eigenvalues --    1.59230   1.60668   1.61169   1.61917   1.64159
 Alpha virt. eigenvalues --    1.65814   1.66829   1.68434   1.68646   1.69829
 Alpha virt. eigenvalues --    1.71007   1.72153   1.72422   1.74881   1.75685
 Alpha virt. eigenvalues --    1.76979   1.78873   1.80055   1.80460   1.81320
 Alpha virt. eigenvalues --    1.82257   1.82686   1.83503   1.83898   1.84337
 Alpha virt. eigenvalues --    1.84836   1.88598   1.89671   1.90280   1.91560
 Alpha virt. eigenvalues --    1.92547   1.95487   1.96465   1.97769   1.99306
 Alpha virt. eigenvalues --    2.00989   2.01817   2.02671   2.04844   2.05488
 Alpha virt. eigenvalues --    2.06514   2.08321   2.09199   2.09623   2.11717
 Alpha virt. eigenvalues --    2.12621   2.13011   2.15218   2.18997   2.20173
 Alpha virt. eigenvalues --    2.21789   2.22398   2.23749   2.25079   2.25315
 Alpha virt. eigenvalues --    2.26848   2.27913   2.28896   2.31325   2.31747
 Alpha virt. eigenvalues --    2.33304   2.33918   2.35034   2.36184   2.37007
 Alpha virt. eigenvalues --    2.37985   2.40430   2.41599   2.42399   2.44910
 Alpha virt. eigenvalues --    2.45929   2.47862   2.49512   2.50931   2.52752
 Alpha virt. eigenvalues --    2.54555   2.57424   2.61559   2.62410   2.64210
 Alpha virt. eigenvalues --    2.66177   2.69531   2.71011   2.74117   2.75137
 Alpha virt. eigenvalues --    2.77316   2.79501   2.80541   2.81123   2.81966
 Alpha virt. eigenvalues --    2.83274   2.84838   2.86007   2.86311   2.88330
 Alpha virt. eigenvalues --    2.89161   2.91984   2.92860   2.94154   2.95655
 Alpha virt. eigenvalues --    2.97387   2.99578   3.01701   3.03967   3.05610
 Alpha virt. eigenvalues --    3.07661   3.08842   3.12198   3.14971   3.17910
 Alpha virt. eigenvalues --    3.20961   3.22794   3.24806   3.27211   3.29701
 Alpha virt. eigenvalues --    3.31189   3.32109   3.33845   3.35912   3.36524
 Alpha virt. eigenvalues --    3.38630   3.40752   3.42195   3.42817   3.45025
 Alpha virt. eigenvalues --    3.45861   3.48251   3.49807   3.50612   3.51197
 Alpha virt. eigenvalues --    3.54469   3.57284   3.57557   3.59084   3.61079
 Alpha virt. eigenvalues --    3.61450   3.62209   3.64015   3.65218   3.65608
 Alpha virt. eigenvalues --    3.67618   3.69580   3.71660   3.72379   3.73247
 Alpha virt. eigenvalues --    3.75735   3.80000   3.81178   3.83736   3.86808
 Alpha virt. eigenvalues --    3.88579   3.89492   3.89950   3.95729   3.97599
 Alpha virt. eigenvalues --    3.98231   4.00933   4.05322   4.08718   4.12176
 Alpha virt. eigenvalues --    4.15792   4.21112   4.22220   4.24983   4.29284
 Alpha virt. eigenvalues --    4.33967   4.43929   4.50796   4.55542   4.95317
 Alpha virt. eigenvalues --    4.96356   4.99946   5.00901   5.01345   5.02786
 Alpha virt. eigenvalues --    5.03110   5.05395   5.06694   5.07407   5.10381
 Alpha virt. eigenvalues --    5.14043   5.16805   5.16956   5.19312   5.19938
 Alpha virt. eigenvalues --    5.23520   5.26349   5.30262   5.32464   5.35365
 Alpha virt. eigenvalues --    5.37891   5.43251   5.50985   5.51638   5.52871
 Alpha virt. eigenvalues --    5.54781   5.57534   5.68322   5.87464   5.87984
 Alpha virt. eigenvalues --    6.14253   6.74960   6.75125   6.78005   6.79072
 Alpha virt. eigenvalues --    6.81612   6.83090   6.83678   6.84774   6.88217
 Alpha virt. eigenvalues --    6.92137   6.94266   6.94626   6.98947   7.00025
 Alpha virt. eigenvalues --    7.03327   7.04555   7.05181   7.06620   7.09342
 Alpha virt. eigenvalues --    7.13288   7.19737   7.23837   7.29098   7.30759
 Alpha virt. eigenvalues --    7.31855   7.36188   7.37707   7.38335   7.44083
 Alpha virt. eigenvalues --    7.46657   7.61411  14.08578  14.12300  14.21632
 Alpha virt. eigenvalues --   23.86518  23.91091  23.97251  23.99193  24.00328
 Alpha virt. eigenvalues --   24.06426  24.11667  24.19104  35.56113  35.61429
 Alpha virt. eigenvalues --   49.92173  49.96265  49.97610  50.01478  50.07712
 Alpha virt. eigenvalues --   50.07788 163.65105
          Condensed to atoms (all electrons):
               1          2          3          4          5          6
     1  C    5.508735   0.208436  -0.371906   0.388766   0.417303  -0.050063
     2  C    0.208436   5.467742  -0.280345  -0.005120  -0.033090   0.429287
     3  C   -0.371906  -0.280345   7.299987   0.075564   0.001080   0.002364
     4  N    0.388766  -0.005120   0.075564   6.143261  -0.030777   0.013843
     5  H    0.417303  -0.033090   0.001080  -0.030777   0.455137  -0.001684
     6  H   -0.050063   0.429287   0.002364   0.013843  -0.001684   0.453857
     7  H    0.006765   0.012900   0.366820  -0.020703  -0.000057  -0.000049
     8  C   -0.103974   0.029930  -0.184091   0.318617  -0.005562   0.001139
     9  H   -0.002127  -0.001286  -0.025683  -0.009693   0.000133   0.000004
    10  H   -0.009160   0.006620   0.024343  -0.045362   0.002148  -0.000020
    11  H   -0.007952   0.005669  -0.016776  -0.027857  -0.000006   0.000011
    12  N    0.015658   0.316960   0.116927   0.007174   0.012883  -0.027636
    13  C   -0.027560  -0.162982  -0.052787  -0.046383   0.002538  -0.002477
    14  H    0.002272  -0.014121   0.001716  -0.001586  -0.000008   0.000686
    15  H    0.001930  -0.003013  -0.008190   0.000662   0.000011  -0.000040
    16  C    0.032019   0.086419  -0.089398   0.009996  -0.000500   0.000869
    17  H    0.001928  -0.006223   0.002039  -0.000720  -0.000001  -0.000102
    18  H   -0.000077  -0.001083   0.011188  -0.000476   0.000014  -0.000134
    19  C   -0.004741  -0.001730  -0.123360  -0.001004  -0.000431  -0.003161
    20  H    0.009483   0.000087  -0.015389  -0.002544  -0.000027  -0.000267
    21  H    0.001468  -0.001994   0.006981  -0.000270   0.000001   0.000012
    22  C   -0.025822   0.044076  -0.212622   0.068492   0.000639   0.000992
    23  O    0.005543  -0.001801   0.011241   0.000650   0.000001  -0.000040
    24  O    0.006218  -0.012357   0.073773  -0.079043   0.000044   0.000132
    25  P    0.003492  -0.007959   0.002704  -0.001393   0.000071  -0.000018
    26  O   -0.004472   0.003668   0.067146  -0.034724  -0.000007   0.000001
    27  O    0.000727  -0.001843   0.001694  -0.012972   0.000008  -0.000001
    28  H   -0.001789   0.003853  -0.016180   0.009254  -0.000009   0.000001
    29  O    0.000037  -0.000096   0.004595  -0.000418   0.000000   0.000000
    30  H    0.000016  -0.000001  -0.001799   0.000117  -0.000000  -0.000000
    31  O    0.000170  -0.000967  -0.006969  -0.001981  -0.000001   0.000001
    32  H   -0.001058   0.000890   0.002256  -0.000044   0.000000  -0.000001
               7          8          9         10         11         12
     1  C    0.006765  -0.103974  -0.002127  -0.009160  -0.007952   0.015658
     2  C    0.012900   0.029930  -0.001286   0.006620   0.005669   0.316960
     3  C    0.366820  -0.184091  -0.025683   0.024343  -0.016776   0.116927
     4  N   -0.020703   0.318617  -0.009693  -0.045362  -0.027857   0.007174
     5  H   -0.000057  -0.005562   0.000133   0.002148  -0.000006   0.012883
     6  H   -0.000049   0.001139   0.000004  -0.000020   0.000011  -0.027636
     7  H    0.407002   0.004308   0.000557  -0.000096   0.000694  -0.042870
     8  C    0.004308   5.086187   0.402159   0.385500   0.416878  -0.011825
     9  H    0.000557   0.402159   0.491476  -0.023719  -0.031042   0.003516
    10  H   -0.000096   0.385500  -0.023719   0.494106  -0.014841  -0.000998
    11  H    0.000694   0.416878  -0.031042  -0.014841   0.484447  -0.002150
    12  N   -0.042870  -0.011825   0.003516  -0.000998  -0.002150   6.311757
    13  C   -0.009501   0.001793  -0.000478   0.000324  -0.000501   0.173142
    14  H    0.000241  -0.000529   0.000002  -0.000002  -0.000007  -0.045269
    15  H    0.002147   0.000080   0.000015  -0.000001  -0.000016  -0.059292
    16  C    0.003889  -0.004584   0.000231   0.000021   0.000210   0.023433
    17  H   -0.000090  -0.000112   0.000000  -0.000000  -0.000000   0.004943
    18  H   -0.000036   0.000005  -0.000000   0.000000  -0.000000  -0.005330
    19  C    0.001012   0.000923   0.000188  -0.000151  -0.000164   0.010803
    20  H   -0.000143   0.000005  -0.000029  -0.000004   0.000000   0.012660
    21  H   -0.000042   0.000058   0.000003  -0.000000  -0.000000  -0.001091
    22  C    0.006635  -0.003661  -0.000777   0.000088   0.001957  -0.033278
    23  O    0.002330   0.003494   0.000278  -0.000017   0.000031  -0.014819
    24  O   -0.023334  -0.003422   0.005705   0.000193  -0.002763  -0.013327
    25  P   -0.005035   0.008055  -0.000543   0.000928   0.000741  -0.008932
    26  O    0.008682  -0.029744  -0.000189   0.000427   0.002925   0.003284
    27  O   -0.001922   0.008240   0.007502   0.000034  -0.001312   0.003369
    28  H    0.000669  -0.001848  -0.002926   0.000103   0.001210   0.000455
    29  O   -0.000195  -0.002275  -0.000009  -0.000006  -0.000028  -0.000149
    30  H   -0.000009   0.000791   0.000015  -0.000000   0.000008   0.000001
    31  O    0.004963   0.000923   0.000046   0.000013   0.000094  -0.001085
    32  H   -0.001661  -0.000105  -0.000020   0.000001   0.000026   0.000330
              13         14         15         16         17         18
     1  C   -0.027560   0.002272   0.001930   0.032019   0.001928  -0.000077
     2  C   -0.162982  -0.014121  -0.003013   0.086419  -0.006223  -0.001083
     3  C   -0.052787   0.001716  -0.008190  -0.089398   0.002039   0.011188
     4  N   -0.046383  -0.001586   0.000662   0.009996  -0.000720  -0.000476
     5  H    0.002538  -0.000008   0.000011  -0.000500  -0.000001   0.000014
     6  H   -0.002477   0.000686  -0.000040   0.000869  -0.000102  -0.000134
     7  H   -0.009501   0.000241   0.002147   0.003889  -0.000090  -0.000036
     8  C    0.001793  -0.000529   0.000080  -0.004584  -0.000112   0.000005
     9  H   -0.000478   0.000002   0.000015   0.000231   0.000000  -0.000000
    10  H    0.000324  -0.000002  -0.000001   0.000021  -0.000000   0.000000
    11  H   -0.000501  -0.000007  -0.000016   0.000210  -0.000000  -0.000000
    12  N    0.173142  -0.045269  -0.059292   0.023433   0.004943  -0.005330
    13  C    5.904909   0.429237   0.485085  -0.312525  -0.041592  -0.052229
    14  H    0.429237   0.514484  -0.023206  -0.036209   0.000474  -0.007834
    15  H    0.485085  -0.023206   0.490149  -0.076666  -0.009376   0.005759
    16  C   -0.312525  -0.036209  -0.076666   6.005278   0.452780   0.432873
    17  H   -0.041592   0.000474  -0.009376   0.452780   0.553466  -0.034274
    18  H   -0.052229  -0.007834   0.005759   0.432873  -0.034274   0.549741
    19  C    0.219003  -0.001120   0.019939  -0.135775  -0.080177  -0.046601
    20  H    0.010397  -0.000058  -0.000685  -0.067268   0.007554  -0.010670
    21  H    0.008686  -0.000098  -0.000049  -0.015941  -0.012234  -0.000320
    22  C   -0.243895   0.004451  -0.012683  -0.115412   0.011528   0.013563
    23  O   -0.032806   0.001354  -0.000067   0.031052   0.002163  -0.000589
    24  O    0.040859  -0.000616  -0.000726   0.026082  -0.000482  -0.001784
    25  P    0.001647   0.000041   0.000009  -0.002023   0.000082   0.000103
    26  O    0.004962  -0.000008  -0.000124   0.002260  -0.000003  -0.000001
    27  O    0.001267  -0.000000  -0.000024  -0.003937   0.000003   0.000002
    28  H   -0.004003   0.000001   0.000041   0.003845  -0.000002  -0.000008
    29  O    0.000265  -0.000000   0.000002   0.000121  -0.000000  -0.000000
    30  H   -0.000050  -0.000000   0.000000  -0.000024   0.000000   0.000000
    31  O    0.006237   0.000002  -0.000231  -0.005862  -0.000023  -0.000002
    32  H   -0.004474   0.000000  -0.000470   0.003553   0.000113   0.000001
              19         20         21         22         23         24
     1  C   -0.004741   0.009483   0.001468  -0.025822   0.005543   0.006218
     2  C   -0.001730   0.000087  -0.001994   0.044076  -0.001801  -0.012357
     3  C   -0.123360  -0.015389   0.006981  -0.212622   0.011241   0.073773
     4  N   -0.001004  -0.002544  -0.000270   0.068492   0.000650  -0.079043
     5  H   -0.000431  -0.000027   0.000001   0.000639   0.000001   0.000044
     6  H   -0.003161  -0.000267   0.000012   0.000992  -0.000040   0.000132
     7  H    0.001012  -0.000143  -0.000042   0.006635   0.002330  -0.023334
     8  C    0.000923   0.000005   0.000058  -0.003661   0.003494  -0.003422
     9  H    0.000188  -0.000029   0.000003  -0.000777   0.000278   0.005705
    10  H   -0.000151  -0.000004  -0.000000   0.000088  -0.000017   0.000193
    11  H   -0.000164   0.000000  -0.000000   0.001957   0.000031  -0.002763
    12  N    0.010803   0.012660  -0.001091  -0.033278  -0.014819  -0.013327
    13  C    0.219003   0.010397   0.008686  -0.243895  -0.032806   0.040859
    14  H   -0.001120  -0.000058  -0.000098   0.004451   0.001354  -0.000616
    15  H    0.019939  -0.000685  -0.000049  -0.012683  -0.000067  -0.000726
    16  C   -0.135775  -0.067268  -0.015941  -0.115412   0.031052   0.026082
    17  H   -0.080177   0.007554  -0.012234   0.011528   0.002163  -0.000482
    18  H   -0.046601  -0.010670  -0.000320   0.013563  -0.000589  -0.001784
    19  C    6.298564   0.451662   0.464555  -0.447262  -0.156287  -0.002814
    20  H    0.451662   0.554489  -0.036463  -0.062718   0.010199  -0.010150
    21  H    0.464555  -0.036463   0.540515  -0.121263  -0.000464   0.006091
    22  C   -0.447262  -0.062718  -0.121263   5.831158   0.417413   0.133200
    23  O   -0.156287   0.010199  -0.000464   0.417413   8.388797  -0.048414
    24  O   -0.002814  -0.010150   0.006091   0.133200  -0.048414   8.519747
    25  P   -0.019675  -0.000086   0.000372  -0.028027   0.015832   0.028872
    26  O   -0.005254   0.000017  -0.000006  -0.006158  -0.006180   0.003288
    27  O    0.006707   0.000087   0.000033   0.009671  -0.014263  -0.029918
    28  H   -0.002371   0.000080  -0.000136   0.018894   0.002543   0.072874
    29  O   -0.000640   0.000000   0.000001  -0.006270   0.001788   0.002108
    30  H   -0.000122   0.000000   0.000000  -0.000299   0.000174   0.000055
    31  O    0.016305  -0.000065  -0.000053  -0.001066  -0.030525  -0.002299
    32  H    0.006198   0.000110  -0.000047  -0.002638   0.082921   0.003802
              25         26         27         28         29         30
     1  C    0.003492  -0.004472   0.000727  -0.001789   0.000037   0.000016
     2  C   -0.007959   0.003668  -0.001843   0.003853  -0.000096  -0.000001
     3  C    0.002704   0.067146   0.001694  -0.016180   0.004595  -0.001799
     4  N   -0.001393  -0.034724  -0.012972   0.009254  -0.000418   0.000117
     5  H    0.000071  -0.000007   0.000008  -0.000009   0.000000  -0.000000
     6  H   -0.000018   0.000001  -0.000001   0.000001   0.000000  -0.000000
     7  H   -0.005035   0.008682  -0.001922   0.000669  -0.000195  -0.000009
     8  C    0.008055  -0.029744   0.008240  -0.001848  -0.002275   0.000791
     9  H   -0.000543  -0.000189   0.007502  -0.002926  -0.000009   0.000015
    10  H    0.000928   0.000427   0.000034   0.000103  -0.000006  -0.000000
    11  H    0.000741   0.002925  -0.001312   0.001210  -0.000028   0.000008
    12  N   -0.008932   0.003284   0.003369   0.000455  -0.000149   0.000001
    13  C    0.001647   0.004962   0.001267  -0.004003   0.000265  -0.000050
    14  H    0.000041  -0.000008  -0.000000   0.000001  -0.000000  -0.000000
    15  H    0.000009  -0.000124  -0.000024   0.000041   0.000002   0.000000
    16  C   -0.002023   0.002260  -0.003937   0.003845   0.000121  -0.000024
    17  H    0.000082  -0.000003   0.000003  -0.000002  -0.000000   0.000000
    18  H    0.000103  -0.000001   0.000002  -0.000008  -0.000000   0.000000
    19  C   -0.019675  -0.005254   0.006707  -0.002371  -0.000640  -0.000122
    20  H   -0.000086   0.000017   0.000087   0.000080   0.000000   0.000000
    21  H    0.000372  -0.000006   0.000033  -0.000136   0.000001   0.000000
    22  C   -0.028027  -0.006158   0.009671   0.018894  -0.006270  -0.000299
    23  O    0.015832  -0.006180  -0.014263   0.002543   0.001788   0.000174
    24  O    0.028872   0.003288  -0.029918   0.072874   0.002108   0.000055
    25  P   12.142677   0.446478   0.280775   0.012307   0.279434   0.010652
    26  O    0.446478   8.393898   0.001203  -0.012167   0.002100  -0.002722
    27  O    0.280775   0.001203   8.337313   0.186316   0.006706  -0.006782
    28  H    0.012307  -0.012167   0.186316   0.244155  -0.002748   0.000755
[...]
 ,-0.00007312,0.00000892,-0.00002832,0.00000109,0.00003527,-0.00076032,
 -0.00018620,-0.00047301,0.00006763,0.00002151,-0.00002563,0.00026050,-
 0.00015292,-0.00031339,0.00139563,0.00106711,-0.00246176,0.00024901,0.
 00008460,0.00011163,-0.00010924,-0.00007401,-0.00042483,-0.01282610,-0
 .01022482,0.00888640,0.00715570,0.00636524,0.00118387,-0.00198028,-0.0
 1133881,-0.04267338,-0.20132377,-0.09530765,0.00892603,-0.03591930,-0.
 01196203,-0.00856845,0.29567095,-0.00001333,-0.00002160,-0.00000350,0.
 00000507,0.00002385,0.00002684,0.00001660,0.00006187,-0.00004704,-0.00
 001660,-0.00004086,-0.00000228,-0.00000141,-0.00000005,0.00000128,-0.0
 0000123,-0.00000278,0.00000267,-0.00001019,0.00001605,-0.00000122,0.00
 000470,0.00000797,-0.00000995,-0.00000162,-0.00000139,0.00000449,-0.00
 000012,-0.00000345,0.00000178,-0.00000223,0.00000148,-0.00000284,0.000
 00338,-0.00003114,0.00003741,-0.00000535,0.00013433,-0.00006315,0.0000
 4107,-0.00006516,0.00000742,-0.00003381,0.00000127,0.00002693,-0.00073
 385,-0.00020901,-0.00046065,0.00005989,0.00002044,-0.00001997,0.000238
 56,-0.00013066,-0.00029642,0.00185368,0.00032570,-0.00200181,0.0001699
 4,0.00005372,0.00008545,-0.00005914,-0.00000375,-0.00020392,-0.0112588
 8,-0.00858936,0.00783510,0.00589864,0.00585614,0.00106523,-0.00845824,
 -0.00244314,-0.03728093,-0.09422194,-0.10532530,0.00165408,-0.00163347
 ,0.00787224,0.00263071,0.17605624,0.16720372,-0.00003134,-0.00004499,0
 .00000349,0.00002206,0.00005449,0.00007161,0.00004508,0.00012878,-0.00
 013529,-0.00004704,-0.00009426,0.00000823,-0.00000345,-0.00000051,0.00
 000358,-0.00000252,-0.00000301,0.00000470,-0.00002043,0.00001692,-0.00
 001586,0.00000852,0.00001503,-0.00003444,-0.00000353,-0.00000423,0.000
 00932,-0.00000245,-0.00000729,0.00000722,-0.00000303,0.00000046,0.0000
 0177,0.00000054,-0.00007452,0.00007206,0.00001006,0.00026948,-0.000134
 94,0.00008111,-0.00012942,0.00001570,-0.00006582,0.00000942,0.00003755
 ,-0.00128749,-0.00027823,-0.00067509,0.00011031,0.00001526,-0.00002429
 ,0.00041368,-0.00024510,-0.00052445,0.00224556,0.00089469,-0.00349935,
 0.00028144,0.00002219,0.00003521,-0.00016988,-0.00009522,-0.00058271,-
 0.01685914,-0.01295842,0.01466293,0.00705267,0.00603710,-0.00268109,-0
 .01756858,-0.01974536,-0.05894012,0.00315364,0.00061208,-0.06750793,-0
 .02153506,-0.00223235,0.00719130,0.07165508,0.07987527,0.30197193,0.00
 001647,0.00002194,-0.00000493,-0.00001495,-0.00003215,-0.00004162,-0.0
 0002800,-0.00006743,0.00007879,0.00002588,0.00004835,-0.00000603,0.000
 00311,-0.00000033,-0.00000232,0.00000225,0.00000143,-0.00000293,0.0000
 2252,-0.00000500,0.00001116,-0.00000470,-0.00000563,0.00001882,0.00000
 148,0.00000066,-0.00000570,0.00000131,0.00000461,-0.00000376,0.0000038
 3,-0.00000126,-0.00000150,-0.00000426,0.00003418,-0.00004051,-0.000013
 61,-0.00015691,0.00008084,-0.00004957,0.00007597,-0.00001016,0.0000175
 9,-0.00000156,-0.00003023,0.00075047,0.00019989,0.00040305,-0.00006262
 ,-0.00002390,0.00000523,-0.00025771,0.00018239,0.00030638,-0.00039354,
 -0.00200129,0.00276078,-0.00024438,-0.00003604,-0.00004975,0.00016597,
 0.00022779,0.00072868,0.01507033,0.01165755,-0.00488636,-0.00670375,-0
 .00441198,0.00023893,-0.02067834,-0.00111411,0.01928947,-0.03439755,-0
 .02165630,-0.01616636,0.00150817,-0.00006006,0.00180109,-0.03426711,-0
 .02079670,-0.03662946,0.07340207,0.00001603,0.00003358,-0.00000114,-0.
 00000537,-0.00003846,-0.00004080,-0.00001435,-0.00009100,0.00007350,0.
 00002434,0.00006399,0.00000252,0.00000197,0.00000044,-0.00000183,0.000
 00110,0.00000292,-0.00000346,0.00000382,-0.00001136,0.00000746,-0.0000
 0560,-0.00001243,0.00001913,0.00000288,0.00000316,-0.00000675,0.000001
 05,0.00000507,-0.00000306,0.00000198,-0.00000089,0.00000047,-0.0000023
 5,0.00004375,-0.00005193,0.00001444,-0.00019118,0.00012658,-0.00006110
 ,0.00008996,-0.00001606,0.00005736,-0.00001156,-0.00004017,0.00105857,
 0.00040111,0.00060097,-0.00006916,-0.00003347,-0.00000386,-0.00032979,
 0.00018454,0.00041461,-0.00302901,0.00060905,0.00244024,-0.00008629,0.
 00004072,-0.00003703,0.00000779,-0.00007073,-0.00000926,0.01385165,0.0
 1097024,-0.00726840,-0.00532467,-0.00663071,0.00074983,-0.00184426,-0.
 01770810,0.02083245,-0.02411189,-0.01998310,-0.00670141,0.00745013,0.0
 0087570,0.00046841,-0.01985512,-0.03362025,-0.04666317,0.03022616,0.06
 121206,0.00004798,0.00007254,-0.00000533,-0.00003230,-0.00008593,-0.00
 011538,-0.00006285,-0.00020694,0.00021352,0.00007261,0.00014871,-0.000
 01147,0.00000579,0.00000067,-0.00000586,0.00000435,0.00000501,-0.00000
 773,0.00003164,-0.00002218,0.00002763,-0.00001305,-0.00002342,0.000054
 59,0.00000550,0.00000684,-0.00001509,0.00000414,0.00001118,-0.00001177
 ,0.00000464,0.00000031,-0.00000297,-0.00000558,0.00011589,-0.00011473,
 -0.00001271,-0.00043200,0.00024308,-0.00013440,0.00020826,-0.00002529,
 0.00011403,-0.00002910,-0.00006447,0.00189284,0.00050240,0.00098350,-0
 .00016114,-0.00002778,0.00002483,-0.00060764,0.00042423,0.00081922,-0.
 00279267,-0.00138698,0.00574903,-0.00050111,-0.00006175,0.00002310,0.0
 0021489,0.00022429,0.00098015,0.02435520,0.01761749,-0.03330490,-0.014
 86743,-0.01295160,0.00444433,0.00839881,0.01135383,0.04365464,-0.03326
 409,-0.01997248,0.01054534,0.01192638,0.00059838,0.00144332,-0.0392915
 4,-0.05177828,-0.18406369,0.03007670,0.03573030,0.14896650,0.00000133,
 0.00000154,0.00000182,-0.00000104,-0.00000018,-0.00000244,-0.00000124,
 -0.00000372,0.00000276,0.00000268,0.00000159,-0.00000084,-0.00000084,0
 .00000033,-0.00000020,-0.00000068,0.00000028,-0.00000021,-0.00000491,0
 .00000031,-0.00000017,-0.00000087,-0.00000088,0.00000098,0.00000062,0.
 00000078,0.00000031,0.00000019,-0.00000057,-0.00000085,-0.00000135,0.0
 0000079,0.00000023,0.00000525,0.00000288,0.00000086,-0.00000647,-0.000
 00381,-0.00000524,0.00000142,0.00000133,0.00000037,0.00000509,-0.00000
 415,0.00000700,-0.00002703,-0.00001554,-0.00005539,0.00000621,0.000003
 28,-0.00001034,0.00001313,-0.00000195,-0.00001068,0.00025432,0.0001240
 1,-0.00020798,0.00004461,0.00004187,0.00005725,0.00000652,0.00000920,-
 0.00000206,-0.00149366,-0.00113050,0.00138575,0.00179107,0.00190626,0.
 00146941,-0.00036847,-0.00014113,-0.00272535,-0.06047590,0.04115581,0.
 01469790,-0.01521748,0.03449089,0.00846315,-0.00219605,-0.02029036,-0.
 01292134,0.00277062,-0.00162992,0.00465862,0.38795383,-0.00000531,-0.0
 0000925,-0.00000336,0.00000131,0.00000703,0.00001086,0.00001139,0.0000
 2258,-0.00001759,-0.00000852,-0.00001505,0.00000023,-0.00000015,-0.000
 00003,0.00000058,-0.00000040,-0.00000124,0.00000119,-0.00000024,0.0000
 0684,0.00000151,0.00000241,0.00000378,-0.00000367,-0.00000115,-0.00000
 035,0.00000129,0.00000022,-0.00000082,0.00000135,-0.00000012,0.0000001
 4,-0.00000165,-0.00000442,-0.00001296,0.00001106,0.00001099,0.00004752
 ,-0.00001526,0.00001242,-0.00002275,0.00000126,-0.00001880,0.00000309,
 0.00000036,-0.00019385,-0.00005097,-0.00007054,0.00001447,0.00000079,0
 .00000520,0.00005729,-0.00003959,-0.00008150,0.00019689,-0.00000565,-0
 .00034807,0.00000022,-0.00003969,-0.00004865,-0.00002964,-0.00001948,-
 0.00007540,-0.00119504,-0.00096762,0.00099589,-0.00048696,-0.00055756,
 -0.00146768,-0.00143979,-0.00117790,-0.00571057,0.02566284,-0.16325282
 ,-0.08778159,0.02024798,-0.02597357,-0.00942092,-0.01532916,-0.0263268
 8,-0.02607881,0.00512304,0.00019823,0.01242527,-0.24505543,0.35991323,
 -0.00000624,-0.00000936,-0.00000071,0.00000362,0.00000892,0.00001561,0
 .00001008,0.00002535,-0.00002703,-0.00001020,-0.00001935,0.00000230,-0
 .00000052,-0.00000013,0.00000072,-0.00000022,-0.00000020,0.00000082,0.
 00000095,0.00000274,-0.00000101,0.00000194,0.00000403,-0.00000723,-0.0
 0000117,-0.00000099,0.00000177,-0.00000029,-0.00000144,0.00000176,-0.0
 0000011,0.00000007,0.00000017,-0.00000237,-0.00001838,0.00001037,0.000
 00874,0.00004660,-0.00002018,0.00001108,-0.00002167,0.00000032,-0.0000
 2018,0.00000766,-0.00000370,-0.00013253,-0.00002926,0.00003415,0.00000
 271,-0.00000195,0.00002053,0.00003380,-0.00003334,-0.00005678,-0.00024
 429,-0.00030838,0.00001437,-0.00008400,-0.00012122,-0.00014876,-0.0000
 2675,-0.00002306,-0.00003948,0.00165427,0.00116545,-0.00148673,-0.0040
 8799,-0.00364632,-0.00398619,-0.00090355,-0.00048364,-0.00040018,0.000
 32239,-0.07210783,-0.10189944,-0.00406479,0.00468637,0.00695225,-0.003
 66565,-0.01177089,-0.00127717,0.00171651,-0.00009484,0.00358253,0.1136
 0286,0.04453956,0.19547801,-0.00000077,-0.00000146,-0.00000047,0.00000
 020,0.00000143,0.00000196,0.00000068,0.00000402,-0.00000340,-0.0000014
 9,-0.00000255,0.00000039,0.00000023,-0.00000010,0.00000010,0.00000031,
 -0.00000011,0.00000016,0.00000096,0.00000001,-0.00000009,0.00000044,0.
 00000053,-0.00000080,-0.00000019,-0.00000036,0.00000007,-0.00000013,0.
 00000003,0.00000037,0.00000034,-0.00000021,0.,-0.00000085,-0.00000213,
 0.00000087,0.00000181,0.00000645,-0.00000105,0.00000105,-0.00000233,0.
 00000038,-0.00000226,0.00000101,-0.00000068,-0.00001826,-0.00000425,-0
 .00000160,0.00000015,-0.00000045,0.00000218,0.00000530,-0.00000474,-0.
 00000817,-0.00000887,-0.00002589,-0.00002529,-0.00000571,-0.00001151,-
 0.00001285,-0.00000354,-0.00000271,-0.00000737,0.00007565,0.00005541,-
 0.00004436,-0.00035025,-0.00032284,-0.00042645,-0.00017773,-0.00013560
 ,-0.00036692,-0.00776799,0.00605225,0.00066250,0.00384324,-0.00075760,
 -0.00014797,-0.00149105,-0.00261103,-0.00155061,0.00032832,0.00025356,
 0.00084286,-0.31869422,0.21045133,-0.11601462,0.32260006,0.00000095,0.
 00000102,0.00000005,-0.00000021,-0.00000100,-0.00000167,-0.00000262,-0
 .00000282,0.00000171,0.00000177,0.00000103,0.00000006,0.00000009,0.000
 00002,-0.00000014,0.00000001,0.00000017,-0.00000018,0.00000122,-0.0000
 0166,-0.00000034,-0.00000031,-0.00000043,0.00000035,0.00000004,-0.0000
 0014,-0.00000024,-0.00000005,0.00000022,0.00000003,0.00000031,-0.00000
 012,0.00000034,-0.00000014,0.00000207,-0.00000119,-0.00000008,-0.00000
 712,0.00000262,-0.00000190,0.00000335,-0.00000003,0.00000290,-0.000000
 70,-0.00000031,0.00002581,0.00000665,0.00000364,-0.00000160,0.00000038
 ,-0.00000089,-0.00000734,0.00000583,0.00001080,-0.00000579,0.00002853,
 0.00003999,0.00000495,0.00001048,0.00001289,0.00000368,0.00000280,0.00
 000779,0.00000568,0.00000113,-0.00007083,0.00027709,0.00024777,0.00043
 183,0.00023421,0.00016407,0.00059402,0.02359525,-0.02497344,0.00312817
 ,0.00165008,-0.00110468,-0.00238857,0.00046769,0.00459831,0.00155961,-
 0.00087340,-0.00003948,-0.00135592,0.18788331,-0.14461526,0.05729765,-
 0.21128606,0.16445333,0.00000040,0.00000037,-0.00000021,0.00000002,-0.
 00000062,-0.00000115,-0.00000119,-0.00000160,0.00000156,0.00000092,0.0
 0000159,-0.00000026,0.00000008,0.,0.,0.,-0.00000018,0.00000003,0.00000
 023,-0.00000028,0.00000050,-0.00000008,-0.00000048,0.00000096,0.000000
 12,0.00000016,-0.00000006,0.00000007,0.00000021,-0.00000014,-0.0000000
 4,0.,-0.00000016,0.00000016,0.00000160,-0.00000025,-0.00000050,-0.0000
 0223,0.00000138,-0.00000031,0.00000019,-0.00000027,0.00000063,-0.00000
 056,0.00000019,0.00000072,0.00000030,-0.00000260,0.00000115,0.00000025
 ,-0.00000033,-0.00000085,0.00000088,0.00000111,0.00000597,0.00000939,0
 .00000418,0.00000147,0.00000419,0.00000349,-0.00000024,-0.00000009,-0.
 00000041,-0.00006496,-0.00005280,0.00001965,0.00009898,0.00006028,0.00
 009330,0.00003388,0.00002053,-0.00002455,0.01685086,-0.01483411,0.0002
 4574,0.00157237,-0.00429995,0.00115586,-0.00035136,0.00021180,-0.00068
 791,-0.00007815,-0.00015699,0.00001191,-0.13622783,0.07953586,-0.06591
 843,0.11987098,-0.06151155,0.06532312,-0.00001405,-0.00002396,0.000007
 15,0.00001334,0.00002828,0.00004315,0.00002438,0.00007411,-0.00007546,
 -0.00002758,-0.00005184,0.00000396,-0.00000271,-0.00000031,0.00000250,
 -0.00000277,-0.00000050,0.00000185,-0.00001035,0.,-0.00000553,0.000002
 72,0.00000693,-0.00001538,-0.00000114,-0.00000181,0.00000547,-0.000001
 13,-0.00000404,0.00000274,-0.00000299,0.00000035,0.00000089,0.00000975
 ,-0.00005778,0.00002822,0.00000644,0.00014369,-0.00007731,0.00004009,-
 0.00007637,-0.00000279,-0.00006438,0.00002271,-0.00000335,-0.00037943,
 -0.00003041,0.00023257,-0.00001612,-0.00002519,0.00008394,0.00008122,-
 0.00011485,-0.00014986,-0.00145220,-0.00072942,0.00015005,-0.00033086,
 -0.00037473,-0.00046372,-0.00015634,-0.00014230,-0.00019984,0.00860756
 ,0.00621850,-0.00642097,-0.01027446,-0.02030844,-0.02458319,-0.0025715
 5,-0.00210310,0.00270590,-0.05728097,-0.01660152,0.02083776,0.00112650
 ,0.01168921,-0.02271099,-0.00964454,-0.02103075,0.02395695,0.00326230,
 0.00386553,0.00338844,0.00823950,-0.00078914,0.00100688,0.00067206,-0.
 00125663,-0.00127056,0.11462108,-0.00001873,-0.00002746,-0.00000044,0.
 00000798,0.00003196,0.00004759,0.00003051,0.00008065,-0.00007244,-0.00
 003176,-0.00005100,0.00000418,-0.00000117,-0.00000109,0.00000264,-0.00
 000089,-0.00000210,0.00000235,-0.00000332,0.00000560,-0.00000257,0.000
 00572,0.00000834,-0.00001738,-0.00000236,-0.00000234,0.00000498,-0.000
 00125,-0.00000365,0.00000425,-0.00000092,-0.00000016,-0.00000009,0.000
 01144,-0.00006573,0.00002496,0.00000631,0.00015352,-0.00005893,0.00003
 771,-0.00007222,-0.00000190,-0.00007172,0.00002920,-0.00000577,-0.0004
 2195,-0.00005130,0.00020806,-0.00000714,-0.00001199,0.00008326,0.00009
 090,-0.00010995,-0.00016719,-0.00103292,-0.00155377,0.00041060,-0.0003
 4448,-0.00046141,-0.00058342,-0.00007258,-0.00005699,-0.00008240,0.008
 83019,0.00677825,-0.00758154,-0.01993417,-0.01330862,-0.02599917,-0.00
 294017,-0.00165585,0.00307281,-0.01954192,-0.08518989,0.06492010,0.004
 02717,0.00527473,0.01631528,-0.01498208,-0.00462594,0.01893596,0.00353
 750,0.00265181,0.00290586,0.00531072,0.00007279,-0.02423419,-0.0021156
 3,0.00170176,0.00093540,0.09175506,0.17100319,-0.00003775,-0.00005596,
 0.00000949,0.00002655,0.00006739,0.00010687,0.00006432,0.00016655,-0.0
 0017599,-0.00006964,-0.00011790,0.00001327,-0.00000326,-0.00000210,0.0
 0000589,-0.00000181,-0.00000132,0.00000464,-0.00000924,0.00000431,-0.0
 0001580,0.00000858,0.00001792,-0.00004387,-0.00000504,-0.00000680,0.00
 001123,-0.00000339,-0.00000830,0.00000964,-0.00000174,-0.00000113,0.00
 000462,0.00000549,-0.00013022,0.00005431,0.00004019,0.00030579,-0.0001
 4354,0.00007560,-0.00014820,-0.00000303,-0.00014261,0.00006505,-0.0000
 2883,-0.00070614,-0.00003730,0.00066769,-0.00001399,-0.00003066,0.0001
 8239,0.00014016,-0.00020749,-0.00028998,-0.00367764,-0.00291522,0.0012
 0428,-0.00088516,-0.00103087,-0.00131908,-0.00025670,-0.00024712,-0.00
 027343,0.02105184,0.01500105,-0.02164471,-0.04641689,-0.05033516,-0.04
 730030,-0.00444614,-0.00233448,0.01466836,0.02270312,0.06665891,-0.239
 85302,-0.00756873,0.01844750,-0.02671906,0.01700793,0.01833605,-0.0077
 2418,-0.00508125,-0.00519097,-0.01072012,0.01105523,-0.00990124,-0.039
 48210,-0.00368486,0.00323112,0.00009718,0.04575840,0.00644917,0.462566
 16,0.00002451,0.00004319,-0.00001109,-0.00001978,-0.00004780,-0.000078
 59,-0.00003931,-0.00012993,0.00013301,0.00005103,0.00009435,-0.0000073
 1,0.00000358,0.00000144,-0.00000466,0.00000268,0.00000043,-0.00000418,
 0.00001369,-0.00000112,0.00000990,-0.00000615,-0.00001276,0.00002964,0
 .00000280,0.00000444,-0.00000914,0.00000229,0.00000638,-0.00000636,0.0
 0000314,0.00000038,-0.00000222,-0.00001439,0.00010417,-0.00004458,-0.0
 0002584,-0.00025766,0.00012461,-0.00006527,0.00012536,0.00000558,0.000
 12591,-0.00005278,0.00001829,0.00058805,0.00006664,-0.00046755,0.00007
 508,0.00008502,-0.00016629,-0.00008937,0.00023131,0.00023353,0.0029254
 2,0.00021645,0.00035552,0.00051911,0.00054637,0.00062620,0.00036698,0.
 00043135,0.00046645,-0.02064322,-0.01704465,0.00461783,0.00127951,0.02
 119151,0.02195970,0.00451956,0.00459314,-0.00891175,0.00378821,0.01199
 588,-0.01436448,0.00187430,-0.00148814,0.00280696,-0.00427481,-0.00316
 752,-0.00033552,-0.00023259,-0.00046947,0.00570108,-0.00260619,0.00276
 530,0.01088965,0.00099249,-0.00071890,-0.00044294,-0.05447335,-0.05212
 605,-0.04492545,0.06533194,0.00003676,0.00005033,-0.00000305,-0.000025
 27,-0.00005730,-0.00009537,-0.00006634,-0.00015091,0.00014948,0.000062
 11,0.00010437,-0.00000858,0.00000309,0.00000190,-0.00000532,0.00000326
 ,0.00000334,-0.00000431,0.00000820,-0.00001062,0.00001030,-0.00000883,
 -0.00001630,0.00003696,0.00000467,0.00000495,-0.00001024,0.00000292,0.
 00000743,-0.00000878,0.00000212,0.00000075,-0.00000196,-0.00000679,0.0
 0011033,-0.00004519,-0.00000647,-0.00027668,0.00012691,-0.00006608,0.0
 0014067,0.00000944,0.00013748,-0.00006589,0.00001382,0.00082536,0.0001
 5454,-0.00032206,0.00003853,0.00003309,-0.00019064,-0.00016155,0.00022
 217,0.00030963,0.00149581,0.00360533,-0.00046139,0.00058806,0.00097527
 ,0.00114119,-0.00000047,0.00005468,-0.00002587,-0.02232735,-0.01937628
 ,0.00867936,0.02265258,0.00505405,0.02209591,0.00696434,0.00277606,-0.
 01005139,0.01166417,0.01503690,-0.01079424,0.00226274,-0.00624567,0.00
 751840,-0.00472250,-0.00473640,0.00020814,-0.00009739,0.00105641,0.005
 98289,-0.00265706,0.00281340,0.00514203,0.00046152,-0.00048206,0.00007
 846,-0.05008130,-0.08054032,-0.05604837,0.03301368,0.07975247,0.000047
 06,0.00006842,-0.00001070,-0.00003412,-0.00008005,-0.00013068,-0.00007
 137,-0.00021153,0.00021640,0.00008259,0.00014582,-0.00001370,0.0000047
 6,0.00000261,-0.00000755,0.00000317,0.00000277,-0.00000678,0.00001305,
 -0.00000423,0.00001738,-0.00001031,-0.00002101,0.00005011,0.00000574,0
 .00000749,-0.00001409,0.00000395,0.00000992,-0.00001163,0.00000311,0.0
 0000160,-0.00000395,-0.00000815,0.00014800,-0.00006293,-0.00006767,-0.
 00038587,0.00020888,-0.00010005,0.00020054,0.00000841,0.00019179,-0.00
 008896,0.00002911,0.00094851,0.00008396,-0.00083046,-0.00000515,0.0000
 2283,-0.00021751,-0.00019900,0.00029355,0.00040424,0.00490829,0.003494
 90,-0.00092565,0.00106747,0.00128500,0.00171413,0.00036238,0.00045768,
 0.00041882,-0.02640846,-0.01799179,0.02635542,0.03335591,0.03273287,-0
 .00291582,0.00696615,0.00438960,-0.01639300,0.00181577,0.00985617,-0.0
 6412515,0.00384383,-0.00494326,0.00845468,-0.00949126,-0.00785967,0.00
 441186,0.00552458,0.00482465,0.00670155,-0.00323359,0.00349504,0.00863
 942,0.00091475,-0.00099082,-0.00032345,-0.04223788,-0.05552004,-0.0838
 6899,0.02180414,0.02657382,0.11223163\\0.00000176,-0.00000265,0.000011
 34,0.00002303,0.00001989,0.00000055,-0.00000895,0.00000964,0.00001308,
 -0.00001201,0.00000156,-0.00000884,0.00001047,0.00000546,-0.00001545,0
 .00002259,-0.00000229,-0.00000212,-0.00000597,-0.00000200,-0.00000160,
 -0.00001075,0.00000539,-0.00002752,-0.00001591,0.00000582,-0.00001950,
 -0.00001851,0.00000053,-0.00000842,-0.00002287,0.00000090,-0.00000721,
 0.00002069,-0.00001703,-0.00000221,0.00001390,-0.00000610,0.00000591,0
 .00001974,-0.00000259,0.00001279,0.00000620,-0.00000059,0.00001280,0.0
 0000264,0.00000464,0.00001141,0.00003002,-0.00000015,0.00000422,0.0000
 2995,0.00000414,-0.00000489,0.00001438,-0.00001460,-0.00002761,0.00000
 501,0.00000933,-0.00001166,0.00001404,0.00000972,-0.00001025,0.0000442
 3,0.00004342,-0.00003161,-0.00001037,-0.00003820,0.00000991,0.00000182
 ,0.00000464,0.00003599,-0.00005194,0.00002525,0.00002186,-0.00000172,-
 0.00003171,0.00003882,-0.00000067,-0.00000140,0.00003458,-0.00004459,-
 0.00001273,-0.00005586,-0.00000904,-0.00001002,0.00000495,-0.00002760,
 -0.00000892,-0.00000671,-0.00001361,0.00000745,0.00001970,-0.00000598,
 -0.00000679,0.00000356\\\@


 ... I FELL INTO A REVERIE ... THE ATOMS WERE GAMBOLING BEFORE MY EYES
 ... I SAW HOW TWO SMALL ONES UNITED TO FORM A PAIR;
 HOW THE LARGER ONES SEIZED TWO OF THE SMALLER ONES;
 HOW STILL LARGER ONES KEPT HOLD OF THREE OR FOUR
 SMALLER ONES ... I SAW HOW THE LARGER ONES FORMED A CHAIN ...
 THIS WAS THE ORIGIN OF THE STRUCTURE THEORY.

                                   -- C.F.KEKULE VON STRADONITZ
 Job cpu time:       0 days 12 hours 53 minutes 54.1 seconds.
 Elapsed time:       0 days  0 hours 32 minutes 27.0 seconds.
 File lengths (MBytes):  RWF=   1001 Int=      0 D2E=      0 Chk=     36 Scr=      1
 Normal termination of Gaussian 16 at Mon Dec 12 14:47:07 2022.
