 Entering Gaussian System, Link 0=g16
 Initial command:
 /data0/home/software/g16/l1.exe "/data0/home/software/g16/scratch/Gau-226209.inp" -scrdir="/data0/home/software/g16/scratch/"
 Default is to use a total of  22 processors:
                               22 via shared-memory
                                1 via Linda
 Entering Link 1 = /data0/home/software/g16/l1.exe PID=    226210.
  
 Copyright (c) 1988,1990,1992,1993,1995,1998,2003,2009,2016,
            Gaussian, Inc.  All Rights Reserved.
  
 This is part of the Gaussian(R) 16 program.  It is based on
 the Gaussian(R) 09 system (copyright 2009, Gaussian, Inc.),
 the Gaussian(R) 03 system (copyright 2003, Gaussian, Inc.),
 the Gaussian(R) 98 system (copyright 1998, Gaussian, Inc.),
 the Gaussian(R) 94 system (copyright 1995, Gaussian, Inc.),
 the Gaussian 92(TM) system (copyright 1992, Gaussian, Inc.),
 the Gaussian 90(TM) system (copyright 1990, Gaussian, Inc.),
 the Gaussian 88(TM) system (copyright 1988, Gaussian, Inc.),
 the Gaussian 86(TM) system (copyright 1986, Carnegie Mellon
 University), and the Gaussian 82(TM) system (copyright 1983,
 Carnegie Mellon University). Gaussian is a federally registered
 trademark of Gaussian, Inc.
  
 This software contains proprietary and confidential information,
 including trade secrets, belonging to Gaussian, Inc.
  
 This software is provided under written license and may be
 used, copied, transmitted, or stored only in accord with that
 written license.
  
 The following legend is applicable only to US Government
 contracts under FAR:
  
                    RESTRICTED RIGHTS LEGEND
  
 Use, reproduction and disclosure by the US Government is
 subject to restrictions as set forth in subparagraphs (a)
 and (c) of the Commercial Computer Software - Restricted
 Rights clause in FAR 52.227-19.
  
 Gaussian, Inc.
 340 Quinnipiac St., Bldg. 40, Wallingford CT 06492
  
  
 ---------------------------------------------------------------
 Warning -- This program may not be used in any manner that
 competes with the business of Gaussian, Inc. or will provide
 assistance to any competitor of Gaussian, Inc.  The licensee
 of this program is prohibited from giving any competitor of
 Gaussian, Inc. access to this program.  By using this program,
 the user acknowledges that Gaussian, Inc. is engaged in the
 business of creating and licensing software in the field of
 computational chemistry and represents and warrants to the
 licensee that it is not a competitor of Gaussian, Inc. and that
 it will not use this program in any manner prohibited above.
 ---------------------------------------------------------------
  

 Cite this work as:
 Gaussian 16, Revision A.03,
 M. J. Frisch, G. W. Trucks, H. B. Schlegel, G. E. Scuseria, 
 M. A. Robb, J. R. Cheeseman, G. Scalmani, V. Barone, 
 G. A. Petersson, H. Nakatsuji, X. Li, M. Caricato, A. V. Marenich, 
 J. Bloino, B. G. Janesko, R. Gomperts, B. Mennucci, H. P. Hratchian, 
 J. V. Ortiz, A. F. Izmaylov, J. L. Sonnenberg, D. Williams-Young, 
 F. Ding, F. Lipparini, F. Egidi, J. Goings, B. Peng, A. Petrone, 
 T. Henderson, D. Ranasinghe, V. G. Zakrzewski, J. Gao, N. Rega, 
 G. Zheng, W. Liang, M. Hada, M. Ehara, K. Toyota, R. Fukuda, 
 J. Hasegawa, M. Ishida, T. Nakajima, Y. Honda, O. Kitao, H. Nakai, 
 T. Vreven, K. Throssell, J. A. Montgomery, Jr., J. E. Peralta, 
 F. Ogliaro, M. J. Bearpark, J. J. Heyd, E. N. Brothers, K. N. Kudin, 
 V. N. Staroverov, T. A. Keith, R. Kobayashi, J. Normand, 
 K. Raghavachari, A. P. Rendell, J. C. Burant, S. S. Iyengar, 
 J. Tomasi, M. Cossi, J. M. Millam, M. Klene, C. Adamo, R. Cammi, 
 J. W. Ochterski, R. L. Martin, K. Morokuma, O. Farkas, 
 J. B. Foresman, and D. J. Fox, Gaussian, Inc., Wallingford CT, 2016.
 
 ******************************************
 Gaussian 16:  ES64L-G16RevA.03 25-Dec-2016
                17-Feb-2023 
 ******************************************
 %nproc=24
 Will use up to   24 processors via shared memory.
 %mem=50GB
 ---------------------------------------------------
 #p M062X/6-311+G(2d,p) nosymm em=GD3 counterpoise=2
 ---------------------------------------------------
 1/38=1,62=2,172=1/1;
 2/12=2,15=1,17=6,18=5,40=1/2;
 1/38=1,53=2,62=2,63=1/22;
 3/5=4,6=6,7=112,11=2,25=1,30=1,74=-55,124=31/1,2,3;
 4//1;
 5/5=2,38=5/2;
 6/7=2,8=2,9=2,10=2,28=1/1;
 1/53=2,62=2,63=1/22;
 3/5=7,6=11,7=112,11=2,25=1,30=1,74=-55,82=7,124=31/1,2,3;
 4//1;
 5/5=2,38=5/2;
 6/7=2,8=2,9=2,10=2,28=1/1;
 1/53=2,62=2,63=1/22(-4);
 99/5=1,9=1/99;
 Leave Link    1 at Fri Feb 17 21:14:12 2023, MaxMem=  6710886400 cpu:               0.7 elap:               0.0
 (Enter /data0/home/software/g16/l101.exe)
 -------------------
 Title Card Required
 -------------------
 Symbolic Z-matrix:
 Charge =  0 Multiplicity = 1 in supermolecule
 Charge =  0 Multiplicity = 1 in fragment      1.
 Charge =  0 Multiplicity = 1 in fragment      2.
 O                     11.17167   6.08944   10.8282    
 H                     10.33812   6.52878   10.50738    
 H                     11.82624   6.34333   10.17646    
 O                     11.9724   11.9307   10.10707    
 H                     12.12697   12.57315   10.79973    
 H                     12.34758   11.10451   10.46229    
 
 ITRead=  0  0  0  0  0  0
 MicOpt= -1 -1 -1 -1 -1 -1
 NAtoms=      6 NQM=        6 NQMF=       0 NMMI=      0 NMMIF=      0
                NMic=       0 NMicF=      0.
                    Isotopes and Nuclear Properties:
 (Nuclear quadrupole moments (NQMom) in fm**2, nuclear magnetic moments (NMagM)
  in nuclear magnetons)

  Atom         1           2           3           4           5           6
 IAtWgt=          16           1           1          16           1           1
 AtmWgt=  15.9949146   1.0078250   1.0078250  15.9949146   1.0078250   1.0078250
 NucSpn=           0           1           1           0           1           1
 AtZEff=  -0.0000000  -0.0000000  -0.0000000  -0.0000000  -0.0000000  -0.0000000
 NQMom=    0.0000000   0.0000000   0.0000000   0.0000000   0.0000000   0.0000000
 NMagM=    0.0000000   2.7928460   2.7928460   0.0000000   2.7928460   2.7928460
 AtZNuc=   8.0000000   1.0000000   1.0000000   8.0000000   1.0000000   1.0000000
 Leave Link  101 at Fri Feb 17 21:14:12 2023, MaxMem=  6710886400 cpu:               1.9 elap:               0.1
 (Enter /data0/home/software/g16/l202.exe)
                          Input orientation:                          
 ---------------------------------------------------------------------
 Center     Atomic      Atomic             Coordinates (Angstroms)
 Number     Number       Type             X           Y           Z
 ---------------------------------------------------------------------
      1          8           0       11.171674    6.089443   10.828202
      2          1           0       10.338122    6.528784   10.507382
      3          1           0       11.826239    6.343333   10.176461
      4          8           0       11.972402   11.930695   10.107068
      5          1           0       12.126966   12.573149   10.799733
      6          1           0       12.347576   11.104515   10.462291
 ---------------------------------------------------------------------
                    Distance matrix (angstroms):
                    1          2          3          4          5
     1  O    0.000000
     2  H    0.995367   0.000000
     3  H    0.957957   1.535706   0.000000
     4  O    5.939817   5.657894   5.589704   0.000000
     5  H    6.553765   6.310292   6.268135   0.957299   0.000000
     6  H    5.164067   4.997725   4.798161   0.974429   1.522965
                    6
     6  H    0.000000
 Symmetry turned off by external request.
 Stoichiometry    H4O2
 Framework group  C1[X(H4O2)]
 Deg. of freedom    12
 Full point group                 C1      NOp   1
 Rotational constants (GHZ):         210.2483108           1.6091929           1.6072099
 Leave Link  202 at Fri Feb 17 21:14:12 2023, MaxMem=  6710886400 cpu:               0.1 elap:               0.0
 (Enter /data0/home/software/g16/l122.exe)
 Counterpoise: doing full-system calculation.
 Leave Link  122 at Fri Feb 17 21:14:12 2023, MaxMem=  6710886400 cpu:               0.0 elap:               0.0
 (Enter /data0/home/software/g16/l301.exe)
 Standard basis: 6-311+G(2d,p) (5D, 7F)
 Ernie: Thresh=  0.10000D-02 Tol=  0.10000D-05 Strict=F.
    78 basis functions,   116 primitive gaussians,    82 cartesian basis functions
    10 alpha electrons       10 beta electrons
       nuclear repulsion energy        27.1886764222 Hartrees.
 IExCor= 4336 DFT=T Ex+Corr=M062X ExCW=0 ScaHFX=  0.540000
 ScaDFX=  1.000000  1.000000  1.000000  1.000000 ScalE2=  1.000000  1.000000
 IRadAn=      5 IRanWt=     -1 IRanGd=            0 ICorTp=0 IEmpDi=131
 NAtoms=    6 NActive=    6 NUniq=    6 SFac= 1.00D+00 NAtFMM=   60 NAOKFM=F Big=F
 Integral buffers will be    131072 words long.
 Raffenetti 2 integral format.
 Two-electron integral symmetry is turned off.
 R6Disp:  Grimme-D3 Dispersion energy=       -0.0000317128 Hartrees.
 Nuclear repulsion after empirical dispersion term =       27.1886447094 Hartrees.
 Leave Link  301 at Fri Feb 17 21:14:12 2023, MaxMem=  6710886400 cpu:               1.1 elap:               0.1
 (Enter /data0/home/software/g16/l302.exe)
 NPDir=0 NMtPBC=     1 NCelOv=     1 NCel=       1 NClECP=     1 NCelD=      1
         NCelK=      1 NCelE2=     1 NClLst=     1 CellRange=     0.0.
 One-electron integrals computed using PRISM.
 NBasis=    78 RedAO= T EigKep=  2.91D-03  NBF=    78
 NBsUse=    78 1.00D-06 EigRej= -1.00D+00 NBFU=    78
 Precomputing XC quadrature grid using
 IXCGrd= 4 IRadAn=           5 IRanWt=          -1 IRanGd=           0 AccXCQ= 0.00D+00.
 Generated NRdTot=       0 NPtTot=           0 NUsed=           0 NTot=          32
 NSgBfM=    76    76    76    76    76 MxSgAt=     6 MxSgA2=     6.
 Leave Link  302 at Fri Feb 17 21:14:13 2023, MaxMem=  6710886400 cpu:               2.4 elap:               0.1
 (Enter /data0/home/software/g16/l303.exe)
 DipDrv:  MaxL=1.
 Leave Link  303 at Fri Feb 17 21:14:13 2023, MaxMem=  6710886400 cpu:               0.4 elap:               0.0
 (Enter /data0/home/software/g16/l401.exe)
 ExpMin= 8.45D-02 ExpMax= 8.59D+03 ExpMxC= 1.30D+03 IAcc=3 IRadAn=         5 AccDes= 0.00D+00
 Harris functional with IExCor= 1009 and IRadAn=       5 diagonalized for initial guess.
 HarFok:  IExCor= 1009 AccDes= 0.00D+00 IRadAn=         5 IDoV= 1 UseB2=F ITyADJ=14
 ICtDFT=  3500011 ScaDFX=  1.000000  1.000000  1.000000  1.000000
 FoFCou: FMM=F IPFlag=           0 FMFlag=      100000 FMFlg1=           0
         NFxFlg=           0 DoJE=T BraDBF=F KetDBF=T FulRan=T
         wScrn=  0.000000 ICntrl=       500 IOpCl=  0 I1Cent=   200000004 NGrid=           0
         NMat0=    1 NMatS0=      1 NMatT0=    0 NMatD0=    1 NMtDS0=    0 NMtDT0=    0
 Symmetry not used in FoFCou.
 Harris En= -152.831820674127    
 JPrj=0 DoOrth=F DoCkMO=F.
 Leave Link  401 at Fri Feb 17 21:14:13 2023, MaxMem=  6710886400 cpu:               3.4 elap:               0.2
 (Enter /data0/home/software/g16/l502.exe)
 Keep R1 ints in memory in canonical form, NReq=26476721.
 FoFCou: FMM=F IPFlag=           0 FMFlag=           0 FMFlg1=           0
         NFxFlg=           0 DoJE=F BraDBF=F KetDBF=F FulRan=T
         wScrn=  0.000000 ICntrl=       600 IOpCl=  0 I1Cent=           0 NGrid=           0
         NMat0=    1 NMatS0=   3081 NMatT0=    0 NMatD0=    1 NMtDS0=    0 NMtDT0=    0
 Symmetry not used in FoFCou.
 Two-electron integral symmetry not used.
 Closed shell SCF:
 Using DIIS extrapolation, IDIIS=  1040.
 NGot=  6710886400 LenX=  6706122419 LenY=  6706115254
 Requested convergence on RMS density matrix=1.00D-08 within 128 cycles.
 Requested convergence on MAX density matrix=1.00D-06.
 Requested convergence on             energy=1.00D-06.
 No special actions if energy rises.
 Integral accuracy reduced to 1.0D-05 until final iterations.

 Cycle   1  Pass 0  IDiag  1:
 E= -152.693180074157    
 DIIS: error= 5.67D-02 at cycle   1 NSaved=   1.
 NSaved= 1 IEnMin= 1 EnMin= -152.693180074157     IErMin= 1 ErrMin= 5.67D-02
 ErrMax= 5.67D-02  0.00D+00 EMaxC= 1.00D-01 BMatC= 2.40D-01 BMatP= 2.40D-01
 IDIUse=3 WtCom= 4.33D-01 WtEn= 5.67D-01
 Coeff-Com:  0.100D+01
 Coeff-En:   0.100D+01
 Coeff:      0.100D+01
 Gap=     0.315 Goal=   None    Shift=    0.000
 GapD=    0.315 DampG=1.000 DampE=0.500 DampFc=0.5000 IDamp=-1.
 Damping current iteration by 5.00D-01
 RMSDP=5.60D-03 MaxDP=1.01D-01              OVMax= 1.68D-01

 Cycle   2  Pass 0  IDiag  1:
 E= -152.755376717384     Delta-E=       -0.062196643227 Rises=F Damp=T
 DIIS: error= 8.95D-03 at cycle   2 NSaved=   2.
 NSaved= 2 IEnMin= 2 EnMin= -152.755376717384     IErMin= 2 ErrMin= 8.95D-03
 ErrMax= 8.95D-03  0.00D+00 EMaxC= 1.00D-01 BMatC= 9.76D-03 BMatP= 2.40D-01
 IDIUse=3 WtCom= 9.10D-01 WtEn= 8.95D-02
 Coeff-Com:  0.841D-01 0.916D+00
 Coeff-En:   0.191D+00 0.809D+00
 Coeff:      0.936D-01 0.906D+00
 Gap=     0.448 Goal=   None    Shift=    0.000
 RMSDP=6.81D-04 MaxDP=1.48D-02 DE=-6.22D-02 OVMax= 1.01D-01

 Cycle   3  Pass 0  IDiag  1:
 E= -152.842875834193     Delta-E=       -0.087499116809 Rises=F Damp=F
 DIIS: error= 1.93D-03 at cycle   3 NSaved=   3.
 NSaved= 3 IEnMin= 3 EnMin= -152.842875834193     IErMin= 3 ErrMin= 1.93D-03
 ErrMax= 1.93D-03  0.00D+00 EMaxC= 1.00D-01 BMatC= 2.28D-04 BMatP= 9.76D-03
 IDIUse=3 WtCom= 9.81D-01 WtEn= 1.93D-02
 Coeff-Com: -0.226D-01 0.462D-01 0.976D+00
 Coeff-En:   0.000D+00 0.000D+00 0.100D+01
 Coeff:     -0.221D-01 0.453D-01 0.977D+00
 Gap=     0.451 Goal=   None    Shift=    0.000
 RMSDP=8.90D-05 MaxDP=1.35D-03 DE=-8.75D-02 OVMax= 4.13D-03

 Cycle   4  Pass 0  IDiag  1:
 E= -152.843060778789     Delta-E=       -0.000184944595 Rises=F Damp=F
 DIIS: error= 5.51D-04 at cycle   4 NSaved=   4.
 NSaved= 4 IEnMin= 4 EnMin= -152.843060778789     IErMin= 4 ErrMin= 5.51D-04
 ErrMax= 5.51D-04  0.00D+00 EMaxC= 1.00D-01 BMatC= 1.12D-05 BMatP= 2.28D-04
 IDIUse=3 WtCom= 9.94D-01 WtEn= 5.51D-03
 Coeff-Com: -0.439D-02 0.273D-02 0.238D+00 0.763D+00
 Coeff-En:   0.000D+00 0.000D+00 0.000D+00 0.100D+01
 Coeff:     -0.436D-02 0.271D-02 0.237D+00 0.765D+00
 Gap=     0.453 Goal=   None    Shift=    0.000
 RMSDP=2.33D-05 MaxDP=7.27D-04 DE=-1.85D-04 OVMax= 1.01D-03

 Cycle   5  Pass 0  IDiag  1:
 E= -152.843066378430     Delta-E=       -0.000005599641 Rises=F Damp=F
 DIIS: error= 2.68D-04 at cycle   5 NSaved=   5.
 NSaved= 5 IEnMin= 5 EnMin= -152.843066378430     IErMin= 5 ErrMin= 2.68D-04
 ErrMax= 2.68D-04  0.00D+00 EMaxC= 1.00D-01 BMatC= 2.32D-06 BMatP= 1.12D-05
 IDIUse=3 WtCom= 9.97D-01 WtEn= 2.68D-03
 Coeff-Com:  0.130D-03-0.269D-02 0.305D-01 0.303D+00 0.669D+00
 Coeff-En:   0.000D+00 0.000D+00 0.000D+00 0.000D+00 0.100D+01
 Coeff:      0.130D-03-0.268D-02 0.304D-01 0.303D+00 0.670D+00
 Gap=     0.452 Goal=   None    Shift=    0.000
 RMSDP=1.08D-05 MaxDP=3.04D-04 DE=-5.60D-06 OVMax= 4.43D-04

 Cycle   6  Pass 0  IDiag  1:
 E= -152.843067881499     Delta-E=       -0.000001503069 Rises=F Damp=F
 DIIS: error= 8.48D-05 at cycle   6 NSaved=   6.
 NSaved= 6 IEnMin= 6 EnMin= -152.843067881499     IErMin= 6 ErrMin= 8.48D-05
 ErrMax= 8.48D-05  0.00D+00 EMaxC= 1.00D-01 BMatC= 2.31D-07 BMatP= 2.32D-06
 IDIUse=1 WtCom= 1.00D+00 WtEn= 0.00D+00
 Coeff-Com:  0.692D-03-0.105D-02-0.218D-01-0.445D-01 0.221D+00 0.846D+00
 Coeff:      0.692D-03-0.105D-02-0.218D-01-0.445D-01 0.221D+00 0.846D+00
 Gap=     0.452 Goal=   None    Shift=    0.000
 RMSDP=3.77D-06 MaxDP=8.97D-05 DE=-1.50D-06 OVMax= 1.62D-04

 Initial convergence to 1.0D-05 achieved.  Increase integral accuracy.
 Cycle   7  Pass 1  IDiag  1:
 E= -152.843061043076     Delta-E=        0.000006838423 Rises=F Damp=F
 DIIS: error= 1.91D-05 at cycle   1 NSaved=   1.
 NSaved= 1 IEnMin= 1 EnMin= -152.843061043076     IErMin= 1 ErrMin= 1.91D-05
 ErrMax= 1.91D-05  0.00D+00 EMaxC= 1.00D-01 BMatC= 2.32D-08 BMatP= 2.32D-08
 IDIUse=1 WtCom= 1.00D+00 WtEn= 0.00D+00
 Coeff-Com:  0.100D+01
 Coeff:      0.100D+01
 Gap=     0.452 Goal=   None    Shift=    0.000
 RMSDP=3.77D-06 MaxDP=8.97D-05 DE= 6.84D-06 OVMax= 3.76D-05

 Cycle   8  Pass 1  IDiag  1:
 E= -152.843061063537     Delta-E=       -0.000000020461 Rises=F Damp=F
 DIIS: error= 5.02D-06 at cycle   2 NSaved=   2.
 NSaved= 2 IEnMin= 2 EnMin= -152.843061063537     IErMin= 2 ErrMin= 5.02D-06
 ErrMax= 5.02D-06  0.00D+00 EMaxC= 1.00D-01 BMatC= 1.27D-09 BMatP= 2.32D-08
 IDIUse=1 WtCom= 1.00D+00 WtEn= 0.00D+00
 Coeff-Com:  0.346D-02 0.997D+00
 Coeff:      0.346D-02 0.997D+00
 Gap=     0.452 Goal=   None    Shift=    0.000
 RMSDP=4.93D-07 MaxDP=9.46D-06 DE=-2.05D-08 OVMax= 1.61D-05

 Cycle   9  Pass 1  IDiag  1:
 E= -152.843061063894     Delta-E=       -0.000000000357 Rises=F Damp=F
 DIIS: error= 4.12D-06 at cycle   3 NSaved=   3.
 NSaved= 3 IEnMin= 3 EnMin= -152.843061063894     IErMin= 3 ErrMin= 4.12D-06
 ErrMax= 4.12D-06  0.00D+00 EMaxC= 1.00D-01 BMatC= 1.25D-09 BMatP= 1.27D-09
 IDIUse=1 WtCom= 1.00D+00 WtEn= 0.00D+00
 Coeff-Com: -0.464D-01 0.522D+00 0.524D+00
 Coeff:     -0.464D-01 0.522D+00 0.524D+00
 Gap=     0.452 Goal=   None    Shift=    0.000
 RMSDP=2.07D-07 MaxDP=4.09D-06 DE=-3.57D-10 OVMax= 6.80D-06

 Cycle  10  Pass 1  IDiag  1:
 E= -152.843061064719     Delta-E=       -0.000000000825 Rises=F Damp=F
 DIIS: error= 5.23D-07 at cycle   4 NSaved=   4.
 NSaved= 4 IEnMin= 4 EnMin= -152.843061064719     IErMin= 4 ErrMin= 5.23D-07
 ErrMax= 5.23D-07  0.00D+00 EMaxC= 1.00D-01 BMatC= 1.06D-11 BMatP= 1.25D-09
 IDIUse=1 WtCom= 1.00D+00 WtEn= 0.00D+00
 Coeff-Com: -0.370D-02-0.453D-02 0.571D-01 0.951D+00
 Coeff:     -0.370D-02-0.453D-02 0.571D-01 0.951D+00
 Gap=     0.452 Goal=   None    Shift=    0.000
 RMSDP=4.36D-08 MaxDP=5.03D-07 DE=-8.25D-10 OVMax= 1.60D-06

 Cycle  11  Pass 1  IDiag  1:
 E= -152.843061064733     Delta-E=       -0.000000000014 Rises=F Damp=F
 DIIS: error= 9.94D-08 at cycle   5 NSaved=   5.
 NSaved= 5 IEnMin= 5 EnMin= -152.843061064733     IErMin= 5 ErrMin= 9.94D-08
 ErrMax= 9.94D-08  0.00D+00 EMaxC= 1.00D-01 BMatC= 7.17D-13 BMatP= 1.06D-11
 IDIUse=1 WtCom= 1.00D+00 WtEn= 0.00D+00
 Coeff-Com:  0.229D-02-0.353D-01-0.248D-01 0.131D+00 0.927D+00
 Coeff:      0.229D-02-0.353D-01-0.248D-01 0.131D+00 0.927D+00
 Gap=     0.452 Goal=   None    Shift=    0.000
 RMSDP=1.43D-08 MaxDP=1.69D-07 DE=-1.40D-11 OVMax= 4.48D-07

 Cycle  12  Pass 1  IDiag  1:
 E= -152.843061064735     Delta-E=       -0.000000000001 Rises=F Damp=F
 DIIS: error= 3.08D-08 at cycle   6 NSaved=   6.
 NSaved= 6 IEnMin= 6 EnMin= -152.843061064735     IErMin= 6 ErrMin= 3.08D-08
 ErrMax= 3.08D-08  0.00D+00 EMaxC= 1.00D-01 BMatC= 3.48D-14 BMatP= 7.17D-13
 IDIUse=1 WtCom= 1.00D+00 WtEn= 0.00D+00
 Coeff-Com:  0.469D-03-0.499D-02-0.519D-02-0.223D-01 0.795D-01 0.952D+00
 Coeff:      0.469D-03-0.499D-02-0.519D-02-0.223D-01 0.795D-01 0.952D+00
 Gap=     0.452 Goal=   None    Shift=    0.000
 RMSDP=3.75D-09 MaxDP=5.77D-08 DE=-1.14D-12 OVMax= 1.47D-07

 SCF Done:  E(RM062X) =  -152.843061065     A.U. after   12 cycles
            NFock= 12  Conv=0.38D-08     -V/T= 2.0031
 KE= 1.523632228981D+02 PE=-4.160142196787D+02 EE= 8.361929100647D+01
 Leave Link  502 at Fri Feb 17 21:14:14 2023, MaxMem=  6710886400 cpu:              17.4 elap:               0.8
 (Enter /data0/home/software/g16/l601.exe)
 Copying SCF densities to generalized density rwf, IOpCl= 0 IROHF=0.

 **********************************************************************

            Population analysis using the SCF density.

 **********************************************************************

 Alpha  occ. eigenvalues --  -19.62979 -19.62907  -1.13721  -1.13185  -0.61101
 Alpha  occ. eigenvalues --   -0.60446  -0.47870  -0.47693  -0.40318  -0.40136
 Alpha virt. eigenvalues --    0.05110   0.06374   0.12118   0.13107   0.16616
 Alpha virt. eigenvalues --    0.17162   0.17459   0.18397   0.18735   0.19304
 Alpha virt. eigenvalues --    0.22751   0.24077   0.49613   0.51332   0.52697
 Alpha virt. eigenvalues --    0.53885   0.97095   0.98033   0.99905   1.00894
 Alpha virt. eigenvalues --    1.05289   1.06750   1.17843   1.18066   1.19576
 Alpha virt. eigenvalues --    1.19679   1.31856   1.32034   1.33506   1.34448
 Alpha virt. eigenvalues --    1.69147   1.69673   1.73377   1.74022   1.75164
 Alpha virt. eigenvalues --    1.75574   2.05934   2.07470   2.09136   2.09265
 Alpha virt. eigenvalues --    2.35205   2.35939   2.39550   2.41231   2.54012
 Alpha virt. eigenvalues --    2.54493   2.86467   2.88221   3.00055   3.01318
 Alpha virt. eigenvalues --    5.05030   5.05944   5.46532   5.47994   5.88337
 Alpha virt. eigenvalues --    5.92481   6.77993   6.78189   6.79876   6.79989
 Alpha virt. eigenvalues --    6.86853   6.87156   6.91117   6.91178   7.09115
 Alpha virt. eigenvalues --    7.10015  49.94685  49.95611
          Condensed to atoms (all electrons):
               1          2          3          4          5          6
     1  O    7.925724   0.314238   0.319063   0.000005   0.000001   0.000049
     2  H    0.314238   0.425768  -0.023527  -0.000003   0.000000  -0.000003
     3  H    0.319063  -0.023527   0.428900  -0.000004   0.000000  -0.000001
     4  O    0.000005  -0.000003  -0.000004   7.916332   0.323246   0.317532
     5  H    0.000001   0.000000   0.000000   0.323246   0.422105  -0.023964
     6  H    0.000049  -0.000003  -0.000001   0.317532  -0.023964   0.427908
 Mulliken charges:
               1
     1  O   -0.559081
     2  H    0.283526
     3  H    0.275570
     4  O   -0.557106
     5  H    0.278612
     6  H    0.278479
 Sum of Mulliken charges =  -0.00000
 Mulliken charges with hydrogens summed into heavy atoms:
               1
     1  O    0.000016
     4  O   -0.000016
         Mulliken charges condensed to fragments:
      1      0.000016
      2     -0.000016
 Electronic spatial extent (au):  <R**2>=          23886.4521
 Charge=             -0.0000 electrons
 Dipole moment (field-independent basis, Debye):
    X=              0.6399    Y=              0.9074    Z=              0.1472  Tot=              1.1201
 Quadrupole moment (field-independent basis, Debye-Ang):
   XX=              3.9588   YY=             -4.2133   ZZ=            -11.9766
   XY=             18.1823   XZ=              9.5251   YZ=             21.5894
 Traceless Quadrupole moment (field-independent basis, Debye-Ang):
   XX=              8.0358   YY=             -0.1363   ZZ=             -7.8996
   XY=             18.1823   XZ=              9.5251   YZ=             21.5894
 Octapole moment (field-independent basis, Debye-Ang**2):
  XXX=           -123.5397  YYY=           -290.8179  ZZZ=           -424.6103  XYY=             46.3089
  XXY=            195.5442  XXZ=             87.9625  XZZ=            -45.1231  YZZ=            216.9789
  YYZ=            168.5743  XYZ=            343.4913
 Hexadecapole moment (field-independent basis, Debye-Ang**3):
 XXXX=          -4957.9213 YYYY=          -6532.1608 ZZZZ=          -9253.1052 XXXY=            812.8923
 XXXZ=           -580.0276 YYYX=          -2247.8900 YYYZ=              3.6661 ZZZX=          -3810.0545
 ZZZY=            796.1902 XXYY=            538.2777 XXZZ=           -621.6200 YYZZ=           2638.7824
 XXYZ=           3994.3250 YYXZ=           3107.3105 ZZXY=           3609.9611
 N-N= 2.718864470943D+01 E-N=-4.160142198491D+02  KE= 1.523632228981D+02
 No NMR shielding tensors so no spin-rotation constants.
 Leave Link  601 at Fri Feb 17 21:14:14 2023, MaxMem=  6710886400 cpu:               1.8 elap:               0.1
 (Enter /data0/home/software/g16/l122.exe)
 CPIOFr:  IOpCl= 0 IRwI=-1 IRwCP=  731 ICalc= -1 LCPTot=       10496 Len1MO=       26312 IndFrg=       10496
 CPIOFr:  IOpCl= 0 IRwI=-1 IRwCP=  731 ICalc=  0 LCPTot=       10496 Len1MO=       26312 IndFrg=       36808
 Counterpoise: doing calculation for fragment   1 using the basis set of the full-system, NewBq=T
 Leave Link  122 at Fri Feb 17 21:14:14 2023, MaxMem=  6710886400 cpu:               0.1 elap:               0.0
 (Enter /data0/home/software/g16/l301.exe)
 Basis read from rwf:  (5D, 7F)
 No pseudopotential information found on rwf file.
    78 basis functions,   116 primitive gaussians,    82 cartesian basis functions
     5 alpha electrons        5 beta electrons
       nuclear repulsion energy         9.0169202072 Hartrees.
 IExCor= 4336 DFT=T Ex+Corr=M062X ExCW=0 ScaHFX=  0.540000
 ScaDFX=  1.000000  1.000000  1.000000  1.000000 ScalE2=  1.000000  1.000000
 IRadAn=      5 IRanWt=     -1 IRanGd=            0 ICorTp=0 IEmpDi=131
 NAtoms=    6 NActive=    6 NUniq=    6 SFac= 1.00D+00 NAtFMM=   60 NAOKFM=F Big=F
 Integral buffers will be    131072 words long.
 Raffenetti 2 integral format.
 Two-electron integral symmetry is turned off.
 R6Disp:  Grimme-D3 Dispersion energy=       -0.0000000081 Hartrees.
 Nuclear repulsion after empirical dispersion term =        9.0169201991 Hartrees.
 No density basis found on file   718.
 Leave Link  301 at Fri Feb 17 21:14:14 2023, MaxMem=  6710886400 cpu:               1.3 elap:               0.1
 (Enter /data0/home/software/g16/l302.exe)
 NPDir=0 NMtPBC=     1 NCelOv=     1 NCel=       1 NClECP=     1 NCelD=      1
         NCelK=      1 NCelE2=     1 NClLst=     1 CellRange=     0.0.
 One-electron integrals computed using PRISM.
 NBasis=    78 RedAO= T EigKep=  2.91D-03  NBF=    78
 NBsUse=    78 1.00D-06 EigRej= -1.00D+00 NBFU=    78
 Precomputing XC quadrature grid using
 IXCGrd= 4 IRadAn=           5 IRanWt=          -1 IRanGd=           0 AccXCQ= 0.00D+00.
 Generated NRdTot=       0 NPtTot=           0 NUsed=           0 NTot=          32
 NSgBfM=    76    76    76    76    76 MxSgAt=     6 MxSgA2=     6.
 Leave Link  302 at Fri Feb 17 21:14:14 2023, MaxMem=  6710886400 cpu:               2.4 elap:               0.1
 (Enter /data0/home/software/g16/l303.exe)
 DipDrv:  MaxL=1.
 Leave Link  303 at Fri Feb 17 21:14:14 2023, MaxMem=  6710886400 cpu:               0.4 elap:               0.0
 (Enter /data0/home/software/g16/l401.exe)
 ExpMin= 8.45D-02 ExpMax= 8.59D+03 ExpMxC= 1.30D+03 IAcc=3 IRadAn=         5 AccDes= 0.00D+00
 Harris functional with IExCor= 1009 and IRadAn=       5 diagonalized for initial guess.
 HarFok:  IExCor= 1009 AccDes= 0.00D+00 IRadAn=         5 IDoV= 1 UseB2=F ITyADJ=14
 ICtDFT=  3500011 ScaDFX=  1.000000  1.000000  1.000000  1.000000
 FoFCou: FMM=F IPFlag=           0 FMFlag=      100000 FMFlg1=           0
         NFxFlg=           0 DoJE=T BraDBF=F KetDBF=T FulRan=T
         wScrn=  0.000000 ICntrl=       500 IOpCl=  0 I1Cent=   200000004 NGrid=           0
         NMat0=    1 NMatS0=      1 NMatT0=    0 NMatD0=    1 NMtDS0=    0 NMtDT0=    0
 Symmetry not used in FoFCou.
 Harris En= -76.4151539462237    
 JPrj=0 DoOrth=F DoCkMO=F.
 Leave Link  401 at Fri Feb 17 21:14:14 2023, MaxMem=  6710886400 cpu:               3.3 elap:               0.2
 (Enter /data0/home/software/g16/l502.exe)
 Keep R1 ints in memory in canonical form, NReq=26476721.
 FoFCou: FMM=F IPFlag=           0 FMFlag=           0 FMFlg1=           0
         NFxFlg=           0 DoJE=F BraDBF=F KetDBF=F FulRan=T
         wScrn=  0.000000 ICntrl=       600 IOpCl=  0 I1Cent=           0 NGrid=           0
         NMat0=    1 NMatS0=   3081 NMatT0=    0 NMatD0=    1 NMtDS0=    0 NMtDT0=    0
 Symmetry not used in FoFCou.
 Two-electron integral symmetry not used.
 Closed shell SCF:
 Using DIIS extrapolation, IDIIS=  1040.
 NGot=  6710886400 LenX=  6706122419 LenY=  6706115254
 Requested convergence on RMS density matrix=1.00D-08 within 128 cycles.
 Requested convergence on MAX density matrix=1.00D-06.
 Requested convergence on             energy=1.00D-06.
 No special actions if energy rises.
 Integral accuracy reduced to 1.0D-05 until final iterations.

 Cycle   1  Pass 0  IDiag  1:
 E= -76.3462974868513    
 DIIS: error= 5.28D-02 at cycle   1 NSaved=   1.
 NSaved= 1 IEnMin= 1 EnMin= -76.3462974868513     IErMin= 1 ErrMin= 5.28D-02
 ErrMax= 5.28D-02  0.00D+00 EMaxC= 1.00D-01 BMatC= 1.19D-01 BMatP= 1.19D-01
 IDIUse=3 WtCom= 4.72D-01 WtEn= 5.28D-01
 Coeff-Com:  0.100D+01
 Coeff-En:   0.100D+01
 Coeff:      0.100D+01
 Gap=     0.322 Goal=   None    Shift=    0.000
 GapD=    0.322 DampG=1.000 DampE=0.500 DampFc=0.5000 IDamp=-1.
 Damping current iteration by 5.00D-01
 RMSDP=3.97D-03 MaxDP=9.97D-02              OVMax= 1.67D-01

 Cycle   2  Pass 0  IDiag  1:
 E= -76.3770676521493     Delta-E=       -0.030770165298 Rises=F Damp=T
 DIIS: error= 8.42D-03 at cycle   2 NSaved=   2.
 NSaved= 2 IEnMin= 2 EnMin= -76.3770676521493     IErMin= 2 ErrMin= 8.42D-03
 ErrMax= 8.42D-03  0.00D+00 EMaxC= 1.00D-01 BMatC= 4.97D-03 BMatP= 1.19D-01
 IDIUse=3 WtCom= 9.16D-01 WtEn= 8.42D-02
 Coeff-Com:  0.869D-01 0.913D+00
 Coeff-En:   0.195D+00 0.805D+00
 Coeff:      0.960D-01 0.904D+00
 Gap=     0.454 Goal=   None    Shift=    0.000
 RMSDP=4.89D-04 MaxDP=1.46D-02 DE=-3.08D-02 OVMax= 1.01D-01

 Cycle   3  Pass 0  IDiag  1:
 E= -76.4208011162361     Delta-E=       -0.043733464087 Rises=F Damp=F
 DIIS: error= 2.08D-03 at cycle   3 NSaved=   3.
 NSaved= 3 IEnMin= 3 EnMin= -76.4208011162361     IErMin= 3 ErrMin= 2.08D-03
 ErrMax= 2.08D-03  0.00D+00 EMaxC= 1.00D-01 BMatC= 1.18D-04 BMatP= 4.97D-03
 IDIUse=3 WtCom= 9.79D-01 WtEn= 2.08D-02
 Coeff-Com: -0.230D-01 0.471D-01 0.976D+00
 Coeff-En:   0.000D+00 0.000D+00 0.100D+01
 Coeff:     -0.225D-01 0.461D-01 0.976D+00
 Gap=     0.457 Goal=   None    Shift=    0.000
 RMSDP=6.29D-05 MaxDP=1.16D-03 DE=-4.37D-02 OVMax= 3.63D-03

 Cycle   4  Pass 0  IDiag  1:
 E= -76.4208982800335     Delta-E=       -0.000097163797 Rises=F Damp=F
 DIIS: error= 3.15D-04 at cycle   4 NSaved=   4.
 NSaved= 4 IEnMin= 4 EnMin= -76.4208982800335     IErMin= 4 ErrMin= 3.15D-04
 ErrMax= 3.15D-04  0.00D+00 EMaxC= 1.00D-01 BMatC= 3.47D-06 BMatP= 1.18D-04
 IDIUse=3 WtCom= 9.97D-01 WtEn= 3.15D-03
 Coeff-Com: -0.264D-02-0.102D-02 0.166D+00 0.838D+00
 Coeff-En:   0.000D+00 0.000D+00 0.000D+00 0.100D+01
 Coeff:     -0.263D-02-0.101D-02 0.166D+00 0.838D+00
 Gap=     0.458 Goal=   None    Shift=    0.000
 RMSDP=1.13D-05 MaxDP=3.54D-04 DE=-9.72D-05 OVMax= 5.51D-04

 Cycle   5  Pass 0  IDiag  1:
 E= -76.4209004218834     Delta-E=       -0.000002141850 Rises=F Damp=F
 DIIS: error= 7.01D-05 at cycle   5 NSaved=   5.
 NSaved= 5 IEnMin= 5 EnMin= -76.4209004218834     IErMin= 5 ErrMin= 7.01D-05
 ErrMax= 7.01D-05  0.00D+00 EMaxC= 1.00D-01 BMatC= 8.87D-08 BMatP= 3.47D-06
 IDIUse=1 WtCom= 1.00D+00 WtEn= 0.00D+00
 Coeff-Com:  0.134D-02-0.207D-02-0.378D-01-0.741D-01 0.111D+01
 Coeff:      0.134D-02-0.207D-02-0.378D-01-0.741D-01 0.111D+01
 Gap=     0.458 Goal=   None    Shift=    0.000
 RMSDP=4.71D-06 MaxDP=1.04D-04 DE=-2.14D-06 OVMax= 2.16D-04

 Initial convergence to 1.0D-05 achieved.  Increase integral accuracy.
 Cycle   6  Pass 1  IDiag  1:
 E= -76.4208943075775     Delta-E=        0.000006114306 Rises=F Damp=F
 DIIS: error= 2.00D-05 at cycle   1 NSaved=   1.
 NSaved= 1 IEnMin= 1 EnMin= -76.4208943075775     IErMin= 1 ErrMin= 2.00D-05
 ErrMax= 2.00D-05  0.00D+00 EMaxC= 1.00D-01 BMatC= 1.33D-08 BMatP= 1.33D-08
 IDIUse=1 WtCom= 1.00D+00 WtEn= 0.00D+00
 Coeff-Com:  0.100D+01
 Coeff:      0.100D+01
 Gap=     0.458 Goal=   None    Shift=    0.000
 RMSDP=4.71D-06 MaxDP=1.04D-04 DE= 6.11D-06 OVMax= 4.74D-05

 Cycle   7  Pass 1  IDiag  1:
 E= -76.4208943201675     Delta-E=       -0.000000012590 Rises=F Damp=F
 DIIS: error= 6.84D-06 at cycle   2 NSaved=   2.
 NSaved= 2 IEnMin= 2 EnMin= -76.4208943201675     IErMin= 2 ErrMin= 6.84D-06
 ErrMax= 6.84D-06  0.00D+00 EMaxC= 1.00D-01 BMatC= 1.25D-09 BMatP= 1.33D-08
 IDIUse=1 WtCom= 1.00D+00 WtEn= 0.00D+00
 Coeff-Com:  0.620D-01 0.938D+00
 Coeff:      0.620D-01 0.938D+00
 Gap=     0.458 Goal=   None    Shift=    0.000
 RMSDP=3.91D-07 MaxDP=1.19D-05 DE=-1.26D-08 OVMax= 2.07D-05

 Cycle   8  Pass 1  IDiag  1:
 E= -76.4208943205230     Delta-E=       -0.000000000356 Rises=F Damp=F
 DIIS: error= 4.88D-06 at cycle   3 NSaved=   3.
 NSaved= 3 IEnMin= 3 EnMin= -76.4208943205230     IErMin= 3 ErrMin= 4.88D-06
 ErrMax= 4.88D-06  0.00D+00 EMaxC= 1.00D-01 BMatC= 1.13D-09 BMatP= 1.25D-09
 IDIUse=1 WtCom= 1.00D+00 WtEn= 0.00D+00
 Coeff-Com: -0.503D-01 0.504D+00 0.546D+00
 Coeff:     -0.503D-01 0.504D+00 0.546D+00
 Gap=     0.458 Goal=   None    Shift=    0.000
 RMSDP=1.91D-07 MaxDP=5.03D-06 DE=-3.56D-10 OVMax= 9.29D-06

 Cycle   9  Pass 1  IDiag  1:
 E= -76.4208943212771     Delta-E=       -0.000000000754 Rises=F Damp=F
 DIIS: error= 5.34D-07 at cycle   4 NSaved=   4.
 NSaved= 4 IEnMin= 4 EnMin= -76.4208943212771     IErMin= 4 ErrMin= 5.34D-07
 ErrMax= 5.34D-07  0.00D+00 EMaxC= 1.00D-01 BMatC= 6.51D-12 BMatP= 1.13D-09
 IDIUse=1 WtCom= 1.00D+00 WtEn= 0.00D+00
 Coeff-Com: -0.538D-02-0.820D-02 0.362D-01 0.977D+00
 Coeff:     -0.538D-02-0.820D-02 0.362D-01 0.977D+00
 Gap=     0.458 Goal=   None    Shift=    0.000
 RMSDP=3.83D-08 MaxDP=5.62D-07 DE=-7.54D-10 OVMax= 1.76D-06

 Cycle  10  Pass 1  IDiag  1:
 E= -76.4208943212880     Delta-E=       -0.000000000011 Rises=F Damp=F
 DIIS: error= 1.27D-07 at cycle   5 NSaved=   5.
 NSaved= 5 IEnMin= 5 EnMin= -76.4208943212880     IErMin= 5 ErrMin= 1.27D-07
 ErrMax= 1.27D-07  0.00D+00 EMaxC= 1.00D-01 BMatC= 5.26D-13 BMatP= 6.51D-12
 IDIUse=1 WtCom= 1.00D+00 WtEn= 0.00D+00
 Coeff-Com:  0.257D-02-0.361D-01-0.311D-01 0.130D+00 0.935D+00
 Coeff:      0.257D-02-0.361D-01-0.311D-01 0.130D+00 0.935D+00
 Gap=     0.458 Goal=   None    Shift=    0.000
 RMSDP=1.23D-08 MaxDP=1.99D-07 DE=-1.08D-11 OVMax= 5.08D-07

 Cycle  11  Pass 1  IDiag  1:
 E= -76.4208943212889     Delta-E=       -0.000000000001 Rises=F Damp=F
 DIIS: error= 1.67D-08 at cycle   6 NSaved=   6.
 NSaved= 6 IEnMin= 6 EnMin= -76.4208943212889     IErMin= 6 ErrMin= 1.67D-08
 ErrMax= 1.67D-08  0.00D+00 EMaxC= 1.00D-01 BMatC= 8.99D-15 BMatP= 5.26D-13
 IDIUse=1 WtCom= 1.00D+00 WtEn= 0.00D+00
 Coeff-Com:  0.254D-03-0.122D-02-0.159D-02-0.301D-01-0.271D-01 0.106D+01
 Coeff:      0.254D-03-0.122D-02-0.159D-02-0.301D-01-0.271D-01 0.106D+01
 Gap=     0.458 Goal=   None    Shift=    0.000
 RMSDP=2.85D-09 MaxDP=5.60D-08 DE=-9.09D-13 OVMax= 1.22D-07

 SCF Done:  E(RM062X) =  -76.4208943213     A.U. after   11 cycles
            NFock= 11  Conv=0.28D-08     -V/T= 2.0034
 KE= 7.616399978188D+01 PE=-1.988709734338D+02 EE= 3.726915913159D+01
 Leave Link  502 at Fri Feb 17 21:14:15 2023, MaxMem=  6710886400 cpu:              16.1 elap:               0.8
 (Enter /data0/home/software/g16/l601.exe)
 Copying SCF densities to generalized density rwf, IOpCl= 0 IROHF=0.

 **********************************************************************

            Population analysis using the SCF density.

 **********************************************************************

 Alpha  occ. eigenvalues --  -19.62770  -1.12976  -0.60242  -0.47486  -0.39918
 Alpha virt. eigenvalues --    0.05877   0.09635   0.13107   0.15742   0.17547
 Alpha virt. eigenvalues --    0.18316   0.18434   0.18924   0.19843   0.23721
 Alpha virt. eigenvalues --    0.29320   0.31347   0.49921   0.53302   0.55765
 Alpha virt. eigenvalues --    0.78360   0.79645   0.80520   0.98127   1.00754
 Alpha virt. eigenvalues --    1.02628   1.06269   1.12475   1.18060   1.19782
 Alpha virt. eigenvalues --    1.32084   1.34797   1.69388   1.73576   1.75262
 Alpha virt. eigenvalues --    1.84368   1.88833   1.97794   2.06121   2.09493
 Alpha virt. eigenvalues --    2.19905   2.31771   2.35615   2.39733   2.52530
 Alpha virt. eigenvalues --    2.54306   2.58850   2.69301   2.72592   2.74716
 Alpha virt. eigenvalues --    2.77197   2.86674   3.00296   3.00462   3.09850
 Alpha virt. eigenvalues --    3.60262   3.62164   4.66037   5.05792   5.26953
 Alpha virt. eigenvalues --    5.46739   5.88544   6.78403   6.80204   6.87362
 Alpha virt. eigenvalues --    6.91325   7.10223  10.24733  10.27947  10.33887
 Alpha virt. eigenvalues --   10.41414  10.57406  13.38246  13.78595  14.29419
 Alpha virt. eigenvalues --   18.38593  49.94898 139.74159
          Condensed to atoms (all electrons):
               1          2          3          4          5          6
     1  O    7.924686   0.313194   0.319403  -0.000001   0.000001   0.000014
     2  H    0.313194   0.428852  -0.023454   0.000001   0.000000  -0.000000
     3  H    0.319403  -0.023454   0.428142   0.000001   0.000000   0.000000
     4  O   -0.000001   0.000001   0.000001   0.000021  -0.000010  -0.000012
     5  H    0.000001   0.000000   0.000000  -0.000010   0.000006   0.000005
     6  H    0.000014  -0.000000   0.000000  -0.000012   0.000005   0.000010
 Mulliken charges:
               1
     1  O   -0.557298
     2  H    0.281407
     3  H    0.275909
     4  O   -0.000000
     5  H   -0.000002
     6  H   -0.000016
 Sum of Mulliken charges =  -0.00000
 Mulliken charges with hydrogens summed into heavy atoms:
               1
     1  O    0.000018
     4  O   -0.000018
         Mulliken charges condensed to fragments:
      1      0.000018
      2     -0.000018
 Electronic spatial extent (au):  <R**2>=           9950.6023
 Charge=             -0.0000 electrons
 Dipole moment (field-independent basis, Debye):
    X=             -0.2943    Y=              1.2219    Z=             -1.7233  Tot=              2.1329
 Quadrupole moment (field-independent basis, Debye-Ang):
   XX=            -11.1355   YY=              7.7957   ZZ=            -43.6683
   XY=             11.3202   XZ=            -22.9406   YZ=              1.9377
 Traceless Quadrupole moment (field-independent basis, Debye-Ang):
   XX=              4.5338   YY=             23.4651   ZZ=            -27.9989
   XY=             11.3202   XZ=            -22.9406   YZ=              1.9377
 Octapole moment (field-independent basis, Debye-Ang**2):
  XXX=           -263.3166  YYY=              5.7410  ZZZ=           -811.7231  XYY=             69.4786
  XXY=             73.1965  XXZ=           -347.4612  XZZ=           -532.7273  YZZ=           -139.9772
  YYZ=             10.9932  XYZ=             -6.6310
 Hexadecapole moment (field-independent basis, Debye-Ang**3):
 XXXX=          -5076.0628 YYYY=           -498.4589 ZZZZ=         -13196.2428 XXXY=            -83.7742
 XXXZ=          -5461.8865 YYYX=            -64.7845 YYYZ=           -411.7477 ZZZX=          -9602.6847
 ZZZY=          -3673.2372 XXYY=            414.6256 XXZZ=          -7002.3915 YYZZ=           -913.9676
 XXYZ=           -688.8027 YYXZ=            -86.2434 ZZXY=          -1899.7219
 N-N= 9.016920199052D+00 E-N=-1.988709736133D+02  KE= 7.616399978188D+01
 No NMR shielding tensors so no spin-rotation constants.
 Leave Link  601 at Fri Feb 17 21:14:15 2023, MaxMem=  6710886400 cpu:               1.8 elap:               0.1
 (Enter /data0/home/software/g16/l122.exe)
 CPIOFr:  IOpCl= 0 IRwI=-1 IRwCP=  731 ICalc=  1 LCPTot=       10496 Len1MO=       26312 IndFrg=       63120
 Counterpoise: doing calculation for fragment   2 using the basis set of the full-system, NewBq=T
 Leave Link  122 at Fri Feb 17 21:14:15 2023, MaxMem=  6710886400 cpu:               0.1 elap:               0.0
 (Enter /data0/home/software/g16/l301.exe)
 Basis read from rwf:  (5D, 7F)
 No pseudopotential information found on rwf file.
    78 basis functions,   116 primitive gaussians,    82 cartesian basis functions
     5 alpha electrons        5 beta electrons
       nuclear repulsion energy         9.1142262121 Hartrees.
 IExCor= 4336 DFT=T Ex+Corr=M062X ExCW=0 ScaHFX=  0.540000
 ScaDFX=  1.000000  1.000000  1.000000  1.000000 ScalE2=  1.000000  1.000000
 IRadAn=      5 IRanWt=     -1 IRanGd=            0 ICorTp=0 IEmpDi=131
 NAtoms=    6 NActive=    6 NUniq=    6 SFac= 1.00D+00 NAtFMM=   60 NAOKFM=F Big=F
 Integral buffers will be    131072 words long.
 Raffenetti 2 integral format.
 Two-electron integral symmetry is turned off.
 R6Disp:  Grimme-D3 Dispersion energy=       -0.0000000076 Hartrees.
 Nuclear repulsion after empirical dispersion term =        9.1142262045 Hartrees.
 No density basis found on file   718.
 Leave Link  301 at Fri Feb 17 21:14:15 2023, MaxMem=  6710886400 cpu:               1.2 elap:               0.1
 (Enter /data0/home/software/g16/l302.exe)
 NPDir=0 NMtPBC=     1 NCelOv=     1 NCel=       1 NClECP=     1 NCelD=      1
         NCelK=      1 NCelE2=     1 NClLst=     1 CellRange=     0.0.
 One-electron integrals computed using PRISM.
 NBasis=    78 RedAO= T EigKep=  2.91D-03  NBF=    78
 NBsUse=    78 1.00D-06 EigRej= -1.00D+00 NBFU=    78
 Precomputing XC quadrature grid using
 IXCGrd= 4 IRadAn=           5 IRanWt=          -1 IRanGd=           0 AccXCQ= 0.00D+00.
 Generated NRdTot=       0 NPtTot=           0 NUsed=           0 NTot=          32
 NSgBfM=    76    76    76    76    76 MxSgAt=     6 MxSgA2=     6.
 Leave Link  302 at Fri Feb 17 21:14:15 2023, MaxMem=  6710886400 cpu:               2.4 elap:               0.1
 (Enter /data0/home/software/g16/l303.exe)
 DipDrv:  MaxL=1.
 Leave Link  303 at Fri Feb 17 21:14:15 2023, MaxMem=  6710886400 cpu:               0.4 elap:               0.0
 (Enter /data0/home/software/g16/l401.exe)
 ExpMin= 8.45D-02 ExpMax= 8.59D+03 ExpMxC= 1.30D+03 IAcc=3 IRadAn=         5 AccDes= 0.00D+00
 Harris functional with IExCor= 1009 and IRadAn=       5 diagonalized for initial guess.
 HarFok:  IExCor= 1009 AccDes= 0.00D+00 IRadAn=         5 IDoV= 1 UseB2=F ITyADJ=14
 ICtDFT=  3500011 ScaDFX=  1.000000  1.000000  1.000000  1.000000
 FoFCou: FMM=F IPFlag=           0 FMFlag=      100000 FMFlg1=           0
         NFxFlg=           0 DoJE=T BraDBF=F KetDBF=T FulRan=T
         wScrn=  0.000000 ICntrl=       500 IOpCl=  0 I1Cent=   200000004 NGrid=           0
         NMat0=    1 NMatS0=      1 NMatT0=    0 NMatD0=    1 NMtDS0=    0 NMtDT0=    0
 Symmetry not used in FoFCou.
 Harris En= -76.4166433391754    
 JPrj=0 DoOrth=F DoCkMO=F.
 Leave Link  401 at Fri Feb 17 21:14:15 2023, MaxMem=  6710886400 cpu:               3.3 elap:               0.2
 (Enter /data0/home/software/g16/l502.exe)
 Keep R1 ints in memory in canonical form, NReq=26476721.
 FoFCou: FMM=F IPFlag=           0 FMFlag=           0 FMFlg1=           0
         NFxFlg=           0 DoJE=F BraDBF=F KetDBF=F FulRan=T
         wScrn=  0.000000 ICntrl=       600 IOpCl=  0 I1Cent=           0 NGrid=           0
         NMat0=    1 NMatS0=   3081 NMatT0=    0 NMatD0=    1 NMtDS0=    0 NMtDT0=    0
 Symmetry not used in FoFCou.
 Two-electron integral symmetry not used.
 Closed shell SCF:
 Using DIIS extrapolation, IDIIS=  1040.
 NGot=  6710886400 LenX=  6706122419 LenY=  6706115254
 Requested convergence on RMS density matrix=1.00D-08 within 128 cycles.
 Requested convergence on MAX density matrix=1.00D-06.
 Requested convergence on             energy=1.00D-06.
 No special actions if energy rises.
 Integral accuracy reduced to 1.0D-05 until final iterations.

 Cycle   1  Pass 0  IDiag  1:
 E= -76.3462845252340    
 DIIS: error= 5.25D-02 at cycle   1 NSaved=   1.
 NSaved= 1 IEnMin= 1 EnMin= -76.3462845252340     IErMin= 1 ErrMin= 5.25D-02
 ErrMax= 5.25D-02  0.00D+00 EMaxC= 1.00D-01 BMatC= 1.21D-01 BMatP= 1.21D-01
 IDIUse=3 WtCom= 4.75D-01 WtEn= 5.25D-01
 Coeff-Com:  0.100D+01
 Coeff-En:   0.100D+01
 Coeff:      0.100D+01
 Gap=     0.324 Goal=   None    Shift=    0.000
 GapD=    0.324 DampG=1.000 DampE=0.500 DampFc=0.5000 IDamp=-1.
 Damping current iteration by 5.00D-01
 RMSDP=3.96D-03 MaxDP=1.01D-01              OVMax= 1.68D-01

 Cycle   2  Pass 0  IDiag  1:
 E= -76.3777996645821     Delta-E=       -0.031515139348 Rises=F Damp=T
 DIIS: error= 8.18D-03 at cycle   2 NSaved=   2.
 NSaved= 2 IEnMin= 2 EnMin= -76.3777996645821     IErMin= 2 ErrMin= 8.18D-03
 ErrMax= 8.18D-03  0.00D+00 EMaxC= 1.00D-01 BMatC= 4.81D-03 BMatP= 1.21D-01
 IDIUse=3 WtCom= 9.18D-01 WtEn= 8.18D-02
 Coeff-Com:  0.817D-01 0.918D+00
 Coeff-En:   0.186D+00 0.814D+00
 Coeff:      0.903D-01 0.910D+00
 Gap=     0.457 Goal=   None    Shift=    0.000
 RMSDP=4.76D-04 MaxDP=1.42D-02 DE=-3.15D-02 OVMax= 1.01D-01

 Cycle   3  Pass 0  IDiag  1:
 E= -76.4217233887761     Delta-E=       -0.043923724194 Rises=F Damp=F
 DIIS: error= 2.07D-03 at cycle   3 NSaved=   3.
 NSaved= 3 IEnMin= 3 EnMin= -76.4217233887761     IErMin= 3 ErrMin= 2.07D-03
 ErrMax= 2.07D-03  0.00D+00 EMaxC= 1.00D-01 BMatC= 1.19D-04 BMatP= 4.81D-03
 IDIUse=3 WtCom= 9.79D-01 WtEn= 2.07D-02
 Coeff-Com: -0.236D-01 0.465D-01 0.977D+00
 Coeff-En:   0.000D+00 0.000D+00 0.100D+01
 Coeff:     -0.231D-01 0.455D-01 0.978D+00
 Gap=     0.460 Goal=   None    Shift=    0.000
 RMSDP=6.27D-05 MaxDP=1.15D-03 DE=-4.39D-02 OVMax= 3.59D-03

 Cycle   4  Pass 0  IDiag  1:
 E= -76.4218202394740     Delta-E=       -0.000096850698 Rises=F Damp=F
 DIIS: error= 2.99D-04 at cycle   4 NSaved=   4.
 NSaved= 4 IEnMin= 4 EnMin= -76.4218202394740     IErMin= 4 ErrMin= 2.99D-04
 ErrMax= 2.99D-04  0.00D+00 EMaxC= 1.00D-01 BMatC= 3.21D-06 BMatP= 1.19D-04
 IDIUse=3 WtCom= 9.97D-01 WtEn= 2.99D-03
 Coeff-Com: -0.254D-02-0.857D-03 0.161D+00 0.842D+00
 Coeff-En:   0.000D+00 0.000D+00 0.000D+00 0.100D+01
 Coeff:     -0.253D-02-0.854D-03 0.161D+00 0.842D+00
 Gap=     0.460 Goal=   None    Shift=    0.000
 RMSDP=1.10D-05 MaxDP=3.46D-04 DE=-9.69D-05 OVMax= 5.27D-04

 Cycle   5  Pass 0  IDiag  1:
 E= -76.4218222095198     Delta-E=       -0.000001970046 Rises=F Damp=F
 DIIS: error= 6.48D-05 at cycle   5 NSaved=   5.
 NSaved= 5 IEnMin= 5 EnMin= -76.4218222095198     IErMin= 5 ErrMin= 6.48D-05
 ErrMax= 6.48D-05  0.00D+00 EMaxC= 1.00D-01 BMatC= 8.05D-08 BMatP= 3.21D-06
 IDIUse=1 WtCom= 1.00D+00 WtEn= 0.00D+00
 Coeff-Com:  0.131D-02-0.203D-02-0.367D-01-0.660D-01 0.110D+01
 Coeff:      0.131D-02-0.203D-02-0.367D-01-0.660D-01 0.110D+01
 Gap=     0.461 Goal=   None    Shift=    0.000
 RMSDP=4.47D-06 MaxDP=1.00D-04 DE=-1.97D-06 OVMax= 2.00D-04

 Initial convergence to 1.0D-05 achieved.  Increase integral accuracy.
 Cycle   6  Pass 1  IDiag  1:
 E= -76.4218217327385     Delta-E=        0.000000476781 Rises=F Damp=F
 DIIS: error= 1.67D-05 at cycle   1 NSaved=   1.
 NSaved= 1 IEnMin= 1 EnMin= -76.4218217327385     IErMin= 1 ErrMin= 1.67D-05
 ErrMax= 1.67D-05  0.00D+00 EMaxC= 1.00D-01 BMatC= 1.16D-08 BMatP= 1.16D-08
 IDIUse=1 WtCom= 1.00D+00 WtEn= 0.00D+00
 Coeff-Com:  0.100D+01
 Coeff:      0.100D+01
 Gap=     0.461 Goal=   None    Shift=    0.000
 RMSDP=4.47D-06 MaxDP=1.00D-04 DE= 4.77D-07 OVMax= 4.90D-05

 Cycle   7  Pass 1  IDiag  1:
 E= -76.4218217429559     Delta-E=       -0.000000010217 Rises=F Damp=F
 DIIS: error= 7.61D-06 at cycle   2 NSaved=   2.
 NSaved= 2 IEnMin= 2 EnMin= -76.4218217429559     IErMin= 2 ErrMin= 7.61D-06
 ErrMax= 7.61D-06  0.00D+00 EMaxC= 1.00D-01 BMatC= 1.44D-09 BMatP= 1.16D-08
 IDIUse=1 WtCom= 1.00D+00 WtEn= 0.00D+00
 Coeff-Com:  0.111D+00 0.889D+00
 Coeff:      0.111D+00 0.889D+00
 Gap=     0.461 Goal=   None    Shift=    0.000
 RMSDP=3.86D-07 MaxDP=1.32D-05 DE=-1.02D-08 OVMax= 2.06D-05

 Cycle   8  Pass 1  IDiag  1:
 E= -76.4218217434138     Delta-E=       -0.000000000458 Rises=F Damp=F
 DIIS: error= 4.64D-06 at cycle   3 NSaved=   3.
 NSaved= 3 IEnMin= 3 EnMin= -76.4218217434138     IErMin= 3 ErrMin= 4.64D-06
 ErrMax= 4.64D-06  0.00D+00 EMaxC= 1.00D-01 BMatC= 1.08D-09 BMatP= 1.44D-09
 IDIUse=1 WtCom= 1.00D+00 WtEn= 0.00D+00
 Coeff-Com: -0.544D-01 0.473D+00 0.581D+00
 Coeff:     -0.544D-01 0.473D+00 0.581D+00
 Gap=     0.461 Goal=   None    Shift=    0.000
 RMSDP=1.92D-07 MaxDP=4.63D-06 DE=-4.58D-10 OVMax= 9.77D-06

 Cycle   9  Pass 1  IDiag  1:
 E= -76.4218217441412     Delta-E=       -0.000000000727 Rises=F Damp=F
 DIIS: error= 5.13D-07 at cycle   4 NSaved=   4.
 NSaved= 4 IEnMin= 4 EnMin= -76.4218217441412     IErMin= 4 ErrMin= 5.13D-07
 ErrMax= 5.13D-07  0.00D+00 EMaxC= 1.00D-01 BMatC= 5.67D-12 BMatP= 1.08D-09
 IDIUse=1 WtCom= 1.00D+00 WtEn= 0.00D+00
 Coeff-Com: -0.359D-02-0.183D-01 0.228D-01 0.999D+00
 Coeff:     -0.359D-02-0.183D-01 0.228D-01 0.999D+00
 Gap=     0.461 Goal=   None    Shift=    0.000
 RMSDP=3.55D-08 MaxDP=5.80D-07 DE=-7.27D-10 OVMax= 1.65D-06

 Cycle  10  Pass 1  IDiag  1:
 E= -76.4218217441510     Delta-E=       -0.000000000010 Rises=F Damp=F
 DIIS: error= 1.11D-07 at cycle   5 NSaved=   5.
 NSaved= 5 IEnMin= 5 EnMin= -76.4218217441510     IErMin= 5 ErrMin= 1.11D-07
 ErrMax= 1.11D-07  0.00D+00 EMaxC= 1.00D-01 BMatC= 4.44D-13 BMatP= 5.67D-12
 IDIUse=1 WtCom= 1.00D+00 WtEn= 0.00D+00
 Coeff-Com:  0.288D-02-0.369D-01-0.363D-01 0.145D+00 0.925D+00
 Coeff:      0.288D-02-0.369D-01-0.363D-01 0.145D+00 0.925D+00
 Gap=     0.461 Goal=   None    Shift=    0.000
 RMSDP=1.12D-08 MaxDP=2.16D-07 DE=-9.83D-12 OVMax= 5.53D-07

 Cycle  11  Pass 1  IDiag  1:
 E= -76.4218217441519     Delta-E=       -0.000000000001 Rises=F Damp=F
 DIIS: error= 1.20D-08 at cycle   6 NSaved=   6.
 NSaved= 6 IEnMin= 6 EnMin= -76.4218217441519     IErMin= 6 ErrMin= 1.20D-08
 ErrMax= 1.20D-08  0.00D+00 EMaxC= 1.00D-01 BMatC= 4.80D-15 BMatP= 4.44D-13
 IDIUse=1 WtCom= 1.00D+00 WtEn= 0.00D+00
 Coeff-Com:  0.187D-03-0.718D-03-0.144D-02-0.247D-01-0.217D-01 0.105D+01
 Coeff:      0.187D-03-0.718D-03-0.144D-02-0.247D-01-0.217D-01 0.105D+01
 Gap=     0.461 Goal=   None    Shift=    0.000
 RMSDP=1.89D-09 MaxDP=3.49D-08 DE=-9.09D-13 OVMax= 8.80D-08

 SCF Done:  E(RM062X) =  -76.4218217442     A.U. after   11 cycles
            NFock= 11  Conv=0.19D-08     -V/T= 2.0029
 KE= 7.619989164261D+01 PE=-1.990812102429D+02 EE= 3.734527065164D+01
 Leave Link  502 at Fri Feb 17 21:14:16 2023, MaxMem=  6710886400 cpu:              16.2 elap:               0.8
 (Enter /data0/home/software/g16/l601.exe)
 Copying SCF densities to generalized density rwf, IOpCl= 0 IROHF=0.

 **********************************************************************

            Population analysis using the SCF density.

 **********************************************************************

 Alpha  occ. eigenvalues --  -19.62591  -1.13406  -0.60779  -0.47544  -0.39997
 Alpha virt. eigenvalues --    0.06063   0.09871   0.12906   0.17122   0.17464
 Alpha virt. eigenvalues --    0.18250   0.18485   0.18969   0.19926   0.23486
 Alpha virt. eigenvalues --    0.29469   0.31436   0.51275   0.53330   0.56727
 Alpha virt. eigenvalues --    0.78587   0.79911   0.80908   0.98260   1.00201
 Alpha virt. eigenvalues --    1.03261   1.06139   1.12355   1.18383   1.19994
 Alpha virt. eigenvalues --    1.32359   1.33844   1.69959   1.74406   1.75789
 Alpha virt. eigenvalues --    1.83982   1.88563   1.97518   2.07797   2.09433
 Alpha virt. eigenvalues --    2.20852   2.31301   2.36136   2.41552   2.51678
 Alpha virt. eigenvalues --    2.54679   2.59765   2.69347   2.72301   2.74839
 Alpha virt. eigenvalues --    2.77434   2.88532   3.00148   3.01979   3.09064
 Alpha virt. eigenvalues --    3.60062   3.65402   4.61256   5.05731   5.22147
 Alpha virt. eigenvalues --    5.48309   5.92797   6.78315   6.80202   6.87187
 Alpha virt. eigenvalues --    6.91502   7.09444  10.25065  10.28251  10.34436
 Alpha virt. eigenvalues --   10.41566  10.58351  13.38175  13.77667  14.25508
 Alpha virt. eigenvalues --   18.36302  49.95923 139.73408
          Condensed to atoms (all electrons):
               1          2          3          4          5          6
     1  O    0.000024  -0.000009  -0.000013   0.000013  -0.000000   0.000007
     2  H   -0.000009   0.000005   0.000004  -0.000003   0.000000  -0.000001
     3  H   -0.000013   0.000004   0.000008  -0.000003   0.000000  -0.000002
     4  O    0.000013  -0.000003  -0.000003   7.915130   0.321829   0.318990
     5  H   -0.000000   0.000000   0.000000   0.321829   0.425911  -0.024407
     6  H    0.000007  -0.000001  -0.000002   0.318990  -0.024407   0.426114
 Mulliken charges:
               1
     1  O   -0.000022
     2  H    0.000005
     3  H    0.000005
     4  O   -0.555955
     5  H    0.276667
     6  H    0.279299
 Sum of Mulliken charges =   0.00000
 Mulliken charges with hydrogens summed into heavy atoms:
               1
     1  O   -0.000011
     4  O    0.000011
         Mulliken charges condensed to fragments:
      1     -0.000011
      2      0.000011
 Electronic spatial extent (au):  <R**2>=          13935.8332
 Charge=              0.0000 electrons
 Dipole moment (field-independent basis, Debye):
    X=              0.9426    Y=             -0.3173    Z=              1.8697  Tot=              2.1178
 Quadrupole moment (field-independent basis, Debye-Ang):
   XX=             15.2734   YY=            -12.1573   ZZ=             31.6833
   XY=              6.8576   XZ=             32.5398   YZ=             19.5723
 Traceless Quadrupole moment (field-independent basis, Debye-Ang):
   XX=              3.6736   YY=            -23.7571   ZZ=             20.0835
   XY=              6.8576   XZ=             32.5398   YZ=             19.5723
 Octapole moment (field-independent basis, Debye-Ang**2):
  XXX=            142.6601  YYY=           -299.9809  ZZZ=            387.0911  XYY=            -25.0203
  XXY=            122.5113  XXZ=            437.0885  XZZ=            488.3234  YZZ=            355.6564
  YYZ=            155.1658  XYZ=            349.4451
 Hexadecapole moment (field-independent basis, Debye-Ang**3):
 XXXX=            159.4268 YYYY=          -6094.8559 ZZZZ=           3944.4207 XXXY=            899.9196
 XXXZ=           4908.9571 YYYX=          -2227.5567 YYYZ=            367.5312 ZZZX=           5800.4428
 ZZZY=           4451.4518 XXYY=             99.7502 XXZZ=           6396.9823 YYZZ=           3518.8607
 XXYZ=           4676.9438 YYXZ=           3163.6341 ZZXY=           5496.6466
 N-N= 9.114226204528D+00 E-N=-1.990812103310D+02  KE= 7.619989164261D+01
 No NMR shielding tensors so no spin-rotation constants.
 Leave Link  601 at Fri Feb 17 21:14:16 2023, MaxMem=  6710886400 cpu:               1.8 elap:               0.1
 (Enter /data0/home/software/g16/l122.exe)
 CPIOFr:  IOpCl= 0 IRwI=-1 IRwCP=  731 ICalc=  2 LCPTot=       10496 Len1MO=       26312 IndFrg=       89432
 Counterpoise: doing calculation for fragment   1 using the basis set of the fragment.
 Leave Link  122 at Fri Feb 17 21:14:16 2023, MaxMem=  6710886400 cpu:               0.1 elap:               0.0
 (Enter /data0/home/software/g16/l301.exe)
 Basis read from rwf:  (5D, 7F)
 No pseudopotential information found on rwf file.
    39 basis functions,    58 primitive gaussians,    41 cartesian basis functions
     5 alpha electrons        5 beta electrons
       nuclear repulsion energy         9.0169202072 Hartrees.
 IExCor= 4336 DFT=T Ex+Corr=M062X ExCW=0 ScaHFX=  0.540000
 ScaDFX=  1.000000  1.000000  1.000000  1.000000 ScalE2=  1.000000  1.000000
 IRadAn=      5 IRanWt=     -1 IRanGd=            0 ICorTp=0 IEmpDi=131
 NAtoms=    6 NActive=    3 NUniq=    3 SFac= 1.00D+00 NAtFMM=   60 NAOKFM=F Big=F
 Integral buffers will be    131072 words long.
 Raffenetti 2 integral format.
 Two-electron integral symmetry is turned off.
 R6Disp:  Grimme-D3 Dispersion energy=       -0.0000000081 Hartrees.
 Nuclear repulsion after empirical dispersion term =        9.0169201991 Hartrees.
 No density basis found on file   718.
 Leave Link  301 at Fri Feb 17 21:14:16 2023, MaxMem=  6710886400 cpu:               1.2 elap:               0.1
 (Enter /data0/home/software/g16/l302.exe)
 NPDir=0 NMtPBC=     1 NCelOv=     1 NCel=       1 NClECP=     1 NCelD=      1
         NCelK=      1 NCelE2=     1 NClLst=     1 CellRange=     0.0.
 One-electron integrals computed using PRISM.
 NBasis=    39 RedAO= T EigKep=  3.14D-03  NBF=    39
 NBsUse=    39 1.00D-06 EigRej= -1.00D+00 NBFU=    39
 Precomputing XC quadrature grid using
 IXCGrd= 4 IRadAn=           5 IRanWt=          -1 IRanGd=           0 AccXCQ= 0.00D+00.
 Generated NRdTot=       0 NPtTot=           0 NUsed=           0 NTot=          32
 NSgBfM=    41    41    41    41    41 MxSgAt=     3 MxSgA2=     3.
 Leave Link  302 at Fri Feb 17 21:14:16 2023, MaxMem=  6710886400 cpu:               2.2 elap:               0.1
 (Enter /data0/home/software/g16/l303.exe)
 DipDrv:  MaxL=1.
 Leave Link  303 at Fri Feb 17 21:14:16 2023, MaxMem=  6710886400 cpu:               0.4 elap:               0.0
 (Enter /data0/home/software/g16/l401.exe)
 ExpMin= 8.45D-02 ExpMax= 8.59D+03 ExpMxC= 1.30D+03 IAcc=3 IRadAn=         5 AccDes= 0.00D+00
 Harris functional with IExCor= 1009 and IRadAn=       5 diagonalized for initial guess.
 HarFok:  IExCor= 1009 AccDes= 0.00D+00 IRadAn=         5 IDoV= 1 UseB2=F ITyADJ=14
 ICtDFT=  3500011 ScaDFX=  1.000000  1.000000  1.000000  1.000000
 FoFCou: FMM=F IPFlag=           0 FMFlag=      100000 FMFlg1=           0
         NFxFlg=           0 DoJE=T BraDBF=F KetDBF=T FulRan=T
         wScrn=  0.000000 ICntrl=       500 IOpCl=  0 I1Cent=   200000004 NGrid=           0
         NMat0=    1 NMatS0=      1 NMatT0=    0 NMatD0=    1 NMtDS0=    0 NMtDT0=    0
 Symmetry not used in FoFCou.
 Harris En= -76.4151526352081    
 JPrj=0 DoOrth=F DoCkMO=F.
 Leave Link  401 at Fri Feb 17 21:14:17 2023, MaxMem=  6710886400 cpu:               2.9 elap:               0.1
 (Enter /data0/home/software/g16/l502.exe)
 Keep R1 ints in memory in canonical form, NReq=21036027.
 FoFCou: FMM=F IPFlag=           0 FMFlag=           0 FMFlg1=           0
         NFxFlg=           0 DoJE=F BraDBF=F KetDBF=F FulRan=T
         wScrn=  0.000000 ICntrl=       600 IOpCl=  0 I1Cent=           0 NGrid=           0
         NMat0=    1 NMatS0=    780 NMatT0=    0 NMatD0=    1 NMtDS0=    0 NMtDT0=    0
 Symmetry not used in FoFCou.
 Two-electron integral symmetry not used.
 Closed shell SCF:
 Using DIIS extrapolation, IDIIS=  1040.
 NGot=  6710886400 LenX=  6710576925 LenY=  6710574803
 Requested convergence on RMS density matrix=1.00D-08 within 128 cycles.
 Requested convergence on MAX density matrix=1.00D-06.
 Requested convergence on             energy=1.00D-06.
 No special actions if energy rises.
 Integral accuracy reduced to 1.0D-05 until final iterations.

 Cycle   1  Pass 0  IDiag  1:
 E= -76.3462967298026    
 DIIS: error= 6.92D-02 at cycle   1 NSaved=   1.
 NSaved= 1 IEnMin= 1 EnMin= -76.3462967298026     IErMin= 1 ErrMin= 6.92D-02
 ErrMax= 6.92D-02  0.00D+00 EMaxC= 1.00D-01 BMatC= 1.19D-01 BMatP= 1.19D-01
 IDIUse=3 WtCom= 3.08D-01 WtEn= 6.92D-01
 Coeff-Com:  0.100D+01
 Coeff-En:   0.100D+01
 Coeff:      0.100D+01
 Gap=     0.323 Goal=   None    Shift=    0.000
 GapD=    0.323 DampG=1.000 DampE=0.500 DampFc=0.5000 IDamp=-1.
 Damping current iteration by 5.00D-01
 RMSDP=7.93D-03 MaxDP=9.98D-02              OVMax= 1.67D-01

 Cycle   2  Pass 0  IDiag  1:
 E= -76.3770725853002     Delta-E=       -0.030775855498 Rises=F Damp=T
 DIIS: error= 1.09D-02 at cycle   2 NSaved=   2.
 NSaved= 2 IEnMin= 2 EnMin= -76.3770725853002     IErMin= 2 ErrMin= 1.09D-02
 ErrMax= 1.09D-02  0.00D+00 EMaxC= 1.00D-01 BMatC= 4.96D-03 BMatP= 1.19D-01
 IDIUse=3 WtCom= 8.91D-01 WtEn= 1.09D-01
 Coeff-Com:  0.869D-01 0.913D+00
 Coeff-En:   0.195D+00 0.805D+00
 Coeff:      0.986D-01 0.901D+00
 Gap=     0.454 Goal=   None    Shift=    0.000
 RMSDP=9.63D-04 MaxDP=1.44D-02 DE=-3.08D-02 OVMax= 1.00D-01

 Cycle   3  Pass 0  IDiag  1:
 E= -76.4208154960981     Delta-E=       -0.043742910798 Rises=F Damp=F
 DIIS: error= 2.22D-03 at cycle   3 NSaved=   3.
 NSaved= 3 IEnMin= 3 EnMin= -76.4208154960981     IErMin= 3 ErrMin= 2.22D-03
 ErrMax= 2.22D-03  0.00D+00 EMaxC= 1.00D-01 BMatC= 9.57D-05 BMatP= 4.96D-03
 IDIUse=3 WtCom= 9.78D-01 WtEn= 2.22D-02
 Coeff-Com: -0.202D-01 0.416D-01 0.979D+00
 Coeff-En:   0.000D+00 0.000D+00 0.100D+01
 Coeff:     -0.197D-01 0.407D-01 0.979D+00
 Gap=     0.459 Goal=   None    Shift=    0.000
 RMSDP=1.17D-04 MaxDP=1.07D-03 DE=-4.37D-02 OVMax= 3.41D-03

 Cycle   4  Pass 0  IDiag  1:
 E= -76.4208970763568     Delta-E=       -0.000081580259 Rises=F Damp=F
 DIIS: error= 4.28D-04 at cycle   4 NSaved=   4.
 NSaved= 4 IEnMin= 4 EnMin= -76.4208970763568     IErMin= 4 ErrMin= 4.28D-04
 ErrMax= 4.28D-04  0.00D+00 EMaxC= 1.00D-01 BMatC= 3.52D-06 BMatP= 9.57D-05
 IDIUse=3 WtCom= 9.96D-01 WtEn= 4.28D-03
 Coeff-Com: -0.210D-02-0.212D-02 0.167D+00 0.837D+00
 Coeff-En:   0.000D+00 0.000D+00 0.000D+00 0.100D+01
 Coeff:     -0.209D-02-0.211D-02 0.166D+00 0.838D+00
 Gap=     0.459 Goal=   None    Shift=    0.000
 RMSDP=2.27D-05 MaxDP=3.60D-04 DE=-8.16D-05 OVMax= 5.55D-04

 Cycle   5  Pass 0  IDiag  1:
 E= -76.4208992566381     Delta-E=       -0.000002180281 Rises=F Damp=F
 DIIS: error= 9.39D-05 at cycle   5 NSaved=   5.
 NSaved= 5 IEnMin= 5 EnMin= -76.4208992566381     IErMin= 5 ErrMin= 9.39D-05
 ErrMax= 9.39D-05  0.00D+00 EMaxC= 1.00D-01 BMatC= 8.97D-08 BMatP= 3.52D-06
 IDIUse=1 WtCom= 1.00D+00 WtEn= 0.00D+00
 Coeff-Com:  0.122D-02-0.187D-02-0.376D-01-0.731D-01 0.111D+01
 Coeff:      0.122D-02-0.187D-02-0.376D-01-0.731D-01 0.111D+01
 Gap=     0.460 Goal=   None    Shift=    0.000
 RMSDP=9.38D-06 MaxDP=1.05D-04 DE=-2.18D-06 OVMax= 2.15D-04

 Initial convergence to 1.0D-05 achieved.  Increase integral accuracy.
 Cycle   6  Pass 1  IDiag  1:
 E= -76.4208931814254     Delta-E=        0.000006075213 Rises=F Damp=F
 DIIS: error= 2.13D-05 at cycle   1 NSaved=   1.
 NSaved= 1 IEnMin= 1 EnMin= -76.4208931814254     IErMin= 1 ErrMin= 2.13D-05
 ErrMax= 2.13D-05  0.00D+00 EMaxC= 1.00D-01 BMatC= 1.34D-08 BMatP= 1.34D-08
 IDIUse=1 WtCom= 1.00D+00 WtEn= 0.00D+00
 Coeff-Com:  0.100D+01
 Coeff:      0.100D+01
 Gap=     0.460 Goal=   None    Shift=    0.000
 RMSDP=9.38D-06 MaxDP=1.05D-04 DE= 6.08D-06 OVMax= 4.83D-05

 Cycle   7  Pass 1  IDiag  1:
 E= -76.4208931939898     Delta-E=       -0.000000012564 Rises=F Damp=F
 DIIS: error= 9.71D-06 at cycle   2 NSaved=   2.
 NSaved= 2 IEnMin= 2 EnMin= -76.4208931939898     IErMin= 2 ErrMin= 9.71D-06
 ErrMax= 9.71D-06  0.00D+00 EMaxC= 1.00D-01 BMatC= 1.41D-09 BMatP= 1.34D-08
 IDIUse=1 WtCom= 1.00D+00 WtEn= 0.00D+00
 Coeff-Com:  0.801D-01 0.920D+00
 Coeff:      0.801D-01 0.920D+00
 Gap=     0.460 Goal=   None    Shift=    0.000
 RMSDP=8.10D-07 MaxDP=1.26D-05 DE=-1.26D-08 OVMax= 2.14D-05

 Cycle   8  Pass 1  IDiag  1:
 E= -76.4208931943889     Delta-E=       -0.000000000399 Rises=F Damp=F
 DIIS: error= 6.82D-06 at cycle   3 NSaved=   3.
 NSaved= 3 IEnMin= 3 EnMin= -76.4208931943889     IErMin= 3 ErrMin= 6.82D-06
 ErrMax= 6.82D-06  0.00D+00 EMaxC= 1.00D-01 BMatC= 1.23D-09 BMatP= 1.41D-09
 IDIUse=1 WtCom= 1.00D+00 WtEn= 0.00D+00
 Coeff-Com: -0.505D-01 0.497D+00 0.554D+00
 Coeff:     -0.505D-01 0.497D+00 0.554D+00
 Gap=     0.460 Goal=   None    Shift=    0.000
 RMSDP=3.97D-07 MaxDP=5.22D-06 DE=-3.99D-10 OVMax= 9.69D-06

 Cycle   9  Pass 1  IDiag  1:
 E= -76.4208931952085     Delta-E=       -0.000000000820 Rises=F Damp=F
 DIIS: error= 6.86D-07 at cycle   4 NSaved=   4.
 NSaved= 4 IEnMin= 4 EnMin= -76.4208931952085     IErMin= 4 ErrMin= 6.86D-07
 ErrMax= 6.86D-07  0.00D+00 EMaxC= 1.00D-01 BMatC= 6.19D-12 BMatP= 1.23D-09
 IDIUse=1 WtCom= 1.00D+00 WtEn= 0.00D+00
 Coeff-Com: -0.538D-02-0.818D-02 0.312D-01 0.982D+00
 Coeff:     -0.538D-02-0.818D-02 0.312D-01 0.982D+00
 Gap=     0.460 Goal=   None    Shift=    0.000
 RMSDP=7.68D-08 MaxDP=5.57D-07 DE=-8.20D-10 OVMax= 1.74D-06

 Cycle  10  Pass 1  IDiag  1:
 E= -76.4208931952192     Delta-E=       -0.000000000011 Rises=F Damp=F
 DIIS: error= 1.37D-07 at cycle   5 NSaved=   5.
 NSaved= 5 IEnMin= 5 EnMin= -76.4208931952192     IErMin= 5 ErrMin= 1.37D-07
 ErrMax= 1.37D-07  0.00D+00 EMaxC= 1.00D-01 BMatC= 5.26D-13 BMatP= 6.19D-12
 IDIUse=1 WtCom= 1.00D+00 WtEn= 0.00D+00
 Coeff-Com:  0.256D-02-0.353D-01-0.322D-01 0.130D+00 0.935D+00
 Coeff:      0.256D-02-0.353D-01-0.322D-01 0.130D+00 0.935D+00
 Gap=     0.460 Goal=   None    Shift=    0.000
 RMSDP=2.45D-08 MaxDP=1.98D-07 DE=-1.07D-11 OVMax= 5.09D-07

 Cycle  11  Pass 1  IDiag  1:
 E= -76.4208931952200     Delta-E=       -0.000000000001 Rises=F Damp=F
 DIIS: error= 2.16D-08 at cycle   6 NSaved=   6.
 NSaved= 6 IEnMin= 6 EnMin= -76.4208931952200     IErMin= 6 ErrMin= 2.16D-08
 ErrMax= 2.16D-08  0.00D+00 EMaxC= 1.00D-01 BMatC= 9.05D-15 BMatP= 5.26D-13
 IDIUse=1 WtCom= 1.00D+00 WtEn= 0.00D+00
 Coeff-Com:  0.256D-03-0.122D-02-0.150D-02-0.302D-01-0.266D-01 0.106D+01
 Coeff:      0.256D-03-0.122D-02-0.150D-02-0.302D-01-0.266D-01 0.106D+01
 Gap=     0.460 Goal=   None    Shift=    0.000
 RMSDP=5.67D-09 MaxDP=5.56D-08 DE=-7.82D-13 OVMax= 1.21D-07

 SCF Done:  E(RM062X) =  -76.4208931952     A.U. after   11 cycles
            NFock= 11  Conv=0.57D-08     -V/T= 2.0034
 KE= 7.616403083376D+01 PE=-1.988710379316D+02 EE= 3.726919370359D+01
 Leave Link  502 at Fri Feb 17 21:14:17 2023, MaxMem=  6710886400 cpu:               8.7 elap:               0.4
 (Enter /data0/home/software/g16/l601.exe)
 Copying SCF densities to generalized density rwf, IOpCl= 0 IROHF=0.

 **********************************************************************

            Population analysis using the SCF density.

 **********************************************************************

 Alpha  occ. eigenvalues --  -19.62769  -1.12976  -0.60241  -0.47485  -0.39918
 Alpha virt. eigenvalues --    0.06041   0.13167   0.17438   0.17955   0.18916
 Alpha virt. eigenvalues --    0.23403   0.49884   0.53282   0.98113   1.00518
 Alpha virt. eigenvalues --    1.05997   1.18057   1.19782   1.32063   1.34389
 Alpha virt. eigenvalues --    1.69376   1.73561   1.75246   2.06120   2.09488
 Alpha virt. eigenvalues --    2.35603   2.39733   2.54296   2.86514   3.00271
 Alpha virt. eigenvalues --    5.05585   5.46730   5.88540   6.78404   6.80204
 Alpha virt. eigenvalues --    6.87361   6.91324   7.10221  49.94864
          Condensed to atoms (all electrons):
               1          2          3
     1  O    7.925128   0.313135   0.319351
     2  H    0.313135   0.428798  -0.023493
     3  H    0.319351  -0.023493   0.428088
 Mulliken charges:
               1
     1  O   -0.557614
     2  H    0.281560
     3  H    0.276054
     4  O    0.000000
     5  H    0.000000
     6  H    0.000000
 Sum of Mulliken charges =  -0.00000
 Mulliken charges with hydrogens summed into heavy atoms:
               1
     1  O   -0.000000
     4  O    0.000000
         Mulliken charges condensed to fragments:
      1     -0.000000
      2      0.000000
 Electronic spatial extent (au):  <R**2>=           9950.6004
 Charge=             -0.0000 electrons
 Dipole moment (field-independent basis, Debye):
    X=             -0.2943    Y=              1.2222    Z=             -1.7234  Tot=              2.1331
 Quadrupole moment (field-independent basis, Debye-Ang):
   XX=            -11.1346   YY=              7.7995   ZZ=            -43.6704
   XY=             11.3232   XZ=            -22.9413   YZ=              1.9395
 Traceless Quadrupole moment (field-independent basis, Debye-Ang):
   XX=              4.5339   YY=             23.4680   ZZ=            -28.0019
   XY=             11.3232   XZ=            -22.9413   YZ=              1.9395
 Octapole moment (field-independent basis, Debye-Ang**2):
  XXX=           -263.3000  YYY=              5.7868  ZZZ=           -811.7575  XYY=             69.5245
  XXY=             73.2357  XXZ=           -347.4639  XZZ=           -532.7468  YZZ=           -139.9654
  YYZ=             11.0278  XYZ=             -6.6067
 Hexadecapole moment (field-independent basis, Debye-Ang**3):
 XXXX=          -5075.7955 YYYY=           -497.9485 ZZZZ=         -13196.7458 XXXY=            -83.2667
 XXXZ=          -5461.8537 YYYX=            -64.2306 YYYZ=           -411.3004 ZZZX=          -9603.0285
 ZZZY=          -3673.1925 XXYY=            415.1941 XXZZ=          -7002.5592 YYZZ=           -913.6525
 XXYZ=           -688.4756 YYXZ=            -85.8133 ZZXY=          -1899.5466
 N-N= 9.016920199052D+00 E-N=-1.988710381165D+02  KE= 7.616403083376D+01
 No NMR shielding tensors so no spin-rotation constants.
 Leave Link  601 at Fri Feb 17 21:14:17 2023, MaxMem=  6710886400 cpu:               1.8 elap:               0.1
 (Enter /data0/home/software/g16/l122.exe)
 CPIOFr:  IOpCl= 0 IRwI=-1 IRwCP=  731 ICalc=  3 LCPTot=       10496 Len1MO=       26312 IndFrg=      115744
 Counterpoise: doing calculation for fragment   2 using the basis set of the fragment.
 Leave Link  122 at Fri Feb 17 21:14:17 2023, MaxMem=  6710886400 cpu:               0.1 elap:               0.0
 (Enter /data0/home/software/g16/l301.exe)
 Basis read from rwf:  (5D, 7F)
 No pseudopotential information found on rwf file.
    39 basis functions,    58 primitive gaussians,    41 cartesian basis functions
     5 alpha electrons        5 beta electrons
       nuclear repulsion energy         9.1142262121 Hartrees.
 IExCor= 4336 DFT=T Ex+Corr=M062X ExCW=0 ScaHFX=  0.540000
 ScaDFX=  1.000000  1.000000  1.000000  1.000000 ScalE2=  1.000000  1.000000
 IRadAn=      5 IRanWt=     -1 IRanGd=            0 ICorTp=0 IEmpDi=131
 NAtoms=    6 NActive=    3 NUniq=    3 SFac= 1.00D+00 NAtFMM=   60 NAOKFM=F Big=F
 Integral buffers will be    131072 words long.
 Raffenetti 2 integral format.
 Two-electron integral symmetry is turned off.
 R6Disp:  Grimme-D3 Dispersion energy=       -0.0000000076 Hartrees.
 Nuclear repulsion after empirical dispersion term =        9.1142262045 Hartrees.
 No density basis found on file   718.
 Leave Link  301 at Fri Feb 17 21:14:17 2023, MaxMem=  6710886400 cpu:               1.3 elap:               0.1
 (Enter /data0/home/software/g16/l302.exe)
 NPDir=0 NMtPBC=     1 NCelOv=     1 NCel=       1 NClECP=     1 NCelD=      1
         NCelK=      1 NCelE2=     1 NClLst=     1 CellRange=     0.0.
 One-electron integrals computed using PRISM.
 NBasis=    39 RedAO= T EigKep=  3.02D-03  NBF=    39
 NBsUse=    39 1.00D-06 EigRej= -1.00D+00 NBFU=    39
 Precomputing XC quadrature grid using
 IXCGrd= 4 IRadAn=           5 IRanWt=          -1 IRanGd=           0 AccXCQ= 0.00D+00.
 Generated NRdTot=       0 NPtTot=           0 NUsed=           0 NTot=          32
 NSgBfM=    41    41    41    41    41 MxSgAt=     3 MxSgA2=     3.
 Leave Link  302 at Fri Feb 17 21:14:17 2023, MaxMem=  6710886400 cpu:               2.3 elap:               0.1
 (Enter /data0/home/software/g16/l303.exe)
 DipDrv:  MaxL=1.
 Leave Link  303 at Fri Feb 17 21:14:17 2023, MaxMem=  6710886400 cpu:               0.4 elap:               0.0
 (Enter /data0/home/software/g16/l401.exe)
 ExpMin= 8.45D-02 ExpMax= 8.59D+03 ExpMxC= 1.30D+03 IAcc=3 IRadAn=         5 AccDes= 0.00D+00
 Harris functional with IExCor= 1009 and IRadAn=       5 diagonalized for initial guess.
 HarFok:  IExCor= 1009 AccDes= 0.00D+00 IRadAn=         5 IDoV= 1 UseB2=F ITyADJ=14
 ICtDFT=  3500011 ScaDFX=  1.000000  1.000000  1.000000  1.000000
 FoFCou: FMM=F IPFlag=           0 FMFlag=      100000 FMFlg1=           0
         NFxFlg=           0 DoJE=T BraDBF=F KetDBF=T FulRan=T
         wScrn=  0.000000 ICntrl=       500 IOpCl=  0 I1Cent=   200000004 NGrid=           0
         NMat0=    1 NMatS0=      1 NMatT0=    0 NMatD0=    1 NMtDS0=    0 NMtDT0=    0
 Symmetry not used in FoFCou.
 Harris En= -76.4166426125955    
 JPrj=0 DoOrth=F DoCkMO=F.
 Leave Link  401 at Fri Feb 17 21:14:18 2023, MaxMem=  6710886400 cpu:               2.8 elap:               0.1
 (Enter /data0/home/software/g16/l502.exe)
 Keep R1 ints in memory in canonical form, NReq=21036027.
 FoFCou: FMM=F IPFlag=           0 FMFlag=           0 FMFlg1=           0
         NFxFlg=           0 DoJE=F BraDBF=F KetDBF=F FulRan=T
         wScrn=  0.000000 ICntrl=       600 IOpCl=  0 I1Cent=           0 NGrid=           0
         NMat0=    1 NMatS0=    780 NMatT0=    0 NMatD0=    1 NMtDS0=    0 NMtDT0=    0
 Symmetry not used in FoFCou.
 Two-electron integral symmetry not used.
 Closed shell SCF:
 Using DIIS extrapolation, IDIIS=  1040.
 NGot=  6710886400 LenX=  6710576925 LenY=  6710574803
 Requested convergence on RMS density matrix=1.00D-08 within 128 cycles.
 Requested convergence on MAX density matrix=1.00D-06.
 Requested convergence on             energy=1.00D-06.
 No special actions if energy rises.
 Integral accuracy reduced to 1.0D-05 until final iterations.

 Cycle   1  Pass 0  IDiag  1:
 E= -76.3462845449474    
 DIIS: error= 7.03D-02 at cycle   1 NSaved=   1.
 NSaved= 1 IEnMin= 1 EnMin= -76.3462845449474     IErMin= 1 ErrMin= 7.03D-02
 ErrMax= 7.03D-02  0.00D+00 EMaxC= 1.00D-01 BMatC= 1.21D-01 BMatP= 1.21D-01
 IDIUse=3 WtCom= 2.97D-01 WtEn= 7.03D-01
 Coeff-Com:  0.100D+01
 Coeff-En:   0.100D+01
 Coeff:      0.100D+01
 Gap=     0.325 Goal=   None    Shift=    0.000
 GapD=    0.325 DampG=1.000 DampE=0.500 DampFc=0.5000 IDamp=-1.
 Damping current iteration by 5.00D-01
 RMSDP=7.92D-03 MaxDP=1.01D-01              OVMax= 1.68D-01

 Cycle   2  Pass 0  IDiag  1:
 E= -76.3778011607943     Delta-E=       -0.031516615847 Rises=F Damp=T
 DIIS: error= 1.14D-02 at cycle   2 NSaved=   2.
 NSaved= 2 IEnMin= 2 EnMin= -76.3778011607943     IErMin= 2 ErrMin= 1.14D-02
 ErrMax= 1.14D-02  0.00D+00 EMaxC= 1.00D-01 BMatC= 4.81D-03 BMatP= 1.21D-01
 IDIUse=3 WtCom= 8.86D-01 WtEn= 1.14D-01
 Coeff-Com:  0.817D-01 0.918D+00
 Coeff-En:   0.186D+00 0.814D+00
 Coeff:      0.937D-01 0.906D+00
 Gap=     0.458 Goal=   None    Shift=    0.000
 RMSDP=9.39D-04 MaxDP=1.39D-02 DE=-3.15D-02 OVMax= 1.00D-01

 Cycle   3  Pass 0  IDiag  1:
 E= -76.4217424991673     Delta-E=       -0.043941338373 Rises=F Damp=F
 DIIS: error= 2.17D-03 at cycle   3 NSaved=   3.
 NSaved= 3 IEnMin= 3 EnMin= -76.4217424991673     IErMin= 3 ErrMin= 2.17D-03
 ErrMax= 2.17D-03  0.00D+00 EMaxC= 1.00D-01 BMatC= 9.07D-05 BMatP= 4.81D-03
 IDIUse=3 WtCom= 9.78D-01 WtEn= 2.17D-02
 Coeff-Com: -0.199D-01 0.394D-01 0.981D+00
 Coeff-En:   0.000D+00 0.000D+00 0.100D+01
 Coeff:     -0.195D-01 0.386D-01 0.981D+00
 Gap=     0.462 Goal=   None    Shift=    0.000
 RMSDP=1.14D-04 MaxDP=1.04D-03 DE=-4.39D-02 OVMax= 3.30D-03

 Cycle   4  Pass 0  IDiag  1:
 E= -76.4218197347928     Delta-E=       -0.000077235626 Rises=F Damp=F
 DIIS: error= 4.11D-04 at cycle   4 NSaved=   4.
 NSaved= 4 IEnMin= 4 EnMin= -76.4218197347928     IErMin= 4 ErrMin= 4.11D-04
 ErrMax= 4.11D-04  0.00D+00 EMaxC= 1.00D-01 BMatC= 3.26D-06 BMatP= 9.07D-05
 IDIUse=3 WtCom= 9.96D-01 WtEn= 4.11D-03
 Coeff-Com: -0.188D-02-0.220D-02 0.162D+00 0.842D+00
 Coeff-En:   0.000D+00 0.000D+00 0.000D+00 0.100D+01
 Coeff:     -0.188D-02-0.219D-02 0.162D+00 0.842D+00
 Gap=     0.463 Goal=   None    Shift=    0.000
 RMSDP=2.20D-05 MaxDP=3.52D-04 DE=-7.72D-05 OVMax= 5.32D-04

 Cycle   5  Pass 0  IDiag  1:
 E= -76.4218217459714     Delta-E=       -0.000002011179 Rises=F Damp=F
 DIIS: error= 8.83D-05 at cycle   5 NSaved=   5.
 NSaved= 5 IEnMin= 5 EnMin= -76.4218217459714     IErMin= 5 ErrMin= 8.83D-05
 ErrMax= 8.83D-05  0.00D+00 EMaxC= 1.00D-01 BMatC= 8.18D-08 BMatP= 3.26D-06
 IDIUse=1 WtCom= 1.00D+00 WtEn= 0.00D+00
 Coeff-Com:  0.117D-02-0.178D-02-0.364D-01-0.648D-01 0.110D+01
 Coeff:      0.117D-02-0.178D-02-0.364D-01-0.648D-01 0.110D+01
 Gap=     0.463 Goal=   None    Shift=    0.000
 RMSDP=8.91D-06 MaxDP=1.02D-04 DE=-2.01D-06 OVMax= 2.00D-04

 Initial convergence to 1.0D-05 achieved.  Increase integral accuracy.
 Cycle   6  Pass 1  IDiag  1:
 E= -76.4218212779168     Delta-E=        0.000000468055 Rises=F Damp=F
 DIIS: error= 1.86D-05 at cycle   1 NSaved=   1.
 NSaved= 1 IEnMin= 1 EnMin= -76.4218212779168     IErMin= 1 ErrMin= 1.86D-05
 ErrMax= 1.86D-05  0.00D+00 EMaxC= 1.00D-01 BMatC= 1.17D-08 BMatP= 1.17D-08
 IDIUse=1 WtCom= 1.00D+00 WtEn= 0.00D+00
 Coeff-Com:  0.100D+01
 Coeff:      0.100D+01
 Gap=     0.463 Goal=   None    Shift=    0.000
 RMSDP=8.91D-06 MaxDP=1.02D-04 DE= 4.68D-07 OVMax= 5.01D-05

 Cycle   7  Pass 1  IDiag  1:
 E= -76.4218212881307     Delta-E=       -0.000000010214 Rises=F Damp=F
 DIIS: error= 1.10D-05 at cycle   2 NSaved=   2.
 NSaved= 2 IEnMin= 2 EnMin= -76.4218212881307     IErMin= 2 ErrMin= 1.10D-05
 ErrMax= 1.10D-05  0.00D+00 EMaxC= 1.00D-01 BMatC= 1.67D-09 BMatP= 1.17D-08
 IDIUse=1 WtCom= 1.00D+00 WtEn= 0.00D+00
 Coeff-Com:  0.135D+00 0.865D+00
 Coeff:      0.135D+00 0.865D+00
 Gap=     0.463 Goal=   None    Shift=    0.000
 RMSDP=8.04D-07 MaxDP=1.38D-05 DE=-1.02D-08 OVMax= 2.13D-05

 Cycle   8  Pass 1  IDiag  1:
 E= -76.4218212886878     Delta-E=       -0.000000000557 Rises=F Damp=F
 DIIS: error= 6.45D-06 at cycle   3 NSaved=   3.
 NSaved= 3 IEnMin= 3 EnMin= -76.4218212886878     IErMin= 3 ErrMin= 6.45D-06
 ErrMax= 6.45D-06  0.00D+00 EMaxC= 1.00D-01 BMatC= 1.16D-09 BMatP= 1.67D-09
 IDIUse=1 WtCom= 1.00D+00 WtEn= 0.00D+00
 Coeff-Com: -0.548D-01 0.460D+00 0.594D+00
 Coeff:     -0.548D-01 0.460D+00 0.594D+00
 Gap=     0.463 Goal=   None    Shift=    0.000
 RMSDP=3.98D-07 MaxDP=4.78D-06 DE=-5.57D-10 OVMax= 1.02D-05

 Cycle   9  Pass 1  IDiag  1:
 E= -76.4218212894645     Delta-E=       -0.000000000777 Rises=F Damp=F
 DIIS: error= 6.71D-07 at cycle   4 NSaved=   4.
 NSaved= 4 IEnMin= 4 EnMin= -76.4218212894645     IErMin= 4 ErrMin= 6.71D-07
 ErrMax= 6.71D-07  0.00D+00 EMaxC= 1.00D-01 BMatC= 5.44D-12 BMatP= 1.16D-09
 IDIUse=1 WtCom= 1.00D+00 WtEn= 0.00D+00
 Coeff-Com: -0.357D-02-0.183D-01 0.178D-01 0.100D+01
 Coeff:     -0.357D-02-0.183D-01 0.178D-01 0.100D+01
 Gap=     0.463 Goal=   None    Shift=    0.000
 RMSDP=7.16D-08 MaxDP=5.67D-07 DE=-7.77D-10 OVMax= 1.69D-06

 Cycle  10  Pass 1  IDiag  1:
 E= -76.4218212894742     Delta-E=       -0.000000000010 Rises=F Damp=F
 DIIS: error= 1.18D-07 at cycle   5 NSaved=   5.
 NSaved= 5 IEnMin= 5 EnMin= -76.4218212894742     IErMin= 5 ErrMin= 1.18D-07
 ErrMax= 1.18D-07  0.00D+00 EMaxC= 1.00D-01 BMatC= 4.46D-13 BMatP= 5.44D-12
 IDIUse=1 WtCom= 1.00D+00 WtEn= 0.00D+00
 Coeff-Com:  0.288D-02-0.358D-01-0.378D-01 0.146D+00 0.925D+00
 Coeff:      0.288D-02-0.358D-01-0.378D-01 0.146D+00 0.925D+00
 Gap=     0.463 Goal=   None    Shift=    0.000
 RMSDP=2.24D-08 MaxDP=2.16D-07 DE=-9.69D-12 OVMax= 5.54D-07

 Cycle  11  Pass 1  IDiag  1:
 E= -76.4218212894751     Delta-E=       -0.000000000001 Rises=F Damp=F
 DIIS: error= 1.65D-08 at cycle   6 NSaved=   6.
 NSaved= 6 IEnMin= 6 EnMin= -76.4218212894751     IErMin= 6 ErrMin= 1.65D-08
 ErrMax= 1.65D-08  0.00D+00 EMaxC= 1.00D-01 BMatC= 4.86D-15 BMatP= 4.46D-13
 IDIUse=1 WtCom= 1.00D+00 WtEn= 0.00D+00
 Coeff-Com:  0.186D-03-0.694D-03-0.134D-02-0.248D-01-0.216D-01 0.105D+01
 Coeff:      0.186D-03-0.694D-03-0.134D-02-0.248D-01-0.216D-01 0.105D+01
 Gap=     0.463 Goal=   None    Shift=    0.000
 RMSDP=3.80D-09 MaxDP=3.48D-08 DE=-8.95D-13 OVMax= 8.79D-08

 SCF Done:  E(RM062X) =  -76.4218212895     A.U. after   11 cycles
            NFock= 11  Conv=0.38D-08     -V/T= 2.0029
 KE= 7.619989657894D+01 PE=-1.990812263712D+02 EE= 3.734528229829D+01
 Leave Link  502 at Fri Feb 17 21:14:18 2023, MaxMem=  6710886400 cpu:               8.3 elap:               0.4
 (Enter /data0/home/software/g16/l601.exe)
 Copying SCF densities to generalized density rwf, IOpCl= 0 IROHF=0.

 **********************************************************************

            Population analysis using the SCF density.

 **********************************************************************

 Alpha  occ. eigenvalues --  -19.62590  -1.13406  -0.60779  -0.47544  -0.39997
 Alpha virt. eigenvalues --    0.06289   0.13343   0.17396   0.17945   0.18931
 Alpha virt. eigenvalues --    0.23293   0.51182   0.53537   0.97920   1.00203
 Alpha virt. eigenvalues --    1.06033   1.18361   1.19988   1.32353   1.33831
 Alpha virt. eigenvalues --    1.69917   1.74220   1.75712   2.07796   2.09433
 Alpha virt. eigenvalues --    2.35767   2.41434   2.54567   2.88495   3.01415
 Alpha virt. eigenvalues --    5.05680   5.48281   5.92754   6.78315   6.80202
 Alpha virt. eigenvalues --    6.87172   6.91500   7.09434  49.95919
          Condensed to atoms (all electrons):
               4          5          6
     4  O    7.914996   0.321862   0.318982
     5  H    0.321862   0.425900  -0.024392
     6  H    0.318982  -0.024392   0.426200
 Mulliken charges:
               1
     1  O    0.000000
     2  H    0.000000
     3  H    0.000000
     4  O   -0.555840
     5  H    0.276630
     6  H    0.279210
 Sum of Mulliken charges =  -0.00000
 Mulliken charges with hydrogens summed into heavy atoms:
               1
     1  O    0.000000
     4  O   -0.000000
         Mulliken charges condensed to fragments:
      1      0.000000
      2     -0.000000
 Electronic spatial extent (au):  <R**2>=          13935.8363
 Charge=             -0.0000 electrons
 Dipole moment (field-independent basis, Debye):
    X=              0.9425    Y=             -0.3175    Z=              1.8697  Tot=              2.1178
 Quadrupole moment (field-independent basis, Debye-Ang):
   XX=             15.2716   YY=            -12.1606   ZZ=             31.6841
   XY=              6.8549   XZ=             32.5395   YZ=             19.5711
 Traceless Quadrupole moment (field-independent basis, Debye-Ang):
   XX=              3.6732   YY=            -23.7590   ZZ=             20.0857
   XY=              6.8549   XZ=             32.5395   YZ=             19.5711
 Octapole moment (field-independent basis, Debye-Ang**2):
  XXX=            142.6288  YYY=           -300.0335  ZZZ=            387.1038  XYY=            -25.0683
  XXY=            122.4700  XXZ=            437.0765  XZZ=            488.3255  YZZ=            355.6486
  YYZ=            155.1370  XYZ=            349.4231
 Hexadecapole moment (field-independent basis, Debye-Ang**3):
 XXXX=            158.9165 YYYY=          -6095.6228 ZZZZ=           3944.5944 XXXY=            899.3034
 XXXZ=           4908.7045 YYYX=          -2228.2907 YYYZ=            367.0450 ZZZX=           5800.5124
 ZZZY=           4451.4116 XXYY=             99.0639 XXZZ=           6396.9152 YYZZ=           3518.6084
 XXYZ=           4676.5822 YYXZ=           3163.1986 ZZXY=           5496.4695
 N-N= 9.114226204528D+00 E-N=-1.990812264679D+02  KE= 7.619989657894D+01
 No NMR shielding tensors so no spin-rotation constants.
 Leave Link  601 at Fri Feb 17 21:14:18 2023, MaxMem=  6710886400 cpu:               1.7 elap:               0.1
 (Enter /data0/home/software/g16/l122.exe)
 CPIOFr:  IOpCl= 0 IRwI=-1 IRwCP=  731 ICalc=  4 LCPTot=       10496 Len1MO=       26312 IndFrg=      142056
 Restoring MOs from calculation   1 to rwf.
 CPIOFr:  IOpCl= 0 IRwI=-2 IRwCP=  731 ICalc=  0 LCPTot=       10496 Len1MO=       26312 IndFrg=       36808
 Counterpoise corrected energy =    -152.843059483989
                   BSSE energy =       0.000001580746
              sum of fragments =    -152.842714484695
           complexation energy =      -0.22 kcal/mole (raw)
           complexation energy =      -0.22 kcal/mole (corrected)
 Leave Link  122 at Fri Feb 17 21:14:18 2023, MaxMem=  6710886400 cpu:               0.1 elap:               0.0
 (Enter /data0/home/software/g16/l9999.exe)
 1\1\GINC-LOCALHOST\SP\RM062X\6-311+G(2d,p)\H4O2\WUHANYU\17-Feb-2023\0\
 \#p M062X/6-311+G(2d,p) nosymm em=GD3 counterpoise=2\\Title Card Requi
 red\\0,1\O,0,11.171674,6.089443,10.828202\H,0,10.338122,6.528784,10.50
 7382\H,0,11.826239,6.343333,10.176461\O,0,11.972402,11.930695,10.10706
 8\H,0,12.126966,12.573149,10.799733\H,0,12.347576,11.104515,10.462291\
 \Version=ES64L-G16RevA.03\HF=-76.4218213\RMSD=3.795e-09\Dipole=0.25175
 49,0.357042,0.0578722\Quadrupole=5.974253,-0.1005667,-5.8736864,13.518
 3815,7.0809712,16.0516499\PG=C01 [X(H4O2)]\\@


 CLIMB THE MOUNTAINS AND GET THEIR GOOD TIDINGS.
 NATURE'S PEACE WILL FLOW INTO YOU AS SUNSHINE FLOWS INTO TREES.
 THE WINDS WILL BLOW THEIR OWN FRESHNESS INTO YOU, 
 AND CARES WILL DROP OFF LIKE AUTUMN LEAVES.

                                         -- JOHN MUIR
 Job cpu time:       0 days  0 hours  1 minutes 55.2 seconds.
 Elapsed time:       0 days  0 hours  0 minutes  5.7 seconds.
 File lengths (MBytes):  RWF=     10 Int=      0 D2E=      0 Chk=      3 Scr=      1
 Normal termination of Gaussian 16 at Fri Feb 17 21:14:18 2023.
