 Entering Gaussian System, Link 0=g16
 Initial command:
 /data0/home/software/g16/l1.exe "/data0/home/software/g16/scratch/Gau-387783.inp" -scrdir="/data0/home/software/g16/scratch/"
 Default is to use a total of  22 processors:
                               22 via shared-memory
                                1 via Linda
 Entering Link 1 = /data0/home/software/g16/l1.exe PID=    387784.
  
 Copyright (c) 1988,1990,1992,1993,1995,1998,2003,2009,2016,
            Gaussian, Inc.  All Rights Reserved.
  
 This is part of the Gaussian(R) 16 program.  It is based on
 the Gaussian(R) 09 system (copyright 2009, Gaussian, Inc.),
 the Gaussian(R) 03 system (copyright 2003, Gaussian, Inc.),
 the Gaussian(R) 98 system (copyright 1998, Gaussian, Inc.),
 the Gaussian(R) 94 system (copyright 1995, Gaussian, Inc.),
 the Gaussian 92(TM) system (copyright 1992, Gaussian, Inc.),
 the Gaussian 90(TM) system (copyright 1990, Gaussian, Inc.),
 the Gaussian 88(TM) system (copyright 1988, Gaussian, Inc.),
 the Gaussian 86(TM) system (copyright 1986, Carnegie Mellon
 University), and the Gaussian 82(TM) system (copyright 1983,
 Carnegie Mellon University). Gaussian is a federally registered
 trademark of Gaussian, Inc.
  
 This software contains proprietary and confidential information,
 including trade secrets, belonging to Gaussian, Inc.
  
 This software is provided under written license and may be
 used, copied, transmitted, or stored only in accord with that
 written license.
  
 The following legend is applicable only to US Government
 contracts under FAR:
  
                    RESTRICTED RIGHTS LEGEND
  
 Use, reproduction and disclosure by the US Government is
 subject to restrictions as set forth in subparagraphs (a)
 and (c) of the Commercial Computer Software - Restricted
 Rights clause in FAR 52.227-19.
  
 Gaussian, Inc.
 340 Quinnipiac St., Bldg. 40, Wallingford CT 06492
  
  
 ---------------------------------------------------------------
 Warning -- This program may not be used in any manner that
 competes with the business of Gaussian, Inc. or will provide
 assistance to any competitor of Gaussian, Inc.  The licensee
 of this program is prohibited from giving any competitor of
 Gaussian, Inc. access to this program.  By using this program,
 the user acknowledges that Gaussian, Inc. is engaged in the
 business of creating and licensing software in the field of
 computational chemistry and represents and warrants to the
 licensee that it is not a competitor of Gaussian, Inc. and that
 it will not use this program in any manner prohibited above.
 ---------------------------------------------------------------
  

 Cite this work as:
 Gaussian 16, Revision A.03,
 M. J. Frisch, G. W. Trucks, H. B. Schlegel, G. E. Scuseria, 
 M. A. Robb, J. R. Cheeseman, G. Scalmani, V. Barone, 
 G. A. Petersson, H. Nakatsuji, X. Li, M. Caricato, A. V. Marenich, 
 J. Bloino, B. G. Janesko, R. Gomperts, B. Mennucci, H. P. Hratchian, 
 J. V. Ortiz, A. F. Izmaylov, J. L. Sonnenberg, D. Williams-Young, 
 F. Ding, F. Lipparini, F. Egidi, J. Goings, B. Peng, A. Petrone, 
 T. Henderson, D. Ranasinghe, V. G. Zakrzewski, J. Gao, N. Rega, 
 G. Zheng, W. Liang, M. Hada, M. Ehara, K. Toyota, R. Fukuda, 
 J. Hasegawa, M. Ishida, T. Nakajima, Y. Honda, O. Kitao, H. Nakai, 
 T. Vreven, K. Throssell, J. A. Montgomery, Jr., J. E. Peralta, 
 F. Ogliaro, M. J. Bearpark, J. J. Heyd, E. N. Brothers, K. N. Kudin, 
 V. N. Staroverov, T. A. Keith, R. Kobayashi, J. Normand, 
 K. Raghavachari, A. P. Rendell, J. C. Burant, S. S. Iyengar, 
 J. Tomasi, M. Cossi, J. M. Millam, M. Klene, C. Adamo, R. Cammi, 
 J. W. Ochterski, R. L. Martin, K. Morokuma, O. Farkas, 
 J. B. Foresman, and D. J. Fox, Gaussian, Inc., Wallingford CT, 2016.
 
 ******************************************
 Gaussian 16:  ES64L-G16RevA.03 25-Dec-2016
                20-Feb-2023 
 ******************************************
 %nproc=24
 Will use up to   24 processors via shared memory.
 %mem=50GB
 ---------------------------------------------------
 #p M062X/6-311+G(2d,p) nosymm em=GD3 counterpoise=2
 ---------------------------------------------------
 1/38=1,62=2,172=1/1;
 2/12=2,15=1,17=6,18=5,40=1/2;
 1/38=1,53=2,62=2,63=1/22;
 3/5=4,6=6,7=112,11=2,25=1,30=1,74=-55,124=31/1,2,3;
 4//1;
 5/5=2,38=5/2;
 6/7=2,8=2,9=2,10=2,28=1/1;
 1/53=2,62=2,63=1/22;
 3/5=7,6=11,7=112,11=2,25=1,30=1,74=-55,82=7,124=31/1,2,3;
 4//1;
 5/5=2,38=5/2;
 6/7=2,8=2,9=2,10=2,28=1/1;
 1/53=2,62=2,63=1/22(-4);
 99/5=1,9=1/99;
 Leave Link    1 at Mon Feb 20 09:05:03 2023, MaxMem=  6710886400 cpu:               0.7 elap:               0.0
 (Enter /data0/home/software/g16/l101.exe)
 -------------------
 Title Card Required
 -------------------
 Symbolic Z-matrix:
 Charge =  0 Multiplicity = 1 in supermolecule
 Charge =  0 Multiplicity = 1 in fragment      1.
 Charge =  0 Multiplicity = 1 in fragment      2.
 C                     8.04577   10.91727   8.6452     
 C                     7.55401   9.92926   9.4944     
 C                     9.16381   11.05392   10.59077    
 N                     9.03906   11.59812   9.34268    
 H                     7.76686   11.1539   7.62853    
 H                     6.78993   9.18206   9.31318    
 H                     9.8748    11.36523   11.35895    
 C                     9.87064   12.66912   8.82621    
 H                     10.94905   12.45332   9.01075    
 H                     9.76007   12.75904   7.72281    
 H                     9.61249   13.63355   9.29516    
 N                     8.24989   10.03713   10.69604    
 C                     8.07486   9.19521   11.88007    
 H                     6.9812    8.97174   11.99522    
 H                     8.39657   9.76633   12.7826    
 C                     8.85207   7.87186   11.78466    
 H                     8.55432   7.23643   12.64495    
 H                     8.52718   7.29401   10.89014    
 C                     10.36613   8.04687   11.76287    
 H                     10.86787   7.09161   12.02052    
 H                     10.70425   8.77974   12.51981    
 C                     10.82833   8.45115   10.36678    
 O                     11.40856   9.56083   10.25409    
 O                     10.58895   7.68212   9.42105    
 P                     11.23038   9.8337    6.74366    
 O                     9.87912   10.41099   6.64558    
 O                     11.30839   8.26614   6.90511    
 H                     11.05773   8.01095   7.91938    
 O                     12.02096   10.1239   5.39192    
 H                     12.96814   9.72367   5.50265    
 O                     12.13958   10.49546   7.85839    
 H                     11.88299   10.07732   8.81154    
 
 ITRead=  0  0  0  0  0  0  0  0  0  0  0  0  0  0  0  0  0  0  0  0
 ITRead=  0  0  0  0  0  0  0  0  0  0  0  0
 MicOpt= -1 -1 -1 -1 -1 -1 -1 -1 -1 -1 -1 -1 -1 -1 -1 -1 -1 -1 -1 -1
 MicOpt= -1 -1 -1 -1 -1 -1 -1 -1 -1 -1 -1 -1
 NAtoms=     32 NQM=       32 NQMF=       0 NMMI=      0 NMMIF=      0
                NMic=       0 NMicF=      0.
                    Isotopes and Nuclear Properties:
 (Nuclear quadrupole moments (NQMom) in fm**2, nuclear magnetic moments (NMagM)
  in nuclear magnetons)

  Atom         1           2           3           4           5           6           7           8           9          10
 IAtWgt=          12          12          12          14           1           1           1          12           1           1
 AtmWgt=  12.0000000  12.0000000  12.0000000  14.0030740   1.0078250   1.0078250   1.0078250  12.0000000   1.0078250   1.0078250
 NucSpn=           0           0           0           2           1           1           1           0           1           1
 AtZEff=  -0.0000000  -0.0000000  -0.0000000  -0.0000000  -0.0000000  -0.0000000  -0.0000000  -0.0000000  -0.0000000  -0.0000000
 NQMom=    0.0000000   0.0000000   0.0000000   2.0440000   0.0000000   0.0000000   0.0000000   0.0000000   0.0000000   0.0000000
 NMagM=    0.0000000   0.0000000   0.0000000   0.4037610   2.7928460   2.7928460   2.7928460   0.0000000   2.7928460   2.7928460
 AtZNuc=   6.0000000   6.0000000   6.0000000   7.0000000   1.0000000   1.0000000   1.0000000   6.0000000   1.0000000   1.0000000

  Atom        11          12          13          14          15          16          17          18          19          20
 IAtWgt=           1          14          12           1           1          12           1           1          12           1
 AtmWgt=   1.0078250  14.0030740  12.0000000   1.0078250   1.0078250  12.0000000   1.0078250   1.0078250  12.0000000   1.0078250
 NucSpn=           1           2           0           1           1           0           1           1           0           1
 AtZEff=  -0.0000000  -0.0000000  -0.0000000  -0.0000000  -0.0000000  -0.0000000  -0.0000000  -0.0000000  -0.0000000  -0.0000000
 NQMom=    0.0000000   2.0440000   0.0000000   0.0000000   0.0000000   0.0000000   0.0000000   0.0000000   0.0000000   0.0000000
 NMagM=    2.7928460   0.4037610   0.0000000   2.7928460   2.7928460   0.0000000   2.7928460   2.7928460   0.0000000   2.7928460
 AtZNuc=   1.0000000   7.0000000   6.0000000   1.0000000   1.0000000   6.0000000   1.0000000   1.0000000   6.0000000   1.0000000

  Atom        21          22          23          24          25          26          27          28          29          30
 IAtWgt=           1          12          16          16          31          16          16           1          16           1
 AtmWgt=   1.0078250  12.0000000  15.9949146  15.9949146  30.9737634  15.9949146  15.9949146   1.0078250  15.9949146   1.0078250
 NucSpn=           1           0           0           0           1           0           0           1           0           1
 AtZEff=  -0.0000000  -0.0000000  -0.0000000  -0.0000000  -0.0000000  -0.0000000  -0.0000000  -0.0000000  -0.0000000  -0.0000000
 NQMom=    0.0000000   0.0000000   0.0000000   0.0000000   0.0000000   0.0000000   0.0000000   0.0000000   0.0000000   0.0000000
 NMagM=    2.7928460   0.0000000   0.0000000   0.0000000   1.1316000   0.0000000   0.0000000   2.7928460   0.0000000   2.7928460
 AtZNuc=   1.0000000   6.0000000   8.0000000   8.0000000  15.0000000   8.0000000   8.0000000   1.0000000   8.0000000   1.0000000

  Atom        31          32
 IAtWgt=          16           1
 AtmWgt=  15.9949146   1.0078250
 NucSpn=           0           1
 AtZEff=  -0.0000000  -0.0000000
 NQMom=    0.0000000   0.0000000
 NMagM=    0.0000000   2.7928460
 AtZNuc=   8.0000000   1.0000000
 Leave Link  101 at Mon Feb 20 09:05:03 2023, MaxMem=  6710886400 cpu:               2.1 elap:               0.1
 (Enter /data0/home/software/g16/l202.exe)
                          Input orientation:                          
 ---------------------------------------------------------------------
 Center     Atomic      Atomic             Coordinates (Angstroms)
 Number     Number       Type             X           Y           Z
 ---------------------------------------------------------------------
      1          6           0        8.045767   10.917269    8.645202
      2          6           0        7.554012    9.929260    9.494402
      3          6           0        9.163807   11.053922   10.590771
      4          7           0        9.039060   11.598116    9.342682
      5          1           0        7.766857   11.153900    7.628533
      6          1           0        6.789933    9.182057    9.313183
      7          1           0        9.874795   11.365234   11.358945
      8          6           0        9.870642   12.669118    8.826210
      9          1           0       10.949051   12.453320    9.010755
     10          1           0        9.760074   12.759044    7.722809
     11          1           0        9.612494   13.633552    9.295156
     12          7           0        8.249892   10.037130   10.696036
     13          6           0        8.074857    9.195211   11.880075
     14          1           0        6.981204    8.971743   11.995223
     15          1           0        8.396570    9.766334   12.782597
     16          6           0        8.852067    7.871863   11.784656
     17          1           0        8.554319    7.236427   12.644953
     18          1           0        8.527182    7.294009   10.890140
     19          6           0       10.366130    8.046873   11.762868
     20          1           0       10.867867    7.091614   12.020522
     21          1           0       10.704250    8.779738   12.519808
     22          6           0       10.828327    8.451148   10.366779
     23          8           0       11.408564    9.560826   10.254092
     24          8           0       10.588954    7.682120    9.421050
     25         15           0       11.230380    9.833695    6.743657
     26          8           0        9.879124   10.410991    6.645579
     27          8           0       11.308387    8.266138    6.905114
     28          1           0       11.057727    8.010951    7.919384
     29          8           0       12.020964   10.123900    5.391920
     30          1           0       12.968137    9.723673    5.502646
     31          8           0       12.139582   10.495465    7.858385
     32          1           0       11.882989   10.077316    8.811538
 ---------------------------------------------------------------------
                    Distance matrix (angstroms):
                    1          2          3          4          5
     1  C    0.000000
     2  C    1.392525   0.000000
     3  C    2.248094   2.249073   0.000000
     4  N    1.391640   2.239077   1.367273   0.000000
     5  H    1.080463   2.241989   3.276632   2.180398   0.000000
     6  H    2.243720   1.083960   3.281979   3.301028   2.771388
     7  H    3.303092   3.305235   1.092021   2.194995   4.289993
     8  C    2.536121   3.649668   2.494424   1.450971   2.855911
     9  H    3.304866   4.258061   2.764392   2.118871   3.704779
    10  H    2.679887   4.001616   3.389422   2.119340   2.560916
    11  H    3.202385   4.242502   2.921375   2.115203   3.511792
    12  N    2.241034   1.392770   1.371199   2.211567   3.300011
    13  C    3.664796   2.549812   2.510562   3.625190   4.691155
    14  H    4.017587   2.738440   3.327418   4.262462   4.944395
    15  H    4.308799   3.398334   2.655304   3.949840   5.374593
    16  C    4.447560   3.341121   3.412923   4.459054   5.405812
    17  H    5.459417   4.263559   4.377717   5.492203   6.413358
    18  H    4.289466   3.136828   3.825161   4.602389   5.110277
    19  C    4.831470   4.073982   3.444087   4.497749   5.788140
    20  H    5.830323   5.041344   4.543995   5.551930   6.738546
    21  H    5.162281   4.516468   3.356495   4.561824   6.179765
    22  C    4.097343   3.696890   3.097617   3.762135   4.916854
    23  O    3.966972   3.945940   2.716914   3.255114   4.763767
    24  O    4.187592   3.777022   3.842960   4.212284   4.819814
    25  P    3.864164   4.592539   4.534310   3.830143   3.810766
    26  O    2.759711   3.708639   4.060736   3.064203   2.445360
    27  O    4.549845   4.854453   5.094608   4.711015   4.626547
    28  H    4.247988   4.293787   4.470225   4.355289   4.559885
    29  O    5.197641   6.068105   6.004693   5.164648   4.915360
    30  H    5.960709   6.729720   6.490879   5.804917   5.798125
    31  O    4.190026   4.901489   4.078363   3.610016   4.427990
    32  H    3.931598   4.385005   3.393137   3.268467   4.416002
                    6          7          8          9         10
     6  H    0.000000
     7  H    4.297415   0.000000
     8  C    4.678408   2.848662   0.000000
     9  H    5.300084   2.802134   1.115164   0.000000
    10  H    4.913844   3.895812   1.112567   1.779308   0.000000
    11  H    5.270957   3.077872   1.103034   1.805607   1.805220
    12  N    2.185157   2.200822   3.612539   3.995448   4.304596
    13  C    2.870564   2.867116   4.961750   5.206656   5.729199
    14  H    2.697064   3.808742   5.662338   6.064012   6.349747
    15  H    3.867751   2.601618   5.123675   5.287896   6.034643
    16  C    3.475224   3.664812   5.727439   5.751662   6.419316
    17  H    4.242549   4.521562   6.769759   6.793976   7.495375
    18  H    3.011570   4.314013   5.912401   6.001335   6.435730
    19  C    4.480936   3.378770   5.498601   5.227877   6.236500
    20  H    5.322517   4.437083   6.504355   6.149242   7.198424
    21  H    5.076040   2.953030   5.428153   5.086117   6.303772
    22  C    4.237088   3.222656   4.591490   4.227382   5.166208
    23  O    4.728692   2.613242   3.750404   3.181754   4.399263
    24  O    4.085830   4.222652   5.073456   4.802329   5.417215
    25  P    5.171524   5.048178   3.771676   3.475819   3.417339
    26  O    4.262569   4.808993   3.139166   3.303015   2.586107
    27  O    5.201359   5.612147   5.014375   4.700568   4.822043
    28  H    4.639852   4.947840   4.891832   4.575756   4.926148
    29  O    6.605078   6.461605   4.785015   4.435218   4.181943
    30  H    7.278993   6.823469   5.414444   4.882060   4.943103
    31  O    5.697387   4.259070   3.287787   2.564862   3.286979
    32  H    5.195417   3.490109   3.281340   2.560727   3.589396
                   11         12         13         14         15
    11  H    0.000000
    12  N    4.093092   0.000000
    13  C    5.361437   1.463357   0.000000
    14  H    5.995541   2.105352   1.122174   0.000000
    15  H    5.347531   2.109166   1.115449   1.804049   0.000000
    16  C    6.322414   2.497216   1.537664   2.180413   2.189151
    17  H    7.298225   3.425623   2.156793   2.430671   2.538555
    18  H    6.626589   2.763925   2.190694   2.534965   3.116223
    19  C    6.153743   3.094789   2.565609   3.516688   2.806343
    20  H    7.197259   4.157418   3.499393   4.317601   3.720510
    21  H    5.928729   3.306214   2.737806   3.764721   2.523453
    22  C    5.429911   3.045008   3.228822   4.209894   3.671421
    23  O    4.553298   3.224808   3.727076   4.793753   3.937979
    24  O    6.032318   3.555682   3.828437   4.615772   4.522222
    25  P    4.854546   4.954391   6.061994   6.810096   6.671118
    26  O    4.180460   4.381823   5.668637   6.252045   6.346380
    27  O    6.115348   5.182846   6.005758   6.718006   6.728601
    28  H    5.966162   4.438371   5.097750   5.844110   5.814978
    29  O    5.775261   6.508622   7.650515   8.386314   8.239308
    30  H    6.397705   7.023631   8.055747   8.863539   8.596437
    31  O    4.277625   4.836530   5.864012   6.785574   6.228133
    32  H    4.246863   4.092962   4.969497   5.948583   5.293499
                   16         17         18         19         20
    16  C    0.000000
    17  H    1.110200   0.000000
    18  H    1.113384   1.755967   0.000000
    19  C    1.524300   2.171994   2.170297   0.000000
    20  H    2.174367   2.400706   2.607208   1.109345   0.000000
    21  H    2.189810   2.649467   3.098844   1.106515   1.767999
    22  C    2.500310   3.440456   2.628335   1.525165   2.141206
    23  O    3.425040   4.389278   3.720938   2.378051   3.083770
    24  O    2.939288   3.838220   2.561203   2.380506   2.680251
    25  P    5.909046   6.980859   5.563327   5.397420   5.957829
    26  O    5.823412   6.915595   5.436876   5.657992   6.394207
    27  O    5.477124   6.449104   4.955862   4.953150   5.266969
    28  H    4.452483   5.403512   3.967752   3.905377   4.207203
    29  O    7.482022   8.541757   7.102480   6.902282   7.379889
    30  H    7.735301   8.756753   7.392594   6.983730   7.336319
    31  O    5.753838   6.810776   5.700026   4.938190   5.525110
    32  H    4.784343   5.817711   4.829992   3.890232   4.499163
                   21         22         23         24         25
    21  H    0.000000
    22  C    2.181490   0.000000
    23  O    2.497924   1.257282   0.000000
    24  O    3.289431   1.242219   2.212522   0.000000
    25  P    5.895045   3.898730   3.525530   3.494157   0.000000
    26  O    6.152104   4.311531   4.010403   3.956493   1.472679
    27  O    5.670410   3.499687   3.591922   2.681156   1.577780
    28  H    4.677593   2.497226   2.824192   1.607134   2.175900
    29  O    7.372062   5.382351   4.932829   4.924107   1.592619
    30  H    7.433489   5.464238   5.003501   5.018201   2.138226
    31  O    5.170373   3.491513   2.673453   3.572293   1.583416
    32  H    4.101756   2.485057   1.603996   2.789802   2.182059
                   26         27         28         29         30
    26  O    0.000000
    27  O    2.590472   0.000000
    28  H    2.961735   1.075497   0.000000
    29  O    2.498312   2.499760   3.432266   0.000000
    30  H    3.364625   2.616504   3.524728   1.034204   0.000000
    31  O    2.566652   2.563105   2.710524   2.497114   2.613747
    32  H    2.969544   2.691651   2.397261   3.422717   3.500197
                   31         32
    31  O    0.000000
    32  H    1.072002   0.000000
 Symmetry turned off by external request.
 Stoichiometry    C8H15N2O6P
 Framework group  C1[X(C8H15N2O6P)]
 Deg. of freedom    90
 Full point group                 C1      NOp   1
 Rotational constants (GHZ):           0.6671680           0.3349539           0.2719777
 Leave Link  202 at Mon Feb 20 09:05:03 2023, MaxMem=  6710886400 cpu:               0.1 elap:               0.0
 (Enter /data0/home/software/g16/l122.exe)
 Counterpoise: doing full-system calculation.
 Leave Link  122 at Mon Feb 20 09:05:03 2023, MaxMem=  6710886400 cpu:               0.0 elap:               0.0
 (Enter /data0/home/software/g16/l301.exe)
 Standard basis: 6-311+G(2d,p) (5D, 7F)
 Ernie: Thresh=  0.10000D-02 Tol=  0.10000D-05 Strict=F.
   557 basis functions,   848 primitive gaussians,   591 cartesian basis functions
    70 alpha electrons       70 beta electrons
       nuclear repulsion energy      1556.2039468550 Hartrees.
 IExCor= 4336 DFT=T Ex+Corr=M062X ExCW=0 ScaHFX=  0.540000
 ScaDFX=  1.000000  1.000000  1.000000  1.000000 ScalE2=  1.000000  1.000000
 IRadAn=      5 IRanWt=     -1 IRanGd=            0 ICorTp=0 IEmpDi=131
 NAtoms=   32 NActive=   32 NUniq=   32 SFac= 1.00D+00 NAtFMM=   60 NAOKFM=F Big=F
 Integral buffers will be    131072 words long.
 Raffenetti 2 integral format.
 Two-electron integral symmetry is turned off.
 R6Disp:  Grimme-D3 Dispersion energy=       -0.0021621449 Hartrees.
 Nuclear repulsion after empirical dispersion term =     1556.2017847101 Hartrees.
 Leave Link  301 at Mon Feb 20 09:05:03 2023, MaxMem=  6710886400 cpu:               1.2 elap:               0.1
 (Enter /data0/home/software/g16/l302.exe)
 NPDir=0 NMtPBC=     1 NCelOv=     1 NCel=       1 NClECP=     1 NCelD=      1
         NCelK=      1 NCelE2=     1 NClLst=     1 CellRange=     0.0.
 One-electron integrals computed using PRISM.
 NBasis=   557 RedAO= T EigKep=  1.01D-05  NBF=   557
 NBsUse=   557 1.00D-06 EigRej= -1.00D+00 NBFU=   557
 Precomputing XC quadrature grid using
 IXCGrd= 4 IRadAn=           5 IRanWt=          -1 IRanGd=           0 AccXCQ= 0.00D+00.
 Generated NRdTot=       0 NPtTot=           0 NUsed=           0 NTot=          32
 NSgBfM=   590   590   590   590   590 MxSgAt=    32 MxSgA2=    32.
 Leave Link  302 at Mon Feb 20 09:05:04 2023, MaxMem=  6710886400 cpu:              14.2 elap:               0.6
 (Enter /data0/home/software/g16/l303.exe)
 DipDrv:  MaxL=1.
 Leave Link  303 at Mon Feb 20 09:05:04 2023, MaxMem=  6710886400 cpu:               1.4 elap:               0.1
 (Enter /data0/home/software/g16/l401.exe)
 ExpMin= 3.48D-02 ExpMax= 7.75D+04 ExpMxC= 2.65D+03 IAcc=3 IRadAn=         5 AccDes= 0.00D+00
 Harris functional with IExCor= 1009 and IRadAn=       5 diagonalized for initial guess.
 HarFok:  IExCor= 1009 AccDes= 0.00D+00 IRadAn=         5 IDoV= 1 UseB2=F ITyADJ=14
 ICtDFT=  3500011 ScaDFX=  1.000000  1.000000  1.000000  1.000000
 FoFCou: FMM=F IPFlag=           0 FMFlag=      100000 FMFlg1=           0
         NFxFlg=           0 DoJE=T BraDBF=F KetDBF=T FulRan=T
         wScrn=  0.000000 ICntrl=       500 IOpCl=  0 I1Cent=   200000004 NGrid=           0
         NMat0=    1 NMatS0=      1 NMatT0=    0 NMatD0=    1 NMtDS0=    0 NMtDT0=    0
 Symmetry not used in FoFCou.
 Harris En= -1215.64859543509    
 JPrj=0 DoOrth=F DoCkMO=F.
 Leave Link  401 at Mon Feb 20 09:05:06 2023, MaxMem=  6710886400 cpu:              57.1 elap:               2.4
 (Enter /data0/home/software/g16/l502.exe)
 Two-electron integral symmetry not used.
 Closed shell SCF:
 Using DIIS extrapolation, IDIIS=  1040.
 NGot=  6710886400 LenX=  6710169535 LenY=  6709819663
 Requested convergence on RMS density matrix=1.00D-08 within 128 cycles.
 Requested convergence on MAX density matrix=1.00D-06.
 Requested convergence on             energy=1.00D-06.
 No special actions if energy rises.
 Fock matrices will be formed incrementally for  20 cycles.

 Cycle   1  Pass 1  IDiag  1:
 FoFJK:  IHMeth= 1 ICntrl=       0 DoSepK=F KAlg= 0 I1Cent=           0 FoldK=F
 IRaf= 860000000 NMat=       1 IRICut=       1 DoRegI=T DoRafI=F ISym2E= 0 IDoP0=0 IntGTp=1.
 FoFCou: FMM=F IPFlag=           0 FMFlag=      100000 FMFlg1=           0
         NFxFlg=           0 DoJE=F BraDBF=F KetDBF=F FulRan=T
         wScrn=  0.000000 ICntrl=         0 IOpCl=  0 I1Cent=           0 NGrid=           0
         NMat0=    1 NMatS0=      1 NMatT0=    0 NMatD0=    1 NMtDS0=    0 NMtDT0=    0
 Symmetry not used in FoFCou.
 E= -1215.59243249062    
 DIIS: error= 2.64D-02 at cycle   1 NSaved=   1.
 NSaved= 1 IEnMin= 1 EnMin= -1215.59243249062     IErMin= 1 ErrMin= 2.64D-02
 ErrMax= 2.64D-02  0.00D+00 EMaxC= 1.00D-01 BMatC= 9.24D-01 BMatP= 9.24D-01
 IDIUse=3 WtCom= 7.36D-01 WtEn= 2.64D-01
 Coeff-Com:  0.100D+01
 Coeff-En:   0.100D+01
 Coeff:      0.100D+01
 Gap=     0.313 Goal=   None    Shift=    0.000
 GapD=    0.313 DampG=1.000 DampE=0.500 DampFc=0.5000 IDamp=-1.
 Damping current iteration by 5.00D-01
 RMSDP=5.09D-03 MaxDP=3.94D-01              OVMax= 2.45D-01

 Cycle   2  Pass 1  IDiag  1:
 RMSU=  2.53D-03    CP:  9.80D-01
 E= -1215.85087778304     Delta-E=       -0.258445292414 Rises=F Damp=T
 DIIS: error= 5.68D-03 at cycle   2 NSaved=   2.
 NSaved= 2 IEnMin= 2 EnMin= -1215.85087778304     IErMin= 2 ErrMin= 5.68D-03
 ErrMax= 5.68D-03  0.00D+00 EMaxC= 1.00D-01 BMatC= 5.98D-02 BMatP= 9.24D-01
 IDIUse=3 WtCom= 9.43D-01 WtEn= 5.68D-02
 Coeff-Com:  0.720D-02 0.993D+00
 Coeff-En:   0.727D-01 0.927D+00
 Coeff:      0.109D-01 0.989D+00
 Gap=     0.316 Goal=   None    Shift=    0.000
 RMSDP=2.34D-03 MaxDP=3.11D-01 DE=-2.58D-01 OVMax= 1.32D-01

 Cycle   3  Pass 1  IDiag  1:
 RMSU=  1.87D-03    CP:  8.61D-01  8.55D-01
 E= -1216.14378693504     Delta-E=       -0.292909152000 Rises=F Damp=F
 DIIS: error= 5.18D-03 at cycle   3 NSaved=   3.
 NSaved= 3 IEnMin= 3 EnMin= -1216.14378693504     IErMin= 3 ErrMin= 5.18D-03
 ErrMax= 5.18D-03  0.00D+00 EMaxC= 1.00D-01 BMatC= 2.35D-02 BMatP= 5.98D-02
 IDIUse=3 WtCom= 9.48D-01 WtEn= 5.18D-02
 Coeff-Com: -0.593D-01 0.362D+00 0.697D+00
 Coeff-En:   0.000D+00 0.000D+00 0.100D+01
 Coeff:     -0.563D-01 0.344D+00 0.713D+00
 Gap=     0.293 Goal=   None    Shift=    0.000
 RMSDP=4.85D-04 MaxDP=3.68D-02 DE=-2.93D-01 OVMax= 4.22D-02

 Cycle   4  Pass 1  IDiag  1:
 RMSU=  4.59D-04    CP:  8.55D-01  9.06D-01  9.74D-01
 E= -1216.15607789932     Delta-E=       -0.012290964281 Rises=F Damp=F
 DIIS: error= 3.11D-03 at cycle   4 NSaved=   4.
 NSaved= 4 IEnMin= 4 EnMin= -1216.15607789932     IErMin= 4 ErrMin= 3.11D-03
 ErrMax= 3.11D-03  0.00D+00 EMaxC= 1.00D-01 BMatC= 6.81D-03 BMatP= 2.35D-02
 IDIUse=3 WtCom= 9.69D-01 WtEn= 3.11D-02
 Coeff-Com: -0.319D-01 0.866D-01 0.392D+00 0.553D+00
 Coeff-En:   0.000D+00 0.000D+00 0.214D+00 0.786D+00
 Coeff:     -0.309D-01 0.839D-01 0.387D+00 0.560D+00
 Gap=     0.295 Goal=   None    Shift=    0.000
 RMSDP=1.81D-04 MaxDP=8.98D-03 DE=-1.23D-02 OVMax= 1.38D-02

 Cycle   5  Pass 1  IDiag  1:
 RMSU=  1.08D-04    CP:  8.53D-01  8.93D-01  1.00D+00  7.22D-01
 E= -1216.16089919676     Delta-E=       -0.004821297443 Rises=F Damp=F
 DIIS: error= 4.09D-04 at cycle   5 NSaved=   5.
 NSaved= 5 IEnMin= 5 EnMin= -1216.16089919676     IErMin= 5 ErrMin= 4.09D-04
 ErrMax= 4.09D-04  0.00D+00 EMaxC= 1.00D-01 BMatC= 1.88D-04 BMatP= 6.81D-03
 IDIUse=3 WtCom= 9.96D-01 WtEn= 4.09D-03
 Coeff-Com: -0.966D-02 0.185D-01 0.126D+00 0.238D+00 0.627D+00
 Coeff-En:   0.000D+00 0.000D+00 0.000D+00 0.000D+00 0.100D+01
 Coeff:     -0.962D-02 0.184D-01 0.125D+00 0.238D+00 0.628D+00
 Gap=     0.287 Goal=   None    Shift=    0.000
 RMSDP=3.56D-05 MaxDP=2.03D-03 DE=-4.82D-03 OVMax= 2.35D-03

 Cycle   6  Pass 1  IDiag  1:
 RMSU=  3.12D-05    CP:  8.53D-01  8.92D-01  1.00D+00  7.48D-01  8.98D-01
 E= -1216.16103432040     Delta-E=       -0.000135123641 Rises=F Damp=F
 DIIS: error= 9.03D-05 at cycle   6 NSaved=   6.
 NSaved= 6 IEnMin= 6 EnMin= -1216.16103432040     IErMin= 6 ErrMin= 9.03D-05
 ErrMax= 9.03D-05  0.00D+00 EMaxC= 1.00D-01 BMatC= 1.61D-05 BMatP= 1.88D-04
 IDIUse=1 WtCom= 1.00D+00 WtEn= 0.00D+00
 Coeff-Com: -0.191D-02 0.198D-02 0.257D-01 0.629D-01 0.283D+00 0.629D+00
 Coeff:     -0.191D-02 0.198D-02 0.257D-01 0.629D-01 0.283D+00 0.629D+00
 Gap=     0.287 Goal=   None    Shift=    0.000
 RMSDP=1.29D-05 MaxDP=1.11D-03 DE=-1.35D-04 OVMax= 7.51D-04

 Cycle   7  Pass 1  IDiag  1:
 RMSU=  1.18D-05    CP:  8.53D-01  8.92D-01  1.01D+00  7.55D-01  9.33D-01
                    CP:  9.28D-01
 E= -1216.16104709085     Delta-E=       -0.000012770451 Rises=F Damp=F
 DIIS: error= 3.72D-05 at cycle   7 NSaved=   7.
 NSaved= 7 IEnMin= 7 EnMin= -1216.16104709085     IErMin= 7 ErrMin= 3.72D-05
 ErrMax= 3.72D-05  0.00D+00 EMaxC= 1.00D-01 BMatC= 2.12D-06 BMatP= 1.61D-05
 IDIUse=1 WtCom= 1.00D+00 WtEn= 0.00D+00
 Coeff-Com:  0.293D-03-0.128D-02-0.376D-02-0.263D-03 0.577D-01 0.293D+00
 Coeff-Com:  0.654D+00
 Coeff:      0.293D-03-0.128D-02-0.376D-02-0.263D-03 0.577D-01 0.293D+00
 Coeff:      0.654D+00
 Gap=     0.287 Goal=   None    Shift=    0.000
 RMSDP=5.61D-06 MaxDP=6.83D-04 DE=-1.28D-05 OVMax= 3.61D-04

 Cycle   8  Pass 1  IDiag  1:
 RMSU=  3.77D-06    CP:  8.53D-01  8.90D-01  1.01D+00  7.58D-01  9.49D-01
                    CP:  9.75D-01  9.78D-01
 E= -1216.16104876820     Delta-E=       -0.000001677347 Rises=F Damp=F
 DIIS: error= 1.17D-05 at cycle   8 NSaved=   8.
 NSaved= 8 IEnMin= 8 EnMin= -1216.16104876820     IErMin= 8 ErrMin= 1.17D-05
 ErrMax= 1.17D-05  0.00D+00 EMaxC= 1.00D-01 BMatC= 3.02D-07 BMatP= 2.12D-06
 IDIUse=1 WtCom= 1.00D+00 WtEn= 0.00D+00
 Coeff-Com:  0.449D-03-0.943D-03-0.600D-02-0.103D-01-0.178D-01 0.339D-01
 Coeff-Com:  0.303D+00 0.697D+00
 Coeff:      0.449D-03-0.943D-03-0.600D-02-0.103D-01-0.178D-01 0.339D-01
 Coeff:      0.303D+00 0.697D+00
 Gap=     0.287 Goal=   None    Shift=    0.000
 RMSDP=2.39D-06 MaxDP=4.34D-04 DE=-1.68D-06 OVMax= 1.16D-04

 Cycle   9  Pass 1  IDiag  1:
 RMSU=  1.72D-06    CP:  8.53D-01  8.90D-01  1.01D+00  7.60D-01  9.57D-01
                    CP:  9.92D-01  9.86D-01  9.54D-01
 E= -1216.16104904060     Delta-E=       -0.000000272397 Rises=F Damp=F
 DIIS: error= 4.25D-06 at cycle   9 NSaved=   9.
 NSaved= 9 IEnMin= 9 EnMin= -1216.16104904060     IErMin= 9 ErrMin= 4.25D-06
 ErrMax= 4.25D-06  0.00D+00 EMaxC= 1.00D-01 BMatC= 2.27D-08 BMatP= 3.02D-07
 IDIUse=1 WtCom= 1.00D+00 WtEn= 0.00D+00
 Coeff-Com:  0.134D-03-0.227D-03-0.192D-02-0.381D-02-0.114D-01-0.986D-02
 Coeff-Com:  0.620D-01 0.268D+00 0.697D+00
 Coeff:      0.134D-03-0.227D-03-0.192D-02-0.381D-02-0.114D-01-0.986D-02
 Coeff:      0.620D-01 0.268D+00 0.697D+00
 Gap=     0.287 Goal=   None    Shift=    0.000
 RMSDP=6.60D-07 MaxDP=7.49D-05 DE=-2.72D-07 OVMax= 4.01D-05

 Cycle  10  Pass 1  IDiag  1:
 RMSU=  4.88D-07    CP:  8.53D-01  8.90D-01  1.01D+00  7.60D-01  9.58D-01
                    CP:  9.94D-01  1.01D+00  1.01D+00  9.41D-01
 E= -1216.16104906480     Delta-E=       -0.000000024205 Rises=F Damp=F
 DIIS: error= 1.03D-06 at cycle  10 NSaved=  10.
 NSaved=10 IEnMin=10 EnMin= -1216.16104906480     IErMin=10 ErrMin= 1.03D-06
 ErrMax= 1.03D-06  0.00D+00 EMaxC= 1.00D-01 BMatC= 3.03D-09 BMatP= 2.27D-08
 IDIUse=1 WtCom= 1.00D+00 WtEn= 0.00D+00
 Coeff-Com: -0.681D-05 0.261D-04 0.312D-04-0.112D-03-0.216D-02-0.801D-02
 Coeff-Com: -0.162D-01 0.387D-02 0.255D+00 0.767D+00
 Coeff:     -0.681D-05 0.261D-04 0.312D-04-0.112D-03-0.216D-02-0.801D-02
 Coeff:     -0.162D-01 0.387D-02 0.255D+00 0.767D+00
 Gap=     0.287 Goal=   None    Shift=    0.000
 RMSDP=2.98D-07 MaxDP=5.86D-05 DE=-2.42D-08 OVMax= 2.56D-05

 Cycle  11  Pass 1  IDiag  1:
 RMSU=  1.74D-07    CP:  8.53D-01  8.90D-01  1.01D+00  7.60D-01  9.58D-01
                    CP:  9.94D-01  1.00D+00  1.03D+00  1.04D+00  1.19D+00
 E= -1216.16104906812     Delta-E=       -0.000000003316 Rises=F Damp=F
 DIIS: error= 6.94D-07 at cycle  11 NSaved=  11.
 NSaved=11 IEnMin=11 EnMin= -1216.16104906812     IErMin=11 ErrMin= 6.94D-07
 ErrMax= 6.94D-07  0.00D+00 EMaxC= 1.00D-01 BMatC= 6.28D-10 BMatP= 3.03D-09
 IDIUse=1 WtCom= 1.00D+00 WtEn= 0.00D+00
 Coeff-Com: -0.219D-04 0.453D-04 0.286D-03 0.485D-03 0.538D-03-0.217D-02
 Coeff-Com: -0.165D-01-0.389D-01 0.205D-01 0.369D+00 0.667D+00
 Coeff:     -0.219D-04 0.453D-04 0.286D-03 0.485D-03 0.538D-03-0.217D-02
 Coeff:     -0.165D-01-0.389D-01 0.205D-01 0.369D+00 0.667D+00
 Gap=     0.287 Goal=   None    Shift=    0.000
 RMSDP=1.23D-07 MaxDP=2.89D-05 DE=-3.32D-09 OVMax= 8.82D-06

 Cycle  12  Pass 1  IDiag  1:
 RMSU=  6.86D-08    CP:  8.53D-01  8.90D-01  1.01D+00  7.60D-01  9.58D-01
                    CP:  9.94D-01  1.00D+00  1.04D+00  1.08D+00  1.28D+00
                    CP:  1.01D+00
 E= -1216.16104906878     Delta-E=       -0.000000000658 Rises=F Damp=F
 DIIS: error= 2.28D-07 at cycle  12 NSaved=  12.
 NSaved=12 IEnMin=12 EnMin= -1216.16104906878     IErMin=12 ErrMin= 2.28D-07
 ErrMax= 2.28D-07  0.00D+00 EMaxC= 1.00D-01 BMatC= 6.37D-11 BMatP= 6.28D-10
 IDIUse=1 WtCom= 1.00D+00 WtEn= 0.00D+00
 Coeff-Com: -0.749D-05 0.147D-04 0.110D-03 0.204D-03 0.443D-03 0.912D-04
 Coeff-Com: -0.469D-02-0.157D-01-0.191D-01 0.624D-01 0.275D+00 0.701D+00
 Coeff:     -0.749D-05 0.147D-04 0.110D-03 0.204D-03 0.443D-03 0.912D-04
 Coeff:     -0.469D-02-0.157D-01-0.191D-01 0.624D-01 0.275D+00 0.701D+00
 Gap=     0.287 Goal=   None    Shift=    0.000
 RMSDP=3.57D-08 MaxDP=4.59D-06 DE=-6.58D-10 OVMax= 4.22D-06

 Cycle  13  Pass 1  IDiag  1:
 RMSU=  2.37D-08    CP:  8.53D-01  8.90D-01  1.01D+00  7.60D-01  9.58D-01
                    CP:  9.94D-01  1.00D+00  1.04D+00  1.08D+00  1.30D+00
                    CP:  1.10D+00  1.00D+00
 E= -1216.16104906882     Delta-E=       -0.000000000040 Rises=F Damp=F
 DIIS: error= 8.92D-08 at cycle  13 NSaved=  13.
 NSaved=13 IEnMin=13 EnMin= -1216.16104906882     IErMin=13 ErrMin= 8.92D-08
 ErrMax= 8.92D-08  0.00D+00 EMaxC= 1.00D-01 BMatC= 1.63D-11 BMatP= 6.37D-11
 IDIUse=1 WtCom= 1.00D+00 WtEn= 0.00D+00
 Coeff-Com: -0.249D-06 0.295D-07 0.123D-04 0.296D-04 0.141D-03 0.373D-03
 Coeff-Com:  0.119D-03-0.188D-02-0.135D-01-0.305D-01 0.303D-01 0.373D+00
 Coeff-Com:  0.641D+00
 Coeff:     -0.249D-06 0.295D-07 0.123D-04 0.296D-04 0.141D-03 0.373D-03
 Coeff:      0.119D-03-0.188D-02-0.135D-01-0.305D-01 0.303D-01 0.373D+00
 Coeff:      0.641D+00
 Gap=     0.287 Goal=   None    Shift=    0.000
 RMSDP=1.59D-08 MaxDP=1.87D-06 DE=-3.96D-11 OVMax= 1.67D-06

 Cycle  14  Pass 1  IDiag  1:
 RMSU=  1.01D-08    CP:  8.53D-01  8.90D-01  1.01D+00  7.60D-01  9.58D-01
                    CP:  9.94D-01  1.00D+00  1.04D+00  1.08D+00  1.32D+00
                    CP:  1.14D+00  1.10D+00  9.46D-01
 E= -1216.16104906887     Delta-E=       -0.000000000053 Rises=F Damp=F
 DIIS: error= 3.22D-08 at cycle  14 NSaved=  14.
 NSaved=14 IEnMin=14 EnMin= -1216.16104906887     IErMin=14 ErrMin= 3.22D-08
 ErrMax= 3.22D-08  0.00D+00 EMaxC= 1.00D-01 BMatC= 1.61D-12 BMatP= 1.63D-11
 IDIUse=1 WtCom= 1.00D+00 WtEn= 0.00D+00
 Coeff-Com:  0.104D-05-0.217D-05-0.105D-04-0.164D-04-0.579D-06 0.158D-03
 Coeff-Com:  0.755D-03 0.147D-02-0.329D-02-0.238D-01-0.283D-01 0.680D-01
 Coeff-Com:  0.290D+00 0.695D+00
 Coeff:      0.104D-05-0.217D-05-0.105D-04-0.164D-04-0.579D-06 0.158D-03
 Coeff:      0.755D-03 0.147D-02-0.329D-02-0.238D-01-0.283D-01 0.680D-01
 Coeff:      0.290D+00 0.695D+00
 Gap=     0.287 Goal=   None    Shift=    0.000
 RMSDP=6.53D-09 MaxDP=5.43D-07 DE=-5.32D-11 OVMax= 5.93D-07

 SCF Done:  E(RM062X) =  -1216.16104907     A.U. after   14 cycles
            NFock= 14  Conv=0.65D-08     -V/T= 2.0036
 KE= 1.211758877012D+03 PE=-5.975340496093D+03 EE= 1.991218785302D+03
 Leave Link  502 at Mon Feb 20 09:07:09 2023, MaxMem=  6710886400 cpu:            2944.3 elap:             123.1
 (Enter /data0/home/software/g16/l601.exe)
 Copying SCF densities to generalized density rwf, IOpCl= 0 IROHF=0.

 **********************************************************************

            Population analysis using the SCF density.

 **********************************************************************

 Alpha  occ. eigenvalues --  -78.11209 -19.62879 -19.60395 -19.59970 -19.57929
 Alpha  occ. eigenvalues --  -19.57854 -19.54153 -14.87516 -14.87153 -10.68081
 Alpha  occ. eigenvalues --  -10.63745 -10.63449 -10.62472 -10.62376 -10.60526
 Alpha  occ. eigenvalues --  -10.57041 -10.54946  -6.91932  -5.03878  -5.03801
 Alpha  occ. eigenvalues --   -5.03641  -1.20116  -1.18127  -1.17161  -1.10522
 Alpha  occ. eigenvalues --   -1.09272  -1.08933  -1.07006  -1.04372  -0.93682
 Alpha  occ. eigenvalues --   -0.90153  -0.86556  -0.81806  -0.75462  -0.72820
 Alpha  occ. eigenvalues --   -0.71269  -0.66594  -0.65523  -0.61592  -0.60205
 Alpha  occ. eigenvalues --   -0.59784  -0.58475  -0.57676  -0.57344  -0.56327
 Alpha  occ. eigenvalues --   -0.55510  -0.53824  -0.53606  -0.52110  -0.51652
 Alpha  occ. eigenvalues --   -0.51123  -0.49238  -0.48861  -0.48284  -0.47383
 Alpha  occ. eigenvalues --   -0.45660  -0.44686  -0.43812  -0.42941  -0.42900
 Alpha  occ. eigenvalues --   -0.40613  -0.40026  -0.38657  -0.38151  -0.35292
 Alpha  occ. eigenvalues --   -0.33866  -0.32946  -0.32693  -0.32473  -0.31826
 Alpha virt. eigenvalues --   -0.03094  -0.00407   0.00194   0.00580   0.01543
 Alpha virt. eigenvalues --    0.01862   0.02310   0.02897   0.03323   0.03710
 Alpha virt. eigenvalues --    0.04757   0.05365   0.05482   0.05982   0.06632
 Alpha virt. eigenvalues --    0.07175   0.07836   0.08229   0.08705   0.08757
 Alpha virt. eigenvalues --    0.09463   0.09900   0.10008   0.10589   0.10778
 Alpha virt. eigenvalues --    0.11523   0.12183   0.12981   0.13583   0.13884
 Alpha virt. eigenvalues --    0.14212   0.14659   0.15292   0.15511   0.16293
 Alpha virt. eigenvalues --    0.16702   0.17031   0.17398   0.17586   0.17888
 Alpha virt. eigenvalues --    0.18094   0.18690   0.18969   0.19423   0.20169
 Alpha virt. eigenvalues --    0.20337   0.21118   0.21550   0.21951   0.22207
 Alpha virt. eigenvalues --    0.22678   0.23358   0.23828   0.24013   0.24523
 Alpha virt. eigenvalues --    0.24804   0.25285   0.25777   0.25994   0.26079
 Alpha virt. eigenvalues --    0.26958   0.27589   0.27845   0.28163   0.28450
 Alpha virt. eigenvalues --    0.28943   0.29343   0.29424   0.30456   0.30676
 Alpha virt. eigenvalues --    0.31046   0.31392   0.31797   0.32090   0.32954
 Alpha virt. eigenvalues --    0.33062   0.33637   0.34190   0.34710   0.35463
 Alpha virt. eigenvalues --    0.35637   0.35846   0.36257   0.36795   0.38096
 Alpha virt. eigenvalues --    0.38595   0.38684   0.39148   0.39882   0.40267
 Alpha virt. eigenvalues --    0.40798   0.41911   0.42497   0.42771   0.43184
 Alpha virt. eigenvalues --    0.43864   0.45049   0.45348   0.46026   0.46851
 Alpha virt. eigenvalues --    0.48075   0.48227   0.49357   0.50135   0.50649
 Alpha virt. eigenvalues --    0.51137   0.52058   0.53416   0.53666   0.54444
 Alpha virt. eigenvalues --    0.55325   0.56297   0.57036   0.58170   0.58820
 Alpha virt. eigenvalues --    0.59238   0.59577   0.60185   0.60715   0.61142
 Alpha virt. eigenvalues --    0.62334   0.62654   0.63705   0.64101   0.65254
 Alpha virt. eigenvalues --    0.65676   0.66765   0.67170   0.67687   0.68468
 Alpha virt. eigenvalues --    0.69125   0.69557   0.69886   0.70667   0.71267
 Alpha virt. eigenvalues --    0.72656   0.73113   0.73332   0.74471   0.74571
 Alpha virt. eigenvalues --    0.75640   0.76112   0.76651   0.77188   0.78599
 Alpha virt. eigenvalues --    0.79991   0.80551   0.80765   0.82355   0.83836
 Alpha virt. eigenvalues --    0.83990   0.85499   0.86942   0.87079   0.87694
 Alpha virt. eigenvalues --    0.88416   0.89982   0.90553   0.91366   0.91880
 Alpha virt. eigenvalues --    0.93269   0.94182   0.95334   0.95903   0.96308
 Alpha virt. eigenvalues --    0.97782   0.99488   1.00544   1.02267   1.05090
 Alpha virt. eigenvalues --    1.06328   1.07744   1.08014   1.10853   1.11179
 Alpha virt. eigenvalues --    1.12264   1.12866   1.13450   1.14162   1.15636
 Alpha virt. eigenvalues --    1.16496   1.16792   1.17849   1.18434   1.19740
 Alpha virt. eigenvalues --    1.21717   1.22350   1.22611   1.23402   1.23711
 Alpha virt. eigenvalues --    1.24809   1.25711   1.26104   1.26642   1.27317
 Alpha virt. eigenvalues --    1.28077   1.29312   1.29756   1.30107   1.30764
 Alpha virt. eigenvalues --    1.31220   1.32177   1.33246   1.33581   1.33769
 Alpha virt. eigenvalues --    1.34487   1.35493   1.35770   1.36619   1.37574
 Alpha virt. eigenvalues --    1.37983   1.38766   1.39190   1.41316   1.41845
 Alpha virt. eigenvalues --    1.42919   1.43341   1.43704   1.44049   1.45313
 Alpha virt. eigenvalues --    1.45901   1.46968   1.47424   1.47891   1.48888
 Alpha virt. eigenvalues --    1.50668   1.51741   1.52543   1.52725   1.54978
 Alpha virt. eigenvalues --    1.55849   1.57664   1.60130   1.60833   1.61132
 Alpha virt. eigenvalues --    1.63554   1.64427   1.65714   1.66782   1.68841
 Alpha virt. eigenvalues --    1.69326   1.70848   1.72645   1.74766   1.75356
 Alpha virt. eigenvalues --    1.75889   1.76704   1.77244   1.78252   1.79266
 Alpha virt. eigenvalues --    1.79826   1.80908   1.81902   1.82537   1.82665
 Alpha virt. eigenvalues --    1.83900   1.85020   1.88154   1.88685   1.91390
 Alpha virt. eigenvalues --    1.91937   1.92052   1.93050   1.94660   1.95178
 Alpha virt. eigenvalues --    1.97101   1.97685   1.99988   2.00776   2.02543
 Alpha virt. eigenvalues --    2.02984   2.05118   2.06354   2.08230   2.09171
 Alpha virt. eigenvalues --    2.10218   2.10861   2.11160   2.14625   2.18267
 Alpha virt. eigenvalues --    2.18690   2.20003   2.20675   2.20968   2.23466
 Alpha virt. eigenvalues --    2.23576   2.25683   2.26254   2.26988   2.28335
 Alpha virt. eigenvalues --    2.28961   2.31095   2.32310   2.32836   2.33762
 Alpha virt. eigenvalues --    2.34245   2.35129   2.35872   2.36206   2.38151
 Alpha virt. eigenvalues --    2.40563   2.42679   2.43671   2.44416   2.46748
 Alpha virt. eigenvalues --    2.48031   2.48663   2.52123   2.53460   2.58440
 Alpha virt. eigenvalues --    2.60519   2.61376   2.65335   2.67635   2.69076
 Alpha virt. eigenvalues --    2.70881   2.71843   2.74100   2.76265   2.77547
 Alpha virt. eigenvalues --    2.78423   2.80641   2.81956   2.83334   2.83584
 Alpha virt. eigenvalues --    2.85493   2.87694   2.89210   2.90219   2.91225
 Alpha virt. eigenvalues --    2.91948   2.92844   2.93654   2.96335   2.99367
 Alpha virt. eigenvalues --    3.02220   3.04058   3.06756   3.07673   3.09316
 Alpha virt. eigenvalues --    3.10456   3.12028   3.12991   3.15422   3.20606
 Alpha virt. eigenvalues --    3.20866   3.24063   3.26360   3.27229   3.30294
 Alpha virt. eigenvalues --    3.31207   3.32682   3.35065   3.35351   3.37823
 Alpha virt. eigenvalues --    3.39464   3.40464   3.41491   3.41816   3.45584
 Alpha virt. eigenvalues --    3.46242   3.47769   3.48810   3.49724   3.51605
 Alpha virt. eigenvalues --    3.52333   3.54495   3.55930   3.57635   3.57997
 Alpha virt. eigenvalues --    3.59753   3.60150   3.61562   3.62869   3.63655
 Alpha virt. eigenvalues --    3.65257   3.67611   3.68743   3.69644   3.70694
 Alpha virt. eigenvalues --    3.73263   3.75094   3.75399   3.80681   3.83949
 Alpha virt. eigenvalues --    3.86010   3.90322   3.91420   3.94387   3.95981
 Alpha virt. eigenvalues --    4.03450   4.03759   4.04355   4.05814   4.15493
 Alpha virt. eigenvalues --    4.16360   4.17640   4.19214   4.21065   4.25626
 Alpha virt. eigenvalues --    4.39731   4.42747   4.50370   4.53225   4.97096
 Alpha virt. eigenvalues --    5.00599   5.02614   5.05392   5.05635   5.10218
 Alpha virt. eigenvalues --    5.12869   5.13384   5.15037   5.17512   5.18634
 Alpha virt. eigenvalues --    5.22837   5.23849   5.25673   5.29018   5.32911
 Alpha virt. eigenvalues --    5.33864   5.35594   5.38554   5.44150   5.45742
 Alpha virt. eigenvalues --    5.46589   5.47508   5.50723   5.56731   5.58605
 Alpha virt. eigenvalues --    5.61545   5.66931   5.69405   5.84364   5.96793
 Alpha virt. eigenvalues --    6.23712   6.79037   6.80612   6.82440   6.83389
 Alpha virt. eigenvalues --    6.84330   6.86272   6.87276   6.90375   6.92490
 Alpha virt. eigenvalues --    6.93952   6.98119   6.98692   7.02559   7.03815
 Alpha virt. eigenvalues --    7.06184   7.07011   7.08406   7.09665   7.11101
 Alpha virt. eigenvalues --    7.14135   7.23300   7.24489   7.31453   7.33859
 Alpha virt. eigenvalues --    7.34705   7.35683   7.41175   7.42148   7.45417
 Alpha virt. eigenvalues --    7.49619   7.74437  14.32231  14.35571  14.42517
 Alpha virt. eigenvalues --   23.90911  23.96744  24.01055  24.04514  24.06197
 Alpha virt. eigenvalues --   24.10039  24.16463  24.25039  35.58969  35.68243
 Alpha virt. eigenvalues --   50.07371  50.12276  50.13022  50.17955  50.18613
 Alpha virt. eigenvalues --   50.21726 163.99658
          Condensed to atoms (all electrons):
               1          2          3          4          5          6
     1  C    7.389980  -1.316922  -0.097925   0.108578   0.400502  -0.022891
     2  C   -1.316922   6.952838  -0.320034   0.161846  -0.007538   0.402265
     3  C   -0.097925  -0.320034   6.467675   0.140508   0.006673   0.009637
     4  N    0.108578   0.161846   0.140508   6.363218  -0.042514   0.014234
     5  H    0.400502  -0.007538   0.006673  -0.042514   0.445102  -0.001378
     6  H   -0.022891   0.402265   0.009637   0.014234  -0.001378   0.473971
     7  H    0.005600   0.009129   0.388314  -0.022310   0.000017  -0.000058
     8  C   -0.094070  -0.000735  -0.175803   0.184414  -0.005498  -0.000124
     9  H   -0.014115  -0.002191   0.021713  -0.026351  -0.000093   0.000013
    10  H   -0.004278   0.020456   0.001063  -0.056657   0.002597  -0.000024
    11  H   -0.002034   0.006999  -0.025386  -0.044970   0.000547   0.000008
    12  N   -0.061042   0.320695   0.182889  -0.134134   0.012061  -0.047077
    13  C   -0.198927   0.046423  -0.232477  -0.018746   0.001847   0.008642
    14  H    0.010760  -0.018240  -0.004543  -0.003809  -0.000040   0.000355
    15  H   -0.006743  -0.000410   0.020521   0.002786   0.000014  -0.000141
    16  C    0.121695  -0.173903   0.158446  -0.037530  -0.000488  -0.003233
    17  H    0.001220   0.000610  -0.002768  -0.000374  -0.000000  -0.000034
    18  H   -0.010306   0.003483   0.011397   0.001010   0.000014  -0.000565
    19  C   -0.057957   0.101553  -0.041885   0.007678   0.000546  -0.001902
    20  H   -0.000322   0.001104   0.009551  -0.000504   0.000000  -0.000005
    21  H   -0.002364   0.001832  -0.003881   0.000343   0.000000  -0.000019
    22  C    0.165087  -0.165957  -0.246334   0.024382  -0.001156   0.002513
    23  O   -0.058407   0.046801   0.022063   0.043501   0.000267  -0.000089
    24  O    0.007517  -0.005203  -0.007900  -0.018881   0.000139  -0.000283
    25  P   -0.029063   0.020759  -0.009530   0.006441   0.000121  -0.000401
    26  O    0.012752  -0.008226   0.026013  -0.004051  -0.012878  -0.000014
    27  O   -0.029873   0.027300  -0.004504   0.004294   0.000031   0.000007
    28  H    0.006957  -0.013033   0.002722  -0.002339   0.000029   0.000026
    29  O    0.000576  -0.000051  -0.002698  -0.001706   0.000107  -0.000004
    30  H   -0.001150   0.000716  -0.000653  -0.000112  -0.000004   0.000000
    31  O   -0.014142   0.023104  -0.043193   0.028591  -0.000483  -0.000000
    32  H    0.019428  -0.019972   0.014792  -0.002331  -0.000084   0.000019
               7          8          9         10         11         12
     1  C    0.005600  -0.094070  -0.014115  -0.004278  -0.002034  -0.061042
     2  C    0.009129  -0.000735  -0.002191   0.020456   0.006999   0.320695
     3  C    0.388314  -0.175803   0.021713   0.001063  -0.025386   0.182889
     4  N   -0.022310   0.184414  -0.026351  -0.056657  -0.044970  -0.134134
     5  H    0.000017  -0.005498  -0.000093   0.002597   0.000547   0.012061
     6  H   -0.000058  -0.000124   0.000013  -0.000024   0.000008  -0.047077
     7  H    0.428654   0.007716   0.000287   0.000036   0.001040  -0.030986
     8  C    0.007716   5.467311   0.401203   0.405169   0.415464  -0.048385
     9  H    0.000287   0.401203   0.435754  -0.016899  -0.028539   0.005059
    10  H    0.000036   0.405169  -0.016899   0.436459  -0.015878   0.000103
    11  H    0.001040   0.415464  -0.028539  -0.015878   0.506794  -0.003697
    12  N   -0.030986  -0.048385   0.005059   0.000103  -0.003697   6.470337
    13  C   -0.011390  -0.020411  -0.000180   0.001100  -0.000289   0.136217
    14  H    0.000273  -0.000558   0.000003  -0.000001  -0.000005  -0.057689
    15  H    0.000653   0.001202   0.000012   0.000001  -0.000009  -0.050132
    16  C    0.009192   0.003706   0.000391   0.000038  -0.000115  -0.014658
    17  H   -0.000060   0.000072  -0.000000  -0.000000  -0.000000  -0.000254
    18  H   -0.000035  -0.000100   0.000001   0.000000   0.000000   0.013108
    19  C   -0.004553  -0.013225  -0.000086  -0.000120  -0.000130   0.003973
    20  H   -0.000135  -0.000102  -0.000000   0.000000  -0.000000   0.000688
    21  H    0.000015  -0.000470   0.000007   0.000001  -0.000000   0.004999
    22  C    0.006188   0.001722  -0.000639  -0.000588   0.001145   0.025273
    23  O   -0.022672  -0.001523   0.000618   0.000224   0.000201  -0.011670
    24  O    0.000244   0.002341   0.000209   0.000006   0.000012   0.029341
    25  P    0.000602   0.014853  -0.002176   0.001851   0.002140   0.007646
    26  O    0.000026  -0.038704  -0.002256   0.007025   0.001843  -0.007867
    27  O   -0.000054   0.002112   0.000477   0.000097   0.000006  -0.002000
    28  H   -0.000005  -0.001259  -0.000093   0.000013  -0.000004   0.000853
    29  O    0.000012   0.001708  -0.000175   0.000306  -0.000008   0.000310
    30  H    0.000000   0.000397   0.000058   0.000052  -0.000000   0.000017
    31  O   -0.000177   0.006168  -0.007640  -0.003608   0.001237  -0.009504
    32  H    0.000162   0.007749   0.002783  -0.000387  -0.000247  -0.003143
              13         14         15         16         17         18
     1  C   -0.198927   0.010760  -0.006743   0.121695   0.001220  -0.010306
     2  C    0.046423  -0.018240  -0.000410  -0.173903   0.000610   0.003483
     3  C   -0.232477  -0.004543   0.020521   0.158446  -0.002768   0.011397
     4  N   -0.018746  -0.003809   0.002786  -0.037530  -0.000374   0.001010
     5  H    0.001847  -0.000040   0.000014  -0.000488  -0.000000   0.000014
     6  H    0.008642   0.000355  -0.000141  -0.003233  -0.000034  -0.000565
     7  H   -0.011390   0.000273   0.000653   0.009192  -0.000060  -0.000035
     8  C   -0.020411  -0.000558   0.001202   0.003706   0.000072  -0.000100
     9  H   -0.000180   0.000003   0.000012   0.000391  -0.000000   0.000001
    10  H    0.001100  -0.000001   0.000001   0.000038  -0.000000   0.000000
    11  H   -0.000289  -0.000005  -0.000009  -0.000115  -0.000000   0.000000
    12  N    0.136217  -0.057689  -0.050132  -0.014658  -0.000254   0.013108
    13  C    6.102572   0.472629   0.438998  -0.219007  -0.018180  -0.063205
    14  H    0.472629   0.491840  -0.020906  -0.061115  -0.003593  -0.004775
    15  H    0.438998  -0.020906   0.474398  -0.034122  -0.003725   0.003725
    16  C   -0.219007  -0.061115  -0.034122   5.973976   0.429136   0.479862
    17  H   -0.018180  -0.003593  -0.003725   0.429136   0.523199  -0.030414
    18  H   -0.063205  -0.004775   0.003725   0.479862  -0.030414   0.446072
    19  C   -0.004849   0.000200  -0.017103  -0.237644  -0.074645  -0.033031
    20  H    0.008510  -0.000163  -0.000072  -0.016298  -0.006853  -0.001157
    21  H    0.002776  -0.000082  -0.000919  -0.044348  -0.002848   0.003313
    22  C    0.009634   0.008000  -0.001150  -0.102475   0.025985  -0.020482
    23  O    0.014192  -0.000478  -0.001131  -0.009456  -0.001279   0.001934
    24  O    0.012607   0.000084  -0.000468  -0.019408  -0.000212  -0.007084
    25  P   -0.002636  -0.000020   0.000153   0.007473   0.000044   0.000284
    26  O    0.003079   0.000010  -0.000008  -0.004952  -0.000001   0.000014
    27  O   -0.001057  -0.000001  -0.000004  -0.003570  -0.000016   0.000129
    28  H    0.004141   0.000002   0.000002   0.003558   0.000021  -0.000122
    29  O   -0.000126  -0.000000   0.000000   0.000066   0.000000   0.000001
    30  H   -0.000008  -0.000000   0.000000   0.000002   0.000000   0.000000
    31  O   -0.001168  -0.000003  -0.000024  -0.005662  -0.000005   0.000019
    32  H   -0.003876   0.000006   0.000028   0.004685   0.000002  -0.000055
              19         20         21         22         23         24
     1  C   -0.057957  -0.000322  -0.002364   0.165087  -0.058407   0.007517
     2  C    0.101553   0.001104   0.001832  -0.165957   0.046801  -0.005203
     3  C   -0.041885   0.009551  -0.003881  -0.246334   0.022063  -0.007900
     4  N    0.007678  -0.000504   0.000343   0.024382   0.043501  -0.018881
     5  H    0.000546   0.000000   0.000000  -0.001156   0.000267   0.000139
     6  H   -0.001902  -0.000005  -0.000019   0.002513  -0.000089  -0.000283
     7  H   -0.004553  -0.000135   0.000015   0.006188  -0.022672   0.000244
     8  C   -0.013225  -0.000102  -0.000470   0.001722  -0.001523   0.002341
     9  H   -0.000086  -0.000000   0.000007  -0.000639   0.000618   0.000209
    10  H   -0.000120   0.000000   0.000001  -0.000588   0.000224   0.000006
    11  H   -0.000130  -0.000000  -0.000000   0.001145   0.000201   0.000012
    12  N    0.003973   0.000688   0.004999   0.025273  -0.011670   0.029341
    13  C   -0.004849   0.008510   0.002776   0.009634   0.014192   0.012607
    14  H    0.000200  -0.000163  -0.000082   0.008000  -0.000478   0.000084
    15  H   -0.017103  -0.000072  -0.000919  -0.001150  -0.001131  -0.000468
    16  C   -0.237644  -0.016298  -0.044348  -0.102475  -0.009456  -0.019408
    17  H   -0.074645  -0.006853  -0.002848   0.025985  -0.001279  -0.000212
    18  H   -0.033031  -0.001157   0.003313  -0.020482   0.001934  -0.007084
    19  C    6.624756   0.438544   0.482208  -0.472834  -0.087532  -0.145372
    20  H    0.438544   0.500197  -0.029535  -0.101961   0.010351  -0.001403
    21  H    0.482208  -0.029535   0.498576  -0.084450  -0.010783   0.004970
    22  C   -0.472834  -0.101961  -0.084450   5.716932   0.259549   0.501526
    23  O   -0.087532   0.010351  -0.010783   0.259549   8.451999  -0.061977
    24  O   -0.145372  -0.001403   0.004970   0.501526  -0.061977   8.133594
    25  P   -0.027615   0.000226   0.000295  -0.027966   0.057017   0.036497
    26  O    0.003842  -0.000000   0.000009   0.012653  -0.019032  -0.011640
    27  O    0.019084   0.000032  -0.000042  -0.010726  -0.024086  -0.027179
    28  H    0.008401  -0.000237   0.000187   0.001962   0.014127   0.078900
    29  O   -0.002075   0.000001  -0.000000  -0.008394   0.006040   0.004532
    30  H   -0.000409  -0.000000   0.000000  -0.001864   0.000604   0.000591
    31  O   -0.006013  -0.000001   0.000231  -0.010549   0.002071  -0.011522
    32  H    0.012190  -0.000019  -0.000570   0.010974   0.043938   0.003205
              25         26         27         28         29         30
     1  C   -0.029063   0.012752  -0.029873   0.006957   0.000576  -0.001150
     2  C    0.020759  -0.008226   0.027300  -0.013033  -0.000051   0.000716
     3  C   -0.009530   0.026013  -0.004504   0.002722  -0.002698  -0.000653
     4  N    0.006441  -0.004051   0.004294  -0.002339  -0.001706  -0.000112
     5  H    0.000121  -0.012878   0.000031   0.000029   0.000107  -0.000004
     6  H   -0.000401  -0.000014   0.000007   0.000026  -0.000004   0.000000
     7  H    0.000602   0.000026  -0.000054  -0.000005   0.000012   0.000000
     8  C    0.014853  -0.038704   0.002112  -0.001259   0.001708   0.000397
     9  H   -0.002176  -0.002256   0.000477  -0.000093  -0.000175   0.000058
    10  H    0.001851   0.007025   0.000097   0.000013   0.000306   0.000052
    11  H    0.002140   0.001843   0.000006  -0.000004  -0.000008  -0.000000
    12  N    0.007646  -0.007867  -0.002000   0.000853   0.000310   0.000017
    13  C   -0.002636   0.003079  -0.001057   0.004141  -0.000126  -0.000008
    14  H   -0.000020   0.000010  -0.000001   0.000002  -0.000000  -0.000000
    15  H    0.000153  -0.000008  -0.000004   0.000002   0.000000   0.000000
    16  C    0.007473  -0.004952  -0.003570   0.003558   0.000066   0.000002
    17  H    0.000044  -0.000001  -0.000016   0.000021   0.000000   0.000000
    18  H    0.000284   0.000014   0.000129  -0.000122   0.000001   0.000000
    19  C   -0.027615   0.003842   0.019084   0.008401  -0.002075  -0.000409
    20  H    0.000226  -0.000000   0.000032  -0.000237   0.000001  -0.000000
    21  H    0.000295   0.000009  -0.000042   0.000187  -0.000000   0.000000
    22  C   -0.027966   0.012653  -0.010726   0.001962  -0.008394  -0.001864
    23  O    0.057017  -0.019032  -0.024086   0.014127   0.006040   0.000604
    24  O    0.036497  -0.011640  -0.027179   0.078900   0.004532   0.000591
    25  P   12.455477   0.481409   0.276963   0.020035   0.192431   0.009235
    26  O    0.481409   8.322041  -0.023507   0.008080  -0.024654  -0.008375
    27  O    0.276963  -0.023507   8.216211   0.189680  -0.004183  -0.002914
    28  H    0.020035   0.008080   0.189680   0.236747  -0.002751  -0.001448
    29  O    0.192431  -0.024654  -0.004183  -0.002751   8.088334   0.236751
    30  H    0.009235  -0.008375  -0.002914  -0.001448   0.236751   0.470891
    31  O    0.298957  -0.041020  -0.001850  -0.009728   0.025116  -0.004769
    32  H   -0.005325  -0.003639   0.004706   0.002964  -0.009627  -0.000345
              31         32
     1  C   -0.014142   0.019428
     2  C    0.023104  -0.019972
     3  C   -0.043193   0.014792
     4  N    0.028591  -0.002331
     5  H   -0.000483  -0.000084
     6  H   -0.000000   0.000019
     7  H   -0.000177   0.000162
     8  C    0.006168   0.007749
     9  H   -0.007640   0.002783
    10  H   -0.003608  -0.000387
    11  H    0.001237  -0.000247
    12  N   -0.009504  -0.003143
    13  C   -0.001168  -0.003876
    14  H   -0.000003   0.000006
    15  H   -0.000024   0.000028
    16  C   -0.005662   0.004685
    17  H   -0.000005   0.000002
    18  H    0.000019  -0.000055
    19  C   -0.006013   0.012190
    20  H   -0.000001  -0.000019
    21  H    0.000231  -0.000570
    22  C   -0.010549   0.010974
    23  O    0.002071   0.043938
    24  O   -0.011522   0.003205
    25  P    0.298957  -0.005325
    26  O   -0.041020  -0.003639
    27  O   -0.001850   0.004706
    28  H   -0.009728   0.002964
    29  O    0.025116  -0.009627
    30  H   -0.004769  -0.000345
    31  O    8.292621   0.186994
    32  H    0.186994   0.264671
 Mulliken charges:
               1
     1  C   -0.228119
     2  C   -0.095495
     3  C   -0.264460
     4  N    0.325494
     5  H    0.201540
     6  H    0.166555
     7  H    0.234276
     8  C   -0.522341
     9  H    0.232843
    10  H    0.221843
    11  H    0.183876
    12  N    0.268668
    13  C   -0.466835
    14  H    0.191860
    15  H    0.194574
    16  C   -0.204243
    17  H    0.164975
    18  H    0.206962
    19  C   -0.473994
    20  H    0.189564
    21  H    0.180550
    22  C    0.484000
    23  O   -0.665386
    24  O   -0.497782
    25  P    1.213824
    26  O   -0.667971
    27  O   -0.605566
    28  H    0.451610
    29  O   -0.499839
    30  H    0.302737
    31  O   -0.694046
    32  H    0.470327
 Sum of Mulliken charges =  -0.00000
 Mulliken charges with hydrogens summed into heavy atoms:
               1
     1  C   -0.026579
     2  C    0.071060
     3  C   -0.030184
     4  N    0.325494
     8  C    0.116220
    12  N    0.268668
    13  C   -0.080401
    16  C    0.167693
    19  C   -0.103880
    22  C    0.484000
    23  O   -0.665386
    24  O   -0.497782
    25  P    1.213824
    26  O   -0.667971
    27  O   -0.153956
    29  O   -0.197101
    31  O   -0.223719
         Mulliken charges condensed to fragments:
      1      0.028924
      2     -0.028924
 Electronic spatial extent (au):  <R**2>=         143219.4330
 Charge=              0.0000 electrons
 Dipole moment (field-independent basis, Debye):
    X=             -5.6552    Y=              3.4056    Z=              8.1870  Tot=             10.5170
 Quadrupole moment (field-independent basis, Debye-Ang):
   XX=           -210.7626   YY=            -36.1354   ZZ=             40.8528
   XY=            -20.2923   XZ=             22.5096   YZ=            109.1798
 Traceless Quadrupole moment (field-independent basis, Debye-Ang):
   XX=           -142.0808   YY=             32.5463   ZZ=            109.5345
   XY=            -20.2923   XZ=             22.5096   YZ=            109.1798
 Octapole moment (field-independent basis, Debye-Ang**2):
  XXX=          -4640.4791  YYY=          -1992.1705  ZZZ=           -828.4166  XYY=           -893.4132
  XXY=          -1718.9695  XXZ=          -1274.8477  XZZ=           -210.9899  YZZ=            632.9504
  YYZ=            436.5295  XYZ=            531.2506
 Hexadecapole moment (field-independent basis, Debye-Ang**3):
 XXXX=         -83113.1166 YYYY=         -45733.7586 ZZZZ=         -28491.8687 XXXY=         -42113.3901
 XXXZ=         -36541.9230 YYYX=         -25131.6673 YYYZ=         -10226.2451 ZZZX=         -14283.5745
 ZZZY=          -6123.3047 XXYY=         -24414.1222 XXZZ=         -17289.7071 YYZZ=           -340.8402
 XXYZ=          -9238.6054 YYXZ=           -819.4297 ZZXY=            572.4298
 N-N= 1.556201784710D+03 E-N=-5.975340500983D+03  KE= 1.211758877012D+03
 No NMR shielding tensors so no spin-rotation constants.
 Leave Link  601 at Mon Feb 20 09:07:10 2023, MaxMem=  6710886400 cpu:               3.8 elap:               0.2
 (Enter /data0/home/software/g16/l122.exe)
 CPIOFr:  IOpCl= 0 IRwI=-1 IRwCP=  731 ICalc= -1 LCPTot=      476096 Len1MO=     1252357 IndFrg=      476096
 CPIOFr:  IOpCl= 0 IRwI=-1 IRwCP=  731 ICalc=  0 LCPTot=      476096 Len1MO=     1252357 IndFrg=     1728453
 Counterpoise: doing calculation for fragment   1 using the basis set of the full-system, NewBq=T
 Leave Link  122 at Mon Feb 20 09:07:10 2023, MaxMem=  6710886400 cpu:               0.5 elap:               0.0
 (Enter /data0/home/software/g16/l301.exe)
 Basis read from rwf:  (5D, 7F)
 No pseudopotential information found on rwf file.
   557 basis functions,   848 primitive gaussians,   591 cartesian basis functions
    45 alpha electrons       45 beta electrons
       nuclear repulsion energy       737.1843434447 Hartrees.
 IExCor= 4336 DFT=T Ex+Corr=M062X ExCW=0 ScaHFX=  0.540000
 ScaDFX=  1.000000  1.000000  1.000000  1.000000 ScalE2=  1.000000  1.000000
 IRadAn=      5 IRanWt=     -1 IRanGd=            0 ICorTp=0 IEmpDi=131
 NAtoms=   32 NActive=   32 NUniq=   32 SFac= 1.00D+00 NAtFMM=   60 NAOKFM=F Big=F
 Integral buffers will be    131072 words long.
 Raffenetti 2 integral format.
 Two-electron integral symmetry is turned off.
 R6Disp:  Grimme-D3 Dispersion energy=       -0.0010052604 Hartrees.
 Nuclear repulsion after empirical dispersion term =      737.1833381843 Hartrees.
 No density basis found on file   718.
 Leave Link  301 at Mon Feb 20 09:07:10 2023, MaxMem=  6710886400 cpu:               1.3 elap:               0.1
 (Enter /data0/home/software/g16/l302.exe)
 NPDir=0 NMtPBC=     1 NCelOv=     1 NCel=       1 NClECP=     1 NCelD=      1
         NCelK=      1 NCelE2=     1 NClLst=     1 CellRange=     0.0.
 One-electron integrals computed using PRISM.
 NBasis=   557 RedAO= T EigKep=  1.01D-05  NBF=   557
 NBsUse=   557 1.00D-06 EigRej= -1.00D+00 NBFU=   557
 Precomputing XC quadrature grid using
 IXCGrd= 4 IRadAn=           5 IRanWt=          -1 IRanGd=           0 AccXCQ= 0.00D+00.
 Generated NRdTot=       0 NPtTot=           0 NUsed=           0 NTot=          32
 NSgBfM=   590   590   590   590   590 MxSgAt=    32 MxSgA2=    32.
 Leave Link  302 at Mon Feb 20 09:07:10 2023, MaxMem=  6710886400 cpu:              13.9 elap:               0.6
 (Enter /data0/home/software/g16/l303.exe)
 DipDrv:  MaxL=1.
 Leave Link  303 at Mon Feb 20 09:07:11 2023, MaxMem=  6710886400 cpu:               1.4 elap:               0.1
 (Enter /data0/home/software/g16/l401.exe)
 ExpMin= 3.48D-02 ExpMax= 7.75D+04 ExpMxC= 2.65D+03 IAcc=3 IRadAn=         5 AccDes= 0.00D+00
 Harris functional with IExCor= 1009 and IRadAn=       5 diagonalized for initial guess.
 HarFok:  IExCor= 1009 AccDes= 0.00D+00 IRadAn=         5 IDoV= 1 UseB2=F ITyADJ=14
 ICtDFT=  3500011 ScaDFX=  1.000000  1.000000  1.000000  1.000000
 FoFCou: FMM=F IPFlag=           0 FMFlag=      100000 FMFlg1=           0
         NFxFlg=           0 DoJE=T BraDBF=F KetDBF=T FulRan=T
         wScrn=  0.000000 ICntrl=       500 IOpCl=  0 I1Cent=   200000004 NGrid=           0
         NMat0=    1 NMatS0=      1 NMatT0=    0 NMatD0=    1 NMtDS0=    0 NMtDT0=    0
 Symmetry not used in FoFCou.
 Harris En= -571.694181110253    
 JPrj=0 DoOrth=F DoCkMO=F.
 Leave Link  401 at Mon Feb 20 09:07:13 2023, MaxMem=  6710886400 cpu:              54.0 elap:               2.3
 (Enter /data0/home/software/g16/l502.exe)
 Two-electron integral symmetry not used.
 Closed shell SCF:
 Using DIIS extrapolation, IDIIS=  1040.
 NGot=  6710886400 LenX=  6710169535 LenY=  6709819663
 Requested convergence on RMS density matrix=1.00D-08 within 128 cycles.
 Requested convergence on MAX density matrix=1.00D-06.
 Requested convergence on             energy=1.00D-06.
 No special actions if energy rises.
 Fock matrices will be formed incrementally for  20 cycles.

 Cycle   1  Pass 1  IDiag  1:
 FoFJK:  IHMeth= 1 ICntrl=       0 DoSepK=F KAlg= 0 I1Cent=           0 FoldK=F
 IRaf= 860000000 NMat=       1 IRICut=       1 DoRegI=T DoRafI=F ISym2E= 0 IDoP0=0 IntGTp=1.
 FoFCou: FMM=F IPFlag=           0 FMFlag=      100000 FMFlg1=           0
         NFxFlg=           0 DoJE=F BraDBF=F KetDBF=F FulRan=T
         wScrn=  0.000000 ICntrl=         0 IOpCl=  0 I1Cent=           0 NGrid=           0
         NMat0=    1 NMatS0=      1 NMatT0=    0 NMatD0=    1 NMtDS0=    0 NMtDT0=    0
 Symmetry not used in FoFCou.
 E= -571.583475162292    
 DIIS: error= 1.74D-02 at cycle   1 NSaved=   1.
 NSaved= 1 IEnMin= 1 EnMin= -571.583475162292     IErMin= 1 ErrMin= 1.74D-02
 ErrMax= 1.74D-02  0.00D+00 EMaxC= 1.00D-01 BMatC= 4.67D-01 BMatP= 4.67D-01
 IDIUse=3 WtCom= 8.26D-01 WtEn= 1.74D-01
 Coeff-Com:  0.100D+01
 Coeff-En:   0.100D+01
 Coeff:      0.100D+01
 Gap=     0.343 Goal=   None    Shift=    0.000
 GapD=    0.343 DampG=1.000 DampE=0.500 DampFc=0.5000 IDamp=-1.
 Damping current iteration by 5.00D-01
 RMSDP=1.27D-02 MaxDP=1.49D+00              OVMax= 3.82D-01

 Cycle   2  Pass 1  IDiag  1:
 RMSU=  6.32D-03    CP:  1.09D+00
 E= -571.693782555819     Delta-E=       -0.110307393527 Rises=F Damp=T
 DIIS: error= 4.73D-03 at cycle   2 NSaved=   2.
 NSaved= 2 IEnMin= 2 EnMin= -571.693782555819     IErMin= 2 ErrMin= 4.73D-03
 ErrMax= 4.73D-03  0.00D+00 EMaxC= 1.00D-01 BMatC= 5.14D-02 BMatP= 4.67D-01
 IDIUse=3 WtCom= 9.53D-01 WtEn= 4.73D-02
 Coeff-Com:  0.643D-01 0.936D+00
 Coeff-En:   0.241D+00 0.759D+00
 Coeff:      0.727D-01 0.927D+00
 Gap=     0.226 Goal=   None    Shift=    0.000
 RMSDP=6.41D-03 MaxDP=7.61D-01 DE=-1.10D-01 OVMax= 3.44D-01

 Cycle   3  Pass 1  IDiag  1:
 RMSU=  2.35D-03    CP:  8.34D-01  1.21D-01
 E= -571.895468844846     Delta-E=       -0.201686289027 Rises=F Damp=F
 DIIS: error= 6.50D-03 at cycle   3 NSaved=   3.
 NSaved= 3 IEnMin= 3 EnMin= -571.895468844846     IErMin= 2 ErrMin= 4.73D-03
 ErrMax= 6.50D-03  0.00D+00 EMaxC= 1.00D-01 BMatC= 3.44D-02 BMatP= 5.14D-02
 IDIUse=3 WtCom= 9.35D-01 WtEn= 6.50D-02
 Coeff-Com: -0.820D-01 0.453D+00 0.629D+00
 Coeff-En:   0.000D+00 0.000D+00 0.100D+01
 Coeff:     -0.767D-01 0.423D+00 0.653D+00
 Gap=     0.229 Goal=   None    Shift=    0.000
 RMSDP=6.04D-04 MaxDP=6.03D-02 DE=-2.02D-01 OVMax= 3.52D-02

 Cycle   4  Pass 1  IDiag  1:
 RMSU=  5.75D-04    CP:  8.29D-01  1.44D-01  1.05D+00
 E= -571.921280186676     Delta-E=       -0.025811341830 Rises=F Damp=F
 DIIS: error= 1.24D-03 at cycle   4 NSaved=   4.
 NSaved= 4 IEnMin= 4 EnMin= -571.921280186676     IErMin= 4 ErrMin= 1.24D-03
 ErrMax= 1.24D-03  0.00D+00 EMaxC= 1.00D-01 BMatC= 2.38D-03 BMatP= 3.44D-02
 IDIUse=3 WtCom= 9.88D-01 WtEn= 1.24D-02
 Coeff-Com: -0.495D-01 0.119D+00 0.251D+00 0.679D+00
 Coeff-En:   0.000D+00 0.000D+00 0.000D+00 0.100D+01
 Coeff:     -0.488D-01 0.117D+00 0.248D+00 0.683D+00
 Gap=     0.214 Goal=   None    Shift=    0.000
 RMSDP=2.23D-04 MaxDP=1.70D-02 DE=-2.58D-02 OVMax= 1.24D-02

 Cycle   5  Pass 1  IDiag  1:
 RMSU=  2.15D-04    CP:  8.31D-01  1.43D-01  1.06D+00  1.08D+00
 E= -571.923602967642     Delta-E=       -0.002322780966 Rises=F Damp=F
 DIIS: error= 4.28D-04 at cycle   5 NSaved=   5.
 NSaved= 5 IEnMin= 5 EnMin= -571.923602967642     IErMin= 5 ErrMin= 4.28D-04
 ErrMax= 4.28D-04  0.00D+00 EMaxC= 1.00D-01 BMatC= 2.63D-04 BMatP= 2.38D-03
 IDIUse=3 WtCom= 9.96D-01 WtEn= 4.28D-03
 Coeff-Com: -0.169D-01 0.269D-01 0.417D-01 0.260D+00 0.688D+00
 Coeff-En:   0.000D+00 0.000D+00 0.000D+00 0.000D+00 0.100D+01
 Coeff:     -0.168D-01 0.268D-01 0.416D-01 0.259D+00 0.689D+00
 Gap=     0.216 Goal=   None    Shift=    0.000
 RMSDP=9.14D-05 MaxDP=8.91D-03 DE=-2.32D-03 OVMax= 6.84D-03

 Cycle   6  Pass 1  IDiag  1:
 RMSU=  6.98D-05    CP:  8.32D-01  1.37D-01  1.06D+00  1.16D+00  1.07D+00
 E= -571.923855925258     Delta-E=       -0.000252957616 Rises=F Damp=F
 DIIS: error= 1.37D-04 at cycle   6 NSaved=   6.
 NSaved= 6 IEnMin= 6 EnMin= -571.923855925258     IErMin= 6 ErrMin= 1.37D-04
 ErrMax= 1.37D-04  0.00D+00 EMaxC= 1.00D-01 BMatC= 2.62D-05 BMatP= 2.63D-04
 IDIUse=3 WtCom= 9.99D-01 WtEn= 1.37D-03
 Coeff-Com:  0.148D-02-0.648D-02-0.243D-01-0.101D-01 0.234D+00 0.805D+00
 Coeff-En:   0.000D+00 0.000D+00 0.000D+00 0.000D+00 0.000D+00 0.100D+01
 Coeff:      0.148D-02-0.647D-02-0.243D-01-0.101D-01 0.234D+00 0.805D+00
 Gap=     0.215 Goal=   None    Shift=    0.000
 RMSDP=4.17D-05 MaxDP=4.41D-03 DE=-2.53D-04 OVMax= 4.43D-03

 Cycle   7  Pass 1  IDiag  1:
 RMSU=  1.93D-05    CP:  8.32D-01  1.35D-01  1.06D+00  1.20D+00  1.18D+00
                    CP:  1.22D+00
 E= -571.923889951563     Delta-E=       -0.000034026304 Rises=F Damp=F
 DIIS: error= 7.64D-05 at cycle   7 NSaved=   7.
 NSaved= 7 IEnMin= 7 EnMin= -571.923889951563     IErMin= 7 ErrMin= 7.64D-05
 ErrMax= 7.64D-05  0.00D+00 EMaxC= 1.00D-01 BMatC= 8.96D-06 BMatP= 2.62D-05
 IDIUse=1 WtCom= 1.00D+00 WtEn= 0.00D+00
 Coeff-Com:  0.295D-02-0.687D-02-0.178D-01-0.369D-01 0.478D-01 0.458D+00
 Coeff-Com:  0.553D+00
 Coeff:      0.295D-02-0.687D-02-0.178D-01-0.369D-01 0.478D-01 0.458D+00
 Coeff:      0.553D+00
 Gap=     0.215 Goal=   None    Shift=    0.000
 RMSDP=1.48D-05 MaxDP=1.17D-03 DE=-3.40D-05 OVMax= 1.64D-03

 Cycle   8  Pass 1  IDiag  1:
 RMSU=  1.01D-05    CP:  8.32D-01  1.34D-01  1.06D+00  1.20D+00  1.19D+00
                    CP:  1.29D+00  1.10D+00
 E= -571.923898315932     Delta-E=       -0.000008364370 Rises=F Damp=F
 DIIS: error= 1.97D-05 at cycle   8 NSaved=   8.
 NSaved= 8 IEnMin= 8 EnMin= -571.923898315932     IErMin= 8 ErrMin= 1.97D-05
 ErrMax= 1.97D-05  0.00D+00 EMaxC= 1.00D-01 BMatC= 7.49D-07 BMatP= 8.96D-06
 IDIUse=1 WtCom= 1.00D+00 WtEn= 0.00D+00
 Coeff-Com:  0.851D-03-0.147D-02-0.200D-02-0.112D-01-0.155D-01 0.551D-01
 Coeff-Com:  0.234D+00 0.740D+00
 Coeff:      0.851D-03-0.147D-02-0.200D-02-0.112D-01-0.155D-01 0.551D-01
 Coeff:      0.234D+00 0.740D+00
 Gap=     0.216 Goal=   None    Shift=    0.000
 RMSDP=6.87D-06 MaxDP=8.35D-04 DE=-8.36D-06 OVMax= 8.30D-04

 Cycle   9  Pass 1  IDiag  1:
 RMSU=  3.55D-06    CP:  8.32D-01  1.33D-01  1.06D+00  1.19D+00  1.19D+00
                    CP:  1.31D+00  1.25D+00  1.18D+00
 E= -571.923899478184     Delta-E=       -0.000001162251 Rises=F Damp=F
 DIIS: error= 5.44D-06 at cycle   9 NSaved=   9.
 NSaved= 9 IEnMin= 9 EnMin= -571.923899478184     IErMin= 9 ErrMin= 5.44D-06
 ErrMax= 5.44D-06  0.00D+00 EMaxC= 1.00D-01 BMatC= 4.53D-08 BMatP= 7.49D-07
 IDIUse=1 WtCom= 1.00D+00 WtEn= 0.00D+00
 Coeff-Com: -0.666D-04 0.179D-03 0.928D-03 0.783D-03-0.724D-02-0.341D-01
 Coeff-Com: -0.300D-02 0.157D+00 0.885D+00
 Coeff:     -0.666D-04 0.179D-03 0.928D-03 0.783D-03-0.724D-02-0.341D-01
 Coeff:     -0.300D-02 0.157D+00 0.885D+00
 Gap=     0.216 Goal=   None    Shift=    0.000
 RMSDP=2.50D-06 MaxDP=2.70D-04 DE=-1.16D-06 OVMax= 3.73D-04

 Cycle  10  Pass 1  IDiag  1:
 RMSU=  1.08D-06    CP:  8.32D-01  1.33D-01  1.06D+00  1.19D+00  1.18D+00
                    CP:  1.32D+00  1.30D+00  1.30D+00  1.27D+00
 E= -571.923899607719     Delta-E=       -0.000000129535 Rises=F Damp=F
 DIIS: error= 3.48D-06 at cycle  10 NSaved=  10.
 NSaved=10 IEnMin=10 EnMin= -571.923899607719     IErMin=10 ErrMin= 3.48D-06
 ErrMax= 3.48D-06  0.00D+00 EMaxC= 1.00D-01 BMatC= 1.82D-08 BMatP= 4.53D-08
 IDIUse=1 WtCom= 1.00D+00 WtEn= 0.00D+00
 Coeff-Com: -0.153D-03 0.289D-03 0.619D-03 0.171D-02-0.174D-02-0.251D-01
 Coeff-Com: -0.301D-01-0.159D-01 0.422D+00 0.649D+00
 Coeff:     -0.153D-03 0.289D-03 0.619D-03 0.171D-02-0.174D-02-0.251D-01
 Coeff:     -0.301D-01-0.159D-01 0.422D+00 0.649D+00
 Gap=     0.216 Goal=   None    Shift=    0.000
 RMSDP=7.89D-07 MaxDP=8.26D-05 DE=-1.30D-07 OVMax= 1.14D-04

 Cycle  11  Pass 1  IDiag  1:
 RMSU=  3.81D-07    CP:  8.31D-01  1.33D-01  1.06D+00  1.19D+00  1.18D+00
                    CP:  1.33D+00  1.32D+00  1.33D+00  1.39D+00  1.19D+00
 E= -571.923899630857     Delta-E=       -0.000000023138 Rises=F Damp=F
 DIIS: error= 1.37D-06 at cycle  11 NSaved=  11.
 NSaved=11 IEnMin=11 EnMin= -571.923899630857     IErMin=11 ErrMin= 1.37D-06
 ErrMax= 1.37D-06  0.00D+00 EMaxC= 1.00D-01 BMatC= 3.12D-09 BMatP= 1.82D-08
 IDIUse=1 WtCom= 1.00D+00 WtEn= 0.00D+00
 Coeff-Com: -0.617D-04 0.121D-03 0.105D-03 0.559D-03 0.134D-03-0.640D-02
 Coeff-Com: -0.117D-01-0.265D-01 0.576D-01 0.312D+00 0.674D+00
 Coeff:     -0.617D-04 0.121D-03 0.105D-03 0.559D-03 0.134D-03-0.640D-02
 Coeff:     -0.117D-01-0.265D-01 0.576D-01 0.312D+00 0.674D+00
 Gap=     0.216 Goal=   None    Shift=    0.000
 RMSDP=2.65D-07 MaxDP=1.51D-05 DE=-2.31D-08 OVMax= 3.69D-05

 Cycle  12  Pass 1  IDiag  1:
 RMSU=  1.67D-07    CP:  8.31D-01  1.33D-01  1.06D+00  1.19D+00  1.18D+00
                    CP:  1.33D+00  1.32D+00  1.34D+00  1.42D+00  1.30D+00
                    CP:  1.13D+00
 E= -571.923899634922     Delta-E=       -0.000000004065 Rises=F Damp=F
 DIIS: error= 4.74D-07 at cycle  12 NSaved=  12.
 NSaved=12 IEnMin=12 EnMin= -571.923899634922     IErMin=12 ErrMin= 4.74D-07
 ErrMax= 4.74D-07  0.00D+00 EMaxC= 1.00D-01 BMatC= 3.59D-10 BMatP= 3.12D-09
 IDIUse=1 WtCom= 1.00D+00 WtEn= 0.00D+00
 Coeff-Com:  0.680D-05-0.497D-05-0.774D-04-0.153D-03 0.198D-03 0.194D-02
 Coeff-Com:  0.124D-02-0.580D-02-0.557D-01-0.654D-02 0.250D+00 0.815D+00
 Coeff:      0.680D-05-0.497D-05-0.774D-04-0.153D-03 0.198D-03 0.194D-02
 Coeff:      0.124D-02-0.580D-02-0.557D-01-0.654D-02 0.250D+00 0.815D+00
 Gap=     0.216 Goal=   None    Shift=    0.000
 RMSDP=1.23D-07 MaxDP=1.21D-05 DE=-4.06D-09 OVMax= 1.72D-05

 Cycle  13  Pass 1  IDiag  1:
 RMSU=  6.40D-08    CP:  8.31D-01  1.33D-01  1.06D+00  1.19D+00  1.18D+00
                    CP:  1.33D+00  1.32D+00  1.34D+00  1.43D+00  1.35D+00
                    CP:  1.24D+00  1.08D+00
 E= -571.923899635474     Delta-E=       -0.000000000552 Rises=F Damp=F
 DIIS: error= 2.70D-07 at cycle  13 NSaved=  13.
 NSaved=13 IEnMin=13 EnMin= -571.923899635474     IErMin=13 ErrMin= 2.70D-07
 ErrMax= 2.70D-07  0.00D+00 EMaxC= 1.00D-01 BMatC= 7.41D-11 BMatP= 3.59D-10
 IDIUse=1 WtCom= 1.00D+00 WtEn= 0.00D+00
 Coeff-Com:  0.883D-05-0.153D-04-0.319D-04-0.100D-03 0.939D-04 0.153D-02
 Coeff-Com:  0.167D-02 0.512D-03-0.284D-01-0.406D-01 0.148D-01 0.367D+00
 Coeff-Com:  0.683D+00
 Coeff:      0.883D-05-0.153D-04-0.319D-04-0.100D-03 0.939D-04 0.153D-02
 Coeff:      0.167D-02 0.512D-03-0.284D-01-0.406D-01 0.148D-01 0.367D+00
 Coeff:      0.683D+00
 Gap=     0.216 Goal=   None    Shift=    0.000
 RMSDP=3.49D-08 MaxDP=3.30D-06 DE=-5.52D-10 OVMax= 4.33D-06

 Cycle  14  Pass 1  IDiag  1:
 RMSU=  2.13D-08    CP:  8.31D-01  1.33D-01  1.06D+00  1.19D+00  1.18D+00
                    CP:  1.33D+00  1.32D+00  1.33D+00  1.43D+00  1.36D+00
                    CP:  1.24D+00  1.14D+00  1.22D+00
 E= -571.923899635637     Delta-E=       -0.000000000163 Rises=F Damp=F
 DIIS: error= 6.18D-08 at cycle  14 NSaved=  14.
 NSaved=14 IEnMin=14 EnMin= -571.923899635637     IErMin=14 ErrMin= 6.18D-08
 ErrMax= 6.18D-08  0.00D+00 EMaxC= 1.00D-01 BMatC= 7.64D-12 BMatP= 7.41D-11
 IDIUse=1 WtCom= 1.00D+00 WtEn= 0.00D+00
 Coeff-Com:  0.573D-06-0.108D-05 0.105D-04 0.113D-04 0.129D-04 0.131D-03
 Coeff-Com:  0.569D-04 0.399D-03 0.832D-03-0.922D-02-0.344D-01-0.810D-02
 Coeff-Com:  0.215D+00 0.835D+00
 Coeff:      0.573D-06-0.108D-05 0.105D-04 0.113D-04 0.129D-04 0.131D-03
 Coeff:      0.569D-04 0.399D-03 0.832D-03-0.922D-02-0.344D-01-0.810D-02
 Coeff:      0.215D+00 0.835D+00
 Gap=     0.216 Goal=   None    Shift=    0.000
 RMSDP=1.38D-08 MaxDP=1.01D-06 DE=-1.63D-10 OVMax= 2.07D-06

 Cycle  15  Pass 1  IDiag  1:
 RMSU=  8.67D-09    CP:  8.31D-01  1.33D-01  1.06D+00  1.19D+00  1.18D+00
                    CP:  1.33D+00  1.32D+00  1.33D+00  1.43D+00  1.36D+00
                    CP:  1.24D+00  1.16D+00  1.33D+00  1.12D+00
 E= -571.923899635621     Delta-E=        0.000000000016 Rises=F Damp=F
 DIIS: error= 2.19D-08 at cycle  15 NSaved=  15.
 NSaved=15 IEnMin=14 EnMin= -571.923899635637     IErMin=15 ErrMin= 2.19D-08
 ErrMax= 2.19D-08  0.00D+00 EMaxC= 1.00D-01 BMatC= 7.06D-13 BMatP= 7.64D-12
 IDIUse=1 WtCom= 1.00D+00 WtEn= 0.00D+00
 Coeff-Com: -0.669D-06 0.839D-06 0.527D-05 0.135D-04-0.737D-06-0.103D-03
 Coeff-Com: -0.160D-03 0.376D-04 0.303D-02 0.151D-02-0.122D-01-0.412D-01
 Coeff-Com: -0.127D-01 0.260D+00 0.802D+00
 Coeff:     -0.669D-06 0.839D-06 0.527D-05 0.135D-04-0.737D-06-0.103D-03
 Coeff:     -0.160D-03 0.376D-04 0.303D-02 0.151D-02-0.122D-01-0.412D-01
 Coeff:     -0.127D-01 0.260D+00 0.802D+00
 Gap=     0.216 Goal=   None    Shift=    0.000
 RMSDP=5.24D-09 MaxDP=3.75D-07 DE= 1.64D-11 OVMax= 7.89D-07

 SCF Done:  E(RM062X) =  -571.923899636     A.U. after   15 cycles
            NFock= 15  Conv=0.52D-08     -V/T= 2.0049
 KE= 5.691094916711D+02 PE=-2.808671100004D+03 EE= 9.304543705128D+02
 Leave Link  502 at Mon Feb 20 09:09:21 2023, MaxMem=  6710886400 cpu:            3071.9 elap:             128.4
 (Enter /data0/home/software/g16/l601.exe)
 Copying SCF densities to generalized density rwf, IOpCl= 0 IROHF=0.

 **********************************************************************

            Population analysis using the SCF density.

 **********************************************************************

 Alpha  occ. eigenvalues --  -19.49813 -19.49538 -14.87538 -14.87179 -10.68163
 Alpha  occ. eigenvalues --  -10.63189 -10.63083 -10.62420 -10.61965 -10.56182
 Alpha  occ. eigenvalues --  -10.54285 -10.50459  -1.20183  -1.09202  -1.08799
 Alpha  occ. eigenvalues --   -0.98849  -0.93014  -0.89577  -0.85882  -0.80175
 Alpha  occ. eigenvalues --   -0.75012  -0.72507  -0.69602  -0.65165  -0.60213
 Alpha  occ. eigenvalues --   -0.58668  -0.57423  -0.56924  -0.55180  -0.54519
 Alpha  occ. eigenvalues --   -0.53456  -0.50697  -0.49805  -0.48019  -0.47298
[...]
 One-electron integrals computed using PRISM.
 NBasis=   161 RedAO= T EigKep=  5.96D-04  NBF=   161
 NBsUse=   161 1.00D-06 EigRej= -1.00D+00 NBFU=   161
 Precomputing XC quadrature grid using
 IXCGrd= 4 IRadAn=           5 IRanWt=          -1 IRanGd=           0 AccXCQ= 0.00D+00.
 Generated NRdTot=       0 NPtTot=           0 NUsed=           0 NTot=          32
 NSgBfM=   171   171   171   171   171 MxSgAt=     8 MxSgA2=     8.
 Leave Link  302 at Mon Feb 20 09:11:57 2023, MaxMem=  6710886400 cpu:               2.9 elap:               0.1
 (Enter /data0/home/software/g16/l303.exe)
 DipDrv:  MaxL=1.
 Leave Link  303 at Mon Feb 20 09:11:57 2023, MaxMem=  6710886400 cpu:               0.5 elap:               0.0
 (Enter /data0/home/software/g16/l401.exe)
 ExpMin= 3.48D-02 ExpMax= 7.75D+04 ExpMxC= 2.65D+03 IAcc=3 IRadAn=         5 AccDes= 0.00D+00
 Harris functional with IExCor= 1009 and IRadAn=       5 diagonalized for initial guess.
 HarFok:  IExCor= 1009 AccDes= 0.00D+00 IRadAn=         5 IDoV= 1 UseB2=F ITyADJ=14
 ICtDFT=  3500011 ScaDFX=  1.000000  1.000000  1.000000  1.000000
 FoFCou: FMM=F IPFlag=           0 FMFlag=      100000 FMFlg1=           0
         NFxFlg=           0 DoJE=T BraDBF=F KetDBF=T FulRan=T
         wScrn=  0.000000 ICntrl=       500 IOpCl=  0 I1Cent=   200000004 NGrid=           0
         NMat0=    1 NMatS0=      1 NMatT0=    0 NMatD0=    1 NMtDS0=    0 NMtDT0=    0
 Symmetry not used in FoFCou.
 Harris En= -643.936055992554    
 JPrj=0 DoOrth=F DoCkMO=F.
 Leave Link  401 at Mon Feb 20 09:11:58 2023, MaxMem=  6710886400 cpu:               6.0 elap:               0.3
 (Enter /data0/home/software/g16/l502.exe)
 Keep R1 ints in memory in canonical form, NReq=108965948.
 FoFCou: FMM=F IPFlag=           0 FMFlag=           0 FMFlg1=           0
         NFxFlg=           0 DoJE=F BraDBF=F KetDBF=F FulRan=T
         wScrn=  0.000000 ICntrl=       600 IOpCl=  0 I1Cent=           0 NGrid=           0
         NMat0=    1 NMatS0=  13041 NMatT0=    0 NMatD0=    1 NMtDS0=    0 NMtDT0=    0
 Symmetry not used in FoFCou.
 Two-electron integral symmetry not used.
 Closed shell SCF:
 Using DIIS extrapolation, IDIIS=  1040.
 NGot=  6710886400 LenX=  6625781434 LenY=  6625751752
 Requested convergence on RMS density matrix=1.00D-08 within 128 cycles.
 Requested convergence on MAX density matrix=1.00D-06.
 Requested convergence on             energy=1.00D-06.
 No special actions if energy rises.

 Cycle   1  Pass 1  IDiag  1:
 E= -643.831606112952    
 DIIS: error= 5.12D-02 at cycle   1 NSaved=   1.
 NSaved= 1 IEnMin= 1 EnMin= -643.831606112952     IErMin= 1 ErrMin= 5.12D-02
 ErrMax= 5.12D-02  0.00D+00 EMaxC= 1.00D-01 BMatC= 5.15D-01 BMatP= 5.15D-01
 IDIUse=3 WtCom= 4.88D-01 WtEn= 5.12D-01
 Coeff-Com:  0.100D+01
 Coeff-En:   0.100D+01
 Coeff:      0.100D+01
 Gap=     0.211 Goal=   None    Shift=    0.000
 GapD=    0.211 DampG=1.000 DampE=0.500 DampFc=0.5000 IDamp=-1.
 Damping current iteration by 5.00D-01
 RMSDP=8.49D-03 MaxDP=2.40D-01              OVMax= 2.87D-01

 Cycle   2  Pass 1  IDiag  1:
 E= -643.947946201104     Delta-E=       -0.116340088152 Rises=F Damp=T
 DIIS: error= 1.08D-02 at cycle   2 NSaved=   2.
 NSaved= 2 IEnMin= 2 EnMin= -643.947946201104     IErMin= 2 ErrMin= 1.08D-02
 ErrMax= 1.08D-02  0.00D+00 EMaxC= 1.00D-01 BMatC= 2.92D-02 BMatP= 5.15D-01
 IDIUse=3 WtCom= 8.92D-01 WtEn= 1.08D-01
 Coeff-Com:  0.838D-01 0.916D+00
 Coeff-En:   0.224D+00 0.776D+00
 Coeff:      0.988D-01 0.901D+00
 Gap=     0.325 Goal=   None    Shift=    0.000
 RMSDP=2.11D-03 MaxDP=8.30D-02 DE=-1.16D-01 OVMax= 1.92D-01

 Cycle   3  Pass 1  IDiag  1:
 E= -644.123494139554     Delta-E=       -0.175547938449 Rises=F Damp=F
 DIIS: error= 7.73D-03 at cycle   3 NSaved=   3.
 NSaved= 3 IEnMin= 3 EnMin= -644.123494139554     IErMin= 3 ErrMin= 7.73D-03
 ErrMax= 7.73D-03  0.00D+00 EMaxC= 1.00D-01 BMatC= 1.13D-02 BMatP= 2.92D-02
 IDIUse=3 WtCom= 9.23D-01 WtEn= 7.73D-02
 Coeff-Com: -0.959D-02 0.345D+00 0.665D+00
 Coeff-En:   0.000D+00 0.000D+00 0.100D+01
 Coeff:     -0.884D-02 0.318D+00 0.691D+00
 Gap=     0.314 Goal=   None    Shift=    0.000
 RMSDP=7.10D-04 MaxDP=1.56D-02 DE=-1.76D-01 OVMax= 3.68D-02

 Cycle   4  Pass 1  IDiag  1:
 E= -644.128633676504     Delta-E=       -0.005139536951 Rises=F Damp=F
 DIIS: error= 4.60D-03 at cycle   4 NSaved=   4.
 NSaved= 4 IEnMin= 4 EnMin= -644.128633676504     IErMin= 4 ErrMin= 4.60D-03
 ErrMax= 4.60D-03  0.00D+00 EMaxC= 1.00D-01 BMatC= 4.22D-03 BMatP= 1.13D-02
 IDIUse=3 WtCom= 9.54D-01 WtEn= 4.60D-02
 Coeff-Com: -0.208D-01 0.467D-01 0.400D+00 0.574D+00
 Coeff-En:   0.000D+00 0.000D+00 0.272D+00 0.728D+00
 Coeff:     -0.199D-01 0.445D-01 0.394D+00 0.581D+00
 Gap=     0.321 Goal=   None    Shift=    0.000
 RMSDP=2.80D-04 MaxDP=6.43D-03 DE=-5.14D-03 OVMax= 1.18D-02

 Cycle   5  Pass 1  IDiag  1:
 E= -644.131428175900     Delta-E=       -0.002794499396 Rises=F Damp=F
 DIIS: error= 2.66D-04 at cycle   5 NSaved=   5.
 NSaved= 5 IEnMin= 5 EnMin= -644.131428175900     IErMin= 5 ErrMin= 2.66D-04
 ErrMax= 2.66D-04  0.00D+00 EMaxC= 1.00D-01 BMatC= 1.81D-05 BMatP= 4.22D-03
 IDIUse=3 WtCom= 9.97D-01 WtEn= 2.66D-03
 Coeff-Com: -0.221D-02-0.777D-03 0.539D-01 0.116D+00 0.833D+00
 Coeff-En:   0.000D+00 0.000D+00 0.000D+00 0.000D+00 0.100D+01
 Coeff:     -0.220D-02-0.775D-03 0.538D-01 0.116D+00 0.833D+00
 Gap=     0.320 Goal=   None    Shift=    0.000
 RMSDP=3.13D-05 MaxDP=6.78D-04 DE=-2.79D-03 OVMax= 8.40D-04

 Cycle   6  Pass 1  IDiag  1:
 E= -644.131440030080     Delta-E=       -0.000011854180 Rises=F Damp=F
 DIIS: error= 8.37D-05 at cycle   6 NSaved=   6.
 NSaved= 6 IEnMin= 6 EnMin= -644.131440030080     IErMin= 6 ErrMin= 8.37D-05
 ErrMax= 8.37D-05  0.00D+00 EMaxC= 1.00D-01 BMatC= 1.80D-06 BMatP= 1.81D-05
 IDIUse=1 WtCom= 1.00D+00 WtEn= 0.00D+00
 Coeff-Com:  0.869D-05-0.183D-02 0.257D-02 0.146D-01 0.261D+00 0.723D+00
 Coeff:      0.869D-05-0.183D-02 0.257D-02 0.146D-01 0.261D+00 0.723D+00
 Gap=     0.320 Goal=   None    Shift=    0.000
 RMSDP=1.16D-05 MaxDP=2.76D-04 DE=-1.19D-05 OVMax= 3.14D-04

 Cycle   7  Pass 1  IDiag  1:
 E= -644.131441181178     Delta-E=       -0.000001151097 Rises=F Damp=F
 DIIS: error= 5.20D-05 at cycle   7 NSaved=   7.
 NSaved= 7 IEnMin= 7 EnMin= -644.131441181178     IErMin= 7 ErrMin= 5.20D-05
 ErrMax= 5.20D-05  0.00D+00 EMaxC= 1.00D-01 BMatC= 4.58D-07 BMatP= 1.80D-06
 IDIUse=1 WtCom= 1.00D+00 WtEn= 0.00D+00
 Coeff-Com:  0.391D-03-0.642D-03-0.908D-02-0.150D-01-0.251D-01 0.337D+00
 Coeff-Com:  0.713D+00
 Coeff:      0.391D-03-0.642D-03-0.908D-02-0.150D-01-0.251D-01 0.337D+00
 Coeff:      0.713D+00
 Gap=     0.320 Goal=   None    Shift=    0.000
 RMSDP=4.96D-06 MaxDP=1.04D-04 DE=-1.15D-06 OVMax= 1.26D-04

 Cycle   8  Pass 1  IDiag  1:
 E= -644.131441501146     Delta-E=       -0.000000319968 Rises=F Damp=F
 DIIS: error= 1.02D-05 at cycle   8 NSaved=   8.
 NSaved= 8 IEnMin= 8 EnMin= -644.131441501146     IErMin= 8 ErrMin= 1.02D-05
 ErrMax= 1.02D-05  0.00D+00 EMaxC= 1.00D-01 BMatC= 2.67D-08 BMatP= 4.58D-07
 IDIUse=1 WtCom= 1.00D+00 WtEn= 0.00D+00
 Coeff-Com:  0.131D-03-0.151D-03-0.357D-02-0.583D-02-0.163D-01 0.927D-01
 Coeff-Com:  0.279D+00 0.654D+00
 Coeff:      0.131D-03-0.151D-03-0.357D-02-0.583D-02-0.163D-01 0.927D-01
 Coeff:      0.279D+00 0.654D+00
 Gap=     0.320 Goal=   None    Shift=    0.000
 RMSDP=8.69D-07 MaxDP=2.67D-05 DE=-3.20D-07 OVMax= 3.42D-05

 Cycle   9  Pass 1  IDiag  1:
 E= -644.131441522537     Delta-E=       -0.000000021391 Rises=F Damp=F
 DIIS: error= 2.06D-06 at cycle   9 NSaved=   9.
 NSaved= 9 IEnMin= 9 EnMin= -644.131441522537     IErMin= 9 ErrMin= 2.06D-06
 ErrMax= 2.06D-06  0.00D+00 EMaxC= 1.00D-01 BMatC= 1.13D-09 BMatP= 2.67D-08
 IDIUse=1 WtCom= 1.00D+00 WtEn= 0.00D+00
 Coeff-Com: -0.293D-04 0.581D-04 0.276D-03 0.620D-03-0.891D-03-0.208D-01
 Coeff-Com: -0.296D-01 0.955D-01 0.955D+00
 Coeff:     -0.293D-04 0.581D-04 0.276D-03 0.620D-03-0.891D-03-0.208D-01
 Coeff:     -0.296D-01 0.955D-01 0.955D+00
 Gap=     0.320 Goal=   None    Shift=    0.000
 RMSDP=4.10D-07 MaxDP=1.09D-05 DE=-2.14D-08 OVMax= 1.47D-05

 Cycle  10  Pass 1  IDiag  1:
 E= -644.131441523943     Delta-E=       -0.000000001407 Rises=F Damp=F
 DIIS: error= 3.50D-07 at cycle  10 NSaved=  10.
 NSaved=10 IEnMin=10 EnMin= -644.131441523943     IErMin=10 ErrMin= 3.50D-07
 ErrMax= 3.50D-07  0.00D+00 EMaxC= 1.00D-01 BMatC= 2.14D-11 BMatP= 1.13D-09
 IDIUse=1 WtCom= 1.00D+00 WtEn= 0.00D+00
 Coeff-Com: -0.244D-05 0.367D-05 0.104D-03 0.169D-03 0.542D-03-0.361D-02
 Coeff-Com: -0.114D-01-0.212D-01 0.519D-02 0.103D+01
 Coeff:     -0.244D-05 0.367D-05 0.104D-03 0.169D-03 0.542D-03-0.361D-02
 Coeff:     -0.114D-01-0.212D-01 0.519D-02 0.103D+01
 Gap=     0.320 Goal=   None    Shift=    0.000
 RMSDP=8.31D-08 MaxDP=1.48D-06 DE=-1.41D-09 OVMax= 4.02D-06

 Cycle  11  Pass 1  IDiag  1:
 E= -644.131441523979     Delta-E=       -0.000000000035 Rises=F Damp=F
 DIIS: error= 1.89D-07 at cycle  11 NSaved=  11.
 NSaved=11 IEnMin=11 EnMin= -644.131441523979     IErMin=11 ErrMin= 1.89D-07
 ErrMax= 1.89D-07  0.00D+00 EMaxC= 1.00D-01 BMatC= 7.83D-12 BMatP= 2.14D-11
 IDIUse=1 WtCom= 1.00D+00 WtEn= 0.00D+00
 Coeff-Com:  0.648D-06-0.164D-05 0.299D-04 0.394D-04 0.267D-03-0.513D-03
 Coeff-Com: -0.317D-02-0.129D-01-0.475D-01 0.440D+00 0.624D+00
 Coeff:      0.648D-06-0.164D-05 0.299D-04 0.394D-04 0.267D-03-0.513D-03
 Coeff:     -0.317D-02-0.129D-01-0.475D-01 0.440D+00 0.624D+00
 Gap=     0.320 Goal=   None    Shift=    0.000
 RMSDP=1.87D-08 MaxDP=4.56D-07 DE=-3.55D-11 OVMax= 6.73D-07

 Cycle  12  Pass 1  IDiag  1:
 E= -644.131441523997     Delta-E=       -0.000000000018 Rises=F Damp=F
 DIIS: error= 7.34D-08 at cycle  12 NSaved=  12.
 NSaved=12 IEnMin=12 EnMin= -644.131441523997     IErMin=12 ErrMin= 7.34D-08
 ErrMax= 7.34D-08  0.00D+00 EMaxC= 1.00D-01 BMatC= 1.17D-12 BMatP= 7.83D-12
 IDIUse=1 WtCom= 1.00D+00 WtEn= 0.00D+00
 Coeff-Com:  0.729D-06-0.140D-05-0.592D-05-0.129D-04 0.109D-04 0.441D-03
 Coeff-Com:  0.893D-03-0.114D-02-0.216D-01-0.856D-02 0.278D+00 0.752D+00
 Coeff:      0.729D-06-0.140D-05-0.592D-05-0.129D-04 0.109D-04 0.441D-03
 Coeff:      0.893D-03-0.114D-02-0.216D-01-0.856D-02 0.278D+00 0.752D+00
 Gap=     0.320 Goal=   None    Shift=    0.000
 RMSDP=8.70D-09 MaxDP=1.62D-07 DE=-1.80D-11 OVMax= 3.62D-07

 SCF Done:  E(RM062X) =  -644.131441524     A.U. after   12 cycles
            NFock= 12  Conv=0.87D-08     -V/T= 2.0026
 KE= 6.424897301844D+02 PE=-2.087503530741D+03 EE= 5.209356553208D+02
 Leave Link  502 at Mon Feb 20 09:12:04 2023, MaxMem=  6710886400 cpu:             110.3 elap:               6.0
 (Enter /data0/home/software/g16/l601.exe)
 Copying SCF densities to generalized density rwf, IOpCl= 0 IROHF=0.

 **********************************************************************

            Population analysis using the SCF density.

 **********************************************************************

 Alpha  occ. eigenvalues --  -78.16754 -19.69926 -19.69481 -19.67981 -19.57556
 Alpha  occ. eigenvalues --   -6.97555  -5.09471  -5.09468  -5.09196  -1.24762
 Alpha  occ. eigenvalues --   -1.17628  -1.16782  -1.07782  -0.72738  -0.66061
 Alpha  occ. eigenvalues --   -0.63663  -0.59155  -0.53803  -0.51794  -0.49783
 Alpha  occ. eigenvalues --   -0.46312  -0.45762  -0.44752  -0.37358  -0.36441
 Alpha virt. eigenvalues --   -0.04404   0.00829   0.02818   0.04666   0.07967
 Alpha virt. eigenvalues --    0.08498   0.10661   0.12620   0.15706   0.17173
 Alpha virt. eigenvalues --    0.17468   0.18731   0.19364   0.19816   0.21689
 Alpha virt. eigenvalues --    0.22332   0.24636   0.25766   0.25799   0.27256
 Alpha virt. eigenvalues --    0.28546   0.28868   0.30445   0.32250   0.32740
 Alpha virt. eigenvalues --    0.34035   0.36449   0.38045   0.39905   0.43298
 Alpha virt. eigenvalues --    0.43949   0.44743   0.52491   0.55512   0.57739
 Alpha virt. eigenvalues --    0.73379   0.76049   0.76426   0.85991   0.98097
 Alpha virt. eigenvalues --    0.99686   1.00312   1.04307   1.06152   1.11406
 Alpha virt. eigenvalues --    1.14076   1.15274   1.18683   1.18748   1.20462
 Alpha virt. eigenvalues --    1.22239   1.23372   1.26664   1.26929   1.32139
 Alpha virt. eigenvalues --    1.32891   1.42241   1.42893   1.49207   1.50678
 Alpha virt. eigenvalues --    1.52669   1.55009   1.58068   1.58849   1.63878
 Alpha virt. eigenvalues --    1.67041   1.68614   1.70482   1.72238   1.82407
 Alpha virt. eigenvalues --    1.82825   1.84983   1.87444   1.88171   1.97183
 Alpha virt. eigenvalues --    1.98305   2.04118   2.09329   2.11878   2.14495
 Alpha virt. eigenvalues --    2.18529   2.21517   2.25402   2.36891   2.42254
 Alpha virt. eigenvalues --    2.43316   2.57664   2.61576   2.61922   2.70041
 Alpha virt. eigenvalues --    2.72934   2.81428   2.86964   2.88761   2.93970
 Alpha virt. eigenvalues --    5.01135   5.02581   5.06256   5.06481   5.10812
 Alpha virt. eigenvalues --    5.13818   5.17224   5.23522   5.34862   5.42362
 Alpha virt. eigenvalues --    5.43616   5.51599   6.71765   6.73914   6.74360
 Alpha virt. eigenvalues --    6.76130   6.79424   6.80792   6.83839   6.85257
 Alpha virt. eigenvalues --    6.91334   6.91667   6.94458   6.97844   7.00520
 Alpha virt. eigenvalues --    7.02002   7.10600   7.24754   7.26257   7.27954
 Alpha virt. eigenvalues --    7.31439   7.40650   7.64101  14.23809  14.24313
 Alpha virt. eigenvalues --   14.33471  49.96862  49.98849  50.00509  50.11089
 Alpha virt. eigenvalues --  163.85832
          Condensed to atoms (all electrons):
              25         26         27         28         29         30
    25  P   12.491949   0.565734   0.227635  -0.000307   0.155501   0.045711
    26  O    0.565734   8.125211  -0.005646  -0.013211  -0.038484   0.003266
    27  O    0.227635  -0.005646   8.053651   0.253384   0.004670  -0.014408
    28  H   -0.000307  -0.013211   0.253384   0.455873  -0.001170   0.001840
    29  O    0.155501  -0.038484   0.004670  -0.001170   8.145150   0.218065
    30  H    0.045711   0.003266  -0.014408   0.001840   0.218065   0.457394
    31  O    0.225989  -0.007287   0.034978  -0.005304   0.006452  -0.014729
    32  H    0.002019  -0.013340  -0.005502  -0.003278  -0.001339   0.002029
              31         32
    25  P    0.225989   0.002019
    26  O   -0.007287  -0.013340
    27  O    0.034978  -0.005502
    28  H   -0.005304  -0.003278
    29  O    0.006452  -0.001339
    30  H   -0.014729   0.002029
    31  O    8.059011   0.252306
    32  H    0.252306   0.460605
 Mulliken charges:
               1
     1  C    0.000000
     2  C    0.000000
     3  C    0.000000
     4  N    0.000000
     5  H    0.000000
     6  H    0.000000
     7  H    0.000000
     8  C    0.000000
     9  H    0.000000
    10  H    0.000000
    11  H    0.000000
    12  N    0.000000
    13  C    0.000000
    14  H    0.000000
    15  H    0.000000
    16  C    0.000000
    17  H    0.000000
    18  H    0.000000
    19  C    0.000000
    20  H    0.000000
    21  H    0.000000
    22  C    0.000000
    23  O    0.000000
    24  O    0.000000
    25  P    1.285767
    26  O   -0.616245
    27  O   -0.548762
    28  H    0.312173
    29  O   -0.488844
    30  H    0.300832
    31  O   -0.551417
    32  H    0.306497
 Sum of Mulliken charges =  -0.00000
 Mulliken charges with hydrogens summed into heavy atoms:
               1
     1  C    0.000000
     2  C    0.000000
     3  C    0.000000
     4  N    0.000000
     8  C    0.000000
    12  N    0.000000
    13  C    0.000000
    16  C    0.000000
    19  C    0.000000
    22  C    0.000000
    23  O    0.000000
    24  O    0.000000
    25  P    1.285767
    26  O   -0.616245
    27  O   -0.236590
    29  O   -0.188013
    31  O   -0.244920
         Mulliken charges condensed to fragments:
      1      0.000000
      2     -0.000000
 Electronic spatial extent (au):  <R**2>=          48598.3372
 Charge=              0.0000 electrons
 Dipole moment (field-independent basis, Debye):
    X=              3.6416    Y=             -3.1186    Z=              3.6937  Tot=              6.0523
 Quadrupole moment (field-independent basis, Debye-Ang):
   XX=             44.1496   YY=            -98.1579   ZZ=             21.5465
   XY=              1.9888   XZ=             63.5928   YZ=             12.0342
 Traceless Quadrupole moment (field-independent basis, Debye-Ang):
   XX=             54.9702   YY=            -87.3373   ZZ=             32.3671
   XY=              1.9888   XZ=             63.5928   YZ=             12.0342
 Octapole moment (field-independent basis, Debye-Ang**2):
  XXX=            115.1187  YYY=          -1991.5952  ZZZ=            -47.2793  XYY=           -731.4969
  XXY=             63.8586  XXZ=            701.9986  XZZ=            374.9825  YZZ=             19.7725
  YYZ=           -362.8911  XYZ=            362.0114
 Hexadecapole moment (field-independent basis, Debye-Ang**3):
 XXXX=          -7758.9940 YYYY=         -33401.5850 ZZZZ=          -2746.6439 XXXY=          -2962.1461
 XXXZ=           4843.5901 YYYX=         -18694.8363 YYYZ=         -10701.3223 ZZZX=            265.8927
 ZZZY=          -1996.0046 XXYY=          -7824.4140 XXZZ=           3857.0917 YYZZ=          -3333.9296
 XXYZ=           4026.2467 YYXZ=          -1787.7707 ZZXY=           1602.1568
 N-N= 2.799467037113D+02 E-N=-2.087503534720D+03  KE= 6.424897301844D+02
 No NMR shielding tensors so no spin-rotation constants.
 Leave Link  601 at Mon Feb 20 09:12:04 2023, MaxMem=  6710886400 cpu:               2.0 elap:               0.1
 (Enter /data0/home/software/g16/l122.exe)
 CPIOFr:  IOpCl= 0 IRwI=-1 IRwCP=  731 ICalc=  4 LCPTot=      476096 Len1MO=     1252357 IndFrg=     6737881
 Restoring MOs from calculation   1 to rwf.
 CPIOFr:  IOpCl= 0 IRwI=-2 IRwCP=  731 ICalc=  0 LCPTot=      476096 Len1MO=     1252357 IndFrg=     1728453
 Counterpoise corrected energy =   -1216.158157459558
                   BSSE energy =       0.002891609312
              sum of fragments =   -1216.054438184367
           complexation energy =     -66.90 kcal/mole (raw)
           complexation energy =     -65.08 kcal/mole (corrected)
 Leave Link  122 at Mon Feb 20 09:12:04 2023, MaxMem=  6710886400 cpu:               0.5 elap:               0.0
 (Enter /data0/home/software/g16/l9999.exe)
 1\1\GINC-LOCALHOST\SP\RM062X\6-311+G(2d,p)\C8H15N2O6P1\WUHANYU\20-Feb-
 2023\0\\#p M062X/6-311+G(2d,p) nosymm em=GD3 counterpoise=2\\Title Car
 d Required\\0,1\C,0,8.045767,10.917269,8.645202\C,0,7.554012,9.92926,9
 .494402\C,0,9.163807,11.053922,10.590771\N,0,9.03906,11.598116,9.34268
 2\H,0,7.766857,11.1539,7.628533\H,0,6.789933,9.182057,9.313183\H,0,9.8
 74795,11.365234,11.358945\C,0,9.870642,12.669118,8.82621\H,0,10.949051
 ,12.45332,9.010755\H,0,9.760074,12.759044,7.722809\H,0,9.612494,13.633
 552,9.295156\N,0,8.249892,10.03713,10.696036\C,0,8.074857,9.195211,11.
 880075\H,0,6.981204,8.971743,11.995223\H,0,8.39657,9.766334,12.782597\
 C,0,8.852067,7.871863,11.784656\H,0,8.554319,7.236427,12.644953\H,0,8.
 527182,7.294009,10.89014\C,0,10.36613,8.046873,11.762868\H,0,10.867867
 ,7.091614,12.020522\H,0,10.70425,8.779738,12.519808\C,0,10.828327,8.45
 1148,10.366779\O,0,11.408564,9.560826,10.254092\O,0,10.588954,7.68212,
 9.42105\P,0,11.23038,9.833695,6.743657\O,0,9.879124,10.410991,6.645579
 \O,0,11.308387,8.266138,6.905114\H,0,11.057727,8.010951,7.919384\O,0,1
 2.020964,10.1239,5.39192\H,0,12.968137,9.723673,5.502646\O,0,12.139582
 ,10.495465,7.858385\H,0,11.882989,10.077316,8.811538\\Version=ES64L-G1
 6RevA.03\HF=-644.1314415\RMSD=8.696e-09\Dipole=-2.2387198,1.3353764,3.
 2499689\Quadrupole=-106.2640435,23.977307,82.2867365,-15.4363556,17.10
 16158,81.5925537\PG=C01 [X(C8H15N2O6P1)]\\@


 I HAVE NOT FAILED, I HAVE ONLY DISCOVERED 10,000
 WAYS THAT DIDN'T WORK.  -- THOMAS A. EDISON
 Job cpu time:       0 days  2 hours 46 minutes 52.7 seconds.
 Elapsed time:       0 days  0 hours  7 minutes  0.8 seconds.
 File lengths (MBytes):  RWF=    234 Int=      0 D2E=      0 Chk=     70 Scr=      1
 Normal termination of Gaussian 16 at Mon Feb 20 09:12:04 2023.
