 Entering Gaussian System, Link 0=g16
 Initial command:
 /data0/home/software/g16/l1.exe "/data0/home/software/g16/scratch/Gau-326305.inp" -scrdir="/data0/home/software/g16/scratch/"
 Default is to use a total of  22 processors:
                               22 via shared-memory
                                1 via Linda
 Entering Link 1 = /data0/home/software/g16/l1.exe PID=    326306.
  
 Copyright (c) 1988,1990,1992,1993,1995,1998,2003,2009,2016,
            Gaussian, Inc.  All Rights Reserved.
  
 This is part of the Gaussian(R) 16 program.  It is based on
 the Gaussian(R) 09 system (copyright 2009, Gaussian, Inc.),
 the Gaussian(R) 03 system (copyright 2003, Gaussian, Inc.),
 the Gaussian(R) 98 system (copyright 1998, Gaussian, Inc.),
 the Gaussian(R) 94 system (copyright 1995, Gaussian, Inc.),
 the Gaussian 92(TM) system (copyright 1992, Gaussian, Inc.),
 the Gaussian 90(TM) system (copyright 1990, Gaussian, Inc.),
 the Gaussian 88(TM) system (copyright 1988, Gaussian, Inc.),
 the Gaussian 86(TM) system (copyright 1986, Carnegie Mellon
 University), and the Gaussian 82(TM) system (copyright 1983,
 Carnegie Mellon University). Gaussian is a federally registered
 trademark of Gaussian, Inc.
  
 This software contains proprietary and confidential information,
 including trade secrets, belonging to Gaussian, Inc.
  
 This software is provided under written license and may be
 used, copied, transmitted, or stored only in accord with that
 written license.
  
 The following legend is applicable only to US Government
 contracts under FAR:
  
                    RESTRICTED RIGHTS LEGEND
  
 Use, reproduction and disclosure by the US Government is
 subject to restrictions as set forth in subparagraphs (a)
 and (c) of the Commercial Computer Software - Restricted
 Rights clause in FAR 52.227-19.
  
 Gaussian, Inc.
 340 Quinnipiac St., Bldg. 40, Wallingford CT 06492
  
  
 ---------------------------------------------------------------
 Warning -- This program may not be used in any manner that
 competes with the business of Gaussian, Inc. or will provide
 assistance to any competitor of Gaussian, Inc.  The licensee
 of this program is prohibited from giving any competitor of
 Gaussian, Inc. access to this program.  By using this program,
 the user acknowledges that Gaussian, Inc. is engaged in the
 business of creating and licensing software in the field of
 computational chemistry and represents and warrants to the
 licensee that it is not a competitor of Gaussian, Inc. and that
 it will not use this program in any manner prohibited above.
 ---------------------------------------------------------------
  

 Cite this work as:
 Gaussian 16, Revision A.03,
 M. J. Frisch, G. W. Trucks, H. B. Schlegel, G. E. Scuseria, 
 M. A. Robb, J. R. Cheeseman, G. Scalmani, V. Barone, 
 G. A. Petersson, H. Nakatsuji, X. Li, M. Caricato, A. V. Marenich, 
 J. Bloino, B. G. Janesko, R. Gomperts, B. Mennucci, H. P. Hratchian, 
 J. V. Ortiz, A. F. Izmaylov, J. L. Sonnenberg, D. Williams-Young, 
 F. Ding, F. Lipparini, F. Egidi, J. Goings, B. Peng, A. Petrone, 
 T. Henderson, D. Ranasinghe, V. G. Zakrzewski, J. Gao, N. Rega, 
 G. Zheng, W. Liang, M. Hada, M. Ehara, K. Toyota, R. Fukuda, 
 J. Hasegawa, M. Ishida, T. Nakajima, Y. Honda, O. Kitao, H. Nakai, 
 T. Vreven, K. Throssell, J. A. Montgomery, Jr., J. E. Peralta, 
 F. Ogliaro, M. J. Bearpark, J. J. Heyd, E. N. Brothers, K. N. Kudin, 
 V. N. Staroverov, T. A. Keith, R. Kobayashi, J. Normand, 
 K. Raghavachari, A. P. Rendell, J. C. Burant, S. S. Iyengar, 
 J. Tomasi, M. Cossi, J. M. Millam, M. Klene, C. Adamo, R. Cammi, 
 J. W. Ochterski, R. L. Martin, K. Morokuma, O. Farkas, 
 J. B. Foresman, and D. J. Fox, Gaussian, Inc., Wallingford CT, 2016.
 
 ******************************************
 Gaussian 16:  ES64L-G16RevA.03 25-Dec-2016
                19-Feb-2023 
 ******************************************
 %nproc=24
 Will use up to   24 processors via shared memory.
 %mem=50GB
 ---------------------------------------------------
 #p M062X/6-311+G(2d,p) nosymm em=GD3 counterpoise=3
 ---------------------------------------------------
 1/38=1,62=3,172=1/1;
 2/12=2,15=1,17=6,18=5,40=1/2;
 1/38=1,53=2,62=3,63=1/22;
 3/5=4,6=6,7=112,11=2,25=1,30=1,74=-55,124=31/1,2,3;
 4//1;
 5/5=2,38=5/2;
 6/7=2,8=2,9=2,10=2,28=1/1;
 1/53=2,62=3,63=1/22;
 3/5=7,6=11,7=112,11=2,25=1,30=1,74=-55,82=7,124=31/1,2,3;
 4//1;
 5/5=2,38=5/2;
 6/7=2,8=2,9=2,10=2,28=1/1;
 1/53=2,62=3,63=1/22(-4);
 99/5=1,9=1/99;
 Leave Link    1 at Sun Feb 19 22:20:00 2023, MaxMem=  6710886400 cpu:               0.7 elap:               0.0
 (Enter /data0/home/software/g16/l101.exe)
 -------------------
 Title Card Required
 -------------------
 Symbolic Z-matrix:
 Charge =  0 Multiplicity = 1 in supermolecule
 Charge =  0 Multiplicity = 1 in fragment      1.
 Charge =  0 Multiplicity = 1 in fragment      2.
 Charge =  0 Multiplicity = 1 in fragment      3.
 C                     10.18345   12.07911   9.76091    
 C                     10.94969   11.90008   8.61249    
 C                     10.57792   10.93985   7.67137    
 C                     9.43153   10.17519   7.89357    
 C                     8.66401   10.40972   9.04572    
 H                     11.21035   10.75902   6.79627    
 H                     10.49151   12.7695   10.55396    
 H                     11.86517   12.48455   8.47464    
 H                     7.77211   9.78882   9.28046    
 C                     9.04071   9.08074   6.97178    
 H                     7.96038   8.88187   6.96599    
 H                     9.354     9.25997   5.93528    
 H                     9.52745   8.13247   7.29228    
 N                     9.03615   11.3607   9.94051    
 C                     8.18195   11.64365   11.11985    
 H                     7.91458   12.72366   11.09777    
 H                     7.22057   11.07948   11.01258    
 C                     8.86191   11.28414   12.45605    
 H                     9.89787   10.90486   12.29062    
 H                     9.0036    12.20688   13.05358    
 C                     8.06126   10.27347   13.26402    
 H                     7.00921   10.58126   13.37471    
 H                     8.45991   10.21357   14.29489    
 S                     8.11115   8.58845   12.5749    
 O                     8.13227   8.81333   11.08082    
 O                     6.90851   7.94065   13.07265    
 O                     9.41161   8.02913   13.03185    
 O                     13.60554   11.90661   10.13699    
 H                     12.85495   11.31969   10.40536    
 H                     14.29888   11.6908   10.75656    
 O                     13.51943   10.4901   7.71541    
 H                     14.41657   10.35935   7.42085    
 H                     13.5928   11.04723   8.51414    
 
 ITRead=  0  0  0  0  0  0  0  0  0  0  0  0  0  0  0  0  0  0  0  0
 ITRead=  0  0  0  0  0  0  0  0  0  0  0  0  0
 MicOpt= -1 -1 -1 -1 -1 -1 -1 -1 -1 -1 -1 -1 -1 -1 -1 -1 -1 -1 -1 -1
 MicOpt= -1 -1 -1 -1 -1 -1 -1 -1 -1 -1 -1 -1 -1
 NAtoms=     33 NQM=       33 NQMF=       0 NMMI=      0 NMMIF=      0
                NMic=       0 NMicF=      0.
                    Isotopes and Nuclear Properties:
 (Nuclear quadrupole moments (NQMom) in fm**2, nuclear magnetic moments (NMagM)
  in nuclear magnetons)

  Atom         1           2           3           4           5           6           7           8           9          10
 IAtWgt=          12          12          12          12          12           1           1           1           1          12
 AtmWgt=  12.0000000  12.0000000  12.0000000  12.0000000  12.0000000   1.0078250   1.0078250   1.0078250   1.0078250  12.0000000
 NucSpn=           0           0           0           0           0           1           1           1           1           0
 AtZEff=  -0.0000000  -0.0000000  -0.0000000  -0.0000000  -0.0000000  -0.0000000  -0.0000000  -0.0000000  -0.0000000  -0.0000000
 NQMom=    0.0000000   0.0000000   0.0000000   0.0000000   0.0000000   0.0000000   0.0000000   0.0000000   0.0000000   0.0000000
 NMagM=    0.0000000   0.0000000   0.0000000   0.0000000   0.0000000   2.7928460   2.7928460   2.7928460   2.7928460   0.0000000
 AtZNuc=   6.0000000   6.0000000   6.0000000   6.0000000   6.0000000   1.0000000   1.0000000   1.0000000   1.0000000   6.0000000

  Atom        11          12          13          14          15          16          17          18          19          20
 IAtWgt=           1           1           1          14          12           1           1          12           1           1
 AtmWgt=   1.0078250   1.0078250   1.0078250  14.0030740  12.0000000   1.0078250   1.0078250  12.0000000   1.0078250   1.0078250
 NucSpn=           1           1           1           2           0           1           1           0           1           1
 AtZEff=  -0.0000000  -0.0000000  -0.0000000  -0.0000000  -0.0000000  -0.0000000  -0.0000000  -0.0000000  -0.0000000  -0.0000000
 NQMom=    0.0000000   0.0000000   0.0000000   2.0440000   0.0000000   0.0000000   0.0000000   0.0000000   0.0000000   0.0000000
 NMagM=    2.7928460   2.7928460   2.7928460   0.4037610   0.0000000   2.7928460   2.7928460   0.0000000   2.7928460   2.7928460
 AtZNuc=   1.0000000   1.0000000   1.0000000   7.0000000   6.0000000   1.0000000   1.0000000   6.0000000   1.0000000   1.0000000

  Atom        21          22          23          24          25          26          27          28          29          30
 IAtWgt=          12           1           1          32          16          16          16          16           1           1
 AtmWgt=  12.0000000   1.0078250   1.0078250  31.9720718  15.9949146  15.9949146  15.9949146  15.9949146   1.0078250   1.0078250
 NucSpn=           0           1           1           0           0           0           0           0           1           1
 AtZEff=  -0.0000000  -0.0000000  -0.0000000  -0.0000000  -0.0000000  -0.0000000  -0.0000000  -0.0000000  -0.0000000  -0.0000000
 NQMom=    0.0000000   0.0000000   0.0000000   0.0000000   0.0000000   0.0000000   0.0000000   0.0000000   0.0000000   0.0000000
 NMagM=    0.0000000   2.7928460   2.7928460   0.0000000   0.0000000   0.0000000   0.0000000   0.0000000   2.7928460   2.7928460
 AtZNuc=   6.0000000   1.0000000   1.0000000  16.0000000   8.0000000   8.0000000   8.0000000   8.0000000   1.0000000   1.0000000

  Atom        31          32          33
 IAtWgt=          16           1           1
 AtmWgt=  15.9949146   1.0078250   1.0078250
 NucSpn=           0           1           1
 AtZEff=  -0.0000000  -0.0000000  -0.0000000
 NQMom=    0.0000000   0.0000000   0.0000000
 NMagM=    0.0000000   2.7928460   2.7928460
 AtZNuc=   8.0000000   1.0000000   1.0000000
 Leave Link  101 at Sun Feb 19 22:20:00 2023, MaxMem=  6710886400 cpu:               2.2 elap:               0.1
 (Enter /data0/home/software/g16/l202.exe)
                          Input orientation:                          
 ---------------------------------------------------------------------
 Center     Atomic      Atomic             Coordinates (Angstroms)
 Number     Number       Type             X           Y           Z
 ---------------------------------------------------------------------
      1          6           0       10.183452   12.079111    9.760909
      2          6           0       10.949692   11.900079    8.612488
      3          6           0       10.577915   10.939851    7.671365
      4          6           0        9.431530   10.175186    7.893573
      5          6           0        8.664008   10.409720    9.045721
      6          1           0       11.210348   10.759018    6.796268
      7          1           0       10.491507   12.769503   10.553958
      8          1           0       11.865170   12.484553    8.474641
      9          1           0        7.772113    9.788819    9.280464
     10          6           0        9.040711    9.080736    6.971782
     11          1           0        7.960383    8.881871    6.965992
     12          1           0        9.354000    9.259968    5.935282
     13          1           0        9.527454    8.132466    7.292276
     14          7           0        9.036146   11.360701    9.940514
     15          6           0        8.181946   11.643653   11.119849
     16          1           0        7.914575   12.723656   11.097765
     17          1           0        7.220566   11.079476   11.012576
     18          6           0        8.861905   11.284143   12.456052
     19          1           0        9.897868   10.904862   12.290622
     20          1           0        9.003604   12.206875   13.053582
     21          6           0        8.061262   10.273473   13.264020
     22          1           0        7.009207   10.581255   13.374706
     23          1           0        8.459906   10.213572   14.294885
     24         16           0        8.111146    8.588455   12.574903
     25          8           0        8.132268    8.813334   11.080816
     26          8           0        6.908506    7.940652   13.072650
     27          8           0        9.411610    8.029127   13.031851
     28          8           0       13.605542   11.906612   10.136987
     29          1           0       12.854946   11.319687   10.405361
     30          1           0       14.298883   11.690803   10.756560
     31          8           0       13.519432   10.490105    7.715405
     32          1           0       14.416565   10.359347    7.420850
     33          1           0       13.592795   11.047230    8.514140
 ---------------------------------------------------------------------
                    Distance matrix (angstroms):
                    1          2          3          4          5
     1  C    0.000000
     2  C    1.392138   0.000000
     3  C    2.412407   1.394980   0.000000
     4  C    2.770787   2.407677   1.395811   0.000000
     5  C    2.367925   2.762827   2.415147   1.404116   0.000000
     6  H    3.403859   2.160698   1.094745   2.170053   3.415537
     7  H    1.095658   2.176037   3.415324   3.864153   3.344115
     8  H    2.155700   1.094857   2.165267   3.404911   3.857266
     9  H    3.360182   3.873063   3.433162   2.196909   1.111800
    10  C    4.251510   3.779526   2.511717   1.483327   2.491852
    11  H    4.793322   4.555930   3.403573   2.167336   2.674824
    12  H    4.824000   4.084587   2.708128   2.162993   3.387159
    13  H    4.701116   4.237998   3.021355   2.131540   3.000999
    14  N    1.365534   2.390866   2.775465   2.398279   1.357758
    15  C    2.458123   3.743398   4.257704   3.758552   2.461094
    16  H    2.711167   4.008343   4.692074   4.366085   3.182269
    17  H    3.368180   4.510010   4.738668   3.928649   2.529944
    18  C    3.105198   4.417150   5.094748   4.729743   3.526207
    19  H    2.803545   3.952905   4.669178   4.481511   3.506702
    20  H    3.500009   4.858467   5.749093   5.562066   4.405456
    21  C    4.476137   5.711885   6.168905   5.543374   4.263322
    22  H    5.037751   6.320240   6.737386   6.006277   4.637661
    23  H    5.196901   6.429073   6.991742   6.474745   5.256791
    24  S    4.939402   5.892786   5.971490   5.116247   4.009712
    25  O    4.076127   4.853712   4.704000   3.701519   2.640607
    26  O    6.230549   7.204255   7.185655   6.179129   5.039270
    27  O    5.262810   6.072951   6.210265   5.568471   4.702698
    28  O    3.447012   3.062300   4.022492   5.045108   5.277339
    29  H    2.851127   2.679784   3.578251   4.397583   4.498958
    30  H    4.251926   3.982201   4.891621   5.846787   6.026604
    31  O    4.223481   3.065346   2.976026   4.103884   5.035012
    32  H    5.133489   3.976564   3.890370   5.010784   5.977847
    33  H    3.773968   2.779032   3.132300   4.296707   4.998194
                    6          7          8          9         10
     6  H    0.000000
     7  H    4.321923   0.000000
     8  H    2.494634   2.508327   0.000000
     9  H    4.351319   4.231001   4.966835   0.000000
    10  C    2.748592   5.342639   4.671416   2.727771   0.000000
    11  H    3.756961   5.864620   5.522925   2.492946   1.098494
    12  H    2.536627   5.911254   4.811680   3.737953   1.097546
    13  H    3.158628   5.750659   5.079721   3.126918   1.113037
    14  N    3.869814   2.116391   3.378639   2.122324   3.743211
    15  C    5.352303   2.630940   4.611982   2.644184   4.951008
    16  H    5.764096   2.634086   4.748173   3.454873   5.618077
    17  H    5.813631   3.710199   5.476103   2.229397   4.861677
    18  C    6.150130   2.912020   5.129544   3.675323   5.913053
    19  H    5.650823   2.616351   4.574649   3.850381   5.687901
    20  H    6.791170   2.962858   5.406696   4.647578   6.838305
    21  C    7.210015   4.413694   6.503595   4.023334   6.478750
    22  H    7.807498   4.987130   7.156365   4.239434   6.883023
    23  H    8.005729   4.965352   7.115365   5.079163   7.432933
    24  S    6.907172   5.218381   6.788551   3.522662   5.701000
    25  O    5.622954   4.636255   5.848466   2.079074   4.216744
    26  O    8.114309   6.519165   8.145995   4.306067   6.562521
    27  O    7.040615   5.456858   6.829271   4.456161   6.161808
    28  O    4.267825   3.258168   2.475137   6.264788   6.232317
    29  H    4.005572   2.776669   2.462570   5.426246   5.599174
    30  H    5.107953   3.962418   3.429308   6.956661   6.984652
    31  O    2.499799   4.735121   2.700156   5.997740   4.753760
    32  H    3.290846   5.570574   3.483761   6.923324   5.544034
    33  H    2.951305   4.092074   2.247698   6.004264   5.193018
                   11         12         13         14         15
    11  H    0.000000
    12  H    1.774116   0.000000
    13  H    1.767422   1.772789   0.000000
    14  N    4.018662   4.533872   4.204289   0.000000
    15  C    4.993101   5.825410   5.365551   1.483425   0.000000
    16  H    5.642070   6.381247   6.177552   2.110639   1.112826
    17  H    4.663865   5.800092   5.277048   2.127142   1.119846
    18  C    6.060067   6.845428   6.086099   2.522727   1.541762
    19  H    6.016479   6.587246   5.727726   2.544280   2.204747
    20  H    7.014465   7.712148   7.075866   3.226184   2.175239
    21  C    6.450728   7.510577   6.511172   3.630173   2.547435
    22  H    6.698079   7.911314   7.023823   4.063212   2.754703
    23  H    7.465629   8.461189   7.382899   4.539659   3.493315
    24  S    5.618603   6.788239   5.488169   3.934587   3.384735
    25  O    4.118983   5.307413   4.094284   2.933660   2.831024
    26  O    6.267664   7.659181   6.348890   5.102339   4.375763
    27  O    6.295068   7.202748   5.741674   4.560342   4.269968
    28  O    7.146474   6.537175   6.242384   4.606083   5.518202
    29  H    6.459795   6.039923   5.560744   3.847207   4.738394
    30  H    7.901588   7.321581   6.886912   5.335850   6.127897
    31  O    5.835329   4.693921   4.655469   5.080246   6.435034
    32  H    6.638683   5.389352   5.373913   6.024975   7.362235
    33  H    6.229736   5.273727   5.149349   4.784962   6.035124
                   16         17         18         19         20
    16  H    0.000000
    17  H    1.786682   0.000000
    18  C    2.194214   2.195337   0.000000
    19  H    2.943530   2.971841   1.115545   0.000000
    20  H    2.297448   2.935295   1.108402   1.754153   0.000000
    21  C    3.273771   2.534839   1.521609   2.172390   2.161096
    22  H    3.254848   2.423335   2.184140   3.102309   2.592948
    23  H    4.101156   3.613766   2.165417   2.561774   2.410331
    24  S    4.395505   3.072326   2.800803   2.939206   3.757470
    25  O    3.916414   2.443616   2.920367   2.992568   4.020840
    26  O    5.271572   3.767426   3.921083   4.281868   4.752942
    27  O    5.293430   4.264126   3.350948   3.009272   4.197680
    28  O    5.829045   6.497594   5.316730   4.403237   5.456603
    29  H    5.182453   5.672094   4.488984   3.531374   4.757417
    30  H    6.476310   7.109278   5.710900   4.726519   5.795051
    31  O    6.916902   7.134032   6.693040   5.849817   7.199732
    32  H    7.834892   8.074744   7.553989   6.665650   8.027526
    33  H    6.459698   6.844598   6.162477   5.285316   6.558352
                   21         22         23         24         25
    21  C    0.000000
    22  H    1.101726   0.000000
    23  H    1.106882   1.756829   0.000000
    24  S    1.821169   2.413546   2.391856   0.000000
    25  O    2.627437   3.106242   3.521115   1.511063   0.000000
    26  O    2.609123   2.659730   3.011124   1.453872   2.495310
    27  O    2.629531   3.521711   2.696812   1.487567   2.461348
    28  O    6.571493   7.466661   6.828768   6.866002   6.357351
    29  H    5.678547   6.598102   5.972291   5.888139   5.389038
    30  H    6.870524   7.824651   6.985385   7.156747   6.812643
    31  O    7.786249   8.626646   8.304507   7.515354   6.569558
    32  H    8.633648   9.506135   9.096999   8.334184   7.434911
    33  H    7.331979   8.196698   7.775509   7.251472   6.433931
                   26         27         28         29         30
    26  O    0.000000
    27  O    2.504999   0.000000
    28  O    8.318488   6.403452   0.000000
    29  H    7.341148   5.439007   0.989899   0.000000
    30  H    8.604974   6.516921   0.954550   1.531673   0.000000
    31  O    8.882800   7.155083   2.806772   2.892337   3.361226
    32  H    9.703807   7.871647   3.229425   3.502601   3.593548
    33  H    8.666635   6.855725   1.836391   2.048260   2.437456
                   31         32         33
    31  O    0.000000
    32  H    0.953262   0.000000
    33  H    0.976600   1.532013   0.000000
 Symmetry turned off by external request.
 Stoichiometry    C9H17NO5S
 Framework group  C1[X(C9H17NO5S)]
 Deg. of freedom    93
 Full point group                 C1      NOp   1
 Rotational constants (GHZ):           0.6327984           0.2417391           0.2207496
 Leave Link  202 at Sun Feb 19 22:20:00 2023, MaxMem=  6710886400 cpu:               0.1 elap:               0.0
 (Enter /data0/home/software/g16/l122.exe)
 Counterpoise: doing full-system calculation.
 Leave Link  122 at Sun Feb 19 22:20:00 2023, MaxMem=  6710886400 cpu:               0.0 elap:               0.0
 (Enter /data0/home/software/g16/l301.exe)
 Standard basis: 6-311+G(2d,p) (5D, 7F)
 Ernie: Thresh=  0.10000D-02 Tol=  0.10000D-05 Strict=F.
   542 basis functions,   822 primitive gaussians,   574 cartesian basis functions
    67 alpha electrons       67 beta electrons
       nuclear repulsion energy      1329.9895479730 Hartrees.
 IExCor= 4336 DFT=T Ex+Corr=M062X ExCW=0 ScaHFX=  0.540000
 ScaDFX=  1.000000  1.000000  1.000000  1.000000 ScalE2=  1.000000  1.000000
 IRadAn=      5 IRanWt=     -1 IRanGd=            0 ICorTp=0 IEmpDi=131
 NAtoms=   33 NActive=   33 NUniq=   33 SFac= 1.00D+00 NAtFMM=   60 NAOKFM=F Big=F
 Integral buffers will be    131072 words long.
 Raffenetti 2 integral format.
 Two-electron integral symmetry is turned off.
 R6Disp:  Grimme-D3 Dispersion energy=       -0.0020848004 Hartrees.
 Nuclear repulsion after empirical dispersion term =     1329.9874631726 Hartrees.
 Leave Link  301 at Sun Feb 19 22:20:00 2023, MaxMem=  6710886400 cpu:               1.2 elap:               0.1
 (Enter /data0/home/software/g16/l302.exe)
 NPDir=0 NMtPBC=     1 NCelOv=     1 NCel=       1 NClECP=     1 NCelD=      1
         NCelK=      1 NCelE2=     1 NClLst=     1 CellRange=     0.0.
 One-electron integrals computed using PRISM.
 NBasis=   542 RedAO= T EigKep=  2.18D-06  NBF=   542
 NBsUse=   542 1.00D-06 EigRej= -1.00D+00 NBFU=   542
 Precomputing XC quadrature grid using
 IXCGrd= 4 IRadAn=           5 IRanWt=          -1 IRanGd=           0 AccXCQ= 0.00D+00.
 Generated NRdTot=       0 NPtTot=           0 NUsed=           0 NTot=          32
 NSgBfM=   569   569   569   569   569 MxSgAt=    33 MxSgA2=    33.
 Leave Link  302 at Sun Feb 19 22:20:01 2023, MaxMem=  6710886400 cpu:              13.3 elap:               0.6
 (Enter /data0/home/software/g16/l303.exe)
 DipDrv:  MaxL=1.
 Leave Link  303 at Sun Feb 19 22:20:01 2023, MaxMem=  6710886400 cpu:               1.3 elap:               0.1
 (Enter /data0/home/software/g16/l401.exe)
 ExpMin= 4.05D-02 ExpMax= 9.34D+04 ExpMxC= 3.17D+03 IAcc=3 IRadAn=         5 AccDes= 0.00D+00
 Harris functional with IExCor= 1009 and IRadAn=       5 diagonalized for initial guess.
 HarFok:  IExCor= 1009 AccDes= 0.00D+00 IRadAn=         5 IDoV= 1 UseB2=F ITyADJ=14
 ICtDFT=  3500011 ScaDFX=  1.000000  1.000000  1.000000  1.000000
 FoFCou: FMM=F IPFlag=           0 FMFlag=      100000 FMFlg1=           0
         NFxFlg=           0 DoJE=T BraDBF=F KetDBF=T FulRan=T
         wScrn=  0.000000 ICntrl=       500 IOpCl=  0 I1Cent=   200000004 NGrid=           0
         NMat0=    1 NMatS0=      1 NMatT0=    0 NMatD0=    1 NMtDS0=    0 NMtDT0=    0
 Symmetry not used in FoFCou.
 Harris En= -1181.72037594109    
 JPrj=0 DoOrth=F DoCkMO=F.
 Leave Link  401 at Sun Feb 19 22:20:03 2023, MaxMem=  6710886400 cpu:              51.7 elap:               2.2
 (Enter /data0/home/software/g16/l502.exe)
 Two-electron integral symmetry not used.
 Closed shell SCF:
 Using DIIS extrapolation, IDIIS=  1040.
 NGot=  6710886400 LenX=  6710209607 LenY=  6709879557
 Requested convergence on RMS density matrix=1.00D-08 within 128 cycles.
 Requested convergence on MAX density matrix=1.00D-06.
 Requested convergence on             energy=1.00D-06.
 No special actions if energy rises.
 Fock matrices will be formed incrementally for  20 cycles.

 Cycle   1  Pass 1  IDiag  1:
 FoFJK:  IHMeth= 1 ICntrl=       0 DoSepK=F KAlg= 0 I1Cent=           0 FoldK=F
 IRaf= 830000000 NMat=       1 IRICut=       1 DoRegI=T DoRafI=F ISym2E= 0 IDoP0=0 IntGTp=1.
 FoFCou: FMM=F IPFlag=           0 FMFlag=      100000 FMFlg1=           0
         NFxFlg=           0 DoJE=F BraDBF=F KetDBF=F FulRan=T
         wScrn=  0.000000 ICntrl=         0 IOpCl=  0 I1Cent=           0 NGrid=           0
         NMat0=    1 NMatS0=      1 NMatT0=    0 NMatD0=    1 NMtDS0=    0 NMtDT0=    0
 Symmetry not used in FoFCou.
 E= -1181.47685454564    
 DIIS: error= 2.41D-02 at cycle   1 NSaved=   1.
 NSaved= 1 IEnMin= 1 EnMin= -1181.47685454564     IErMin= 1 ErrMin= 2.41D-02
 ErrMax= 2.41D-02  0.00D+00 EMaxC= 1.00D-01 BMatC= 1.00D+00 BMatP= 1.00D+00
 IDIUse=3 WtCom= 7.59D-01 WtEn= 2.41D-01
 Coeff-Com:  0.100D+01
 Coeff-En:   0.100D+01
 Coeff:      0.100D+01
 Gap=     0.257 Goal=   None    Shift=    0.000
 GapD=    0.257 DampG=1.000 DampE=0.500 DampFc=0.5000 IDamp=-1.
 Damping current iteration by 5.00D-01
 RMSDP=9.20D-02 MaxDP=1.72D+01              OVMax= 1.92D-01

 Cycle   2  Pass 1  IDiag  1:
 RMSU=  2.72D-02    CP:  2.52D+00
 E= -1181.75342430727     Delta-E=       -0.276569761629 Rises=F Damp=T
 DIIS: error= 7.18D-03 at cycle   2 NSaved=   2.
 NSaved= 2 IEnMin= 2 EnMin= -1181.75342430727     IErMin= 2 ErrMin= 7.18D-03
 ErrMax= 7.18D-03  0.00D+00 EMaxC= 1.00D-01 BMatC= 6.52D-02 BMatP= 1.00D+00
 IDIUse=3 WtCom= 9.28D-01 WtEn= 7.18D-02
 Coeff-Com:  0.486D-01 0.951D+00
 Coeff-En:   0.139D+00 0.861D+00
 Coeff:      0.551D-01 0.945D+00
 Gap=     0.206 Goal=   None    Shift=    0.000
 RMSDP=3.01D-02 MaxDP=5.72D+00 DE=-2.77D-01 OVMax= 1.23D-01

 Cycle   3  Pass 1  IDiag  1:
 RMSU=  4.01D-03    CP:  1.50D+00  3.88D-01
 E= -1182.10091671615     Delta-E=       -0.347492408875 Rises=F Damp=F
 DIIS: error= 4.45D-03 at cycle   3 NSaved=   3.
 NSaved= 3 IEnMin= 3 EnMin= -1182.10091671615     IErMin= 3 ErrMin= 4.45D-03
 ErrMax= 4.45D-03  0.00D+00 EMaxC= 1.00D-01 BMatC= 2.44D-02 BMatP= 6.52D-02
 IDIUse=3 WtCom= 9.55D-01 WtEn= 4.45D-02
 Coeff-Com: -0.439D-01 0.349D+00 0.695D+00
 Coeff-En:   0.000D+00 0.000D+00 0.100D+01
 Coeff:     -0.419D-01 0.333D+00 0.709D+00
 Gap=     0.185 Goal=   None    Shift=    0.000
 RMSDP=1.32D-03 MaxDP=2.32D-01 DE=-3.47D-01 OVMax= 4.98D-02

 Cycle   4  Pass 1  IDiag  1:
 RMSU=  9.13D-04    CP:  1.53D+00  4.14D-01  1.04D+00
 E= -1182.11656249614     Delta-E=       -0.015645779996 Rises=F Damp=F
 DIIS: error= 1.94D-03 at cycle   4 NSaved=   4.
 NSaved= 4 IEnMin= 4 EnMin= -1182.11656249614     IErMin= 4 ErrMin= 1.94D-03
 ErrMax= 1.94D-03  0.00D+00 EMaxC= 1.00D-01 BMatC= 5.50D-03 BMatP= 2.44D-02
 IDIUse=3 WtCom= 9.81D-01 WtEn= 1.94D-02
 Coeff-Com: -0.247D-01 0.769D-01 0.368D+00 0.579D+00
 Coeff-En:   0.000D+00 0.000D+00 0.181D+00 0.819D+00
 Coeff:     -0.243D-01 0.754D-01 0.365D+00 0.584D+00
 Gap=     0.191 Goal=   None    Shift=    0.000
 RMSDP=4.69D-04 MaxDP=5.23D-02 DE=-1.56D-02 OVMax= 2.09D-02

 Cycle   5  Pass 1  IDiag  1:
 RMSU=  3.13D-04    CP:  1.53D+00  4.19D-01  1.02D+00  6.85D-01
 E= -1182.12143120969     Delta-E=       -0.004868713549 Rises=F Damp=F
 DIIS: error= 3.98D-04 at cycle   5 NSaved=   5.
 NSaved= 5 IEnMin= 5 EnMin= -1182.12143120969     IErMin= 5 ErrMin= 3.98D-04
 ErrMax= 3.98D-04  0.00D+00 EMaxC= 1.00D-01 BMatC= 2.58D-04 BMatP= 5.50D-03
 IDIUse=3 WtCom= 9.96D-01 WtEn= 3.98D-03
 Coeff-Com: -0.835D-02 0.180D-01 0.131D+00 0.271D+00 0.588D+00
 Coeff-En:   0.000D+00 0.000D+00 0.000D+00 0.000D+00 0.100D+01
 Coeff:     -0.832D-02 0.179D-01 0.131D+00 0.270D+00 0.590D+00
 Gap=     0.192 Goal=   None    Shift=    0.000
 RMSDP=4.21D-04 MaxDP=7.43D-02 DE=-4.87D-03 OVMax= 5.07D-03

 Cycle   6  Pass 1  IDiag  1:
 RMSU=  8.42D-05    CP:  1.51D+00  4.10D-01  1.03D+00  7.42D-01  8.07D-01
 E= -1182.12163664978     Delta-E=       -0.000205440086 Rises=F Damp=F
 DIIS: error= 1.52D-04 at cycle   6 NSaved=   6.
 NSaved= 6 IEnMin= 6 EnMin= -1182.12163664978     IErMin= 6 ErrMin= 1.52D-04
 ErrMax= 1.52D-04  0.00D+00 EMaxC= 1.00D-01 BMatC= 2.72D-05 BMatP= 2.58D-04
 IDIUse=3 WtCom= 9.98D-01 WtEn= 1.52D-03
 Coeff-Com: -0.141D-02 0.571D-03 0.253D-01 0.710D-01 0.288D+00 0.617D+00
 Coeff-En:   0.000D+00 0.000D+00 0.000D+00 0.000D+00 0.000D+00 0.100D+01
 Coeff:     -0.141D-02 0.570D-03 0.253D-01 0.709D-01 0.287D+00 0.617D+00
 Gap=     0.192 Goal=   None    Shift=    0.000
 RMSDP=1.20D-04 MaxDP=2.36D-02 DE=-2.05D-04 OVMax= 1.11D-03

 Cycle   7  Pass 1  IDiag  1:
 RMSU=  3.00D-05    CP:  1.51D+00  4.07D-01  1.03D+00  7.58D-01  7.62D-01
                    CP:  9.47D-01
 E= -1182.12165828972     Delta-E=       -0.000021639946 Rises=F Damp=F
 DIIS: error= 4.24D-05 at cycle   7 NSaved=   7.
 NSaved= 7 IEnMin= 7 EnMin= -1182.12165828972     IErMin= 7 ErrMin= 4.24D-05
 ErrMax= 4.24D-05  0.00D+00 EMaxC= 1.00D-01 BMatC= 2.13D-06 BMatP= 2.72D-05
 IDIUse=1 WtCom= 1.00D+00 WtEn= 0.00D+00
 Coeff-Com:  0.308D-03-0.159D-02-0.301D-02 0.234D-02 0.680D-01 0.261D+00
 Coeff-Com:  0.673D+00
 Coeff:      0.308D-03-0.159D-02-0.301D-02 0.234D-02 0.680D-01 0.261D+00
 Coeff:      0.673D+00
 Gap=     0.192 Goal=   None    Shift=    0.000
 RMSDP=1.68D-05 MaxDP=1.97D-03 DE=-2.16D-05 OVMax= 2.91D-04

 Cycle   8  Pass 1  IDiag  1:
 RMSU=  1.20D-05    CP:  1.51D+00  4.07D-01  1.03D+00  7.58D-01  7.77D-01
                    CP:  1.04D+00  9.39D-01
 E= -1182.12166002495     Delta-E=       -0.000001735222 Rises=F Damp=F
 DIIS: error= 1.76D-05 at cycle   8 NSaved=   8.
 NSaved= 8 IEnMin= 8 EnMin= -1182.12166002495     IErMin= 8 ErrMin= 1.76D-05
 ErrMax= 1.76D-05  0.00D+00 EMaxC= 1.00D-01 BMatC= 2.31D-07 BMatP= 2.13D-06
 IDIUse=1 WtCom= 1.00D+00 WtEn= 0.00D+00
 Coeff-Com:  0.294D-03-0.651D-03-0.472D-02-0.900D-02-0.120D-01 0.756D-02
 Coeff-Com:  0.258D+00 0.761D+00
 Coeff:      0.294D-03-0.651D-03-0.472D-02-0.900D-02-0.120D-01 0.756D-02
 Coeff:      0.258D+00 0.761D+00
 Gap=     0.192 Goal=   None    Shift=    0.000
 RMSDP=3.56D-05 MaxDP=6.28D-03 DE=-1.74D-06 OVMax= 1.35D-04

 Cycle   9  Pass 1  IDiag  1:
 RMSU=  3.33D-06    CP:  1.51D+00  4.06D-01  1.03D+00  7.60D-01  7.79D-01
                    CP:  1.04D+00  9.93D-01  7.91D-01
 E= -1182.12166022038     Delta-E=       -0.000000195434 Rises=F Damp=F
 DIIS: error= 6.39D-06 at cycle   9 NSaved=   9.
 NSaved= 9 IEnMin= 9 EnMin= -1182.12166022038     IErMin= 9 ErrMin= 6.39D-06
 ErrMax= 6.39D-06  0.00D+00 EMaxC= 1.00D-01 BMatC= 3.50D-08 BMatP= 2.31D-07
 IDIUse=1 WtCom= 1.00D+00 WtEn= 0.00D+00
 Coeff-Com:  0.117D-03-0.210D-03-0.216D-02-0.464D-02-0.999D-02-0.138D-01
 Coeff-Com:  0.811D-01 0.375D+00 0.574D+00
 Coeff:      0.117D-03-0.210D-03-0.216D-02-0.464D-02-0.999D-02-0.138D-01
 Coeff:      0.811D-01 0.375D+00 0.574D+00
 Gap=     0.192 Goal=   None    Shift=    0.000
 RMSDP=1.88D-06 MaxDP=2.30D-04 DE=-1.95D-07 OVMax= 3.86D-05

 Cycle  10  Pass 1  IDiag  1:
 RMSU=  8.13D-07    CP:  1.51D+00  4.06D-01  1.03D+00  7.60D-01  7.79D-01
                    CP:  1.05D+00  9.96D-01  8.29D-01  9.60D-01
 E= -1182.12166024945     Delta-E=       -0.000000029068 Rises=F Damp=F
 DIIS: error= 2.25D-06 at cycle  10 NSaved=  10.
 NSaved=10 IEnMin=10 EnMin= -1182.12166024945     IErMin=10 ErrMin= 2.25D-06
 ErrMax= 2.25D-06  0.00D+00 EMaxC= 1.00D-01 BMatC= 3.20D-09 BMatP= 3.50D-08
 IDIUse=1 WtCom= 1.00D+00 WtEn= 0.00D+00
 Coeff-Com:  0.796D-05 0.214D-05-0.312D-03-0.829D-03-0.256D-02-0.701D-02
 Coeff-Com:  0.120D-03 0.586D-01 0.240D+00 0.712D+00
 Coeff:      0.796D-05 0.214D-05-0.312D-03-0.829D-03-0.256D-02-0.701D-02
 Coeff:      0.120D-03 0.586D-01 0.240D+00 0.712D+00
 Gap=     0.192 Goal=   None    Shift=    0.000
 RMSDP=1.16D-06 MaxDP=2.09D-04 DE=-2.91D-08 OVMax= 2.05D-05

 Cycle  11  Pass 1  IDiag  1:
 RMSU=  3.21D-07    CP:  1.51D+00  4.06D-01  1.03D+00  7.60D-01  7.79D-01
                    CP:  1.05D+00  9.99D-01  8.50D-01  9.98D-01  9.18D-01
 E= -1182.12166025275     Delta-E=       -0.000000003299 Rises=F Damp=F
 DIIS: error= 8.67D-07 at cycle  11 NSaved=  11.
 NSaved=11 IEnMin=11 EnMin= -1182.12166025275     IErMin=11 ErrMin= 8.67D-07
 ErrMax= 8.67D-07  0.00D+00 EMaxC= 1.00D-01 BMatC= 5.02D-10 BMatP= 3.20D-09
 IDIUse=1 WtCom= 1.00D+00 WtEn= 0.00D+00
 Coeff-Com: -0.132D-04 0.310D-04 0.164D-03 0.262D-03 0.196D-03-0.147D-02
 Coeff-Com: -0.121D-01-0.290D-01 0.146D-01 0.306D+00 0.722D+00
 Coeff:     -0.132D-04 0.310D-04 0.164D-03 0.262D-03 0.196D-03-0.147D-02
 Coeff:     -0.121D-01-0.290D-01 0.146D-01 0.306D+00 0.722D+00
 Gap=     0.192 Goal=   None    Shift=    0.000
 RMSDP=1.15D-06 MaxDP=1.92D-04 DE=-3.30D-09 OVMax= 9.52D-06

 Cycle  12  Pass 1  IDiag  1:
 RMSU=  1.10D-07    CP:  1.51D+00  4.06D-01  1.03D+00  7.60D-01  7.79D-01
                    CP:  1.05D+00  9.98D-01  8.47D-01  1.04D+00  1.02D+00
                    CP:  9.74D-01
 E= -1182.12166025325     Delta-E=       -0.000000000506 Rises=F Damp=F
 DIIS: error= 1.51D-07 at cycle  12 NSaved=  12.
 NSaved=12 IEnMin=12 EnMin= -1182.12166025325     IErMin=12 ErrMin= 1.51D-07
 ErrMax= 1.51D-07  0.00D+00 EMaxC= 1.00D-01 BMatC= 4.10D-11 BMatP= 5.02D-10
 IDIUse=1 WtCom= 1.00D+00 WtEn= 0.00D+00
 Coeff-Com: -0.454D-05 0.896D-05 0.876D-04 0.177D-03 0.393D-03 0.413D-03
 Coeff-Com: -0.378D-02-0.160D-01-0.249D-01 0.228D-01 0.241D+00 0.780D+00
 Coeff:     -0.454D-05 0.896D-05 0.876D-04 0.177D-03 0.393D-03 0.413D-03
 Coeff:     -0.378D-02-0.160D-01-0.249D-01 0.228D-01 0.241D+00 0.780D+00
 Gap=     0.192 Goal=   None    Shift=    0.000
 RMSDP=1.68D-07 MaxDP=3.91D-05 DE=-5.06D-10 OVMax= 4.37D-06

 Cycle  13  Pass 1  IDiag  1:
 RMSU=  3.90D-08    CP:  1.51D+00  4.06D-01  1.03D+00  7.60D-01  7.79D-01
                    CP:  1.05D+00  9.98D-01  8.47D-01  1.04D+00  1.04D+00
                    CP:  1.06D+00  1.06D+00
 E= -1182.12166025331     Delta-E=       -0.000000000057 Rises=F Damp=F
 DIIS: error= 8.17D-08 at cycle  13 NSaved=  13.
 NSaved=13 IEnMin=13 EnMin= -1182.12166025331     IErMin=13 ErrMin= 8.17D-08
 ErrMax= 8.17D-08  0.00D+00 EMaxC= 1.00D-01 BMatC= 4.51D-12 BMatP= 4.10D-11
 IDIUse=1 WtCom= 1.00D+00 WtEn= 0.00D+00
 Coeff-Com:  0.868D-06-0.203D-05-0.612D-06 0.419D-05 0.559D-04 0.250D-03
 Coeff-Com:  0.547D-03 0.281D-03-0.747D-02-0.303D-01-0.408D-01 0.203D+00
 Coeff-Com:  0.874D+00
 Coeff:      0.868D-06-0.203D-05-0.612D-06 0.419D-05 0.559D-04 0.250D-03
 Coeff:      0.547D-03 0.281D-03-0.747D-02-0.303D-01-0.408D-01 0.203D+00
 Coeff:      0.874D+00
 Gap=     0.192 Goal=   None    Shift=    0.000
 RMSDP=4.19D-08 MaxDP=7.46D-06 DE=-5.73D-11 OVMax= 2.84D-06

 Cycle  14  Pass 1  IDiag  1:
 RMSU=  1.66D-08    CP:  1.51D+00  4.06D-01  1.03D+00  7.60D-01  7.79D-01
                    CP:  1.05D+00  9.98D-01  8.48D-01  1.04D+00  1.04D+00
                    CP:  1.08D+00  1.18D+00  9.25D-01
 E= -1182.12166025330     Delta-E=        0.000000000006 Rises=F Damp=F
 DIIS: error= 3.96D-08 at cycle  14 NSaved=  14.
 NSaved=14 IEnMin=13 EnMin= -1182.12166025331     IErMin=14 ErrMin= 3.96D-08
 ErrMax= 3.96D-08  0.00D+00 EMaxC= 1.00D-01 BMatC= 1.18D-12 BMatP= 4.51D-12
 IDIUse=1 WtCom= 1.00D+00 WtEn= 0.00D+00
 Coeff-Com:  0.906D-06-0.197D-05-0.982D-05-0.173D-04-0.185D-04 0.711D-04
 Coeff-Com:  0.661D-03 0.199D-02-0.836D-03-0.171D-01-0.510D-01-0.845D-03
 Coeff-Com:  0.413D+00 0.654D+00
 Coeff:      0.906D-06-0.197D-05-0.982D-05-0.173D-04-0.185D-04 0.711D-04
 Coeff:      0.661D-03 0.199D-02-0.836D-03-0.171D-01-0.510D-01-0.845D-03
 Coeff:      0.413D+00 0.654D+00
 Gap=     0.192 Goal=   None    Shift=    0.000
 RMSDP=1.13D-08 MaxDP=1.85D-06 DE= 6.37D-12 OVMax= 8.68D-07

 Cycle  15  Pass 1  IDiag  1:
 RMSU=  5.65D-09    CP:  1.51D+00  4.06D-01  1.03D+00  7.60D-01  7.79D-01
                    CP:  1.05D+00  9.98D-01  8.48D-01  1.04D+00  1.04D+00
                    CP:  1.09D+00  1.21D+00  1.05D+00  9.01D-01
 E= -1182.12166025341     Delta-E=       -0.000000000109 Rises=F Damp=F
 DIIS: error= 1.37D-08 at cycle  15 NSaved=  15.
 NSaved=15 IEnMin=15 EnMin= -1182.12166025341     IErMin=15 ErrMin= 1.37D-08
 ErrMax= 1.37D-08  0.00D+00 EMaxC= 1.00D-01 BMatC= 1.30D-13 BMatP= 1.18D-12
 IDIUse=1 WtCom= 1.00D+00 WtEn= 0.00D+00
 Coeff-Com:  0.180D-06-0.399D-06-0.376D-05-0.752D-05-0.162D-04-0.160D-04
 Coeff-Com:  0.171D-03 0.807D-03 0.114D-02-0.713D-03-0.131D-01-0.406D-01
 Coeff-Com:  0.109D-01 0.253D+00 0.789D+00
 Coeff:      0.180D-06-0.399D-06-0.376D-05-0.752D-05-0.162D-04-0.160D-04
 Coeff:      0.171D-03 0.807D-03 0.114D-02-0.713D-03-0.131D-01-0.406D-01
 Coeff:      0.109D-01 0.253D+00 0.789D+00
 Gap=     0.192 Goal=   None    Shift=    0.000
 RMSDP=1.33D-08 MaxDP=2.52D-06 DE=-1.09D-10 OVMax= 4.43D-07

 Cycle  16  Pass 1  IDiag  1:
 RMSU=  2.33D-09    CP:  1.51D+00  4.06D-01  1.03D+00  7.60D-01  7.79D-01
                    CP:  1.05D+00  9.98D-01  8.48D-01  1.04D+00  1.04D+00
                    CP:  1.09D+00  1.21D+00  1.08D+00  9.72D-01  9.94D-01
 E= -1182.12166025339     Delta-E=        0.000000000025 Rises=F Damp=F
 DIIS: error= 3.95D-09 at cycle  16 NSaved=  16.
 NSaved=16 IEnMin=15 EnMin= -1182.12166025341     IErMin=16 ErrMin= 3.95D-09
 ErrMax= 3.95D-09  0.00D+00 EMaxC= 1.00D-01 BMatC= 1.73D-14 BMatP= 1.30D-13
 IDIUse=1 WtCom= 1.00D+00 WtEn= 0.00D+00
 Coeff-Com: -0.749D-07 0.152D-06 0.152D-06-0.859D-07-0.249D-05-0.154D-04
 Coeff-Com: -0.365D-04-0.267D-05 0.440D-03 0.210D-02 0.262D-02-0.135D-01
 Coeff-Com: -0.500D-01-0.225D-01 0.255D+00 0.826D+00
 Coeff:     -0.749D-07 0.152D-06 0.152D-06-0.859D-07-0.249D-05-0.154D-04
 Coeff:     -0.365D-04-0.267D-05 0.440D-03 0.210D-02 0.262D-02-0.135D-01
 Coeff:     -0.500D-01-0.225D-01 0.255D+00 0.826D+00
 Gap=     0.192 Goal=   None    Shift=    0.000
 RMSDP=1.79D-09 MaxDP=2.12D-07 DE= 2.55D-11 OVMax= 1.10D-07

 SCF Done:  E(RM062X) =  -1182.12166025     A.U. after   16 cycles
            NFock= 16  Conv=0.18D-08     -V/T= 2.0033
 KE= 1.178222758317D+03 PE=-5.440950180641D+03 EE= 1.750618298897D+03
 Leave Link  502 at Sun Feb 19 22:22:04 2023, MaxMem=  6710886400 cpu:            2903.9 elap:             121.4
 (Enter /data0/home/software/g16/l601.exe)
 Copying SCF densities to generalized density rwf, IOpCl= 0 IROHF=0.

 **********************************************************************

            Population analysis using the SCF density.

 **********************************************************************

 Alpha  occ. eigenvalues --  -90.03257 -19.68591 -19.63238 -19.54286 -19.53975
 Alpha  occ. eigenvalues --  -19.53204 -14.89866 -10.66077 -10.65146 -10.62423
 Alpha  occ. eigenvalues --  -10.61585 -10.61508 -10.61343 -10.57093 -10.56786
 Alpha  occ. eigenvalues --  -10.53957  -8.36656  -6.28937  -6.28914  -6.28875
 Alpha  occ. eigenvalues --   -1.19330  -1.17343  -1.16943  -1.14343  -1.04103
 Alpha  occ. eigenvalues --   -1.02491  -0.99367  -0.94349  -0.91213  -0.84944
 Alpha  occ. eigenvalues --   -0.83096  -0.77660  -0.75519  -0.71177  -0.67069
 Alpha  occ. eigenvalues --   -0.65769  -0.64112  -0.62298  -0.61889  -0.59802
 Alpha  occ. eigenvalues --   -0.58999  -0.57061  -0.55129  -0.54057  -0.53790
 Alpha  occ. eigenvalues --   -0.51984  -0.51551  -0.50321  -0.49580  -0.49381
 Alpha  occ. eigenvalues --   -0.48273  -0.47986  -0.47051  -0.46749  -0.45261
 Alpha  occ. eigenvalues --   -0.44411  -0.43448  -0.42469  -0.41170  -0.39652
 Alpha  occ. eigenvalues --   -0.36658  -0.35698  -0.35152  -0.31884  -0.30903
 Alpha  occ. eigenvalues --   -0.29889  -0.27196
 Alpha virt. eigenvalues --   -0.07992  -0.04392  -0.01970  -0.00178   0.00239
 Alpha virt. eigenvalues --    0.01389   0.01698   0.02551   0.03516   0.03784
 Alpha virt. eigenvalues --    0.04188   0.04896   0.05655   0.06511   0.06626
 Alpha virt. eigenvalues --    0.07291   0.07865   0.08411   0.08911   0.09298
 Alpha virt. eigenvalues --    0.09588   0.10470   0.10626   0.11378   0.11625
 Alpha virt. eigenvalues --    0.12103   0.12238   0.12571   0.12969   0.13540
 Alpha virt. eigenvalues --    0.13789   0.14370   0.15005   0.15152   0.15501
 Alpha virt. eigenvalues --    0.15669   0.16204   0.16417   0.16921   0.17098
 Alpha virt. eigenvalues --    0.17710   0.18000   0.18084   0.18639   0.18748
 Alpha virt. eigenvalues --    0.19551   0.19786   0.20080   0.20289   0.21192
 Alpha virt. eigenvalues --    0.21279   0.21377   0.22190   0.22472   0.23319
 Alpha virt. eigenvalues --    0.23650   0.23772   0.24045   0.24567   0.24853
 Alpha virt. eigenvalues --    0.25069   0.25697   0.25873   0.26373   0.26778
 Alpha virt. eigenvalues --    0.27327   0.27400   0.28157   0.28663   0.28768
 Alpha virt. eigenvalues --    0.29756   0.30259   0.31151   0.31350   0.32157
 Alpha virt. eigenvalues --    0.32390   0.33200   0.33494   0.33741   0.34207
 Alpha virt. eigenvalues --    0.34784   0.35246   0.36179   0.36508   0.37083
 Alpha virt. eigenvalues --    0.37611   0.38203   0.38727   0.38866   0.38951
 Alpha virt. eigenvalues --    0.40273   0.40879   0.42245   0.43025   0.43394
 Alpha virt. eigenvalues --    0.44676   0.44849   0.46155   0.46451   0.46625
 Alpha virt. eigenvalues --    0.48262   0.49296   0.49809   0.50292   0.51244
 Alpha virt. eigenvalues --    0.51740   0.51961   0.52298   0.53746   0.54386
 Alpha virt. eigenvalues --    0.54783   0.55659   0.56103   0.56544   0.56834
 Alpha virt. eigenvalues --    0.57159   0.58269   0.59659   0.60353   0.60741
 Alpha virt. eigenvalues --    0.61797   0.62268   0.62585   0.63390   0.64252
 Alpha virt. eigenvalues --    0.64770   0.65280   0.66358   0.67203   0.67682
 Alpha virt. eigenvalues --    0.68215   0.68383   0.69503   0.69936   0.70121
 Alpha virt. eigenvalues --    0.71079   0.71555   0.72812   0.72951   0.74960
 Alpha virt. eigenvalues --    0.75172   0.75462   0.76516   0.77470   0.78187
 Alpha virt. eigenvalues --    0.78447   0.79708   0.80247   0.80446   0.81336
 Alpha virt. eigenvalues --    0.82641   0.83228   0.83514   0.84975   0.85606
 Alpha virt. eigenvalues --    0.87115   0.87981   0.89421   0.90809   0.92446
 Alpha virt. eigenvalues --    0.93306   0.94862   0.95023   0.96021   0.96902
 Alpha virt. eigenvalues --    0.98110   0.99110   1.00688   1.01167   1.02524
 Alpha virt. eigenvalues --    1.03091   1.03694   1.05410   1.05556   1.07883
 Alpha virt. eigenvalues --    1.08365   1.09145   1.09819   1.10900   1.11541
 Alpha virt. eigenvalues --    1.11956   1.12532   1.13339   1.15406   1.16002
 Alpha virt. eigenvalues --    1.17168   1.18420   1.19273   1.20131   1.21012
 Alpha virt. eigenvalues --    1.21896   1.23079   1.24356   1.24852   1.26498
 Alpha virt. eigenvalues --    1.26994   1.27953   1.28072   1.28718   1.29250
 Alpha virt. eigenvalues --    1.29611   1.31097   1.31383   1.31677   1.33092
 Alpha virt. eigenvalues --    1.34186   1.34774   1.35177   1.35661   1.36710
 Alpha virt. eigenvalues --    1.37364   1.38178   1.39174   1.40562   1.41008
 Alpha virt. eigenvalues --    1.41744   1.42098   1.42652   1.44306   1.45457
 Alpha virt. eigenvalues --    1.45810   1.47257   1.47535   1.50749   1.52673
 Alpha virt. eigenvalues --    1.53281   1.54642   1.55679   1.57414   1.59097
 Alpha virt. eigenvalues --    1.60413   1.60699   1.61506   1.62305   1.63162
 Alpha virt. eigenvalues --    1.64248   1.65203   1.65732   1.67427   1.69791
 Alpha virt. eigenvalues --    1.71144   1.72439   1.72664   1.73840   1.74618
 Alpha virt. eigenvalues --    1.75928   1.76365   1.76689   1.77487   1.79614
 Alpha virt. eigenvalues --    1.81813   1.82051   1.83547   1.84323   1.85236
 Alpha virt. eigenvalues --    1.86400   1.88007   1.90112   1.91194   1.91902
 Alpha virt. eigenvalues --    1.93190   1.93868   1.95306   1.96118   1.96778
 Alpha virt. eigenvalues --    1.98324   1.99266   2.00887   2.02260   2.03819
 Alpha virt. eigenvalues --    2.06496   2.07131   2.09020   2.09690   2.12115
 Alpha virt. eigenvalues --    2.12479   2.12950   2.17037   2.17942   2.19244
 Alpha virt. eigenvalues --    2.19569   2.22674   2.23414   2.24404   2.25954
 Alpha virt. eigenvalues --    2.28252   2.30685   2.31679   2.32849   2.33751
 Alpha virt. eigenvalues --    2.34389   2.35934   2.36441   2.37085   2.37843
 Alpha virt. eigenvalues --    2.39618   2.40806   2.41382   2.41918   2.44132
 Alpha virt. eigenvalues --    2.44947   2.46813   2.47957   2.49076   2.52417
 Alpha virt. eigenvalues --    2.53509   2.55022   2.55629   2.56624   2.63959
 Alpha virt. eigenvalues --    2.65470   2.68002   2.70066   2.74044   2.74623
 Alpha virt. eigenvalues --    2.75218   2.76894   2.78006   2.79184   2.80320
 Alpha virt. eigenvalues --    2.81623   2.83652   2.84210   2.86297   2.86461
 Alpha virt. eigenvalues --    2.88326   2.90266   2.91445   2.92257   2.93348
 Alpha virt. eigenvalues --    2.95722   2.96256   2.96667   2.98762   2.99141
 Alpha virt. eigenvalues --    3.02294   3.04529   3.07875   3.09347   3.11182
 Alpha virt. eigenvalues --    3.12005   3.14172   3.15323   3.17109   3.20491
 Alpha virt. eigenvalues --    3.22172   3.23754   3.26045   3.28592   3.29429
 Alpha virt. eigenvalues --    3.31985   3.32624   3.33639   3.36278   3.37418
 Alpha virt. eigenvalues --    3.38192   3.40844   3.42035   3.42840   3.43940
 Alpha virt. eigenvalues --    3.46006   3.47387   3.49193   3.50738   3.51264
 Alpha virt. eigenvalues --    3.52560   3.53007   3.53451   3.57010   3.58305
 Alpha virt. eigenvalues --    3.58751   3.60463   3.61720   3.62773   3.64340
 Alpha virt. eigenvalues --    3.64448   3.65864   3.68019   3.69228   3.70282
 Alpha virt. eigenvalues --    3.71123   3.74478   3.76349   3.77192   3.78025
 Alpha virt. eigenvalues --    3.79554   3.81465   3.85633   3.89347   3.91347
 Alpha virt. eigenvalues --    3.94171   3.96729   4.00137   4.02193   4.04560
 Alpha virt. eigenvalues --    4.11599   4.13741   4.17346   4.21060   4.22201
 Alpha virt. eigenvalues --    4.25637   4.26931   4.40613   4.50382   4.53098
 Alpha virt. eigenvalues --    4.62365   4.70341   4.95465   5.00829   5.04470
 Alpha virt. eigenvalues --    5.09109   5.09531   5.11924   5.23447   5.25163
 Alpha virt. eigenvalues --    5.26736   5.28683   5.29383   5.30389   5.32855
 Alpha virt. eigenvalues --    5.38771   5.44965   5.50210   5.54624   5.55678
 Alpha virt. eigenvalues --    5.58444   5.59281   5.74741   5.87548   5.96148
 Alpha virt. eigenvalues --    6.73521   6.78143   6.79471   6.81681   6.82027
 Alpha virt. eigenvalues --    6.83816   6.85783   6.85986   6.86817   6.89284
 Alpha virt. eigenvalues --    6.91523   6.92720   6.93363   6.96378   6.97915
 Alpha virt. eigenvalues --    7.00773   7.01298   7.06894   7.09286   7.15526
 Alpha virt. eigenvalues --    7.23027   7.23211   7.30471   7.44089   7.44511
 Alpha virt. eigenvalues --    8.61780  17.78815  17.82329  17.86932  23.80573
 Alpha virt. eigenvalues --   23.95958  23.96734  24.03168  24.04248  24.05856
 Alpha virt. eigenvalues --   24.07643  24.10350  24.22173  35.66609  49.95144
 Alpha virt. eigenvalues --   50.03152  50.10017  50.14748  50.19596 189.91565
          Condensed to atoms (all electrons):
               1          2          3          4          5          6
     1  C   15.161117  -9.141546   5.463184  -1.562614  -4.597674  -0.039551
     2  C   -9.141546  15.865776  -6.825971   2.498076   3.672095   0.055120
     3  C    5.463184  -6.825971  17.756649  -4.503475  -4.981993   0.276929
     4  C   -1.562614   2.498076  -4.503475  11.357700  -2.260236   0.047809
     5  C   -4.597674   3.672095  -4.981993  -2.260236  14.191703   0.012824
     6  H   -0.039551   0.055120   0.276929   0.047809   0.012824   0.467240
     7  H    0.338860   0.032125  -0.009063  -0.005375   0.024580  -0.000194
     8  H    0.193323   0.168365   0.072564  -0.056138  -0.045394  -0.003763
     9  H    0.010506  -0.012282  -0.005228   0.018343   0.369908  -0.000103
    10  C   -0.128268   0.206110  -0.797550   0.019005   0.121190   0.000480
    11  H   -0.005805  -0.004154  -0.047278  -0.151703   0.126861   0.000047
    12  H    0.011658   0.023674   0.082709  -0.134222  -0.036684   0.002264
    13  H    0.004389  -0.008703  -0.037619   0.089600  -0.059549   0.000118
    14  N    0.242249   0.032970  -0.146090  -0.127291   0.331668   0.000448
    15  C    0.302895  -0.505074   0.038073  -0.096690  -0.266925   0.000242
    16  H    0.010538  -0.008413  -0.002518   0.019769  -0.032876  -0.000000
    17  H   -0.012270   0.003464  -0.005426   0.029932   0.003584  -0.000002
    18  C   -0.294400   0.445247  -0.181041  -0.070762   0.312204  -0.000328
    19  H    0.039566  -0.013031  -0.016782   0.025683  -0.033398   0.000007
    20  H   -0.016993  -0.000777   0.002327  -0.006227   0.005645  -0.000000
    21  C    0.189358  -0.361516   0.141927   0.012802  -0.051703  -0.000027
    22  H   -0.002226   0.000662  -0.000417  -0.002518   0.003294   0.000000
    23  H    0.001897   0.000733  -0.000402   0.000827  -0.004738  -0.000000
    24  S   -0.040490   0.043929  -0.031283  -0.034370   0.008095  -0.000010
    25  O   -0.006267  -0.021186  -0.003791   0.060781  -0.074371   0.000018
    26  O   -0.000055  -0.000599   0.001835  -0.003803   0.002695   0.000000
    27  O   -0.011848   0.007837  -0.003252   0.002822  -0.002801  -0.000001
    28  O   -0.091741   0.139159  -0.082851   0.050304   0.021192  -0.000047
    29  H    0.076404  -0.064834   0.030996  -0.022656  -0.014919  -0.000274
    30  H    0.033730  -0.037004   0.009867  -0.006085  -0.002193  -0.000045
    31  O    0.015588   0.117954  -0.296091   0.109469   0.044641  -0.009034
    32  H    0.007586  -0.027115   0.041085  -0.019103  -0.001647  -0.000413
    33  H    0.074355  -0.062370   0.025162  -0.030883  -0.015852   0.000445
               7          8          9         10         11         12
     1  C    0.338860   0.193323   0.010506  -0.128268  -0.005805   0.011658
     2  C    0.032125   0.168365  -0.012282   0.206110  -0.004154   0.023674
     3  C   -0.009063   0.072564  -0.005228  -0.797550  -0.047278   0.082709
     4  C   -0.005375  -0.056138   0.018343   0.019005  -0.151703  -0.134222
     5  C    0.024580  -0.045394   0.369908   0.121190   0.126861  -0.036684
     6  H   -0.000194  -0.003763  -0.000103   0.000480   0.000047   0.002264
     7  H    0.463411  -0.003028  -0.000131   0.000659   0.000000  -0.000002
     8  H   -0.003028   0.463908   0.000019  -0.000632   0.000003   0.000005
     9  H   -0.000131   0.000019   0.427736   0.017043   0.003588  -0.000264
    10  C    0.000659  -0.000632   0.017043   6.191575   0.442084   0.417752
    11  H    0.000000   0.000003   0.003588   0.442084   0.495880  -0.023758
    12  H   -0.000002   0.000005  -0.000264   0.417752  -0.023758   0.510171
    13  H   -0.000002   0.000012   0.000207   0.371703  -0.021074  -0.025661
    14  N   -0.047922   0.005091  -0.063735  -0.046955   0.002459  -0.001732
    15  C    0.009953   0.004409  -0.005813  -0.007345   0.002410   0.000053
    16  H   -0.001299  -0.000005   0.000712   0.000208  -0.000003  -0.000001
    17  H    0.000241   0.000006   0.007569   0.001042   0.000030  -0.000001
    18  C    0.005489  -0.001064   0.020264   0.009077   0.000538  -0.000091
    19  H   -0.002713  -0.000018   0.000574   0.000999  -0.000000  -0.000000
    20  H   -0.000086   0.000008  -0.000165  -0.000268  -0.000000   0.000000
    21  C   -0.001196   0.000580  -0.009964  -0.013973  -0.000714   0.000093
    22  H   -0.000012  -0.000000  -0.000041  -0.000081   0.000000  -0.000000
    23  H    0.000001  -0.000000   0.000026   0.000021   0.000000  -0.000000
    24  S    0.000370  -0.000064  -0.000327  -0.007651   0.001148  -0.000134
    25  O   -0.000357  -0.000016  -0.000315   0.017679  -0.000574  -0.000048
    26  O    0.000005   0.000000  -0.001400  -0.002419  -0.000006   0.000000
    27  O    0.000051  -0.000003   0.000838   0.002033   0.000005   0.000000
    28  O   -0.000546  -0.008173  -0.000007   0.000188   0.000001  -0.000006
    29  H   -0.001057   0.000801  -0.000004  -0.001555  -0.000001   0.000001
    30  H   -0.000065   0.001719  -0.000000  -0.000126  -0.000000   0.000000
    31  O    0.000034   0.000976  -0.000003   0.012109  -0.000012  -0.000131
    32  H   -0.000005   0.000760  -0.000000  -0.001126  -0.000000   0.000002
    33  H   -0.000158   0.004557   0.000003   0.000307  -0.000000  -0.000007
              13         14         15         16         17         18
     1  C    0.004389   0.242249   0.302895   0.010538  -0.012270  -0.294400
     2  C   -0.008703   0.032970  -0.505074  -0.008413   0.003464   0.445247
     3  C   -0.037619  -0.146090   0.038073  -0.002518  -0.005426  -0.181041
     4  C    0.089600  -0.127291  -0.096690   0.019769   0.029932  -0.070762
     5  C   -0.059549   0.331668  -0.266925  -0.032876   0.003584   0.312204
     6  H    0.000118   0.000448   0.000242  -0.000000  -0.000002  -0.000328
     7  H   -0.000002  -0.047922   0.009953  -0.001299   0.000241   0.005489
     8  H    0.000012   0.005091   0.004409  -0.000005   0.000006  -0.001064
     9  H    0.000207  -0.063735  -0.005813   0.000712   0.007569   0.020264
    10  C    0.371703  -0.046955  -0.007345   0.000208   0.001042   0.009077
    11  H   -0.021074   0.002459   0.002410  -0.000003   0.000030   0.000538
    12  H   -0.025661  -0.001732   0.000053  -0.000001  -0.000001  -0.000091
    13  H    0.463645   0.001222  -0.000175   0.000000   0.000003   0.000255
    14  N    0.001222   6.262898   0.127521  -0.015547  -0.073068  -0.151013
    15  C   -0.000175   0.127521   6.794477   0.420975   0.449803  -0.811461
    16  H    0.000000  -0.015547   0.420975   0.501323  -0.026987  -0.069959
    17  H    0.000003  -0.073068   0.449803  -0.026987   0.449827  -0.009599
    18  C    0.000255  -0.151013  -0.811461  -0.069959  -0.009599   7.842962
    19  H   -0.000004   0.008004  -0.043527   0.002851   0.000969   0.461972
    20  H    0.000000  -0.000599   0.000604  -0.013510   0.003166   0.347140
    21  C   -0.000124   0.075932   0.022485   0.021860  -0.026859  -1.647249
    22  H   -0.000000   0.003401  -0.022643  -0.000448  -0.000932  -0.016037
    23  H    0.000000  -0.002286   0.043594  -0.000180   0.000231  -0.046747
    24  S    0.000090   0.014498   0.086432   0.000791   0.006257  -0.041986
    25  O    0.000256  -0.005254  -0.031122   0.004390  -0.002910  -0.078129
    26  O   -0.000001   0.001126   0.022779  -0.000209  -0.002231   0.021314
    27  O    0.000039  -0.011527  -0.014508  -0.000027   0.000483   0.035122
    28  O    0.000001  -0.001095  -0.001155   0.000001  -0.000001   0.000664
    29  H    0.000007   0.000140  -0.002942  -0.000006  -0.000002   0.002079
    30  H    0.000000  -0.000154  -0.000076  -0.000000  -0.000000   0.000392
    31  O   -0.000106  -0.000744  -0.000289   0.000001  -0.000001   0.000441
    32  H    0.000008   0.000102   0.000071  -0.000000  -0.000000  -0.000076
    33  H    0.000001   0.000362   0.001017  -0.000000   0.000000  -0.000465
              19         20         21         22         23         24
     1  C    0.039566  -0.016993   0.189358  -0.002226   0.001897  -0.040490
     2  C   -0.013031  -0.000777  -0.361516   0.000662   0.000733   0.043929
     3  C   -0.016782   0.002327   0.141927  -0.000417  -0.000402  -0.031283
     4  C    0.025683  -0.006227   0.012802  -0.002518   0.000827  -0.034370
     5  C   -0.033398   0.005645  -0.051703   0.003294  -0.004738   0.008095
     6  H    0.000007  -0.000000  -0.000027   0.000000  -0.000000  -0.000010
     7  H   -0.002713  -0.000086  -0.001196  -0.000012   0.000001   0.000370
     8  H   -0.000018   0.000008   0.000580  -0.000000  -0.000000  -0.000064
     9  H    0.000574  -0.000165  -0.009964  -0.000041   0.000026  -0.000327
    10  C    0.000999  -0.000268  -0.013973  -0.000081   0.000021  -0.007651
    11  H   -0.000000  -0.000000  -0.000714   0.000000   0.000000   0.001148
    12  H   -0.000000   0.000000   0.000093  -0.000000  -0.000000  -0.000134
    13  H   -0.000004   0.000000  -0.000124  -0.000000   0.000000   0.000090
    14  N    0.008004  -0.000599   0.075932   0.003401  -0.002286   0.014498
    15  C   -0.043527   0.000604   0.022485  -0.022643   0.043594   0.086432
    16  H    0.002851  -0.013510   0.021860  -0.000448  -0.000180   0.000791
    17  H    0.000969   0.003166  -0.026859  -0.000932   0.000231   0.006257
    18  C    0.461972   0.347140  -1.647249  -0.016037  -0.046747  -0.041986
    19  H    0.491202  -0.041165  -0.048297   0.004516  -0.002995  -0.015319
    20  H   -0.041165   0.541942   0.023115  -0.005986  -0.003615   0.007795
    21  C   -0.048297   0.023115   7.333226   0.445044   0.363365   0.151317
    22  H    0.004516  -0.005986   0.445044   0.480546  -0.030613  -0.052872
    23  H   -0.002995  -0.003615   0.363365  -0.030613   0.492514  -0.009312
    24  S   -0.015319   0.007795   0.151317  -0.052872  -0.009312  13.687063
    25  O    0.000095  -0.001093   0.067704   0.000708  -0.005204   0.238065
    26  O   -0.000411  -0.000030  -0.110043   0.006588   0.001067   0.452022
    27  O   -0.000641  -0.001283  -0.028418  -0.004553   0.005134   0.485658
    28  O   -0.000244   0.000005  -0.000704   0.000000   0.000000   0.000100
    29  H   -0.000376   0.000017   0.001123   0.000000  -0.000003  -0.000135
    30  H   -0.000048   0.000000   0.000124  -0.000000   0.000000  -0.000010
    31  O    0.000022   0.000000  -0.000025   0.000000   0.000000   0.000055
    32  H    0.000000   0.000000   0.000005  -0.000000  -0.000000  -0.000007
    33  H   -0.000008  -0.000000   0.000116  -0.000000  -0.000000  -0.000032
              25         26         27         28         29         30
     1  C   -0.006267  -0.000055  -0.011848  -0.091741   0.076404   0.033730
     2  C   -0.021186  -0.000599   0.007837   0.139159  -0.064834  -0.037004
     3  C   -0.003791   0.001835  -0.003252  -0.082851   0.030996   0.009867
     4  C    0.060781  -0.003803   0.002822   0.050304  -0.022656  -0.006085
     5  C   -0.074371   0.002695  -0.002801   0.021192  -0.014919  -0.002193
     6  H    0.000018   0.000000  -0.000001  -0.000047  -0.000274  -0.000045
     7  H   -0.000357   0.000005   0.000051  -0.000546  -0.001057  -0.000065
     8  H   -0.000016   0.000000  -0.000003  -0.008173   0.000801   0.001719
     9  H   -0.000315  -0.001400   0.000838  -0.000007  -0.000004  -0.000000
    10  C    0.017679  -0.002419   0.002033   0.000188  -0.001555  -0.000126
    11  H   -0.000574  -0.000006   0.000005   0.000001  -0.000001  -0.000000
    12  H   -0.000048   0.000000   0.000000  -0.000006   0.000001   0.000000
    13  H    0.000256  -0.000001   0.000039   0.000001   0.000007   0.000000
    14  N   -0.005254   0.001126  -0.011527  -0.001095   0.000140  -0.000154
    15  C   -0.031122   0.022779  -0.014508  -0.001155  -0.002942  -0.000076
    16  H    0.004390  -0.000209  -0.000027   0.000001  -0.000006  -0.000000
    17  H   -0.002910  -0.002231   0.000483  -0.000001  -0.000002  -0.000000
    18  C   -0.078129   0.021314   0.035122   0.000664   0.002079   0.000392
    19  H    0.000095  -0.000411  -0.000641  -0.000244  -0.000376  -0.000048
    20  H   -0.001093  -0.000030  -0.001283   0.000005   0.000017   0.000000
    21  C    0.067704  -0.110043  -0.028418  -0.000704   0.001123   0.000124
    22  H    0.000708   0.006588  -0.004553   0.000000   0.000000  -0.000000
    23  H   -0.005204   0.001067   0.005134   0.000000  -0.000003   0.000000
    24  S    0.238065   0.452022   0.485658   0.000100  -0.000135  -0.000010
    25  O    8.585533  -0.024822  -0.048042  -0.000022  -0.000010   0.000000
    26  O   -0.024822   8.241749  -0.087671  -0.000001   0.000001   0.000000
    27  O   -0.048042  -0.087671   8.279822   0.000037  -0.000045  -0.000002
    28  O   -0.000022  -0.000001   0.000037   8.002248   0.304888   0.297819
    29  H   -0.000010   0.000001  -0.000045   0.304888   0.390668  -0.012970
    30  H    0.000000   0.000000  -0.000002   0.297819  -0.012970   0.394097
    31  O    0.000034  -0.000000  -0.000002  -0.023963   0.001515   0.001398
    32  H    0.000000  -0.000000  -0.000000   0.006904   0.000022  -0.000721
    33  H    0.000007   0.000000  -0.000002  -0.002645  -0.005450  -0.003999
              31         32         33
     1  C    0.015588   0.007586   0.074355
     2  C    0.117954  -0.027115  -0.062370
     3  C   -0.296091   0.041085   0.025162
     4  C    0.109469  -0.019103  -0.030883
     5  C    0.044641  -0.001647  -0.015852
     6  H   -0.009034  -0.000413   0.000445
     7  H    0.000034  -0.000005  -0.000158
     8  H    0.000976   0.000760   0.004557
     9  H   -0.000003  -0.000000   0.000003
    10  C    0.012109  -0.001126   0.000307
    11  H   -0.000012  -0.000000  -0.000000
    12  H   -0.000131   0.000002  -0.000007
    13  H   -0.000106   0.000008   0.000001
    14  N   -0.000744   0.000102   0.000362
    15  C   -0.000289   0.000071   0.001017
    16  H    0.000001  -0.000000  -0.000000
    17  H   -0.000001  -0.000000   0.000000
    18  C    0.000441  -0.000076  -0.000465
    19  H    0.000022   0.000000  -0.000008
    20  H    0.000000   0.000000  -0.000000
    21  C   -0.000025   0.000005   0.000116
    22  H    0.000000  -0.000000  -0.000000
    23  H    0.000000  -0.000000  -0.000000
    24  S    0.000055  -0.000007  -0.000032
    25  O    0.000034   0.000000   0.000007
    26  O   -0.000000  -0.000000   0.000000
    27  O   -0.000002  -0.000000  -0.000002
    28  O   -0.023963   0.006904  -0.002645
    29  H    0.001515   0.000022  -0.005450
    30  H    0.001398  -0.000721  -0.003999
    31  O    8.058051   0.291199   0.311285
    32  H    0.291199   0.414045  -0.022125
    33  H    0.311285  -0.022125   0.385922
 Mulliken charges:
               1
     1  C   -0.225456
     2  C   -0.218720
     3  C    0.034815
     4  C    0.751231
     5  C   -0.769226
     6  H    0.189802
     7  H    0.197431
     8  H    0.201196
     9  H    0.222445
    10  C   -0.823316
    11  H    0.180027
    12  H    0.174360
    13  H    0.221461
    14  N    0.584921
    15  C   -0.518051
    16  H    0.188571
    17  H    0.203680
    18  C   -0.084751
    19  H    0.182516
    20  H    0.160030
    21  C   -0.549365
    22  H    0.194621
    23  H    0.196683
    24  S    1.050317
    25  O   -0.671741
    26  O   -0.517479
    27  O   -0.605255
    28  O   -0.610312
    29  H    0.318577
    30  H    0.324350
    31  O   -0.634372
    32  H    0.310550
    33  H    0.340457
 Sum of Mulliken charges =  -0.00000
 Mulliken charges with hydrogens summed into heavy atoms:
               1
     1  C   -0.028025
     2  C   -0.017523
     3  C    0.224617
     4  C    0.751231
     5  C   -0.546781
    10  C   -0.247468
    14  N    0.584921
    15  C   -0.125799
    18  C    0.257795
    21  C   -0.158061
    24  S    1.050317
    25  O   -0.671741
    26  O   -0.517479
    27  O   -0.605255
    28  O    0.032616
    31  O    0.016636
         Mulliken charges condensed to fragments:
      1     -0.049251
      2      0.032616
      3      0.016636
 Electronic spatial extent (au):  <R**2>=         150843.5104
 Charge=             -0.0000 electrons
 Dipole moment (field-independent basis, Debye):
    X=              6.2453    Y=             11.3764    Z=             -8.1629  Tot=             15.3316
 Quadrupole moment (field-independent basis, Debye-Ang):
   XX=             29.1204   YY=            112.5894   ZZ=           -277.0236
   XY=            162.5509   XZ=             -2.6399   YZ=             60.9424
 Traceless Quadrupole moment (field-independent basis, Debye-Ang):
   XX=             74.2250   YY=            157.6940   ZZ=           -231.9190
   XY=            162.5509   XZ=             -2.6399   YZ=             60.9424
 Octapole moment (field-independent basis, Debye-Ang**2):
  XXX=           -692.7425  YYY=            -63.2812  ZZZ=          -6077.3699  XYY=           1550.3730
  XXY=           1194.9940  XXZ=           -282.8983  XZZ=          -1720.3677  YZZ=          -1011.9873
  YYZ=            801.4110  XYZ=           1218.0577
 Hexadecapole moment (field-independent basis, Debye-Ang**3):
 XXXX=         -22215.4558 YYYY=         -26014.8907 ZZZZ=        -112731.7944 XXXY=           1076.1853
 XXXZ=         -11940.0773 YYYX=           3233.3059 YYYZ=          -2258.0194 ZZZX=         -45900.5619
 ZZZY=         -38868.9994 XXYY=          10222.7419 XXZZ=         -19030.1314 YYZZ=          -6608.1379
 XXYZ=           8457.5099 YYXZ=          13349.6887 ZZXY=          -2117.1870
 N-N= 1.329987463173D+03 E-N=-5.440950181494D+03  KE= 1.178222758317D+03
 No NMR shielding tensors so no spin-rotation constants.
 Leave Link  601 at Sun Feb 19 22:22:04 2023, MaxMem=  6710886400 cpu:               3.7 elap:               0.2
 (Enter /data0/home/software/g16/l122.exe)
 CPIOFr:  IOpCl= 0 IRwI=-1 IRwCP=  731 ICalc= -1 LCPTot=      451837 Len1MO=     1186390 IndFrg=      451837
 CPIOFr:  IOpCl= 0 IRwI=-1 IRwCP=  731 ICalc=  0 LCPTot=      451837 Len1MO=     1186390 IndFrg=     1638227
 Counterpoise: doing calculation for fragment   1 using the basis set of the full-system, NewBq=T
 Leave Link  122 at Sun Feb 19 22:22:04 2023, MaxMem=  6710886400 cpu:               0.5 elap:               0.0
 (Enter /data0/home/software/g16/l301.exe)
 Basis read from rwf:  (5D, 7F)
 No pseudopotential information found on rwf file.
   542 basis functions,   822 primitive gaussians,   574 cartesian basis functions
    57 alpha electrons       57 beta electrons
       nuclear repulsion energy      1067.3835645845 Hartrees.
 IExCor= 4336 DFT=T Ex+Corr=M062X ExCW=0 ScaHFX=  0.540000
 ScaDFX=  1.000000  1.000000  1.000000  1.000000 ScalE2=  1.000000  1.000000
 IRadAn=      5 IRanWt=     -1 IRanGd=            0 ICorTp=0 IEmpDi=131
 NAtoms=   33 NActive=   33 NUniq=   33 SFac= 1.00D+00 NAtFMM=   60 NAOKFM=F Big=F
 Integral buffers will be    131072 words long.
 Raffenetti 2 integral format.
 Two-electron integral symmetry is turned off.
 R6Disp:  Grimme-D3 Dispersion energy=       -0.0014280733 Hartrees.
 Nuclear repulsion after empirical dispersion term =     1067.3821365112 Hartrees.
 No density basis found on file   718.
 Leave Link  301 at Sun Feb 19 22:22:05 2023, MaxMem=  6710886400 cpu:               1.3 elap:               0.1
 (Enter /data0/home/software/g16/l302.exe)
 NPDir=0 NMtPBC=     1 NCelOv=     1 NCel=       1 NClECP=     1 NCelD=      1
         NCelK=      1 NCelE2=     1 NClLst=     1 CellRange=     0.0.
 One-electron integrals computed using PRISM.
 NBasis=   542 RedAO= T EigKep=  2.18D-06  NBF=   542
 NBsUse=   542 1.00D-06 EigRej= -1.00D+00 NBFU=   542
 Precomputing XC quadrature grid using
 IXCGrd= 4 IRadAn=           5 IRanWt=          -1 IRanGd=           0 AccXCQ= 0.00D+00.
 Generated NRdTot=       0 NPtTot=           0 NUsed=           0 NTot=          32
 NSgBfM=   569   569   569   569   569 MxSgAt=    33 MxSgA2=    33.
 Leave Link  302 at Sun Feb 19 22:22:05 2023, MaxMem=  6710886400 cpu:              13.1 elap:               0.6
 (Enter /data0/home/software/g16/l303.exe)
 DipDrv:  MaxL=1.
 Leave Link  303 at Sun Feb 19 22:22:05 2023, MaxMem=  6710886400 cpu:               1.3 elap:               0.1
 (Enter /data0/home/software/g16/l401.exe)
 ExpMin= 4.05D-02 ExpMax= 9.34D+04 ExpMxC= 3.17D+03 IAcc=3 IRadAn=         5 AccDes= 0.00D+00
 Harris functional with IExCor= 1009 and IRadAn=       5 diagonalized for initial guess.
 HarFok:  IExCor= 1009 AccDes= 0.00D+00 IRadAn=         5 IDoV= 1 UseB2=F ITyADJ=14
 ICtDFT=  3500011 ScaDFX=  1.000000  1.000000  1.000000  1.000000
 FoFCou: FMM=F IPFlag=           0 FMFlag=      100000 FMFlg1=           0
         NFxFlg=           0 DoJE=T BraDBF=F KetDBF=T FulRan=T
         wScrn=  0.000000 ICntrl=       500 IOpCl=  0 I1Cent=   200000004 NGrid=           0
         NMat0=    1 NMatS0=      1 NMatT0=    0 NMatD0=    1 NMtDS0=    0 NMtDT0=    0
 Symmetry not used in FoFCou.
 Harris En= -1028.89109416589    
 JPrj=0 DoOrth=F DoCkMO=F.
 Leave Link  401 at Sun Feb 19 22:22:07 2023, MaxMem=  6710886400 cpu:              49.2 elap:               2.1
 (Enter /data0/home/software/g16/l502.exe)
 Two-electron integral symmetry not used.
 Closed shell SCF:
 Using DIIS extrapolation, IDIIS=  1040.
 NGot=  6710886400 LenX=  6710209607 LenY=  6709879557
 Requested convergence on RMS density matrix=1.00D-08 within 128 cycles.
 Requested convergence on MAX density matrix=1.00D-06.
 Requested convergence on             energy=1.00D-06.
 No special actions if energy rises.
 Fock matrices will be formed incrementally for  20 cycles.

 Cycle   1  Pass 1  IDiag  1:
 FoFJK:  IHMeth= 1 ICntrl=       0 DoSepK=F KAlg= 0 I1Cent=           0 FoldK=F
 IRaf= 830000000 NMat=       1 IRICut=       1 DoRegI=T DoRafI=F ISym2E= 0 IDoP0=0 IntGTp=1.
 FoFCou: FMM=F IPFlag=           0 FMFlag=      100000 FMFlg1=           0
         NFxFlg=           0 DoJE=F BraDBF=F KetDBF=F FulRan=T
         wScrn=  0.000000 ICntrl=         0 IOpCl=  0 I1Cent=           0 NGrid=           0
         NMat0=    1 NMatS0=      1 NMatT0=    0 NMatD0=    1 NMtDS0=    0 NMtDT0=    0
 Symmetry not used in FoFCou.
 E= -1028.75167378978    
 DIIS: error= 2.41D-02 at cycle   1 NSaved=   1.
 NSaved= 1 IEnMin= 1 EnMin= -1028.75167378978     IErMin= 1 ErrMin= 2.41D-02
 ErrMax= 2.41D-02  0.00D+00 EMaxC= 1.00D-01 BMatC= 7.77D-01 BMatP= 7.77D-01
 IDIUse=3 WtCom= 7.59D-01 WtEn= 2.41D-01
 Coeff-Com:  0.100D+01
 Coeff-En:   0.100D+01
 Coeff:      0.100D+01
 Gap=     0.254 Goal=   None    Shift=    0.000
 GapD=    0.254 DampG=1.000 DampE=0.500 DampFc=0.5000 IDamp=-1.
 Damping current iteration by 5.00D-01
 RMSDP=1.19D-02 MaxDP=1.28D+00              OVMax= 1.94D-01

 Cycle   2  Pass 1  IDiag  1:
 RMSU=  5.41D-03    CP:  1.17D+00
 E= -1028.97171074452     Delta-E=       -0.220036954733 Rises=F Damp=T
 DIIS: error= 5.97D-03 at cycle   2 NSaved=   2.
 NSaved= 2 IEnMin= 2 EnMin= -1028.97171074452     IErMin= 2 ErrMin= 5.97D-03
 ErrMax= 5.97D-03  0.00D+00 EMaxC= 1.00D-01 BMatC= 5.51D-02 BMatP= 7.77D-01
 IDIUse=3 WtCom= 9.40D-01 WtEn= 5.97D-02
 Coeff-Com:  0.399D-01 0.960D+00
 Coeff-En:   0.122D+00 0.878D+00
 Coeff:      0.449D-01 0.955D+00
 Gap=     0.199 Goal=   None    Shift=    0.000
 RMSDP=5.63D-03 MaxDP=5.83D-01 DE=-2.20D-01 OVMax= 1.22D-01

 Cycle   3  Pass 1  IDiag  1:
 RMSU=  3.39D-03    CP:  8.96D-01  6.02D-01
 E= -1029.23974438966     Delta-E=       -0.268033645141 Rises=F Damp=F
 DIIS: error= 4.76D-03 at cycle   3 NSaved=   3.
 NSaved= 3 IEnMin= 3 EnMin= -1029.23974438966     IErMin= 3 ErrMin= 4.76D-03
 ErrMax= 4.76D-03  0.00D+00 EMaxC= 1.00D-01 BMatC= 2.38D-02 BMatP= 5.51D-02
 IDIUse=3 WtCom= 9.52D-01 WtEn= 4.76D-02
 Coeff-Com: -0.553D-01 0.375D+00 0.680D+00
 Coeff-En:   0.000D+00 0.000D+00 0.100D+01
 Coeff:     -0.527D-01 0.357D+00 0.695D+00
 Gap=     0.178 Goal=   None    Shift=    0.000
 RMSDP=9.55D-04 MaxDP=7.37D-02 DE=-2.68D-01 OVMax= 4.10D-02

 Cycle   4  Pass 1  IDiag  1:
 RMSU=  8.39D-04    CP:  8.89D-01  6.76D-01  1.05D+00
 E= -1029.25562932204     Delta-E=       -0.015884932385 Rises=F Damp=F
 DIIS: error= 1.53D-03 at cycle   4 NSaved=   4.
 NSaved= 4 IEnMin= 4 EnMin= -1029.25562932204     IErMin= 4 ErrMin= 1.53D-03
 ErrMax= 1.53D-03  0.00D+00 EMaxC= 1.00D-01 BMatC= 3.88D-03 BMatP= 2.38D-02
 IDIUse=3 WtCom= 9.85D-01 WtEn= 1.53D-02
 Coeff-Com: -0.268D-01 0.808D-01 0.341D+00 0.605D+00
 Coeff-En:   0.000D+00 0.000D+00 0.124D+00 0.876D+00
 Coeff:     -0.264D-01 0.796D-01 0.337D+00 0.610D+00
 Gap=     0.183 Goal=   None    Shift=    0.000
 RMSDP=3.72D-04 MaxDP=4.20D-02 DE=-1.59D-02 OVMax= 1.63D-02

 Cycle   5  Pass 1  IDiag  1:
 RMSU=  1.93D-04    CP:  8.80D-01  6.44D-01  1.04D+00  7.26D-01
 E= -1029.25914243410     Delta-E=       -0.003513112052 Rises=F Damp=F
 DIIS: error= 3.47D-04 at cycle   5 NSaved=   5.
 NSaved= 5 IEnMin= 5 EnMin= -1029.25914243410     IErMin= 5 ErrMin= 3.47D-04
 ErrMax= 3.47D-04  0.00D+00 EMaxC= 1.00D-01 BMatC= 1.94D-04 BMatP= 3.88D-03
 IDIUse=3 WtCom= 9.97D-01 WtEn= 3.47D-03
 Coeff-Com: -0.883D-02 0.197D-01 0.119D+00 0.279D+00 0.591D+00
 Coeff-En:   0.000D+00 0.000D+00 0.000D+00 0.000D+00 0.100D+01
 Coeff:     -0.880D-02 0.196D-01 0.119D+00 0.278D+00 0.592D+00
 Gap=     0.184 Goal=   None    Shift=    0.000
 RMSDP=9.84D-05 MaxDP=1.09D-02 DE=-3.51D-03 OVMax= 4.45D-03

 Cycle   6  Pass 1  IDiag  1:
 RMSU=  6.35D-05    CP:  8.80D-01  6.44D-01  1.06D+00  7.70D-01  7.43D-01
 E= -1029.25929643694     Delta-E=       -0.000154002846 Rises=F Damp=F
 DIIS: error= 1.56D-04 at cycle   6 NSaved=   6.
 NSaved= 6 IEnMin= 6 EnMin= -1029.25929643694     IErMin= 6 ErrMin= 1.56D-04
 ErrMax= 1.56D-04  0.00D+00 EMaxC= 1.00D-01 BMatC= 2.65D-05 BMatP= 1.94D-04
 IDIUse=3 WtCom= 9.98D-01 WtEn= 1.56D-03
 Coeff-Com: -0.130D-02 0.326D-03 0.206D-01 0.711D-01 0.308D+00 0.602D+00
 Coeff-En:   0.000D+00 0.000D+00 0.000D+00 0.000D+00 0.339D-01 0.966D+00
 Coeff:     -0.130D-02 0.325D-03 0.205D-01 0.710D-01 0.307D+00 0.602D+00
 Gap=     0.184 Goal=   None    Shift=    0.000
 RMSDP=2.99D-05 MaxDP=2.82D-03 DE=-1.54D-04 OVMax= 1.11D-03

 Cycle   7  Pass 1  IDiag  1:
 RMSU=  2.26D-05    CP:  8.79D-01  6.44D-01  1.06D+00  7.87D-01  7.41D-01
                    CP:  9.84D-01
 E= -1029.25931776236     Delta-E=       -0.000021325420 Rises=F Damp=F
 DIIS: error= 3.02D-05 at cycle   7 NSaved=   7.
 NSaved= 7 IEnMin= 7 EnMin= -1029.25931776236     IErMin= 7 ErrMin= 3.02D-05
 ErrMax= 3.02D-05  0.00D+00 EMaxC= 1.00D-01 BMatC= 1.32D-06 BMatP= 2.65D-05
 IDIUse=1 WtCom= 1.00D+00 WtEn= 0.00D+00
 Coeff-Com:  0.364D-03-0.170D-02-0.383D-02 0.531D-03 0.678D-01 0.224D+00
 Coeff-Com:  0.713D+00
 Coeff:      0.364D-03-0.170D-02-0.383D-02 0.531D-03 0.678D-01 0.224D+00
 Coeff:      0.713D+00
 Gap=     0.184 Goal=   None    Shift=    0.000
 RMSDP=1.51D-05 MaxDP=1.64D-03 DE=-2.13D-05 OVMax= 2.33D-04

 Cycle   8  Pass 1  IDiag  1:
 RMSU=  7.87D-06    CP:  8.79D-01  6.43D-01  1.06D+00  7.88D-01  7.39D-01
                    CP:  1.07D+00  9.72D-01
 E= -1029.25931895988     Delta-E=       -0.000001197520 Rises=F Damp=F
 DIIS: error= 1.55D-05 at cycle   8 NSaved=   8.
 NSaved= 8 IEnMin= 8 EnMin= -1029.25931895988     IErMin= 8 ErrMin= 1.55D-05
 ErrMax= 1.55D-05  0.00D+00 EMaxC= 1.00D-01 BMatC= 1.66D-07 BMatP= 1.32D-06
 IDIUse=1 WtCom= 1.00D+00 WtEn= 0.00D+00
 Coeff-Com:  0.291D-03-0.656D-03-0.435D-02-0.926D-02-0.117D-01 0.182D-02
 Coeff-Com:  0.268D+00 0.755D+00
 Coeff:      0.291D-03-0.656D-03-0.435D-02-0.926D-02-0.117D-01 0.182D-02
 Coeff:      0.268D+00 0.755D+00
 Gap=     0.184 Goal=   None    Shift=    0.000
 RMSDP=3.88D-06 MaxDP=4.64D-04 DE=-1.20D-06 OVMax= 1.43D-04

 Cycle   9  Pass 1  IDiag  1:
 RMSU=  2.18D-06    CP:  8.79D-01  6.42D-01  1.06D+00  7.89D-01  7.46D-01
                    CP:  1.07D+00  1.02D+00  9.23D-01
 E= -1029.25931911109     Delta-E=       -0.000000151208 Rises=F Damp=F
 DIIS: error= 6.39D-06 at cycle   9 NSaved=   9.
 NSaved= 9 IEnMin= 9 EnMin= -1029.25931911109     IErMin= 9 ErrMin= 6.39D-06
 ErrMax= 6.39D-06  0.00D+00 EMaxC= 1.00D-01 BMatC= 3.18D-08 BMatP= 1.66D-07
 IDIUse=1 WtCom= 1.00D+00 WtEn= 0.00D+00
 Coeff-Com:  0.122D-03-0.229D-03-0.208D-02-0.499D-02-0.103D-01-0.140D-01
 Coeff-Com:  0.925D-01 0.400D+00 0.539D+00
 Coeff:      0.122D-03-0.229D-03-0.208D-02-0.499D-02-0.103D-01-0.140D-01
 Coeff:      0.925D-01 0.400D+00 0.539D+00
 Gap=     0.184 Goal=   None    Shift=    0.000
 RMSDP=1.15D-06 MaxDP=1.56D-04 DE=-1.51D-07 OVMax= 4.37D-05

 Cycle  10  Pass 1  IDiag  1:
 RMSU=  6.37D-07    CP:  8.79D-01  6.42D-01  1.06D+00  7.89D-01  7.44D-01
                    CP:  1.08D+00  1.03D+00  9.81D-01  8.89D-01
 E= -1029.25931913824     Delta-E=       -0.000000027154 Rises=F Damp=F
 DIIS: error= 1.80D-06 at cycle  10 NSaved=  10.
 NSaved=10 IEnMin=10 EnMin= -1029.25931913824     IErMin=10 ErrMin= 1.80D-06
 ErrMax= 1.80D-06  0.00D+00 EMaxC= 1.00D-01 BMatC= 2.13D-09 BMatP= 3.18D-08
 IDIUse=1 WtCom= 1.00D+00 WtEn= 0.00D+00
 Coeff-Com:  0.207D-06 0.177D-04-0.172D-03-0.618D-03-0.240D-02-0.639D-02
 Coeff-Com: -0.559D-02 0.412D-01 0.209D+00 0.765D+00
 Coeff:      0.207D-06 0.177D-04-0.172D-03-0.618D-03-0.240D-02-0.639D-02
 Coeff:     -0.559D-02 0.412D-01 0.209D+00 0.765D+00
 Gap=     0.184 Goal=   None    Shift=    0.000
 RMSDP=3.86D-07 MaxDP=2.75D-05 DE=-2.72D-08 OVMax= 1.76D-05

 Cycle  11  Pass 1  IDiag  1:
 RMSU=  2.47D-07    CP:  8.79D-01  6.42D-01  1.06D+00  7.90D-01  7.43D-01
                    CP:  1.08D+00  1.03D+00  9.97D-01  9.77D-01  9.80D-01
 E= -1029.25931914088     Delta-E=       -0.000000002639 Rises=F Damp=F
 DIIS: error= 4.15D-07 at cycle  11 NSaved=  11.
 NSaved=11 IEnMin=11 EnMin= -1029.25931914088     IErMin=11 ErrMin= 4.15D-07
 ErrMax= 4.15D-07  0.00D+00 EMaxC= 1.00D-01 BMatC= 1.59D-10 BMatP= 2.13D-09
 IDIUse=1 WtCom= 1.00D+00 WtEn= 0.00D+00
 Coeff-Com: -0.120D-04 0.269D-04 0.159D-03 0.327D-03 0.429D-03-0.246D-03
 Coeff-Com: -0.106D-01-0.312D-01-0.782D-02 0.207D+00 0.842D+00
 Coeff:     -0.120D-04 0.269D-04 0.159D-03 0.327D-03 0.429D-03-0.246D-03
 Coeff:     -0.106D-01-0.312D-01-0.782D-02 0.207D+00 0.842D+00
 Gap=     0.184 Goal=   None    Shift=    0.000
 RMSDP=1.49D-07 MaxDP=1.64D-05 DE=-2.64D-09 OVMax= 9.30D-06

 Cycle  12  Pass 1  IDiag  1:
 RMSU=  7.33D-08    CP:  8.79D-01  6.42D-01  1.06D+00  7.89D-01  7.44D-01
                    CP:  1.08D+00  1.03D+00  9.98D-01  1.01D+00  1.04D+00
                    CP:  1.07D+00
 E= -1029.25931914109     Delta-E=       -0.000000000206 Rises=F Damp=F
 DIIS: error= 1.69D-07 at cycle  12 NSaved=  12.
 NSaved=12 IEnMin=12 EnMin= -1029.25931914109     IErMin=12 ErrMin= 1.69D-07
 ErrMax= 1.69D-07  0.00D+00 EMaxC= 1.00D-01 BMatC= 2.81D-11 BMatP= 1.59D-10
 IDIUse=1 WtCom= 1.00D+00 WtEn= 0.00D+00
 Coeff-Com: -0.423D-05 0.875D-05 0.756D-04 0.173D-03 0.366D-03 0.429D-03
 Coeff-Com: -0.377D-02-0.154D-01-0.232D-01 0.159D-01 0.335D+00 0.690D+00
 Coeff:     -0.423D-05 0.875D-05 0.756D-04 0.173D-03 0.366D-03 0.429D-03
 Coeff:     -0.377D-02-0.154D-01-0.232D-01 0.159D-01 0.335D+00 0.690D+00
 Gap=     0.184 Goal=   None    Shift=    0.000
 RMSDP=3.61D-08 MaxDP=3.25D-06 DE=-2.06D-10 OVMax= 2.99D-06

 Cycle  13  Pass 1  IDiag  1:
 RMSU=  2.47D-08    CP:  8.79D-01  6.42D-01  1.06D+00  7.89D-01  7.44D-01
                    CP:  1.08D+00  1.03D+00  9.99D-01  1.01D+00  1.04D+00
                    CP:  1.13D+00  1.06D+00
 E= -1029.25931914112     Delta-E=       -0.000000000034 Rises=F Damp=F
 DIIS: error= 7.46D-08 at cycle  13 NSaved=  13.
 NSaved=13 IEnMin=13 EnMin= -1029.25931914112     IErMin=13 ErrMin= 7.46D-08
 ErrMax= 7.46D-08  0.00D+00 EMaxC= 1.00D-01 BMatC= 5.15D-12 BMatP= 2.81D-11
 IDIUse=1 WtCom= 1.00D+00 WtEn= 0.00D+00
 Coeff-Com:  0.682D-06-0.173D-05 0.140D-05 0.889D-05 0.759D-04 0.228D-03
 Coeff-Com:  0.339D-03-0.177D-03-0.905D-02-0.318D-01-0.117D-01 0.309D+00
 Coeff-Com:  0.743D+00
[...]
    24  S    0.000000
    25  O    0.000000
    26  O    0.000000
    27  O    0.000000
    28  O   -0.557256
    29  H    0.281262
    30  H    0.275994
    31  O    0.000000
    32  H    0.000000
    33  H    0.000000
 Sum of Mulliken charges =  -0.00000
 Mulliken charges with hydrogens summed into heavy atoms:
               1
     1  C    0.000000
     2  C    0.000000
     3  C    0.000000
     4  C    0.000000
     5  C    0.000000
    10  C    0.000000
    14  N    0.000000
    15  C    0.000000
    18  C    0.000000
    21  C    0.000000
    24  S    0.000000
    25  O    0.000000
    26  O    0.000000
    27  O    0.000000
    28  O   -0.000000
    31  O    0.000000
         Mulliken charges condensed to fragments:
      1      0.000000
      2     -0.000000
      3      0.000000
 Electronic spatial extent (au):  <R**2>=          15356.1464
 Charge=             -0.0000 electrons
 Dipole moment (field-independent basis, Debye):
    X=             -0.0815    Y=             -1.4189    Z=              1.5801  Tot=              2.1252
 Quadrupole moment (field-independent basis, Debye-Ang):
   XX=             -6.9724   YY=            -40.5021   ZZ=             25.5121
   XY=            -19.4651   XZ=             21.3561   YZ=              3.6774
 Traceless Quadrupole moment (field-independent basis, Debye-Ang):
   XX=              0.3484   YY=            -33.1813   ZZ=             32.8329
   XY=            -19.4651   XZ=             21.3561   YZ=              3.6774
 Octapole moment (field-independent basis, Debye-Ang**2):
  XXX=           -239.4029  YYY=           -842.6217  ZZZ=            288.0972  XYY=           -543.7434
  XXY=           -324.1746  XXZ=            240.9506  XZZ=            353.0800  YZZ=            142.8060
  YYZ=           -204.6417  XYZ=             56.5990
 Hexadecapole moment (field-independent basis, Debye-Ang**3):
 XXXX=          -6112.1265 YYYY=         -15267.3805 ZZZZ=           2528.5533 XXXY=          -5995.8994
 XXXZ=           1954.2918 YYYX=         -11272.2867 YYYZ=          -6199.9268 ZZZX=           4060.6340
 ZZZY=           1723.5979 XXYY=          -7987.4717 XXZZ=           4405.0922 YYZZ=           -911.4852
 XXYZ=            286.0108 YYXZ=          -2612.1338 ZZXY=           2098.1840
 N-N= 9.057092964808D+00 E-N=-1.989579687860D+02  KE= 7.617888521785D+01
 No NMR shielding tensors so no spin-rotation constants.
 Leave Link  601 at Sun Feb 19 22:27:30 2023, MaxMem=  6710886400 cpu:               1.8 elap:               0.1
 (Enter /data0/home/software/g16/l122.exe)
 CPIOFr:  IOpCl= 0 IRwI=-1 IRwCP=  731 ICalc=  5 LCPTot=      451837 Len1MO=     1186390 IndFrg=     7570177
 Counterpoise: doing calculation for fragment   3 using the basis set of the fragment.
 Leave Link  122 at Sun Feb 19 22:27:30 2023, MaxMem=  6710886400 cpu:               0.3 elap:               0.0
 (Enter /data0/home/software/g16/l301.exe)
 Basis read from rwf:  (5D, 7F)
 No pseudopotential information found on rwf file.
    39 basis functions,    58 primitive gaussians,    41 cartesian basis functions
     5 alpha electrons        5 beta electrons
       nuclear repulsion energy         9.1212468110 Hartrees.
 IExCor= 4336 DFT=T Ex+Corr=M062X ExCW=0 ScaHFX=  0.540000
 ScaDFX=  1.000000  1.000000  1.000000  1.000000 ScalE2=  1.000000  1.000000
 IRadAn=      5 IRanWt=     -1 IRanGd=            0 ICorTp=0 IEmpDi=131
 NAtoms=   33 NActive=    3 NUniq=    3 SFac= 1.00D+00 NAtFMM=   60 NAOKFM=F Big=F
 Integral buffers will be    131072 words long.
 Raffenetti 2 integral format.
 Two-electron integral symmetry is turned off.
 R6Disp:  Grimme-D3 Dispersion energy=       -0.0000000079 Hartrees.
 Nuclear repulsion after empirical dispersion term =        9.1212468031 Hartrees.
 No density basis found on file   718.
 Leave Link  301 at Sun Feb 19 22:27:30 2023, MaxMem=  6710886400 cpu:               1.3 elap:               0.1
 (Enter /data0/home/software/g16/l302.exe)
 NPDir=0 NMtPBC=     1 NCelOv=     1 NCel=       1 NClECP=     1 NCelD=      1
         NCelK=      1 NCelE2=     1 NClLst=     1 CellRange=     0.0.
 One-electron integrals computed using PRISM.
 NBasis=    39 RedAO= T EigKep=  3.06D-03  NBF=    39
 NBsUse=    39 1.00D-06 EigRej= -1.00D+00 NBFU=    39
 Precomputing XC quadrature grid using
 IXCGrd= 4 IRadAn=           5 IRanWt=          -1 IRanGd=           0 AccXCQ= 0.00D+00.
 Generated NRdTot=       0 NPtTot=           0 NUsed=           0 NTot=          32
 NSgBfM=    41    41    41    41    41 MxSgAt=     3 MxSgA2=     3.
 Leave Link  302 at Sun Feb 19 22:27:30 2023, MaxMem=  6710886400 cpu:               2.2 elap:               0.1
 (Enter /data0/home/software/g16/l303.exe)
 DipDrv:  MaxL=1.
 Leave Link  303 at Sun Feb 19 22:27:31 2023, MaxMem=  6710886400 cpu:               0.4 elap:               0.0
 (Enter /data0/home/software/g16/l401.exe)
 ExpMin= 8.45D-02 ExpMax= 8.59D+03 ExpMxC= 1.30D+03 IAcc=3 IRadAn=         5 AccDes= 0.00D+00
 Harris functional with IExCor= 1009 and IRadAn=       5 diagonalized for initial guess.
 HarFok:  IExCor= 1009 AccDes= 0.00D+00 IRadAn=         5 IDoV= 1 UseB2=F ITyADJ=14
 ICtDFT=  3500011 ScaDFX=  1.000000  1.000000  1.000000  1.000000
 FoFCou: FMM=F IPFlag=           0 FMFlag=      100000 FMFlg1=           0
         NFxFlg=           0 DoJE=T BraDBF=F KetDBF=T FulRan=T
         wScrn=  0.000000 ICntrl=       500 IOpCl=  0 I1Cent=   200000004 NGrid=           0
         NMat0=    1 NMatS0=      1 NMatT0=    0 NMatD0=    1 NMtDS0=    0 NMtDT0=    0
 Symmetry not used in FoFCou.
 Harris En= -76.4167477813238    
 JPrj=0 DoOrth=F DoCkMO=F.
 Leave Link  401 at Sun Feb 19 22:27:31 2023, MaxMem=  6710886400 cpu:               2.9 elap:               0.1
 (Enter /data0/home/software/g16/l502.exe)
 Keep R1 ints in memory in canonical form, NReq=21042882.
 FoFCou: FMM=F IPFlag=           0 FMFlag=           0 FMFlg1=           0
         NFxFlg=           0 DoJE=F BraDBF=F KetDBF=F FulRan=T
         wScrn=  0.000000 ICntrl=       600 IOpCl=  0 I1Cent=           0 NGrid=           0
         NMat0=    1 NMatS0=    780 NMatT0=    0 NMatD0=    1 NMtDS0=    0 NMtDT0=    0
 Symmetry not used in FoFCou.
 Two-electron integral symmetry not used.
 Closed shell SCF:
 Using DIIS extrapolation, IDIIS=  1040.
 NGot=  6710886400 LenX=  6710576064 LenY=  6710573942
 Requested convergence on RMS density matrix=1.00D-08 within 128 cycles.
 Requested convergence on MAX density matrix=1.00D-06.
 Requested convergence on             energy=1.00D-06.
 No special actions if energy rises.
 Integral accuracy reduced to 1.0D-05 until final iterations.

 Cycle   1  Pass 0  IDiag  1:
 E= -76.3459377751132    
 DIIS: error= 7.05D-02 at cycle   1 NSaved=   1.
 NSaved= 1 IEnMin= 1 EnMin= -76.3459377751132     IErMin= 1 ErrMin= 7.05D-02
 ErrMax= 7.05D-02  0.00D+00 EMaxC= 1.00D-01 BMatC= 1.21D-01 BMatP= 1.21D-01
 IDIUse=3 WtCom= 2.95D-01 WtEn= 7.05D-01
 Coeff-Com:  0.100D+01
 Coeff-En:   0.100D+01
 Coeff:      0.100D+01
 Gap=     0.325 Goal=   None    Shift=    0.000
 GapD=    0.325 DampG=1.000 DampE=0.500 DampFc=0.5000 IDamp=-1.
 Damping current iteration by 5.00D-01
 RMSDP=7.87D-03 MaxDP=1.01D-01              OVMax= 1.69D-01

 Cycle   2  Pass 0  IDiag  1:
 E= -76.3775995169060     Delta-E=       -0.031661741793 Rises=F Damp=T
 DIIS: error= 1.15D-02 at cycle   2 NSaved=   2.
 NSaved= 2 IEnMin= 2 EnMin= -76.3775995169060     IErMin= 2 ErrMin= 1.15D-02
 ErrMax= 1.15D-02  0.00D+00 EMaxC= 1.00D-01 BMatC= 4.81D-03 BMatP= 1.21D-01
 IDIUse=3 WtCom= 8.85D-01 WtEn= 1.15D-01
 Coeff-Com:  0.811D-01 0.919D+00
 Coeff-En:   0.186D+00 0.814D+00
 Coeff:      0.931D-01 0.907D+00
 Gap=     0.458 Goal=   None    Shift=    0.000
 RMSDP=9.34D-04 MaxDP=1.38D-02 DE=-3.17D-02 OVMax= 1.01D-01

 Cycle   3  Pass 0  IDiag  1:
 E= -76.4216671438638     Delta-E=       -0.044067626958 Rises=F Damp=F
 DIIS: error= 2.18D-03 at cycle   3 NSaved=   3.
 NSaved= 3 IEnMin= 3 EnMin= -76.4216671438638     IErMin= 3 ErrMin= 2.18D-03
 ErrMax= 2.18D-03  0.00D+00 EMaxC= 1.00D-01 BMatC= 9.17D-05 BMatP= 4.81D-03
 IDIUse=3 WtCom= 9.78D-01 WtEn= 2.18D-02
 Coeff-Com: -0.200D-01 0.399D-01 0.980D+00
 Coeff-En:   0.000D+00 0.000D+00 0.100D+01
 Coeff:     -0.196D-01 0.390D-01 0.981D+00
 Gap=     0.462 Goal=   None    Shift=    0.000
 RMSDP=1.15D-04 MaxDP=9.64D-04 DE=-4.41D-02 OVMax= 3.30D-03

 Cycle   4  Pass 0  IDiag  1:
 E= -76.4217450401012     Delta-E=       -0.000077896237 Rises=F Damp=F
 DIIS: error= 4.11D-04 at cycle   4 NSaved=   4.
 NSaved= 4 IEnMin= 4 EnMin= -76.4217450401012     IErMin= 4 ErrMin= 4.11D-04
 ErrMax= 4.11D-04  0.00D+00 EMaxC= 1.00D-01 BMatC= 3.30D-06 BMatP= 9.17D-05
 IDIUse=3 WtCom= 9.96D-01 WtEn= 4.11D-03
 Coeff-Com: -0.192D-02-0.212D-02 0.164D+00 0.840D+00
 Coeff-En:   0.000D+00 0.000D+00 0.000D+00 0.100D+01
 Coeff:     -0.191D-02-0.211D-02 0.163D+00 0.841D+00
 Gap=     0.463 Goal=   None    Shift=    0.000
 RMSDP=2.20D-05 MaxDP=3.52D-04 DE=-7.79D-05 OVMax= 5.29D-04

 Cycle   5  Pass 0  IDiag  1:
 E= -76.4217470645060     Delta-E=       -0.000002024405 Rises=F Damp=F
 DIIS: error= 8.86D-05 at cycle   5 NSaved=   5.
 NSaved= 5 IEnMin= 5 EnMin= -76.4217470645060     IErMin= 5 ErrMin= 8.86D-05
 ErrMax= 8.86D-05  0.00D+00 EMaxC= 1.00D-01 BMatC= 8.26D-08 BMatP= 3.30D-06
 IDIUse=1 WtCom= 1.00D+00 WtEn= 0.00D+00
 Coeff-Com:  0.117D-02-0.178D-02-0.362D-01-0.672D-01 0.110D+01
 Coeff:      0.117D-02-0.178D-02-0.362D-01-0.672D-01 0.110D+01
 Gap=     0.463 Goal=   None    Shift=    0.000
 RMSDP=8.94D-06 MaxDP=1.03D-04 DE=-2.02D-06 OVMax= 2.00D-04

 Initial convergence to 1.0D-05 achieved.  Increase integral accuracy.
 Cycle   6  Pass 1  IDiag  1:
 E= -76.4217412520178     Delta-E=        0.000005812488 Rises=F Damp=F
 DIIS: error= 1.85D-05 at cycle   1 NSaved=   1.
 NSaved= 1 IEnMin= 1 EnMin= -76.4217412520178     IErMin= 1 ErrMin= 1.85D-05
 ErrMax= 1.85D-05  0.00D+00 EMaxC= 1.00D-01 BMatC= 1.54D-08 BMatP= 1.54D-08
 IDIUse=1 WtCom= 1.00D+00 WtEn= 0.00D+00
 Coeff-Com:  0.100D+01
 Coeff:      0.100D+01
 Gap=     0.463 Goal=   None    Shift=    0.000
 RMSDP=8.94D-06 MaxDP=1.03D-04 DE= 5.81D-06 OVMax= 4.76D-05

 Cycle   7  Pass 1  IDiag  1:
 E= -76.4217412660717     Delta-E=       -0.000000014054 Rises=F Damp=F
 DIIS: error= 9.11D-06 at cycle   2 NSaved=   2.
 NSaved= 2 IEnMin= 2 EnMin= -76.4217412660717     IErMin= 2 ErrMin= 9.11D-06
 ErrMax= 9.11D-06  0.00D+00 EMaxC= 1.00D-01 BMatC= 1.07D-09 BMatP= 1.54D-08
 IDIUse=1 WtCom= 1.00D+00 WtEn= 0.00D+00
 Coeff-Com:  0.237D-01 0.976D+00
 Coeff:      0.237D-01 0.976D+00
 Gap=     0.463 Goal=   None    Shift=    0.000
 RMSDP=8.24D-07 MaxDP=1.30D-05 DE=-1.41D-08 OVMax= 2.09D-05

 Cycle   8  Pass 1  IDiag  1:
 E= -76.4217412663527     Delta-E=       -0.000000000281 Rises=F Damp=F
 DIIS: error= 6.47D-06 at cycle   3 NSaved=   3.
 NSaved= 3 IEnMin= 3 EnMin= -76.4217412663527     IErMin= 3 ErrMin= 6.47D-06
 ErrMax= 6.47D-06  0.00D+00 EMaxC= 1.00D-01 BMatC= 1.09D-09 BMatP= 1.07D-09
 IDIUse=1 WtCom= 1.00D+00 WtEn= 0.00D+00
 Coeff-Com: -0.527D-01 0.526D+00 0.527D+00
 Coeff:     -0.527D-01 0.526D+00 0.527D+00
 Gap=     0.463 Goal=   None    Shift=    0.000
 RMSDP=3.73D-07 MaxDP=4.77D-06 DE=-2.81D-10 OVMax= 8.97D-06

 Cycle   9  Pass 1  IDiag  1:
 E= -76.4217412670720     Delta-E=       -0.000000000719 Rises=F Damp=F
 DIIS: error= 6.14D-07 at cycle   4 NSaved=   4.
 NSaved= 4 IEnMin= 4 EnMin= -76.4217412670720     IErMin= 4 ErrMin= 6.14D-07
 ErrMax= 6.14D-07  0.00D+00 EMaxC= 1.00D-01 BMatC= 4.96D-12 BMatP= 1.07D-09
 IDIUse=1 WtCom= 1.00D+00 WtEn= 0.00D+00
 Coeff-Com:  0.475D-02-0.978D-01-0.557D-01 0.115D+01
 Coeff:      0.475D-02-0.978D-01-0.557D-01 0.115D+01
 Gap=     0.463 Goal=   None    Shift=    0.000
 RMSDP=1.03D-07 MaxDP=6.04D-07 DE=-7.19D-10 OVMax= 1.89D-06

 Cycle  10  Pass 1  IDiag  1:
 E= -76.4217412670828     Delta-E=       -0.000000000011 Rises=F Damp=F
 DIIS: error= 8.53D-08 at cycle   5 NSaved=   5.
 NSaved= 5 IEnMin= 5 EnMin= -76.4217412670828     IErMin= 5 ErrMin= 8.53D-08
 ErrMax= 8.53D-08  0.00D+00 EMaxC= 1.00D-01 BMatC= 2.73D-13 BMatP= 4.96D-12
 IDIUse=1 WtCom= 1.00D+00 WtEn= 0.00D+00
 Coeff-Com:  0.296D-02-0.396D-01-0.312D-01 0.203D+00 0.865D+00
 Coeff:      0.296D-02-0.396D-01-0.312D-01 0.203D+00 0.865D+00
 Gap=     0.463 Goal=   None    Shift=    0.000
 RMSDP=2.11D-08 MaxDP=1.31D-07 DE=-1.08D-11 OVMax= 3.65D-07

 Cycle  11  Pass 1  IDiag  1:
 E= -76.4217412670829     Delta-E=       -0.000000000000 Rises=F Damp=F
 DIIS: error= 1.30D-08 at cycle   6 NSaved=   6.
 NSaved= 6 IEnMin= 6 EnMin= -76.4217412670829     IErMin= 6 ErrMin= 1.30D-08
 ErrMax= 1.30D-08  0.00D+00 EMaxC= 1.00D-01 BMatC= 6.11D-15 BMatP= 2.73D-13
 IDIUse=1 WtCom= 1.00D+00 WtEn= 0.00D+00
 Coeff-Com:  0.113D-03 0.274D-03-0.258D-03-0.327D-01 0.516D-02 0.103D+01
 Coeff:      0.113D-03 0.274D-03-0.258D-03-0.327D-01 0.516D-02 0.103D+01
 Gap=     0.463 Goal=   None    Shift=    0.000
 RMSDP=4.99D-09 MaxDP=3.46D-08 DE=-8.53D-14 OVMax= 9.60D-08

 SCF Done:  E(RM062X) =  -76.4217412671     A.U. after   11 cycles
            NFock= 11  Conv=0.50D-08     -V/T= 2.0029
 KE= 7.620181501234D+01 PE=-1.990978007834D+02 EE= 3.735299770092D+01
 Leave Link  502 at Sun Feb 19 22:27:31 2023, MaxMem=  6710886400 cpu:               8.8 elap:               0.4
 (Enter /data0/home/software/g16/l601.exe)
 Copying SCF densities to generalized density rwf, IOpCl= 0 IROHF=0.

 **********************************************************************

            Population analysis using the SCF density.

 **********************************************************************

 Alpha  occ. eigenvalues --  -19.62533  -1.13382  -0.61003  -0.47366  -0.39980
 Alpha virt. eigenvalues --    0.06321   0.13350   0.17378   0.17949   0.18959
 Alpha virt. eigenvalues --    0.23198   0.51218   0.53646   0.97762   1.00208
 Alpha virt. eigenvalues --    1.06052   1.19122   1.19796   1.32718   1.33761
 Alpha virt. eigenvalues --    1.69270   1.74049   1.76053   2.07598   2.09626
 Alpha virt. eigenvalues --    2.34848   2.43307   2.54232   2.88834   3.01379
 Alpha virt. eigenvalues --    5.05718   5.47503   5.93972   6.78161   6.80366
 Alpha virt. eigenvalues --    6.86874   6.91531   7.09491  49.96128
          Condensed to atoms (all electrons):
              31         32         33
    31  O    7.913735   0.324507   0.320541
    32  H    0.324507   0.422666  -0.024768
    33  H    0.320541  -0.024768   0.423040
 Mulliken charges:
               1
     1  C    0.000000
     2  C    0.000000
     3  C    0.000000
     4  C    0.000000
     5  C    0.000000
     6  H    0.000000
     7  H    0.000000
     8  H    0.000000
     9  H    0.000000
    10  C    0.000000
    11  H    0.000000
    12  H    0.000000
    13  H    0.000000
    14  N    0.000000
    15  C    0.000000
    16  H    0.000000
    17  H    0.000000
    18  C    0.000000
    19  H    0.000000
    20  H    0.000000
    21  C    0.000000
    22  H    0.000000
    23  H    0.000000
    24  S    0.000000
    25  O    0.000000
    26  O    0.000000
    27  O    0.000000
    28  O    0.000000
    29  H    0.000000
    30  H    0.000000
    31  O   -0.558783
    32  H    0.277595
    33  H    0.281188
 Sum of Mulliken charges =  -0.00000
 Mulliken charges with hydrogens summed into heavy atoms:
               1
     1  C    0.000000
     2  C    0.000000
     3  C    0.000000
     4  C    0.000000
     5  C    0.000000
    10  C    0.000000
    14  N    0.000000
    15  C    0.000000
    18  C    0.000000
    21  C    0.000000
    24  S    0.000000
    25  O    0.000000
    26  O    0.000000
    27  O    0.000000
    28  O    0.000000
    31  O   -0.000000
         Mulliken charges condensed to fragments:
      1      0.000000
      2      0.000000
      3     -0.000000
 Electronic spatial extent (au):  <R**2>=          12698.7941
 Charge=             -0.0000 electrons
 Dipole moment (field-independent basis, Debye):
    X=              1.7449    Y=              0.7571    Z=              0.8928  Tot=              2.1012
 Quadrupole moment (field-independent basis, Debye-Ang):
   XX=             41.6939   YY=              9.0660   ZZ=              8.0908
   XY=             28.2680   XZ=             24.8744   YZ=             16.5697
 Traceless Quadrupole moment (field-independent basis, Debye-Ang):
   XX=             22.0770   YY=            -10.5509   ZZ=            -11.5261
   XY=             28.2680   XZ=             24.8744   YZ=             16.5697
 Octapole moment (field-independent basis, Debye-Ang**2):
  XXX=            734.5096  YYY=             35.1331  ZZZ=             28.1441  XYY=            308.5314
  XXY=            567.9956  XXZ=            466.3587  XZZ=            202.9363  YZZ=            151.4875
  YYZ=            197.0504  XYZ=            356.3675
 Hexadecapole moment (field-independent basis, Debye-Ang**3):
 XXXX=          11237.0335 YYYY=          -1022.9417 ZZZZ=           -387.8782 XXXY=           9410.0091
 XXXZ=           7482.8240 YYYX=           2388.7309 YYYZ=           1760.1140 ZZZX=           1060.6430
 ZZZY=            898.7776 XXYY=           6070.5638 XXZZ=           3668.3483 YYZZ=           1884.0952
 XXYZ=           6152.6511 YYXZ=           4029.2321 ZZXY=           3015.2920
 N-N= 9.121246803074D+00 E-N=-1.990978008973D+02  KE= 7.620181501234D+01
 No NMR shielding tensors so no spin-rotation constants.
 Leave Link  601 at Sun Feb 19 22:27:31 2023, MaxMem=  6710886400 cpu:               1.7 elap:               0.1
 (Enter /data0/home/software/g16/l122.exe)
 CPIOFr:  IOpCl= 0 IRwI=-1 IRwCP=  731 ICalc=  6 LCPTot=      451837 Len1MO=     1186390 IndFrg=     8756567
 Restoring MOs from calculation   1 to rwf.
 CPIOFr:  IOpCl= 0 IRwI=-2 IRwCP=  731 ICalc=  0 LCPTot=      451837 Len1MO=     1186390 IndFrg=     1638227
 Counterpoise corrected energy =   -1182.119578157131
                   BSSE energy =       0.002082096255
              sum of fragments =   -1182.102086127167
           complexation energy =     -12.28 kcal/mole (raw)
           complexation energy =     -10.98 kcal/mole (corrected)
 Leave Link  122 at Sun Feb 19 22:27:31 2023, MaxMem=  6710886400 cpu:               0.4 elap:               0.0
 (Enter /data0/home/software/g16/l9999.exe)
 1\1\GINC-LOCALHOST\SP\RM062X\6-311+G(2d,p)\C9H17N1O5S1\WUHANYU\19-Feb-
 2023\0\\#p M062X/6-311+G(2d,p) nosymm em=GD3 counterpoise=3\\Title Car
 d Required\\0,1\C,0,10.183452,12.079111,9.760909\C,0,10.949692,11.9000
 79,8.612488\C,0,10.577915,10.939851,7.671365\C,0,9.43153,10.175186,7.8
 93573\C,0,8.664008,10.40972,9.045721\H,0,11.210348,10.759018,6.796268\
 H,0,10.491507,12.769503,10.553958\H,0,11.86517,12.484553,8.474641\H,0,
 7.772113,9.788819,9.280464\C,0,9.040711,9.080736,6.971782\H,0,7.960383
 ,8.881871,6.965992\H,0,9.354,9.259968,5.935282\H,0,9.527454,8.132466,7
 .292276\N,0,9.036146,11.360701,9.940514\C,0,8.181946,11.643653,11.1198
 49\H,0,7.914575,12.723656,11.097765\H,0,7.220566,11.079476,11.012576\C
 ,0,8.861905,11.284143,12.456052\H,0,9.897868,10.904862,12.290622\H,0,9
 .003604,12.206875,13.053582\C,0,8.061262,10.273473,13.26402\H,0,7.0092
 07,10.581255,13.374706\H,0,8.459906,10.213572,14.294885\S,0,8.111146,8
 .588455,12.574903\O,0,8.132268,8.813334,11.080816\O,0,6.908506,7.94065
 2,13.07265\O,0,9.41161,8.029127,13.031851\O,0,13.605542,11.906612,10.1
 36987\H,0,12.854946,11.319687,10.405361\H,0,14.298883,11.690803,10.756
 56\O,0,13.519432,10.490105,7.715405\H,0,14.416565,10.359347,7.42085\H,
 0,13.592795,11.04723,8.51414\\Version=ES64L-G16RevA.03\HF=-76.4217413\
 RMSD=4.988e-09\Dipole=2.4843724,4.4720009,-3.1630035\Quadrupole=55.608
 2301,116.068038,-171.6762681,121.2985859,-0.3054603,46.2381195\PG=C01 
 [X(C9H17N1O5S1)]\\@


 ABSOLUTISM, OBSOLETISM -- IF IT WORKS, IT'S OUT OF DATE

                          -- STAFFORD BEER
 Job cpu time:       0 days  2 hours 59 minutes 29.4 seconds.
 Elapsed time:       0 days  0 hours  7 minutes 31.4 seconds.
 File lengths (MBytes):  RWF=    245 Int=      0 D2E=      0 Chk=     84 Scr=      1
 Normal termination of Gaussian 16 at Sun Feb 19 22:27:31 2023.
