 Entering Gaussian System, Link 0=g16
 Initial command:
 /data0/home/software/g16/l1.exe "/data0/home/software/g16/scratch/Gau-1469902.inp" -scrdir="/data0/home/software/g16/scratch/"
 Default is to use a total of  22 processors:
                               22 via shared-memory
                                1 via Linda
 Entering Link 1 = /data0/home/software/g16/l1.exe PID=   1469903.
  
 Copyright (c) 1988,1990,1992,1993,1995,1998,2003,2009,2016,
            Gaussian, Inc.  All Rights Reserved.
  
 This is part of the Gaussian(R) 16 program.  It is based on
 the Gaussian(R) 09 system (copyright 2009, Gaussian, Inc.),
 the Gaussian(R) 03 system (copyright 2003, Gaussian, Inc.),
 the Gaussian(R) 98 system (copyright 1998, Gaussian, Inc.),
 the Gaussian(R) 94 system (copyright 1995, Gaussian, Inc.),
 the Gaussian 92(TM) system (copyright 1992, Gaussian, Inc.),
 the Gaussian 90(TM) system (copyright 1990, Gaussian, Inc.),
 the Gaussian 88(TM) system (copyright 1988, Gaussian, Inc.),
 the Gaussian 86(TM) system (copyright 1986, Carnegie Mellon
 University), and the Gaussian 82(TM) system (copyright 1983,
 Carnegie Mellon University). Gaussian is a federally registered
 trademark of Gaussian, Inc.
  
 This software contains proprietary and confidential information,
 including trade secrets, belonging to Gaussian, Inc.
  
 This software is provided under written license and may be
 used, copied, transmitted, or stored only in accord with that
 written license.
  
 The following legend is applicable only to US Government
 contracts under FAR:
  
                    RESTRICTED RIGHTS LEGEND
  
 Use, reproduction and disclosure by the US Government is
 subject to restrictions as set forth in subparagraphs (a)
 and (c) of the Commercial Computer Software - Restricted
 Rights clause in FAR 52.227-19.
  
 Gaussian, Inc.
 340 Quinnipiac St., Bldg. 40, Wallingford CT 06492
  
  
 ---------------------------------------------------------------
 Warning -- This program may not be used in any manner that
 competes with the business of Gaussian, Inc. or will provide
 assistance to any competitor of Gaussian, Inc.  The licensee
 of this program is prohibited from giving any competitor of
 Gaussian, Inc. access to this program.  By using this program,
 the user acknowledges that Gaussian, Inc. is engaged in the
 business of creating and licensing software in the field of
 computational chemistry and represents and warrants to the
 licensee that it is not a competitor of Gaussian, Inc. and that
 it will not use this program in any manner prohibited above.
 ---------------------------------------------------------------
  

 Cite this work as:
 Gaussian 16, Revision A.03,
 M. J. Frisch, G. W. Trucks, H. B. Schlegel, G. E. Scuseria, 
 M. A. Robb, J. R. Cheeseman, G. Scalmani, V. Barone, 
 G. A. Petersson, H. Nakatsuji, X. Li, M. Caricato, A. V. Marenich, 
 J. Bloino, B. G. Janesko, R. Gomperts, B. Mennucci, H. P. Hratchian, 
 J. V. Ortiz, A. F. Izmaylov, J. L. Sonnenberg, D. Williams-Young, 
 F. Ding, F. Lipparini, F. Egidi, J. Goings, B. Peng, A. Petrone, 
 T. Henderson, D. Ranasinghe, V. G. Zakrzewski, J. Gao, N. Rega, 
 G. Zheng, W. Liang, M. Hada, M. Ehara, K. Toyota, R. Fukuda, 
 J. Hasegawa, M. Ishida, T. Nakajima, Y. Honda, O. Kitao, H. Nakai, 
 T. Vreven, K. Throssell, J. A. Montgomery, Jr., J. E. Peralta, 
 F. Ogliaro, M. J. Bearpark, J. J. Heyd, E. N. Brothers, K. N. Kudin, 
 V. N. Staroverov, T. A. Keith, R. Kobayashi, J. Normand, 
 K. Raghavachari, A. P. Rendell, J. C. Burant, S. S. Iyengar, 
 J. Tomasi, M. Cossi, J. M. Millam, M. Klene, C. Adamo, R. Cammi, 
 J. W. Ochterski, R. L. Martin, K. Morokuma, O. Farkas, 
 J. B. Foresman, and D. J. Fox, Gaussian, Inc., Wallingford CT, 2016.
 
 ******************************************
 Gaussian 16:  ES64L-G16RevA.03 25-Dec-2016
                11-Dec-2022 
 ******************************************
 %nproc=24
 Will use up to   24 processors via shared memory.
 %mem=10GB
 -------------------------------------------------------
 #p B3LYP/6-311+G(2d,p) opt freq scrf(smd,solvent=water)
 -------------------------------------------------------
 1/18=20,19=15,26=3,38=1/1,3;
 2/9=110,12=2,17=6,18=5,40=1/2;
 3/5=4,6=6,7=112,11=2,25=1,30=1,70=32201,71=1,72=1,74=-5/1,2,3;
 4//1;
 5/5=2,38=5,53=1/2;
 6/7=2,8=2,9=2,10=2,28=1/1;
 7//1,2,3,16;
 1/18=20,19=15,26=3/3(2);
 2/9=110/2;
 99//99;
 2/9=110/2;
 3/5=4,6=6,7=112,11=2,25=1,30=1,70=32205,71=1,72=1,74=-5/1,2,3;
 4/5=5,16=3,69=1/1;
 5/5=2,38=5,53=1/2;
 7//1,2,3,16;
 1/18=20,19=15,26=3/3(-5);
 2/9=110/2;
 6/7=2,8=2,9=2,10=2,19=2,28=1/1;
 99/9=1/99;
 Leave Link    1 at Sun Dec 11 10:29:24 2022, MaxMem=  1342177280 cpu:               0.8 elap:               0.0
 (Enter /data0/home/software/g16/l101.exe)
 -------------------
 Title Card Required
 -------------------
 Symbolic Z-matrix:
 Charge =  0 Multiplicity = 1
 C                     8.94864   10.62572   5.06888 
 C                     10.27406   10.12199   4.84712 
 C                     11.20555   10.87709   4.12809 
 C                     10.79632   12.10916   3.64941 
 C                     9.49049   12.59727   3.87143 
 C                     8.54837   11.87092   4.57992 
 H                     12.21023   10.49357   3.96152 
 H                     11.49352   12.72731   3.08446 
 H                     9.2247    13.57554   3.46992 
 H                     7.54597   12.24948   4.74852 
 H                     7.34495   9.68919   6.12716 
 C                     9.20139   8.59403   6.01179 
 H                     8.94796   7.69213   6.56464 
 N                     8.285     9.63992   5.80937 
 N                     10.38007   8.86279   5.44842 
 P                     11.92638   5.96067   6.98705 
 O                     10.48878   5.76145   7.09898 
 O                     12.82479   4.66315   6.70995 
 H                     12.82937   4.48746   5.7009 
 O                     12.47214   6.94169   5.86558 
 H                     11.75656   7.69562   5.66719 
 O                     12.54389   6.46967   8.362 
 H                     13.56087   6.5642    8.24769 
 
 Add virtual bond connecting atoms H21        and N15        Dist= 3.44D+00.
 ITRead=  0  0  0  0  0  0  0  0  0  0  0  0  0  0  0  0  0  0  0  0
 ITRead=  0  0  0
 MicOpt= -1 -1 -1 -1 -1 -1 -1 -1 -1 -1 -1 -1 -1 -1 -1 -1 -1 -1 -1 -1
 MicOpt= -1 -1 -1
 NAtoms=     23 NQM=       23 NQMF=       0 NMMI=      0 NMMIF=      0
                NMic=       0 NMicF=      0.
                    Isotopes and Nuclear Properties:
 (Nuclear quadrupole moments (NQMom) in fm**2, nuclear magnetic moments (NMagM)
  in nuclear magnetons)

  Atom         1           2           3           4           5           6           7           8           9          10
 IAtWgt=          12          12          12          12          12          12           1           1           1           1
 AtmWgt=  12.0000000  12.0000000  12.0000000  12.0000000  12.0000000  12.0000000   1.0078250   1.0078250   1.0078250   1.0078250
 NucSpn=           0           0           0           0           0           0           1           1           1           1
 AtZEff=  -0.0000000  -0.0000000  -0.0000000  -0.0000000  -0.0000000  -0.0000000  -0.0000000  -0.0000000  -0.0000000  -0.0000000
 NQMom=    0.0000000   0.0000000   0.0000000   0.0000000   0.0000000   0.0000000   0.0000000   0.0000000   0.0000000   0.0000000
 NMagM=    0.0000000   0.0000000   0.0000000   0.0000000   0.0000000   0.0000000   2.7928460   2.7928460   2.7928460   2.7928460
 AtZNuc=   6.0000000   6.0000000   6.0000000   6.0000000   6.0000000   6.0000000   1.0000000   1.0000000   1.0000000   1.0000000

  Atom        11          12          13          14          15          16          17          18          19          20
 IAtWgt=           1          12           1          14          14          31          16          16           1          16
 AtmWgt=   1.0078250  12.0000000   1.0078250  14.0030740  14.0030740  30.9737634  15.9949146  15.9949146   1.0078250  15.9949146
 NucSpn=           1           0           1           2           2           1           0           0           1           0
 AtZEff=  -0.0000000  -0.0000000  -0.0000000  -0.0000000  -0.0000000  -0.0000000  -0.0000000  -0.0000000  -0.0000000  -0.0000000
 NQMom=    0.0000000   0.0000000   0.0000000   2.0440000   2.0440000   0.0000000   0.0000000   0.0000000   0.0000000   0.0000000
 NMagM=    2.7928460   0.0000000   2.7928460   0.4037610   0.4037610   1.1316000   0.0000000   0.0000000   2.7928460   0.0000000
 AtZNuc=   1.0000000   6.0000000   1.0000000   7.0000000   7.0000000  15.0000000   8.0000000   8.0000000   1.0000000   8.0000000

  Atom        21          22          23
 IAtWgt=           1          16           1
 AtmWgt=   1.0078250  15.9949146   1.0078250
 NucSpn=           1           0           1
 AtZEff=  -0.0000000  -0.0000000  -0.0000000
 NQMom=    0.0000000   0.0000000   0.0000000
 NMagM=    2.7928460   0.0000000   2.7928460
 AtZNuc=   1.0000000   8.0000000   1.0000000
 Leave Link  101 at Sun Dec 11 10:29:24 2022, MaxMem=  1342177280 cpu:               5.2 elap:               0.2
 (Enter /data0/home/software/g16/l103.exe)

 GradGradGradGradGradGradGradGradGradGradGradGradGradGradGradGradGradGrad
 Berny optimization.
 Initialization pass.
                           ----------------------------
                           !    Initial Parameters    !
                           ! (Angstroms and Degrees)  !
 --------------------------                            --------------------------
 ! Name  Definition              Value          Derivative Info.                !
 --------------------------------------------------------------------------------
 ! R1    R(1,2)                  1.4351         estimate D2E/DX2                !
 ! R2    R(1,6)                  1.3964         estimate D2E/DX2                !
 ! R3    R(1,14)                 1.4002         estimate D2E/DX2                !
 ! R4    R(2,3)                  1.3982         estimate D2E/DX2                !
 ! R5    R(2,15)                 1.3994         estimate D2E/DX2                !
 ! R6    R(3,4)                  1.3837         estimate D2E/DX2                !
 ! R7    R(3,7)                  1.0882         estimate D2E/DX2                !
 ! R8    R(4,5)                  1.4116         estimate D2E/DX2                !
 ! R9    R(4,8)                  1.0897         estimate D2E/DX2                !
 ! R10   R(5,6)                  1.3846         estimate D2E/DX2                !
 ! R11   R(5,9)                  1.0904         estimate D2E/DX2                !
 ! R12   R(6,10)                 1.0847         estimate D2E/DX2                !
 ! R13   R(11,14)                0.9935         estimate D2E/DX2                !
 ! R14   R(12,13)                1.0878         estimate D2E/DX2                !
 ! R15   R(12,14)                1.4052         estimate D2E/DX2                !
 ! R16   R(12,15)                1.3338         estimate D2E/DX2                !
 ! R17   R(15,21)                1.8179         estimate D2E/DX2                !
 ! R18   R(16,17)                1.4556         estimate D2E/DX2                !
 ! R19   R(16,18)                1.6023         estimate D2E/DX2                !
 ! R20   R(16,20)                1.5868         estimate D2E/DX2                !
 ! R21   R(16,22)                1.5909         estimate D2E/DX2                !
 ! R22   R(18,19)                1.0242         estimate D2E/DX2                !
 ! R23   R(20,21)                1.0582         estimate D2E/DX2                !
 ! R24   R(22,23)                1.0277         estimate D2E/DX2                !
 ! A1    A(2,1,6)              121.5755         estimate D2E/DX2                !
 ! A2    A(2,1,14)             105.8033         estimate D2E/DX2                !
 ! A3    A(6,1,14)             132.6212         estimate D2E/DX2                !
 ! A4    A(1,2,3)              120.3445         estimate D2E/DX2                !
 ! A5    A(1,2,15)             108.6258         estimate D2E/DX2                !
 ! A6    A(3,2,15)             131.0297         estimate D2E/DX2                !
 ! A7    A(2,3,4)              117.5008         estimate D2E/DX2                !
 ! A8    A(2,3,7)              120.2298         estimate D2E/DX2                !
 ! A9    A(4,3,7)              122.2694         estimate D2E/DX2                !
 ! A10   A(3,4,5)              121.8066         estimate D2E/DX2                !
 ! A11   A(3,4,8)              119.6867         estimate D2E/DX2                !
 ! A12   A(5,4,8)              118.5067         estimate D2E/DX2                !
 ! A13   A(4,5,6)              121.905          estimate D2E/DX2                !
 ! A14   A(4,5,9)              118.5424         estimate D2E/DX2                !
 ! A15   A(6,5,9)              119.5527         estimate D2E/DX2                !
 ! A16   A(1,6,5)              116.8676         estimate D2E/DX2                !
 ! A17   A(1,6,10)             121.4469         estimate D2E/DX2                !
 ! A18   A(5,6,10)             121.6856         estimate D2E/DX2                !
 ! A19   A(13,12,14)           122.5733         estimate D2E/DX2                !
 ! A20   A(13,12,15)           125.9896         estimate D2E/DX2                !
 ! A21   A(14,12,15)           111.4371         estimate D2E/DX2                !
 ! A22   A(1,14,11)            125.6406         estimate D2E/DX2                !
 ! A23   A(1,14,12)            106.9243         estimate D2E/DX2                !
 ! A24   A(11,14,12)           127.4345         estimate D2E/DX2                !
 ! A25   A(2,15,12)            107.2094         estimate D2E/DX2                !
 ! A26   A(2,15,21)            133.3747         estimate D2E/DX2                !
 ! A27   A(12,15,21)           119.2703         estimate D2E/DX2                !
 ! A28   A(17,16,18)           117.1422         estimate D2E/DX2                !
 ! A29   A(17,16,20)           118.5958         estimate D2E/DX2                !
 ! A30   A(17,16,22)           111.1419         estimate D2E/DX2                !
 ! A31   A(18,16,20)           100.6942         estimate D2E/DX2                !
 ! A32   A(18,16,22)           101.006          estimate D2E/DX2                !
 ! A33   A(20,16,22)           106.2317         estimate D2E/DX2                !
 ! A34   A(16,18,19)           108.1662         estimate D2E/DX2                !
 ! A35   A(16,20,21)           109.9004         estimate D2E/DX2                !
 ! A36   A(16,22,23)           108.5051         estimate D2E/DX2                !
 ! A37   L(15,21,20,17,-1)     172.7465         estimate D2E/DX2                !
 ! A38   L(15,21,20,17,-2)     180.2301         estimate D2E/DX2                !
 ! D1    D(6,1,2,3)              0.0371         estimate D2E/DX2                !
 ! D2    D(6,1,2,15)          -179.9675         estimate D2E/DX2                !
 ! D3    D(14,1,2,3)          -179.97           estimate D2E/DX2                !
 ! D4    D(14,1,2,15)            0.0254         estimate D2E/DX2                !
 ! D5    D(2,1,6,5)             -0.0259         estimate D2E/DX2                !
 ! D6    D(2,1,6,10)           179.9817         estimate D2E/DX2                !
 ! D7    D(14,1,6,5)           179.9834         estimate D2E/DX2                !
 ! D8    D(14,1,6,10)           -0.009          estimate D2E/DX2                !
 ! D9    D(2,1,14,11)          179.7652         estimate D2E/DX2                !
 ! D10   D(2,1,14,12)            0.0381         estimate D2E/DX2                !
 ! D11   D(6,1,14,11)           -0.243          estimate D2E/DX2                !
 ! D12   D(6,1,14,12)         -179.9702         estimate D2E/DX2                !
 ! D13   D(1,2,3,4)             -0.0209         estimate D2E/DX2                !
 ! D14   D(1,2,3,7)            179.9651         estimate D2E/DX2                !
 ! D15   D(15,2,3,4)           179.9849         estimate D2E/DX2                !
 ! D16   D(15,2,3,7)            -0.0291         estimate D2E/DX2                !
 ! D17   D(1,2,15,12)           -0.0822         estimate D2E/DX2                !
 ! D18   D(1,2,15,21)         -175.5053         estimate D2E/DX2                !
 ! D19   D(3,2,15,12)          179.9125         estimate D2E/DX2                !
 ! D20   D(3,2,15,21)            4.4894         estimate D2E/DX2                !
 ! D21   D(2,3,4,5)             -0.0041         estimate D2E/DX2                !
 ! D22   D(2,3,4,8)            179.9928         estimate D2E/DX2                !
 ! D23   D(7,3,4,5)           -179.9898         estimate D2E/DX2                !
 ! D24   D(7,3,4,8)              0.0071         estimate D2E/DX2                !
 ! D25   D(3,4,5,6)              0.0149         estimate D2E/DX2                !
 ! D26   D(3,4,5,9)           -179.9928         estimate D2E/DX2                !
 ! D27   D(8,4,5,6)           -179.982          estimate D2E/DX2                !
 ! D28   D(8,4,5,9)              0.0102         estimate D2E/DX2                !
 ! D29   D(4,5,6,1)              0.0005         estimate D2E/DX2                !
 ! D30   D(4,5,6,10)           179.9929         estimate D2E/DX2                !
 ! D31   D(9,5,6,1)           -179.9916         estimate D2E/DX2                !
 ! D32   D(9,5,6,10)             0.0008         estimate D2E/DX2                !
 ! D33   D(13,12,14,1)         179.8576         estimate D2E/DX2                !
 ! D34   D(13,12,14,11)          0.1369         estimate D2E/DX2                !
 ! D35   D(15,12,14,1)          -0.0938         estimate D2E/DX2                !
 ! D36   D(15,12,14,11)       -179.8145         estimate D2E/DX2                !
 ! D37   D(13,12,15,2)        -179.8403         estimate D2E/DX2                !
 ! D38   D(13,12,15,21)         -3.6529         estimate D2E/DX2                !
 ! D39   D(14,12,15,2)           0.109          estimate D2E/DX2                !
 ! D40   D(14,12,15,21)        176.2965         estimate D2E/DX2                !
 ! D41   D(2,15,20,16)         163.7835         estimate D2E/DX2                !
 ! D42   D(12,15,20,16)        -11.0292         estimate D2E/DX2                !
 ! D43   D(17,16,18,19)         84.1932         estimate D2E/DX2                !
 ! D44   D(20,16,18,19)        -45.911          estimate D2E/DX2                !
 ! D45   D(22,16,18,19)       -154.9687         estimate D2E/DX2                !
 ! D46   D(17,16,20,21)         29.4621         estimate D2E/DX2                !
 ! D47   D(18,16,20,21)        158.6384         estimate D2E/DX2                !
 ! D48   D(22,16,20,21)        -96.4498         estimate D2E/DX2                !
 ! D49   D(17,16,22,23)        177.9982         estimate D2E/DX2                !
 ! D50   D(18,16,22,23)         53.0036         estimate D2E/DX2                !
 ! D51   D(20,16,22,23)        -51.6819         estimate D2E/DX2                !
 --------------------------------------------------------------------------------
 Trust Radius=3.00D-01 FncErr=1.00D-07 GrdErr=1.00D-06 EigMax=2.50D+02 EigMin=1.00D-04
 Number of steps in this run=    123 maximum allowed number of steps=    138.
 GradGradGradGradGradGradGradGradGradGradGradGradGradGradGradGradGradGrad

 Leave Link  103 at Sun Dec 11 10:29:24 2022, MaxMem=  1342177280 cpu:               0.2 elap:               0.0
 (Enter /data0/home/software/g16/l202.exe)
                          Input orientation:                          
 ---------------------------------------------------------------------
 Center     Atomic      Atomic             Coordinates (Angstroms)
 Number     Number       Type             X           Y           Z
 ---------------------------------------------------------------------
      1          6           0        8.948643   10.625716    5.068885
      2          6           0       10.274057   10.121994    4.847117
      3          6           0       11.205547   10.877091    4.128094
      4          6           0       10.796322   12.109160    3.649407
      5          6           0        9.490488   12.597268    3.871425
      6          6           0        8.548367   11.870921    4.579923
      7          1           0       12.210234   10.493572    3.961523
      8          1           0       11.493525   12.727313    3.084455
      9          1           0        9.224698   13.575539    3.469918
     10          1           0        7.545971   12.249480    4.748516
     11          1           0        7.344952    9.689185    6.127161
     12          6           0        9.201390    8.594028    6.011794
     13          1           0        8.947956    7.692127    6.564643
     14          7           0        8.285003    9.639924    5.809373
     15          7           0       10.380071    8.862794    5.448424
     16         15           0       11.926382    5.960672    6.987054
     17          8           0       10.488782    5.761445    7.098979
     18          8           0       12.824790    4.663145    6.709954
     19          1           0       12.829367    4.487457    5.700903
     20          8           0       12.472143    6.941693    5.865578
     21          1           0       11.756562    7.695621    5.667189
     22          8           0       12.543889    6.469666    8.362004
     23          1           0       13.560871    6.564204    8.247688
 ---------------------------------------------------------------------
                    Distance matrix (angstroms):
                    1          2          3          4          5
     1  C    0.000000
     2  C    1.435144   0.000000
     3  C    2.458026   1.398156   0.000000
     4  C    2.762144   2.378255   1.383691   0.000000
     5  C    2.369499   2.773614   2.442604   1.411646   0.000000
     6  C    1.396367   2.471466   2.872708   2.444569   1.384609
     7  H    3.446983   2.161279   1.088223   2.169490   3.439575
     8  H    3.851116   3.373687   2.143697   1.089668   2.156013
     9  H    3.366654   3.863263   3.411536   2.156962   1.090351
    10  H    2.169501   3.460978   3.957382   3.434023   2.161340
    11  H    2.137490   3.225755   4.506837   4.889530   4.260119
    12  C    2.254044   2.200402   3.574542   4.525575   4.548702
    13  H    3.292907   3.257713   4.601900   5.605822   5.622115
    14  N    1.400188   2.261562   3.589827   4.131501   3.735602
    15  N    2.302375   1.399426   2.545992   3.734785   4.150251
    16  P    5.857383   4.962470   5.732751   7.086665   7.725615
    17  O    5.491306   4.912370   5.959005   7.231017   7.625101
    18  O    7.298622   6.306777   6.921060   8.302094   9.062291
    19  H    7.289560   6.245524   6.777753   8.150599   8.959025
    20  O    5.159632   3.997894   4.484470   5.867070   6.697197
    21  H    4.102174   2.959328   3.576896   4.947002   5.690870
    22  O    6.406495   5.553924   6.256401   7.554234   8.187555
    23  H    6.919055   5.918184   6.412457   7.715793   8.492206
                    6          7          8          9         10
     6  C    0.000000
     7  H    3.960906   0.000000
     8  H    3.412299   2.504500   0.000000
     9  H    2.143655   4.318984   2.452681   0.000000
    10  H    1.084679   5.045584   4.310523   2.492262   0.000000
    11  H    2.932938   5.385907   5.974859   5.069333   2.914821
    12  C    3.635206   4.106704   5.559428   5.592596   4.206972
    13  H    4.643394   5.026608   6.629082   6.653454   5.102288
    14  N    2.560909   4.421618   5.220322   4.673879   2.912279
    15  N    3.627432   2.867021   4.665044   5.240166   4.471201
    16  P    7.220548   5.457251   7.823367   8.812238   7.984244
    17  O    6.887420   5.932963   8.102421   8.707931   7.501960
    18  O    8.647361   6.474985   8.941326  10.143434   9.448050
    19  H    8.608083   6.283485   8.747886  10.028169   9.437707
    20  O    6.430102   4.038548   6.493515   7.764857   7.327182
    21  H    5.376597   3.308118   5.661946   6.768439   6.269822
    22  O    7.709857   5.972217   8.253117   9.243536   8.452380
    23  H    8.169391   5.969536   8.301615   9.528290   8.985855
                   11         12         13         14         15
    11  H    0.000000
    12  C    2.158481   0.000000
    13  H    2.597932   1.087794   0.000000
    14  N    0.993535   1.405218   2.191769   0.000000
    15  N    3.218005   1.333758   2.160407   2.263521   0.000000
    16  P    5.969148   3.912963   3.470935   5.308810   3.630533
    17  O    5.123987   3.295888   2.527290   4.643525   3.514899
    18  O    7.458509   5.391502   4.921960   6.796252   5.020474
    19  H    7.570897   5.488424   5.106986   6.871021   5.020595
    20  O    5.822819   3.667344   3.670387   4.981541   2.870786
    21  H    4.862939   2.730346   2.948509   3.981489   1.817932
    22  O    6.510666   4.605290   4.201863   5.891059   4.347197
    23  H    7.273224   5.303252   5.038237   6.575729   4.820465
                   16         17         18         19         20
    16  P    0.000000
    17  O    1.455648   0.000000
    18  O    1.602341   2.610467   0.000000
    19  H    2.154049   3.009319   1.024242   0.000000
    20  O    1.586810   2.616865   2.455425   2.485559   0.000000
    21  H    2.186534   2.719986   3.379997   3.382952   1.058216
    22  O    1.590873   2.514015   2.464080   3.330482   2.541673
    23  H    2.150582   3.376638   2.553520   3.366614   2.646181
                   21         22         23
    21  H    0.000000
    22  O    3.063475   0.000000
    23  H    3.345835   1.027744   0.000000
 Stoichiometry    C7H9N2O4P
 Framework group  C1[X(C7H9N2O4P)]
 Deg. of freedom    63
 Full point group                 C1      NOp   1
 Largest Abelian subgroup         C1      NOp   1
 Largest concise Abelian subgroup C1      NOp   1
                         Standard orientation:                         
 ---------------------------------------------------------------------
 Center     Atomic      Atomic             Coordinates (Angstroms)
 Number     Number       Type             X           Y           Z
 ---------------------------------------------------------------------
      1          6           0        2.715917    0.839273    0.014715
      2          6           0        1.874686   -0.317825   -0.099716
      3          6           0        2.432391   -1.599922   -0.094077
      4          6           0        3.807512   -1.698004    0.024348
      5          6           0        4.628094   -0.554790    0.135935
      6          6           0        4.102637    0.726237    0.133334
      7          1           0        1.792709   -2.476042   -0.180388
      8          1           0        4.279774   -2.679978    0.032781
      9          1           0        5.705743   -0.693844    0.226505
     10          1           0        4.736500    1.602215    0.219403
     11          1           0        2.130336    2.894862    0.037316
     12          6           0        0.549476    1.437877   -0.155342
     13          1           0       -0.325120    2.082557   -0.207936
     14          7           0        1.854359    1.942356   -0.023359
     15          7           0        0.544693    0.104992   -0.203343
     16         15           0       -3.077893   -0.021256    0.000867
     17          8           0       -2.739186    1.349090   -0.354577
     18          8           0       -4.398754   -0.642674   -0.659937
     19          1           0       -4.152421   -1.005338   -1.585608
     20          8           0       -2.026093   -1.168327   -0.308828
     21          1           0       -1.043908   -0.776308   -0.270671
     22          8           0       -3.426213   -0.143287    1.548335
     23          1           0       -3.690898   -1.116212    1.747378
 ---------------------------------------------------------------------
 Rotational constants (GHZ):           1.6349534           0.2481596           0.2263120
 Leave Link  202 at Sun Dec 11 10:29:24 2022, MaxMem=  1342177280 cpu:               0.1 elap:               0.0
 (Enter /data0/home/software/g16/l301.exe)
 Standard basis: 6-311+G(2d,p) (5D, 7F)
 Ernie: Thresh=  0.10000D-02 Tol=  0.10000D-05 Strict=F.
 There are   468 symmetry adapted cartesian basis functions of A   symmetry.
 There are   440 symmetry adapted basis functions of A   symmetry.
   440 basis functions,   674 primitive gaussians,   468 cartesian basis functions
    56 alpha electrons       56 beta electrons
       nuclear repulsion energy       983.1404938567 Hartrees.
 IExCor=  402 DFT=T Ex+Corr=B3LYP ExCW=0 ScaHFX=  0.200000
 ScaDFX=  0.800000  0.720000  1.000000  0.810000 ScalE2=  1.000000  1.000000
 IRadAn=      5 IRanWt=     -1 IRanGd=            0 ICorTp=0 IEmpDi=  4
 NAtoms=   23 NActive=   23 NUniq=   23 SFac= 1.00D+00 NAtFMM=   60 NAOKFM=F Big=F
 Integral buffers will be    131072 words long.
 Raffenetti 2 integral format.
 Two-electron integral symmetry is turned on.
 ------------------------------------------------------------------------------
 Polarizable Continuum Model (PCM)
 =================================
 Model                : PCM.
 Atomic radii         : SMD-Coulomb.
 Polarization charges : Total charges.
 Charge compensation  : None.
 Solution method      : On-the-fly selection.
 Cavity type          : VdW (van der Waals Surface) (Alpha=1.000).
 Cavity algorithm     : GePol (No added spheres)
                        Default sphere list used, NSphG=   23.
                        Lebedev-Laikov grids with approx.  5.0 points / Ang**2.
                        Smoothing algorithm: York/Karplus (Gamma=1.0000).
                        Polarization charges: spherical gaussians, with
                                              point-specific exponents (IZeta= 3).
                        Self-potential: point-specific (ISelfS= 7).
                        Self-field    : sphere-specific E.n sum rule (ISelfD= 2).
 1st derivatives      : Analytical E(r).r(x)/FMM algorithm (CHGder, D1EAlg=3).
                        Cavity 1st derivative terms included.
 Solvent              : Water, Eps=  78.355300 Eps(inf)=   1.777849
 ------------------------------------------------------------------------------
 GePol: Number of generator spheres                  =      23
 GePol: Total number of spheres                      =      23
 GePol: Number of exposed spheres                    =      23 (100.00%)
 GePol: Number of points                             =    1855
 GePol: Average weight of points                     =       0.12
 GePol: Minimum weight of points                     =   0.12D-10
 GePol: Maximum weight of points                     =    0.21991
 GePol: Number of points with low weight             =     116
 GePol: Fraction of low-weight points (<1% of avg)   =       6.25%
 GePol: Cavity surface area                          =    223.900 Ang**2
 GePol: Cavity volume                                =    193.792 Ang**3
 ------------------------------------------------------------------------------
 Atomic radii for non-electrostatic terms: SMD-CDS.
 ------------------------------------------------------------------------------
 PCM non-electrostatic energy =         0.0123606362 Hartrees.
 Nuclear repulsion after PCM non-electrostatic terms =      983.1528544929 Hartrees.
 Leave Link  301 at Sun Dec 11 10:29:24 2022, MaxMem=  1342177280 cpu:               2.5 elap:               0.1
 (Enter /data0/home/software/g16/l302.exe)
 NPDir=0 NMtPBC=     1 NCelOv=     1 NCel=       1 NClECP=     1 NCelD=      1
         NCelK=      1 NCelE2=     1 NClLst=     1 CellRange=     0.0.
 One-electron integrals computed using PRISM.
 One-electron integral symmetry used in STVInt
 NBasis=   440 RedAO= T EigKep=  1.48D-06  NBF=   440
 NBsUse=   439 1.00D-06 EigRej=  9.62D-07 NBFU=   439
 Precomputing XC quadrature grid using
 IXCGrd= 4 IRadAn=           5 IRanWt=          -1 IRanGd=           0 AccXCQ= 0.00D+00.
 Generated NRdTot=       0 NPtTot=           0 NUsed=           0 NTot=          32
 NSgBfM=   467   467   467   467   467 MxSgAt=    23 MxSgA2=    23.
 Leave Link  302 at Sun Dec 11 10:29:24 2022, MaxMem=  1342177280 cpu:               8.3 elap:               0.4
 (Enter /data0/home/software/g16/l303.exe)
 DipDrv:  MaxL=1.
 Leave Link  303 at Sun Dec 11 10:29:25 2022, MaxMem=  1342177280 cpu:               1.0 elap:               0.1
 (Enter /data0/home/software/g16/l401.exe)
 ExpMin= 3.48D-02 ExpMax= 7.75D+04 ExpMxC= 2.65D+03 IAcc=3 IRadAn=         5 AccDes= 0.00D+00
 Harris functional with IExCor=  402 and IRadAn=       5 diagonalized for initial guess.
 HarFok:  IExCor=  402 AccDes= 0.00D+00 IRadAn=         5 IDoV= 1 UseB2=F ITyADJ=14
 ICtDFT=  3500011 ScaDFX=  1.000000  1.000000  1.000000  1.000000
 FoFCou: FMM=F IPFlag=           0 FMFlag=      100000 FMFlg1=           0
         NFxFlg=           0 DoJE=T BraDBF=F KetDBF=T FulRan=T
         wScrn=  0.000000 ICntrl=       500 IOpCl=  0 I1Cent=   200000004 NGrid=           0
         NMat0=    1 NMatS0=      1 NMatT0=    0 NMatD0=    1 NMtDS0=    0 NMtDT0=    0
 Petite list used in FoFCou.
 Harris En= -1024.36523434204    
 JPrj=0 DoOrth=F DoCkMO=F.
 Leave Link  401 at Sun Dec 11 10:29:26 2022, MaxMem=  1342177280 cpu:              27.8 elap:               1.2
 (Enter /data0/home/software/g16/l502.exe)
 Integral symmetry usage will be decided dynamically.
 Closed shell SCF:
 Using DIIS extrapolation, IDIIS=  1040.
 NGot=  1342177280 LenX=  1341723726 LenY=  1341504234
 Requested convergence on RMS density matrix=1.00D-08 within 128 cycles.
 Requested convergence on MAX density matrix=1.00D-06.
 Requested convergence on             energy=1.00D-06.
 No special actions if energy rises.
 Fock matrices will be formed incrementally for  20 cycles.

 Cycle   1  Pass 1  IDiag  1:
 FoFJK:  IHMeth= 1 ICntrl=       0 DoSepK=F KAlg= 0 I1Cent=           0 FoldK=F
 IRaf= 820000000 NMat=       1 IRICut=       1 DoRegI=T DoRafI=F ISym2E= 0 IDoP0=0 IntGTp=1.
 FoFCou: FMM=F IPFlag=           0 FMFlag=      100000 FMFlg1=           0
         NFxFlg=           0 DoJE=F BraDBF=F KetDBF=F FulRan=T
         wScrn=  0.000000 ICntrl=         0 IOpCl=  0 I1Cent=           0 NGrid=           0
         NMat0=    1 NMatS0=      1 NMatT0=    0 NMatD0=    1 NMtDS0=    0 NMtDT0=    0
 Symmetry not used in FoFCou.
 Inv3:  Mode=1 IEnd=    10323075.
 Iteration    1 A*A^-1 deviation from unit magnitude is 4.66D-15 for   1848.
 Iteration    1 A*A^-1 deviation from orthogonality  is 1.98D-15 for   1297   1214.
 Iteration    1 A^-1*A deviation from unit magnitude is 4.88D-15 for   1848.
 Iteration    1 A^-1*A deviation from orthogonality  is 1.76D-15 for   1119    361.
 E= -1023.84484091110    
 DIIS: error= 3.34D-02 at cycle   1 NSaved=   1.
 NSaved= 1 IEnMin= 1 EnMin= -1023.84484091110     IErMin= 1 ErrMin= 3.34D-02
 ErrMax= 3.34D-02  0.00D+00 EMaxC= 1.00D-01 BMatC= 7.08D-01 BMatP= 7.08D-01
 IDIUse=3 WtCom= 6.66D-01 WtEn= 3.34D-01
 Coeff-Com:  0.100D+01
 Coeff-En:   0.100D+01
 Coeff:      0.100D+01
 Gap=     0.226 Goal=   None    Shift=    0.000
 GapD=    0.226 DampG=1.000 DampE=0.500 DampFc=0.5000 IDamp=-1.
 Damping current iteration by 5.00D-01
 RMSDP=6.27D-03 MaxDP=7.27D-01              OVMax= 2.57D-01

 Cycle   2  Pass 1  IDiag  1:
 RMSU=  2.83D-03    CP:  1.08D+00
 E= -1023.99572816333     Delta-E=       -0.150887252220 Rises=F Damp=T
 DIIS: error= 8.11D-03 at cycle   2 NSaved=   2.
 NSaved= 2 IEnMin= 2 EnMin= -1023.99572816333     IErMin= 2 ErrMin= 8.11D-03
 ErrMax= 8.11D-03  0.00D+00 EMaxC= 1.00D-01 BMatC= 5.95D-02 BMatP= 7.08D-01
 IDIUse=3 WtCom= 9.19D-01 WtEn= 8.11D-02
 Coeff-Com:  0.171D+00 0.829D+00
 Coeff-En:   0.319D+00 0.681D+00
 Coeff:      0.183D+00 0.817D+00
 Gap=     0.218 Goal=   None    Shift=    0.000
 RMSDP=1.96D-03 MaxDP=3.06D-01 DE=-1.51D-01 OVMax= 1.83D-01

 Cycle   3  Pass 1  IDiag  1:
 RMSU=  1.47D-03    CP:  1.03D+00  6.41D-01
 E= -1024.31212335162     Delta-E=       -0.316395188297 Rises=F Damp=F
 DIIS: error= 5.39D-03 at cycle   3 NSaved=   3.
 NSaved= 3 IEnMin= 3 EnMin= -1024.31212335162     IErMin= 3 ErrMin= 5.39D-03
 ErrMax= 5.39D-03  0.00D+00 EMaxC= 1.00D-01 BMatC= 2.22D-02 BMatP= 5.95D-02
 IDIUse=3 WtCom= 9.46D-01 WtEn= 5.39D-02
 Coeff-Com:  0.338D-01 0.384D+00 0.582D+00
 Coeff-En:   0.000D+00 0.000D+00 0.100D+01
 Coeff:      0.320D-01 0.363D+00 0.605D+00
 Gap=     0.204 Goal=   None    Shift=    0.000
 RMSDP=8.59D-04 MaxDP=1.24D-01 DE=-3.16D-01 OVMax= 4.43D-02

 Cycle   4  Pass 1  IDiag  1:
 RMSU=  6.79D-04    CP:  1.01D+00  5.90D-01  8.69D-01
 E= -1024.32464512358     Delta-E=       -0.012521771959 Rises=F Damp=F
 DIIS: error= 2.85D-03 at cycle   4 NSaved=   4.
 NSaved= 4 IEnMin= 4 EnMin= -1024.32464512358     IErMin= 4 ErrMin= 2.85D-03
 ErrMax= 2.85D-03  0.00D+00 EMaxC= 1.00D-01 BMatC= 6.26D-03 BMatP= 2.22D-02
 IDIUse=3 WtCom= 9.71D-01 WtEn= 2.85D-02
 Coeff-Com: -0.101D-01 0.106D+00 0.369D+00 0.535D+00
 Coeff-En:   0.000D+00 0.000D+00 0.208D+00 0.792D+00
 Coeff:     -0.982D-02 0.103D+00 0.364D+00 0.543D+00
 Gap=     0.204 Goal=   None    Shift=    0.000
 RMSDP=2.53D-04 MaxDP=2.16D-02 DE=-1.25D-02 OVMax= 1.57D-02

 Cycle   5  Pass 1  IDiag  1:
 RMSU=  1.87D-04    CP:  1.01D+00  5.94D-01  8.61D-01  7.54D-01
 E= -1024.32872974264     Delta-E=       -0.004084619058 Rises=F Damp=F
 DIIS: error= 5.64D-04 at cycle   5 NSaved=   5.
 NSaved= 5 IEnMin= 5 EnMin= -1024.32872974264     IErMin= 5 ErrMin= 5.64D-04
 ErrMax= 5.64D-04  0.00D+00 EMaxC= 1.00D-01 BMatC= 3.83D-04 BMatP= 6.26D-03
 IDIUse=3 WtCom= 9.94D-01 WtEn= 5.64D-03
 Coeff-Com: -0.806D-02 0.239D-01 0.142D+00 0.291D+00 0.552D+00
 Coeff-En:   0.000D+00 0.000D+00 0.000D+00 0.000D+00 0.100D+01
 Coeff:     -0.801D-02 0.238D-01 0.141D+00 0.289D+00 0.554D+00
 Gap=     0.204 Goal=   None    Shift=    0.000
 RMSDP=7.09D-05 MaxDP=4.41D-03 DE=-4.08D-03 OVMax= 3.89D-03

 Cycle   6  Pass 1  IDiag  1:
 RMSU=  6.12D-05    CP:  1.01D+00  6.02D-01  8.66D-01  7.72D-01  8.70D-01
 E= -1024.32902493672     Delta-E=       -0.000295194077 Rises=F Damp=F
 DIIS: error= 1.60D-04 at cycle   6 NSaved=   6.
 NSaved= 6 IEnMin= 6 EnMin= -1024.32902493672     IErMin= 6 ErrMin= 1.60D-04
 ErrMax= 1.60D-04  0.00D+00 EMaxC= 1.00D-01 BMatC= 1.66D-05 BMatP= 3.83D-04
 IDIUse=3 WtCom= 9.98D-01 WtEn= 1.60D-03
 Coeff-Com: -0.263D-02 0.424D-02 0.395D-01 0.933D-01 0.252D+00 0.614D+00
 Coeff-En:   0.000D+00 0.000D+00 0.000D+00 0.000D+00 0.000D+00 0.100D+01
 Coeff:     -0.263D-02 0.423D-02 0.394D-01 0.932D-01 0.252D+00 0.614D+00
 Gap=     0.204 Goal=   None    Shift=    0.000
 RMSDP=2.36D-05 MaxDP=2.51D-03 DE=-2.95D-04 OVMax= 1.25D-03

 Cycle   7  Pass 1  IDiag  1:
 RMSU=  1.16D-05    CP:  1.01D+00  6.00D-01  8.71D-01  7.83D-01  8.69D-01
                    CP:  7.62D-01
 E= -1024.32903705645     Delta-E=       -0.000012119729 Rises=F Damp=F
 DIIS: error= 6.41D-05 at cycle   7 NSaved=   7.
 NSaved= 7 IEnMin= 7 EnMin= -1024.32903705645     IErMin= 7 ErrMin= 6.41D-05
 ErrMax= 6.41D-05  0.00D+00 EMaxC= 1.00D-01 BMatC= 3.11D-06 BMatP= 1.66D-05
 IDIUse=1 WtCom= 1.00D+00 WtEn= 0.00D+00
 Coeff-Com: -0.109D-02 0.125D-02 0.165D-01 0.408D-01 0.124D+00 0.374D+00
 Coeff-Com:  0.444D+00
 Coeff:     -0.109D-02 0.125D-02 0.165D-01 0.408D-01 0.124D+00 0.374D+00
 Coeff:      0.444D+00
 Gap=     0.204 Goal=   None    Shift=    0.000
 RMSDP=6.06D-06 MaxDP=8.32D-04 DE=-1.21D-05 OVMax= 5.06D-04

 Cycle   8  Pass 1  IDiag  1:
 RMSU=  4.95D-06    CP:  1.01D+00  5.99D-01  8.72D-01  7.84D-01  8.68D-01
                    CP:  7.74D-01  8.60D-01
 E= -1024.32903961765     Delta-E=       -0.000002561208 Rises=F Damp=F
 DIIS: error= 1.50D-05 at cycle   8 NSaved=   8.
 NSaved= 8 IEnMin= 8 EnMin= -1024.32903961765     IErMin= 8 ErrMin= 1.50D-05
 ErrMax= 1.50D-05  0.00D+00 EMaxC= 1.00D-01 BMatC= 1.59D-07 BMatP= 3.11D-06
 IDIUse=1 WtCom= 1.00D+00 WtEn= 0.00D+00
 Coeff-Com:  0.270D-04-0.276D-03 0.622D-03 0.179D-02 0.125D-01 0.575D-01
 Coeff-Com:  0.199D+00 0.729D+00
 Coeff:      0.270D-04-0.276D-03 0.622D-03 0.179D-02 0.125D-01 0.575D-01
 Coeff:      0.199D+00 0.729D+00
 Gap=     0.204 Goal=   None    Shift=    0.000
 RMSDP=1.90D-06 MaxDP=2.42D-04 DE=-2.56D-06 OVMax= 1.33D-04

 Cycle   9  Pass 1  IDiag  1:
 RMSU=  9.70D-07    CP:  1.01D+00  5.99D-01  8.72D-01  7.85D-01  8.72D-01
                    CP:  7.81D-01  9.05D-01  9.02D-01
 E= -1024.32903973160     Delta-E=       -0.000000113944 Rises=F Damp=F
 DIIS: error= 7.91D-06 at cycle   9 NSaved=   9.
 NSaved= 9 IEnMin= 9 EnMin= -1024.32903973160     IErMin= 9 ErrMin= 7.91D-06
 ErrMax= 7.91D-06  0.00D+00 EMaxC= 1.00D-01 BMatC= 2.59D-08 BMatP= 1.59D-07
 IDIUse=1 WtCom= 1.00D+00 WtEn= 0.00D+00
 Coeff-Com:  0.741D-04-0.211D-03-0.432D-03-0.984D-03 0.123D-02 0.154D-01
 Coeff-Com:  0.925D-01 0.426D+00 0.467D+00
 Coeff:      0.741D-04-0.211D-03-0.432D-03-0.984D-03 0.123D-02 0.154D-01
 Coeff:      0.925D-01 0.426D+00 0.467D+00
 Gap=     0.204 Goal=   None    Shift=    0.000
 RMSDP=5.17D-07 MaxDP=4.92D-05 DE=-1.14D-07 OVMax= 6.94D-05

 Cycle  10  Pass 1  IDiag  1:
 RMSU=  3.68D-07    CP:  1.01D+00  5.99D-01  8.72D-01  7.85D-01  8.73D-01
                    CP:  7.83D-01  9.01D-01  9.04D-01  8.09D-01
 E= -1024.32903975575     Delta-E=       -0.000000024153 Rises=F Damp=F
 DIIS: error= 1.64D-06 at cycle  10 NSaved=  10.
 NSaved=10 IEnMin=10 EnMin= -1024.32903975575     IErMin=10 ErrMin= 1.64D-06
 ErrMax= 1.64D-06  0.00D+00 EMaxC= 1.00D-01 BMatC= 1.02D-09 BMatP= 2.59D-08
 IDIUse=1 WtCom= 1.00D+00 WtEn= 0.00D+00
 Coeff-Com:  0.179D-04-0.452D-04-0.168D-03-0.439D-03-0.576D-03 0.661D-03
 Coeff-Com:  0.125D-01 0.756D-01 0.193D+00 0.720D+00
 Coeff:      0.179D-04-0.452D-04-0.168D-03-0.439D-03-0.576D-03 0.661D-03
 Coeff:      0.125D-01 0.756D-01 0.193D+00 0.720D+00
 Gap=     0.204 Goal=   None    Shift=    0.000
 RMSDP=1.92D-07 MaxDP=2.01D-05 DE=-2.42D-08 OVMax= 1.46D-05

 Cycle  11  Pass 1  IDiag  1:
 RMSU=  1.10D-07    CP:  1.01D+00  5.99D-01  8.72D-01  7.85D-01  8.74D-01
                    CP:  7.84D-01  9.06D-01  9.12D-01  8.62D-01  8.56D-01
 E= -1024.32903975663     Delta-E=       -0.000000000883 Rises=F Damp=F
 DIIS: error= 7.05D-07 at cycle  11 NSaved=  11.
 NSaved=11 IEnMin=11 EnMin= -1024.32903975663     IErMin=11 ErrMin= 7.05D-07
 ErrMax= 7.05D-07  0.00D+00 EMaxC= 1.00D-01 BMatC= 1.48D-10 BMatP= 1.02D-09
 IDIUse=1 WtCom= 1.00D+00 WtEn= 0.00D+00
 Coeff-Com:  0.463D-05-0.747D-05-0.686D-04-0.189D-03-0.497D-03-0.960D-03
 Coeff-Com: -0.409D-03 0.758D-02 0.685D-01 0.364D+00 0.562D+00
 Coeff:      0.463D-05-0.747D-05-0.686D-04-0.189D-03-0.497D-03-0.960D-03
 Coeff:     -0.409D-03 0.758D-02 0.685D-01 0.364D+00 0.562D+00
 Gap=     0.204 Goal=   None    Shift=    0.000
 RMSDP=6.66D-08 MaxDP=1.07D-05 DE=-8.83D-10 OVMax= 6.03D-06

 Cycle  12  Pass 1  IDiag  1:
 RMSU=  3.86D-08    CP:  1.01D+00  5.99D-01  8.72D-01  7.85D-01  8.74D-01
                    CP:  7.84D-01  9.07D-01  9.17D-01  8.81D-01  8.89D-01
                    CP:  8.96D-01
 E= -1024.32903975673     Delta-E=       -0.000000000094 Rises=F Damp=F
 DIIS: error= 2.60D-07 at cycle  12 NSaved=  12.
 NSaved=12 IEnMin=12 EnMin= -1024.32903975673     IErMin=12 ErrMin= 2.60D-07
 ErrMax= 2.60D-07  0.00D+00 EMaxC= 1.00D-01 BMatC= 1.93D-11 BMatP= 1.48D-10
 IDIUse=1 WtCom= 1.00D+00 WtEn= 0.00D+00
 Coeff-Com: -0.854D-06 0.322D-05-0.106D-04-0.282D-04-0.185D-03-0.683D-03
 Coeff-Com: -0.246D-02-0.974D-02 0.558D-02 0.733D-01 0.291D+00 0.643D+00
 Coeff:     -0.854D-06 0.322D-05-0.106D-04-0.282D-04-0.185D-03-0.683D-03
 Coeff:     -0.246D-02-0.974D-02 0.558D-02 0.733D-01 0.291D+00 0.643D+00
 Gap=     0.204 Goal=   None    Shift=    0.000
 RMSDP=2.15D-08 MaxDP=1.84D-06 DE=-9.39D-11 OVMax= 1.96D-06

 Cycle  13  Pass 1  IDiag  1:
 RMSU=  1.24D-08    CP:  1.01D+00  5.99D-01  8.72D-01  7.85D-01  8.74D-01
                    CP:  7.84D-01  9.08D-01  9.17D-01  8.86D-01  9.00D-01
                    CP:  9.46D-01  8.58D-01
 E= -1024.32903975675     Delta-E=       -0.000000000027 Rises=F Damp=F
 DIIS: error= 3.46D-08 at cycle  13 NSaved=  13.
 NSaved=13 IEnMin=13 EnMin= -1024.32903975675     IErMin=13 ErrMin= 3.46D-08
 ErrMax= 3.46D-08  0.00D+00 EMaxC= 1.00D-01 BMatC= 8.82D-13 BMatP= 1.93D-11
 IDIUse=1 WtCom= 1.00D+00 WtEn= 0.00D+00
 Coeff-Com: -0.721D-06 0.171D-05 0.236D-05 0.806D-05-0.174D-04-0.137D-03
 Coeff-Com: -0.726D-03-0.396D-02-0.357D-02-0.646D-02 0.538D-01 0.238D+00
 Coeff-Com:  0.723D+00
 Coeff:     -0.721D-06 0.171D-05 0.236D-05 0.806D-05-0.174D-04-0.137D-03
 Coeff:     -0.726D-03-0.396D-02-0.357D-02-0.646D-02 0.538D-01 0.238D+00
 Coeff:      0.723D+00
 Gap=     0.204 Goal=   None    Shift=    0.000
 RMSDP=5.29D-09 MaxDP=3.48D-07 DE=-2.68D-11 OVMax= 4.07D-07

 Error on total polarization charges =  0.05984
 SCF Done:  E(RB3LYP) =  -1024.32903976     A.U. after   13 cycles
            NFock= 13  Conv=0.53D-08     -V/T= 2.0035
 KE= 1.020746544184D+03 PE=-4.378420631777D+03 EE= 1.350192193343D+03
 SMD-CDS (non-electrostatic) energy       (kcal/mol) =       7.76
 (included in total energy above)
 Leave Link  502 at Sun Dec 11 10:30:07 2022, MaxMem=  1342177280 cpu:             981.0 elap:              41.7
 (Enter /data0/home/software/g16/l601.exe)
 Copying SCF densities to generalized density rwf, IOpCl= 0 IROHF=0.

 **********************************************************************

            Population analysis using the SCF density.

 **********************************************************************

 Orbital symmetries:
       Occupied  (A) (A) (A) (A) (A) (A) (A) (A) (A) (A) (A) (A)
                 (A) (A) (A) (A) (A) (A) (A) (A) (A) (A) (A) (A)
                 (A) (A) (A) (A) (A) (A) (A) (A) (A) (A) (A) (A)
                 (A) (A) (A) (A) (A) (A) (A) (A) (A) (A) (A) (A)
                 (A) (A) (A) (A) (A) (A) (A) (A)
       Virtual   (A) (A) (A) (A) (A) (A) (A) (A) (A) (A) (A) (A)
                 (A) (A) (A) (A) (A) (A) (A) (A) (A) (A) (A) (A)
                 (A) (A) (A) (A) (A) (A) (A) (A) (A) (A) (A) (A)
                 (A) (A) (A) (A) (A) (A) (A) (A) (A) (A) (A) (A)
                 (A) (A) (A) (A) (A) (A) (A) (A) (A) (A) (A) (A)
                 (A) (A) (A) (A) (A) (A) (A) (A) (A) (A) (A) (A)
                 (A) (A) (A) (A) (A) (A) (A) (A) (A) (A) (A) (A)
                 (A) (A) (A) (A) (A) (A) (A) (A) (A) (A) (A) (A)
                 (A) (A) (A) (A) (A) (A) (A) (A) (A) (A) (A) (A)
                 (A) (A) (A) (A) (A) (A) (A) (A) (A) (A) (A) (A)
                 (A) (A) (A) (A) (A) (A) (A) (A) (A) (A) (A) (A)
                 (A) (A) (A) (A) (A) (A) (A) (A) (A) (A) (A) (A)
                 (A) (A) (A) (A) (A) (A) (A) (A) (A) (A) (A) (A)
                 (A) (A) (A) (A) (A) (A) (A) (A) (A) (A) (A) (A)
                 (A) (A) (A) (A) (A) (A) (A) (A) (A) (A) (A) (A)
                 (A) (A) (A) (A) (A) (A) (A) (A) (A) (A) (A) (A)
                 (A) (A) (A) (A) (A) (A) (A) (A) (A) (A) (A) (A)
                 (A) (A) (A) (A) (A) (A) (A) (A) (A) (A) (A) (A)
                 (A) (A) (A) (A) (A) (A) (A) (A) (A) (A) (A) (A)
                 (A) (A) (A) (A) (A) (A) (A) (A) (A) (A) (A) (A)
                 (A) (A) (A) (A) (A) (A) (A) (A) (A) (A) (A) (A)
                 (A) (A) (A) (A) (A) (A) (A) (A) (A) (A) (A) (A)
                 (A) (A) (A) (A) (A) (A) (A) (A) (A) (A) (A) (A)
                 (A) (A) (A) (A) (A) (A) (A) (A) (A) (A) (A) (A)
                 (A) (A) (A) (A) (A) (A) (A) (A) (A) (A) (A) (A)
                 (A) (A) (A) (A) (A) (A) (A) (A) (A) (A) (A) (A)
                 (A) (A) (A) (A) (A) (A) (A) (A) (A) (A) (A) (A)
                 (A) (A) (A) (A) (A) (A) (A) (A) (A) (A) (A) (A)
                 (A) (A) (A) (A) (A) (A) (A) (A) (A) (A) (A) (A)
                 (A) (A) (A) (A) (A) (A) (A) (A) (A) (A) (A) (A)
                 (A) (A) (A) (A) (A) (A) (A) (A) (A) (A) (A) (A)
                 (A) (A) (A) (A) (A) (A) (A) (A) (A) (A) (A)
 The electronic state is 1-A.
 Alpha  occ. eigenvalues --  -77.19024 -19.16567 -19.16473 -19.15209 -19.10355
 Alpha  occ. eigenvalues --  -14.37375 -14.32754 -10.25557 -10.22127 -10.21020
 Alpha  occ. eigenvalues --  -10.18223 -10.18003 -10.17701 -10.17487  -6.66946
 Alpha  occ. eigenvalues --   -4.83226  -4.83204  -4.82999  -1.10612  -1.03283
 Alpha  occ. eigenvalues --   -1.02374  -1.01528  -0.99262  -0.88815  -0.85335
 Alpha  occ. eigenvalues --   -0.75349  -0.74406  -0.63678  -0.63080  -0.62594
 Alpha  occ. eigenvalues --   -0.60511  -0.56101  -0.55048  -0.54798  -0.50670
 Alpha  occ. eigenvalues --   -0.49060  -0.47318  -0.45706  -0.44932  -0.44764
 Alpha  occ. eigenvalues --   -0.44274  -0.42950  -0.42113  -0.40797  -0.38943
 Alpha  occ. eigenvalues --   -0.37541  -0.37408  -0.36517  -0.35408  -0.34965
 Alpha  occ. eigenvalues --   -0.32859  -0.32360  -0.32141  -0.30777  -0.24364
 Alpha  occ. eigenvalues --   -0.24188
 Alpha virt. eigenvalues --   -0.03785  -0.01277  -0.00157   0.01079   0.01792
 Alpha virt. eigenvalues --    0.02127   0.02713   0.03200   0.03780   0.04838
 Alpha virt. eigenvalues --    0.05384   0.05476   0.05842   0.07576   0.07796
 Alpha virt. eigenvalues --    0.08504   0.08657   0.09670   0.10246   0.10801
 Alpha virt. eigenvalues --    0.11691   0.12185   0.12307   0.12512   0.12838
 Alpha virt. eigenvalues --    0.13518   0.13959   0.14591   0.15011   0.15043
 Alpha virt. eigenvalues --    0.15448   0.15940   0.16280   0.16699   0.16991
 Alpha virt. eigenvalues --    0.17450   0.18345   0.18557   0.18773   0.19356
 Alpha virt. eigenvalues --    0.19532   0.20004   0.20869   0.20944   0.21245
 Alpha virt. eigenvalues --    0.21703   0.21943   0.22498   0.22884   0.23361
 Alpha virt. eigenvalues --    0.24019   0.24524   0.24738   0.24993   0.25297
 Alpha virt. eigenvalues --    0.25828   0.26461   0.26666   0.26917   0.27316
 Alpha virt. eigenvalues --    0.27909   0.28642   0.28828   0.29517   0.30425
 Alpha virt. eigenvalues --    0.30804   0.31047   0.31946   0.33115   0.33529
 Alpha virt. eigenvalues --    0.34090   0.34122   0.35829   0.36575   0.37268
 Alpha virt. eigenvalues --    0.38729   0.39225   0.40260   0.41129   0.42138
 Alpha virt. eigenvalues --    0.43683   0.44753   0.45964   0.46547   0.47726
 Alpha virt. eigenvalues --    0.48843   0.50016   0.50878   0.51835   0.52456
 Alpha virt. eigenvalues --    0.52619   0.52920   0.53291   0.53870   0.55594
 Alpha virt. eigenvalues --    0.56397   0.56906   0.57784   0.58221   0.60584
 Alpha virt. eigenvalues --    0.62218   0.63017   0.63945   0.64507   0.65915
 Alpha virt. eigenvalues --    0.66529   0.67207   0.68197   0.69781   0.70366
 Alpha virt. eigenvalues --    0.71157   0.72422   0.73020   0.73356   0.73974
 Alpha virt. eigenvalues --    0.74638   0.75347   0.76715   0.77882   0.78805
 Alpha virt. eigenvalues --    0.80321   0.80666   0.80947   0.81247   0.82688
 Alpha virt. eigenvalues --    0.83586   0.83666   0.84988   0.85458   0.86033
 Alpha virt. eigenvalues --    0.87461   0.88198   0.88539   0.89956   0.90469
 Alpha virt. eigenvalues --    0.90523   0.94921   0.95385   0.98378   0.99158
 Alpha virt. eigenvalues --    0.99508   1.00643   1.02641   1.04380   1.04987
 Alpha virt. eigenvalues --    1.06836   1.08682   1.10472   1.10696   1.12018
 Alpha virt. eigenvalues --    1.13125   1.13635   1.14832   1.15788   1.16881
 Alpha virt. eigenvalues --    1.18024   1.19320   1.19881   1.20987   1.22196
 Alpha virt. eigenvalues --    1.23115   1.23607   1.24797   1.26032   1.26820
 Alpha virt. eigenvalues --    1.29078   1.29734   1.30338   1.31790   1.32091
 Alpha virt. eigenvalues --    1.33451   1.34237   1.36741   1.36912   1.38532
 Alpha virt. eigenvalues --    1.39344   1.40038   1.41223   1.42847   1.43696
 Alpha virt. eigenvalues --    1.45786   1.47228   1.48118   1.48452   1.50922
 Alpha virt. eigenvalues --    1.52718   1.55180   1.55522   1.56469   1.57079
 Alpha virt. eigenvalues --    1.58788   1.59685   1.61087   1.61502   1.62423
 Alpha virt. eigenvalues --    1.64482   1.64784   1.66660   1.67073   1.67296
 Alpha virt. eigenvalues --    1.69717   1.70911   1.71917   1.76873   1.79426
 Alpha virt. eigenvalues --    1.80239   1.80771   1.82416   1.83390   1.85845
 Alpha virt. eigenvalues --    1.88134   1.89171   1.90945   1.92757   1.95413
 Alpha virt. eigenvalues --    1.96657   1.97357   1.99098   2.01846   2.03807
 Alpha virt. eigenvalues --    2.05201   2.06239   2.07104   2.08169   2.10138
 Alpha virt. eigenvalues --    2.13223   2.16602   2.18349   2.19434   2.25152
 Alpha virt. eigenvalues --    2.26267   2.29219   2.29957   2.33875   2.35585
 Alpha virt. eigenvalues --    2.41772   2.42797   2.47992   2.49707   2.57318
 Alpha virt. eigenvalues --    2.60654   2.61085   2.62711   2.63013   2.64732
 Alpha virt. eigenvalues --    2.65568   2.69400   2.70583   2.70970   2.75800
 Alpha virt. eigenvalues --    2.76069   2.78757   2.79881   2.80479   2.81990
 Alpha virt. eigenvalues --    2.82943   2.83783   2.85027   2.85710   2.86870
 Alpha virt. eigenvalues --    2.89623   2.90486   2.93207   2.93801   3.01231
 Alpha virt. eigenvalues --    3.07246   3.08057   3.09952   3.13483   3.14469
 Alpha virt. eigenvalues --    3.16210   3.21303   3.26308   3.27317   3.27698
 Alpha virt. eigenvalues --    3.29734   3.30123   3.34750   3.36073   3.36659
 Alpha virt. eigenvalues --    3.38996   3.39251   3.40339   3.40393   3.44978
 Alpha virt. eigenvalues --    3.46480   3.47890   3.51097   3.53562   3.57095
 Alpha virt. eigenvalues --    3.57296   3.58435   3.58504   3.62623   3.63142
 Alpha virt. eigenvalues --    3.67137   3.68944   3.72983   3.74665   3.75183
 Alpha virt. eigenvalues --    3.76379   3.78408   3.86626   3.90115   3.90740
 Alpha virt. eigenvalues --    3.92233   3.94519   3.95972   3.99585   3.99916
 Alpha virt. eigenvalues --    4.03239   4.06134   4.11201   4.25543   4.44785
 Alpha virt. eigenvalues --    4.58726   4.63551   4.70766   4.75057   4.91007
 Alpha virt. eigenvalues --    4.92485   4.95062   4.97565   4.98611   4.99179
 Alpha virt. eigenvalues --    5.00174   5.00727   5.02565   5.04207   5.05157
 Alpha virt. eigenvalues --    5.09469   5.11435   5.13670   5.16990   5.23973
 Alpha virt. eigenvalues --    5.25175   5.30031   5.35973   5.38968   5.42640
 Alpha virt. eigenvalues --    5.43931   5.44438   5.62272   5.63891   5.80875
 Alpha virt. eigenvalues --    6.73197   6.73639   6.74592   6.76924   6.81051
 Alpha virt. eigenvalues --    6.82369   6.84571   6.87584   6.90566   6.94658
 Alpha virt. eigenvalues --    6.97844   7.01305   7.01723   7.08368   7.11857
 Alpha virt. eigenvalues --    7.22715   7.28713   7.34982   7.36262   7.41973
 Alpha virt. eigenvalues --    7.59157  14.04589  14.08190  14.20946  23.69947
 Alpha virt. eigenvalues --   23.95337  23.99825  24.04747  24.06238  24.17673
 Alpha virt. eigenvalues --   24.21432  35.66741  35.72351  49.90651  49.91695
 Alpha virt. eigenvalues --   49.94835  49.98057 163.60974
          Condensed to atoms (all electrons):
               1          2          3          4          5          6
     1  C   10.176441  -3.569117   0.806803  -1.106358   0.627360  -1.759842
     2  C   -3.569117   9.599996  -0.870842   0.449697  -0.957184   1.254670
     3  C    0.806803  -0.870842   6.695587  -0.302597   0.224408  -0.143010
     4  C   -1.106358   0.449697  -0.302597   6.004899   0.281265   0.354435
     5  C    0.627360  -0.957184   0.224408   0.281265   5.411105   0.186097
     6  C   -1.759842   1.254670  -0.143010   0.354435   0.186097   6.706482
     7  H    0.019797  -0.065867   0.445289  -0.065992   0.012627  -0.000073
     8  H   -0.004667   0.030603  -0.081875   0.448489  -0.068868   0.021657
     9  H    0.020073  -0.013331   0.027293  -0.065012   0.455451  -0.078789
    10  H   -0.075055   0.028325  -0.002618   0.016973  -0.065583   0.443216
    11  H   -0.111220   0.073580  -0.004167   0.005108  -0.009648   0.028628
    12  C   -0.197102  -0.221258  -0.177717   0.074017  -0.011553  -0.193151
    13  H    0.001453   0.009479   0.004952   0.001536   0.000202   0.005214
    14  N    0.313243   0.014146  -0.067016   0.026659  -0.016686  -0.055676
    15  N    0.549933  -0.231001  -0.137252  -0.054925   0.053838  -0.215302
    16  P   -0.000202  -0.007267  -0.010179   0.000449   0.000237  -0.001060
    17  O    0.012022  -0.001780   0.007415   0.000345   0.000050  -0.000842
    18  O   -0.000745  -0.001601   0.000552   0.000036  -0.000018   0.000025
    19  H   -0.000148   0.000068   0.000126   0.000041   0.000001  -0.000004
    20  O   -0.057534   0.003095   0.027348   0.012859  -0.001622   0.007285
    21  H    0.037795  -0.051946   0.007792  -0.002731   0.002149  -0.006781
    22  O    0.002016  -0.005533   0.002042  -0.000065   0.000046  -0.000066
    23  H   -0.000451   0.000931  -0.000595   0.000000  -0.000007  -0.000002
               7          8          9         10         11         12
     1  C    0.019797  -0.004667   0.020073  -0.075055  -0.111220  -0.197102
     2  C   -0.065867   0.030603  -0.013331   0.028325   0.073580  -0.221258
     3  C    0.445289  -0.081875   0.027293  -0.002618  -0.004167  -0.177717
     4  C   -0.065992   0.448489  -0.065012   0.016973   0.005108   0.074017
     5  C    0.012627  -0.068868   0.455451  -0.065583  -0.009648  -0.011553
     6  C   -0.000073   0.021657  -0.078789   0.443216   0.028628  -0.193151
     7  H    0.519349  -0.005328  -0.000298   0.000085   0.000022   0.000545
     8  H   -0.005328   0.539373  -0.005117  -0.000310  -0.000001   0.000232
     9  H   -0.000298  -0.005117   0.537949  -0.005334  -0.000014  -0.000323
    10  H    0.000085  -0.000310  -0.005334   0.519310   0.001953   0.003552
    11  H    0.000022  -0.000001  -0.000014   0.001953   0.330674  -0.031891
    12  C    0.000545   0.000232  -0.000323   0.003552  -0.031891   5.276731
    13  H   -0.000013  -0.000001  -0.000000  -0.000009  -0.001401   0.415234
    14  N   -0.000566   0.000538  -0.000668  -0.001304   0.371556   0.342079
    15  N    0.003894  -0.000677   0.000582  -0.001464  -0.007091   0.456523
    16  P    0.000079  -0.000005   0.000001   0.000006   0.000180   0.005348
    17  O   -0.000008   0.000000  -0.000000   0.000000  -0.000060   0.006526
    18  O   -0.000000  -0.000000   0.000000  -0.000000   0.000000   0.000391
    19  H    0.000000  -0.000000  -0.000000   0.000000   0.000000  -0.000430
    20  O   -0.000726   0.000004  -0.000000  -0.000002   0.000046  -0.016374
    21  H    0.000879  -0.000002  -0.000000   0.000002  -0.000118  -0.006310
    22  O   -0.000006  -0.000000  -0.000000  -0.000000   0.000002   0.000839
    23  H    0.000001  -0.000000  -0.000000  -0.000000   0.000000  -0.000560
              13         14         15         16         17         18
     1  C    0.001453   0.313243   0.549933  -0.000202   0.012022  -0.000745
     2  C    0.009479   0.014146  -0.231001  -0.007267  -0.001780  -0.001601
     3  C    0.004952  -0.067016  -0.137252  -0.010179   0.007415   0.000552
     4  C    0.001536   0.026659  -0.054925   0.000449   0.000345   0.000036
     5  C    0.000202  -0.016686   0.053838   0.000237   0.000050  -0.000018
     6  C    0.005214  -0.055676  -0.215302  -0.001060  -0.000842   0.000025
     7  H   -0.000013  -0.000566   0.003894   0.000079  -0.000008  -0.000000
     8  H   -0.000001   0.000538  -0.000677  -0.000005   0.000000  -0.000000
     9  H   -0.000000  -0.000668   0.000582   0.000001  -0.000000   0.000000
    10  H   -0.000009  -0.001304  -0.001464   0.000006   0.000000  -0.000000
    11  H   -0.001401   0.371556  -0.007091   0.000180  -0.000060   0.000000
    12  C    0.415234   0.342079   0.456523   0.005348   0.006526   0.000391
    13  H    0.446373  -0.032315  -0.053620  -0.000773  -0.000012   0.000133
    14  N   -0.032315   6.501171   0.002126  -0.003140   0.002309   0.000037
    15  N   -0.053620   0.002126   7.161338  -0.009533   0.001257  -0.000437
    16  P   -0.000773  -0.003140  -0.009533  12.173562   0.479107   0.239771
    17  O   -0.000012   0.002309   0.001257   0.479107   8.310129   0.009610
    18  O    0.000133   0.000037  -0.000437   0.239771   0.009610   8.131568
    19  H    0.000011   0.000006   0.000120   0.007505  -0.006284   0.269938
    20  O    0.002645   0.005800   0.030498   0.309537  -0.021472   0.003313
    21  H   -0.001706  -0.003790   0.080987   0.010423   0.000141  -0.000239
    22  O   -0.000170  -0.000524  -0.002694   0.261560   0.001154  -0.012069
    23  H    0.000020   0.000028   0.000812   0.021580   0.002442  -0.010256
              19         20         21         22         23
     1  C   -0.000148  -0.057534   0.037795   0.002016  -0.000451
     2  C    0.000068   0.003095  -0.051946  -0.005533   0.000931
     3  C    0.000126   0.027348   0.007792   0.002042  -0.000595
     4  C    0.000041   0.012859  -0.002731  -0.000065   0.000000
     5  C    0.000001  -0.001622   0.002149   0.000046  -0.000007
     6  C   -0.000004   0.007285  -0.006781  -0.000066  -0.000002
     7  H    0.000000  -0.000726   0.000879  -0.000006   0.000001
     8  H   -0.000000   0.000004  -0.000002  -0.000000  -0.000000
     9  H   -0.000000  -0.000000  -0.000000  -0.000000  -0.000000
    10  H    0.000000  -0.000002   0.000002  -0.000000  -0.000000
    11  H    0.000000   0.000046  -0.000118   0.000002   0.000000
    12  C   -0.000430  -0.016374  -0.006310   0.000839  -0.000560
    13  H    0.000011   0.002645  -0.001706  -0.000170   0.000020
    14  N    0.000006   0.005800  -0.003790  -0.000524   0.000028
    15  N    0.000120   0.030498   0.080987  -0.002694   0.000812
    16  P    0.007505   0.309537   0.010423   0.261560   0.021580
    17  O   -0.006284  -0.021472   0.000141   0.001154   0.002442
    18  O    0.269938   0.003313  -0.000239  -0.012069  -0.010256
    19  H    0.359479  -0.006485   0.000635   0.001916   0.001245
    20  O   -0.006485   8.301489   0.184220  -0.000170  -0.009563
    21  H    0.000635   0.184220   0.200137  -0.001870  -0.001771
    22  O    0.001916  -0.000170  -0.001870   8.084750   0.252298
    23  H    0.001245  -0.009563  -0.001771   0.252298   0.374723
 Mulliken charges:
               1
     1  C    0.315502
     2  C    0.532138
     3  C   -0.451741
     4  C   -0.079128
     5  C   -0.123667
     6  C   -0.553112
     7  H    0.136310
     8  H    0.125954
     9  H    0.127538
    10  H    0.138257
    11  H    0.353863
    12  C    0.274652
    13  H    0.202766
    14  N   -0.398013
    15  N   -0.627911
    16  P    1.522812
    17  O   -0.802049
    18  O   -0.630009
    19  H    0.372260
    20  O   -0.774192
    21  H    0.552101
    22  O   -0.583457
    23  H    0.369125
 Sum of Mulliken charges =  -0.00000
 Mulliken charges with hydrogens summed into heavy atoms:
               1
     1  C    0.315502
     2  C    0.532138
     3  C   -0.315431
     4  C    0.046826
     5  C    0.003871
     6  C   -0.414855
    12  C    0.477418
    14  N   -0.044149
    15  N   -0.627911
    16  P    1.522812
    17  O   -0.802049
    18  O   -0.257750
    20  O   -0.222090
    22  O   -0.214332
 Electronic spatial extent (au):  <R**2>=           4522.1222
 Charge=             -0.0000 electrons
 Dipole moment (field-independent basis, Debye):
    X=              5.1413    Y=             -0.4411    Z=             -0.2331  Tot=              5.1654
 Quadrupole moment (field-independent basis, Debye-Ang):
   XX=            -82.1057   YY=            -74.1633   ZZ=            -88.3738
   XY=             22.6729   XZ=              3.3402   YZ=             -0.1492
 Traceless Quadrupole moment (field-independent basis, Debye-Ang):
   XX=             -0.5581   YY=              7.3843   ZZ=             -6.8262
   XY=             22.6729   XZ=              3.3402   YZ=             -0.1492
 Octapole moment (field-independent basis, Debye-Ang**2):
  XXX=             41.9394  YYY=             23.6147  ZZZ=             -7.0382  XYY=             25.1987
  XXY=            -38.0229  XXZ=             -3.0677  XZZ=            -53.2250  YZZ=            -11.2692
  YYZ=              5.5375  XYZ=              3.1971
 Hexadecapole moment (field-independent basis, Debye-Ang**3):
 XXXX=          -4736.6034 YYYY=           -598.7199 ZZZZ=           -209.1539 XXXY=            254.6560
 XXXZ=             67.2957 YYYX=            115.1678 YYYZ=              1.9726 ZZZX=             25.0102
 ZZZY=             -2.9733 XXYY=           -835.5667 XXZZ=           -832.4784 YYZZ=           -158.5293
 XXYZ=             -1.4270 YYXZ=            -13.3671 ZZXY=             69.5763
 N-N= 9.831528544929D+02 E-N=-4.378420619218D+03  KE= 1.020746544184D+03
 No NMR shielding tensors so no spin-rotation constants.
 Leave Link  601 at Sun Dec 11 10:30:08 2022, MaxMem=  1342177280 cpu:               4.1 elap:               0.2
 (Enter /data0/home/software/g16/l701.exe)
 ... and contract with generalized density number  0.
 Compute integral first derivatives.
 D1PCM: PCM CHGder 1st derivatives, ID1Alg=3 FixD1E=F DoIter=F DoCFld=F I1PDM=0.
 GePol: Maximum number of non-zero 1st derivatives   =     239
 Leave Link  701 at Sun Dec 11 10:30:09 2022, MaxMem=  1342177280 cpu:              23.9 elap:               1.0
 (Enter /data0/home/software/g16/l702.exe)
 L702 exits ... SP integral derivatives will be done elsewhere.
 Leave Link  702 at Sun Dec 11 10:30:09 2022, MaxMem=  1342177280 cpu:               0.4 elap:               0.0
 (Enter /data0/home/software/g16/l703.exe)
 Integral derivatives from FoFJK, PRISM(SPDF).
 Compute integral first derivatives, UseDBF=F ICtDFT=           0.
 Calling FoFJK, ICntrl=      2127 FMM=F ISym2X=0 I1Cent= 0 IOpClX= 0 NMat=1 NMatS=1 NMatT=0.
 FoFJK:  IHMeth= 1 ICntrl=    2127 DoSepK=F KAlg= 0 I1Cent=           0 FoldK=F
 IRaf=         0 NMat=       1 IRICut=       1 DoRegI=T DoRafI=F ISym2E= 0 IDoP0=0 IntGTp=1.
 FoFCou: FMM=F IPFlag=           0 FMFlag=      100000 FMFlg1=         800
         NFxFlg=           0 DoJE=F BraDBF=F KetDBF=F FulRan=T
         wScrn=  0.000000 ICntrl=      2127 IOpCl=  0 I1Cent=           0 NGrid=           0
         NMat0=    1 NMatS0=      1 NMatT0=    0 NMatD0=    1 NMtDS0=    0 NMtDT0=    0
 Symmetry not used in FoFCou.
 Leave Link  703 at Sun Dec 11 10:30:18 2022, MaxMem=  1342177280 cpu:             227.3 elap:               9.5
 (Enter /data0/home/software/g16/l716.exe)
 Dipole        = 2.02273180D+00-1.73531826D-01-9.16965035D-02
 ***** Axes restored to original set *****
 -------------------------------------------------------------------
 Center     Atomic                   Forces (Hartrees/Bohr)
 Number     Number              X              Y              Z
 -------------------------------------------------------------------
      1        6           0.010148188   -0.013254226    0.003013312
      2        6          -0.022738542   -0.002640745    0.009557475
      3        6           0.000549446   -0.006669958    0.003131618
      4        6          -0.000496400    0.006310801   -0.002996593
      5        6           0.004267450    0.004142727   -0.003656129
      6        6          -0.002488722   -0.004854191    0.003406872
      7        1          -0.002739983    0.002277731   -0.000165105
      8        1          -0.002312401   -0.002781754    0.002246418
      9        1           0.000514344   -0.004291790    0.002005518
     10        1           0.001131937   -0.000260062   -0.000301632
     11        1          -0.014452870   -0.002015736    0.006203030
     12        6          -0.004921654    0.032784561   -0.015090313
     13        1           0.001688581    0.006302059   -0.003821467
     14        7           0.046899277   -0.012129685   -0.010797076
     15        7          -0.007903439   -0.007810965    0.007874640
     16       15           0.037399652    0.001692057   -0.002628998
     17        8          -0.024801961   -0.001768027    0.000471501
     18        8          -0.004556456   -0.007458891   -0.044723889
     19        1           0.002003927    0.002346001    0.041444411
     20        8          -0.033449781    0.024570588   -0.006361557
     21        1           0.015494236   -0.015991284    0.003163348
     22        8           0.043204963    0.003432905   -0.001229434
     23        1          -0.042439791   -0.001932117    0.009254051
 -------------------------------------------------------------------
 Cartesian Forces:  Max     0.046899277 RMS     0.015837065
 Leave Link  716 at Sun Dec 11 10:30:18 2022, MaxMem=  1342177280 cpu:               0.5 elap:               0.0
 (Enter /data0/home/software/g16/l103.exe)

 GradGradGradGradGradGradGradGradGradGradGradGradGradGradGradGradGradGrad
 Berny optimization.
 FormGI is forming the generalized inverse of G from B-inverse, IUseBI=4.
 GSVD:  received Info=                   1 from GESDD.
 Internal  Forces:  Max     0.043216331 RMS     0.009087651
 Search for a local minimum.
 Step number   1 out of a maximum of  123
 All quantities printed in internal units (Hartrees-Bohrs-Radians)
 RMS Force = .90877D-02 SwitMx=.10000D-02 MixMth= 1
 Mixed Optimization -- RFO/linear search
 Second derivative matrix not updated -- first step.
 ITU=  0
     Eigenvalues ---    0.00230   0.00255   0.00258   0.01637   0.01656
     Eigenvalues ---    0.01765   0.01834   0.01858   0.02027   0.02058
     Eigenvalues ---    0.02120   0.02132   0.02200   0.02213   0.02218
     Eigenvalues ---    0.02232   0.03382   0.03534   0.03587   0.05915
     Eigenvalues ---    0.12514   0.13816   0.15394   0.15929   0.16000
     Eigenvalues ---    0.16000   0.16000   0.16000   0.16000   0.16000
     Eigenvalues ---    0.16000   0.16000   0.16000   0.21039   0.21755
     Eigenvalues ---    0.22000   0.22178   0.22655   0.24009   0.24651
     Eigenvalues ---    0.34772   0.34851   0.35019   0.35069   0.35435
     Eigenvalues ---    0.35611   0.38760   0.40618   0.42371   0.42910
     Eigenvalues ---    0.43125   0.43668   0.43852   0.45544   0.45601
     Eigenvalues ---    0.47456   0.47899   0.48843   0.50768   0.53024
     Eigenvalues ---    0.53855   0.55948   0.93461
 RFO step:  Lambda=-2.47597707D-02 EMin= 2.30000000D-03
 Linear search not attempted -- first point.
 Maximum step size (   0.300) exceeded in Quadratic search.
    -- Step size scaled by   0.781
 Iteration  1 RMS(Cart)=  0.14911722 RMS(Int)=  0.00885294
 Iteration  2 RMS(Cart)=  0.02839337 RMS(Int)=  0.00020863
 Iteration  3 RMS(Cart)=  0.00056255 RMS(Int)=  0.00010039
 Iteration  4 RMS(Cart)=  0.00000011 RMS(Int)=  0.00010039
 ITry= 1 IFail=0 DXMaxC= 5.60D-01 DCOld= 1.00D+10 DXMaxT= 3.00D-01 DXLimC= 3.00D+00 Rises=F
 Variable       Old X    -DE/DX   Delta X   Delta X   Delta X     New X
                                 (Linear)    (Quad)   (Total)
    R1        2.71203  -0.02131   0.00000  -0.03740  -0.03747   2.67456
    R2        2.63875  -0.00385   0.00000  -0.00659  -0.00659   2.63216
    R3        2.64597  -0.01914   0.00000  -0.03140  -0.03140   2.61457
    R4        2.64213  -0.00269   0.00000  -0.00462  -0.00463   2.63750
    R5        2.64453  -0.01123   0.00000  -0.01668  -0.01672   2.62781
    R6        2.61480   0.00186   0.00000   0.00326   0.00325   2.61805
    R7        2.05644  -0.00331   0.00000  -0.00689  -0.00689   2.04956
    R8        2.66762  -0.00445   0.00000  -0.00681  -0.00680   2.66082
    R9        2.05917  -0.00422   0.00000  -0.00883  -0.00883   2.05034
   R10        2.61653   0.00169   0.00000   0.00289   0.00290   2.61943
   R11        2.06047  -0.00471   0.00000  -0.00988  -0.00988   2.05058
   R12        2.04975  -0.00118   0.00000  -0.00244  -0.00244   2.04731
   R13        1.87751   0.01556   0.00000   0.02367   0.02367   1.90118
   R14        2.05563  -0.00756   0.00000  -0.01573  -0.01573   2.03991
   R15        2.65548  -0.03440   0.00000  -0.05914  -0.05908   2.59640
   R16        2.52044  -0.02435   0.00000  -0.03202  -0.03198   2.48846
   R17        3.43539  -0.00863   0.00000  -0.08031  -0.08031   3.35508
   R18        2.75078   0.02478   0.00000   0.02017   0.02017   2.77095
   R19        3.02799   0.00328   0.00000   0.00481   0.00481   3.03279
   R20        2.99864   0.00040   0.00000   0.00056   0.00056   2.99919
   R21        3.00631   0.00772   0.00000   0.01087   0.01087   3.01718
   R22        1.93554  -0.04123   0.00000  -0.06977  -0.06977   1.86576
   R23        1.99974  -0.03090   0.00000  -0.05852  -0.05852   1.94122
   R24        1.94215  -0.04322   0.00000  -0.07401  -0.07401   1.86815
    A1        2.12189   0.00416   0.00000   0.00939   0.00941   2.13131
    A2        1.84662  -0.00440   0.00000  -0.00930  -0.00935   1.83726
    A3        2.31468   0.00024   0.00000  -0.00010  -0.00006   2.31462
    A4        2.10041   0.00087   0.00000  -0.00116  -0.00114   2.09926
    A5        1.89588   0.00121   0.00000   0.00940   0.00932   1.90520
    A6        2.28690  -0.00208   0.00000  -0.00824  -0.00818   2.27872
    A7        2.05078   0.00052   0.00000   0.00290   0.00287   2.05364
    A8        2.09841   0.00111   0.00000   0.00437   0.00438   2.10279
    A9        2.13400  -0.00164   0.00000  -0.00726  -0.00725   2.12676
   A10        2.12593  -0.00249   0.00000  -0.00485  -0.00486   2.12106
   A11        2.08893   0.00068   0.00000   0.00003   0.00004   2.08896
   A12        2.06833   0.00181   0.00000   0.00482   0.00483   2.07316
   A13        2.12764  -0.00234   0.00000  -0.00463  -0.00462   2.12302
   A14        2.06895   0.00188   0.00000   0.00533   0.00533   2.07428
   A15        2.08659   0.00045   0.00000  -0.00070  -0.00071   2.08588
   A16        2.03972  -0.00073   0.00000  -0.00165  -0.00165   2.03807
   A17        2.11965   0.00056   0.00000   0.00167   0.00167   2.12132
   A18        2.12381   0.00016   0.00000  -0.00002  -0.00002   2.12380
   A19        2.13931  -0.00362   0.00000  -0.00865  -0.00869   2.13062
   A20        2.19893  -0.00346   0.00000  -0.00796  -0.00799   2.19094
   A21        1.94494   0.00708   0.00000   0.01661   0.01668   1.96163
   A22        2.19284   0.00143   0.00000   0.00993   0.00991   2.20275
   A23        1.86618   0.00287   0.00000   0.00440   0.00444   1.87062
   A24        2.22415  -0.00430   0.00000  -0.01433  -0.01435   2.20980
   A25        1.87116  -0.00676   0.00000  -0.02111  -0.02110   1.85006
   A26        2.32783   0.00120   0.00000   0.00135   0.00135   2.32918
   A27        2.08166   0.00556   0.00000   0.01983   0.01983   2.10149
   A28        2.04452  -0.00237   0.00000  -0.01130  -0.01122   2.03330
   A29        2.06989  -0.00654   0.00000  -0.02694  -0.02685   2.04304
   A30        1.93979  -0.00326   0.00000  -0.01502  -0.01495   1.92485
   A31        1.75744   0.00568   0.00000   0.02390   0.02356   1.78101
   A32        1.76289   0.00259   0.00000   0.01510   0.01470   1.77759
   A33        1.85409   0.00639   0.00000   0.02528   0.02498   1.87907
   A34        1.88786   0.01001   0.00000   0.04229   0.04229   1.93015
   A35        1.91812   0.01358   0.00000   0.05738   0.05738   1.97551
   A36        1.89377   0.00949   0.00000   0.04009   0.04009   1.93387
   A37        3.01500   0.00774   0.00000   0.22097   0.22097   3.23597
   A38        3.14561  -0.00098   0.00000  -0.02686  -0.02705   3.11856
    D1        0.00065  -0.00000   0.00000   0.00012   0.00011   0.00076
    D2       -3.14103   0.00002   0.00000   0.00039   0.00037  -3.14065
    D3       -3.14107  -0.00001   0.00000  -0.00002  -0.00005  -3.14111
    D4        0.00044   0.00001   0.00000   0.00024   0.00022   0.00066
    D5       -0.00045  -0.00003   0.00000  -0.00054  -0.00054  -0.00099
    D6        3.14127  -0.00002   0.00000  -0.00041  -0.00041   3.14086
    D7        3.14130  -0.00002   0.00000  -0.00036  -0.00033   3.14097
    D8       -0.00016  -0.00001   0.00000  -0.00022  -0.00021  -0.00037
    D9        3.13750   0.00003   0.00000   0.00084   0.00085   3.13835
   D10        0.00066   0.00005   0.00000   0.00082   0.00081   0.00147
   D11       -0.00424   0.00002   0.00000   0.00068   0.00068  -0.00357
   D12       -3.14107   0.00004   0.00000   0.00066   0.00063  -3.14044
   D13       -0.00036   0.00004   0.00000   0.00050   0.00051   0.00015
   D14        3.14098  -0.00001   0.00000  -0.00017  -0.00017   3.14081
   D15        3.14133   0.00001   0.00000   0.00017   0.00019   3.14152
   D16       -0.00051  -0.00003   0.00000  -0.00050  -0.00050  -0.00101
   D17       -0.00143  -0.00007   0.00000  -0.00125  -0.00117  -0.00261
   D18       -3.06315  -0.00022   0.00000  -0.00300  -0.00312  -3.06626
   D19        3.14007  -0.00004   0.00000  -0.00095  -0.00087   3.13919
   D20        0.07836  -0.00019   0.00000  -0.00269  -0.00282   0.07554
   D21       -0.00007  -0.00004   0.00000  -0.00070  -0.00070  -0.00077
   D22        3.14147  -0.00004   0.00000  -0.00056  -0.00057   3.14090
   D23       -3.14141  -0.00000   0.00000  -0.00002  -0.00001  -3.14142
   D24        0.00012   0.00001   0.00000   0.00012   0.00012   0.00025
   D25        0.00026   0.00001   0.00000   0.00028   0.00027   0.00053
   D26       -3.14147   0.00001   0.00000   0.00023   0.00023  -3.14124
   D27       -3.14128   0.00001   0.00000   0.00014   0.00014  -3.14114
   D28        0.00018   0.00001   0.00000   0.00010   0.00010   0.00028
   D29        0.00001   0.00002   0.00000   0.00035   0.00035   0.00035
   D30        3.14147   0.00002   0.00000   0.00021   0.00022  -3.14149
   D31       -3.14145   0.00002   0.00000   0.00039   0.00039  -3.14106
   D32        0.00001   0.00002   0.00000   0.00026   0.00026   0.00028
   D33        3.13911   0.00000   0.00000   0.00033   0.00036   3.13947
   D34        0.00239  -0.00000   0.00000   0.00023   0.00023   0.00262
   D35       -0.00164  -0.00011   0.00000  -0.00171  -0.00168  -0.00331
   D36       -3.13836  -0.00011   0.00000  -0.00182  -0.00181  -3.14016
   D37       -3.13881  -0.00001   0.00000  -0.00030  -0.00037  -3.13918
   D38       -0.06375  -0.00001   0.00000   0.00049   0.00059  -0.06317
   D39        0.00190   0.00011   0.00000   0.00183   0.00175   0.00365
   D40        3.07695   0.00010   0.00000   0.00263   0.00271   3.07966
   D41        2.85856  -0.00024   0.00000  -0.00511  -0.00547   2.85309
   D42       -0.19250  -0.00069   0.00000  -0.02176  -0.02141  -0.21391
   D43        1.46945  -0.00131   0.00000  -0.01160  -0.01159   1.45785
   D44       -0.80130   0.00418   0.00000   0.01161   0.01181  -0.78949
   D45       -2.70471  -0.00478   0.00000  -0.02553  -0.02573  -2.73044
   D46        0.51421  -0.00012   0.00000   0.00076   0.00075   0.51497
   D47        2.76876  -0.00290   0.00000  -0.01232  -0.01262   2.75615
   D48       -1.68337   0.00362   0.00000   0.01925   0.01954  -1.66383
   D49        3.10665   0.00136   0.00000   0.00940   0.00941   3.11607
   D50        0.92509   0.00425   0.00000   0.02125   0.02146   0.94654
   D51       -0.90202  -0.00455   0.00000  -0.01683  -0.01704  -0.91906
         Item               Value     Threshold  Converged?
 Maximum Force            0.043216     0.000450     NO 
 RMS     Force            0.009088     0.000300     NO 
 Maximum Displacement     0.559967     0.001800     NO 
 RMS     Displacement     0.170336     0.001200     NO 
 Predicted change in Energy=-1.294035D-02
 Lowest energy point so far.  Saving SCF results.
 GradGradGradGradGradGradGradGradGradGradGradGradGradGradGradGradGradGrad

 Leave Link  103 at Sun Dec 11 10:30:18 2022, MaxMem=  1342177280 cpu:               0.9 elap:               0.1
 (Enter /data0/home/software/g16/l202.exe)
                          Input orientation:                          
 ---------------------------------------------------------------------
 Center     Atomic      Atomic             Coordinates (Angstroms)
 Number     Number       Type             X           Y           Z
 ---------------------------------------------------------------------
      1          6           0        8.899179   10.666756    5.051798
      2          6           0       10.185569   10.097290    4.896766
      3          6           0       11.181043   10.786111    4.202107
      4          6           0       10.859434   12.028919    3.681180
      5          6           0        9.575655   12.584645    3.841417
[...]
 2593697,0.00699603,0.00045025,0.00000354,-0.00453903,0.00162007,-0.008
 65569,0.00362238,-0.00113119,0.01411815,0.00028389,0.00132122,-0.03625
 442,-0.03153146,0.00698632,0.00029531,0.00026308,-0.00006744,-0.000125
 48,0.00039728,-0.00014904,-0.00143605,-0.00066585,0.00042418,0.0002536
 0,0.00227424,-0.00120746,0.03249476,-0.06985899,0.01408180,0.09871984,
 -0.31075888,0.05902772,0.01825494,-0.01400678,0.00410281,-0.08554781,0
 .61252169,0.01518416,0.02999076,-0.06045215,0.00613365,0.00048004,0.00
 896185,-0.00002614,0.00158136,0.00190738,0.00203451,-0.00108902,-0.000
 89206,-0.00330284,0.00132319,0.00552147,0.00851406,0.00697675,-0.00366
 346,-0.00006840,-0.00006821,-0.00001284,0.00003095,-0.00014503,-0.0001
 8872,0.00034234,0.00042538,0.00102539,-0.00006674,-0.00119540,-0.00252
 201,-0.00766052,0.01411058,-0.01114283,-0.02333941,0.05882205,-0.07790
 132,-0.00434332,0.00413117,0.00232977,0.02041335,-0.12422713,0.1169265
 9,-0.00671812,0.01576539,-0.00380625,-0.13265945,-0.01218590,0.0025707
 1,0.00690877,-0.03742894,0.00891073,-0.00579021,0.00310436,-0.00075102
 ,0.00248849,-0.00300880,0.00071431,-0.00580406,0.00079407,-0.00018657,
 0.00180834,0.00125769,-0.00030850,0.00034760,-0.00161859,0.00038206,0.
 00046136,0.00026582,-0.00006248,0.00022023,0.00161710,-0.00038287,0.00
 686553,0.00402142,-0.00094000,-0.38562525,-0.04322467,0.01039183,-0.00
 618988,0.00032753,-0.00009625,-0.10027933,0.06363940,-0.01506471,0.823
 16483,0.04388414,-0.04354568,0.01252594,0.01094726,-0.23751603,0.04257
 719,-0.01609345,-0.03192059,0.00716431,-0.00835885,0.01555129,-0.00227
 873,0.01224364,-0.00282319,0.00040569,0.00140050,-0.00704240,0.0022379
 9,0.00049971,0.00096419,-0.00091544,0.00003880,-0.00037654,0.00035211,
 0.00011112,-0.00008790,-0.00003237,-0.00025164,-0.00150040,0.00036156,
 0.00018328,-0.00576322,0.00249453,-0.04800965,-0.13518247,0.01626813,-
 0.02839752,0.00646250,-0.00080321,0.02849042,-0.02016449,0.00901400,-0
 .12942980,0.66648393,-0.01037295,0.01244714,0.00629847,-0.00299450,0.0
 4285128,-0.06753774,0.00388802,0.00717075,-0.00390978,0.00196622,-0.00
 224983,0.00649929,-0.00287446,0.00037864,-0.00131948,-0.00036492,0.002
 23915,0.00198307,-0.00009938,-0.00091453,-0.00269849,-0.00001079,0.000
 35304,0.00102586,-0.00002592,-0.00003377,-0.00022845,0.00006035,0.0003
 6617,-0.00006253,-0.00004067,0.00249653,0.00406647,0.01120216,0.016332
 96,-0.07205220,0.00677273,-0.00077547,0.00336441,-0.00673551,0.0089834
 7,0.01592371,0.03129897,-0.13405622,0.13765194,0.00042201,-0.00023337,
 0.00007918,0.00118236,0.00155586,-0.00032025,-0.00006273,-0.00016202,0
 .00002770,-0.00011607,-0.00003354,0.00001182,-0.00001176,-0.00011282,0
 .00004002,0.00011279,0.00000560,-0.00003747,0.00001442,-0.00001861,0.0
 0001316,-0.00001225,-0.00005172,0.00001205,-0.00000597,-0.00002786,0.0
 0000631,0.00000963,-0.00007033,0.00001421,-0.00016377,-0.00016207,0.00
 000945,-0.00236962,-0.00070269,0.00019047,0.00000958,-0.00002925,0.000
 00644,0.00147400,-0.00123951,0.00029041,0.00628764,-0.00431401,0.00126
 252,0.52786728,0.00005274,-0.00007787,-0.00001268,0.00020380,0.0000489
 7,-0.00003220,0.00003666,-0.00000028,-0.00003500,-0.00003688,-0.000027
 64,-0.00000195,-0.00001850,-0.00000033,-0.00001274,0.00001283,0.000019
 99,0.00002203,-0.00006124,-0.00004533,0.00005882,0.00000151,-0.0000062
 9,0.00000614,-0.00000595,0.00000438,0.00000293,-0.00000239,-0.00000590
 ,0.00000555,0.00001664,-0.00001716,0.00002965,-0.00003024,-0.00023208,
 -0.00000922,0.00001685,0.00003181,-0.00001186,0.00009906,-0.00004132,0
 .00004366,0.00233202,-0.00175535,0.00033852,-0.04195714,0.49004146,0.0
 0064093,-0.00056896,0.00011551,0.00233997,0.00212641,-0.00045745,-0.00
 017974,-0.00023890,-0.00002978,-0.00016635,-0.00005205,0.00003482,-0.0
 0000855,-0.00017802,0.00002323,0.00024010,-0.00000416,-0.00001424,-0.0
 0002000,0.00001185,0.00004947,-0.00002067,-0.00006623,0.00002461,-0.00
 000853,-0.00004300,0.00001745,0.00001540,-0.00012364,0.00003468,-0.000
 23227,-0.00025624,0.00005341,-0.00377774,-0.00113701,0.00030284,0.0000
 5456,0.00000728,0.00004090,0.00231099,-0.00186515,0.00037517,0.0109223
 2,-0.00978777,0.00305122,0.04499128,0.11984512,0.74026814,-0.00004471,
 0.00001316,-0.00001199,-0.00011473,-0.00019180,0.00004013,-0.00000056,
 0.00001666,0.00000303,0.00000943,0.00000423,-0.00000382,0.00000348,0.0
 0001587,-0.00000428,-0.00000762,-0.00000709,0.00000297,-0.00000485,-0.
 00000057,0.00000512,0.00000127,0.00000690,-0.00000170,0.00000069,0.000
 00341,-0.00000049,-0.00000105,0.00000666,-0.00000026,0.00002154,0.0000
 1234,0.00000400,0.00029719,0.00002164,-0.00002603,0.00000382,0.0000077
 7,0.00000526,-0.00013976,0.00014291,-0.00004097,-0.00037660,0.00030640
 ,-0.00006960,-0.07807629,0.04942787,0.07484330,0.08198559,-0.00004222,
 0.00004916,-0.00000157,-0.00014314,-0.00010697,0.00007099,-0.00000778,
 0.00000897,-0.00000798,0.00002055,0.00002288,0.00001809,0.00000395,0.0
 0000484,-0.00000593,-0.00001463,-0.00000408,0.00000075,0.00002910,-0.0
 0000150,-0.00003320,0.00000096,0.00000459,-0.00000434,0.00000208,0.000
 00002,-0.00000280,-0.00000024,0.00000653,-0.00000376,0.00000546,0.0000
 1418,-0.00001090,0.00015217,0.00009339,0.00000112,-0.00000080,-0.00000
 860,-0.00000526,-0.00011076,0.00009283,-0.00002568,-0.00075680,0.00064
 089,-0.00013650,0.05161365,-0.16864588,-0.17564202,-0.06512288,0.18559
 733,-0.00015851,0.00010851,-0.00002833,-0.00051122,-0.00051646,0.00012
 675,0.00004600,0.00006504,0.00001530,0.00003640,0.00000718,-0.00001602
 ,-0.00000088,0.00004587,0.00000349,-0.00005033,0.00000012,-0.00000647,
 0.00000292,-0.00001094,-0.00000793,0.00000590,0.00001502,-0.00000749,0
 .00000147,0.00001084,-0.00000469,-0.00000429,0.00002722,-0.00000851,0.
 00005624,0.00005429,-0.00001875,0.00090550,0.00022713,-0.00004999,-0.0
 0001400,-0.00000297,-0.00001096,-0.00053052,0.00045211,-0.00009751,-0.
 00211729,0.00188750,-0.00040586,0.07659148,-0.17407414,-0.32462818,-0.
 09585217,0.20884071,0.37097219,-0.00008095,0.00004184,-0.00002281,-0.0
 0022161,-0.00028680,0.00006803,0.00002726,0.00002994,-0.00001040,0.000
 01985,0.00000616,-0.00000139,0.00000370,0.00002102,-0.00000627,-0.0000
 2309,-0.00000125,0.00000438,-0.00000534,0.00001055,-0.00000256,0.00000
 264,0.00000942,-0.00000221,0.00000094,0.00000548,-0.00000096,-0.000002
 02,0.00001332,-0.00000312,0.00003012,0.00003167,-0.00001081,0.00042080
 ,0.00018405,-0.00003185,-0.00000666,0.00000322,0.00000252,-0.00028870,
 0.00023069,-0.00005724,-0.00138440,0.00085529,-0.00006017,-0.06280822,
 0.00501030,-0.00475722,0.01020009,0.00714976,0.00061563,0.44726729,0.0
 0015270,-0.00011746,0.00005659,0.00057216,0.00056591,-0.00015530,-0.00
 005949,-0.00005102,0.00005776,-0.00004086,-0.00001261,-0.00000907,0.00
 000027,-0.00003907,0.00001799,0.00006363,-0.00000452,-0.00000858,0.000
 01539,-0.00001527,-0.00000770,-0.00000469,-0.00001581,0.00000126,-0.00
 000113,-0.00001275,0.00000169,0.00000384,-0.00003080,0.00000636,-0.000
 07140,-0.00006430,0.00002160,-0.00098156,-0.00032634,0.00006004,0.0000
 1655,-0.00001221,-0.00000350,0.00061175,-0.00047939,0.00011211,0.00253
 144,-0.00201132,0.00029024,0.02936934,-0.17921743,0.03318443,0.0069696
 9,-0.03373282,-0.00640707,0.18940343,0.39518501,-0.00017139,0.00013157
 ,-0.00003416,-0.00059322,-0.00056235,0.00013550,0.00006142,0.00005896,
 0.00001743,0.00004202,0.00000912,-0.00001660,0.00000411,0.00004656,-0.
 00000461,-0.00005886,-0.00000085,-0.00000074,0.00000197,0.00001471,-0.
 00000671,0.00000505,0.00001682,-0.00000571,0.00000234,0.00001119,-0.00
 000371,-0.00000321,0.00003059,-0.00000908,0.00006266,0.00006717,-0.000
 02326,0.00095149,0.00036813,-0.00006982,-0.00002101,0.00000291,-0.0000
 0336,-0.00061462,0.00047482,-0.00011204,-0.00287529,0.00223268,-0.0004
 5728,-0.00822364,0.02742605,-0.04899973,0.00279411,-0.02031052,0.00353
 689,0.03901933,-0.04059508,0.05635361,-0.00001254,0.00000968,-0.000009
 67,-0.00005088,-0.00005051,0.00001499,0.00000628,0.00000440,-0.0000077
 2,0.00000443,0.00000012,0.00000373,-0.00000128,0.00000193,-0.00000305,
 -0.00000629,0.00000244,0.00000326,-0.00000063,0.00000097,0.00000100,0.
 00000019,0.00000106,-0.00000023,0.00000009,0.00000073,-0.00000023,-0.0
 0000010,0.00000283,-0.00000056,0.00000494,0.00000638,-0.00000447,0.000
 09109,0.00003379,-0.00000334,-0.00000402,0.00000222,-0.00000219,-0.000
 05702,0.00003961,-0.00000608,-0.00025638,0.00020455,-0.00003544,0.0012
 0008,0.00221186,0.00081860,-0.00141469,0.00343207,0.00127009,-0.383270
 66,-0.22154400,-0.02230024,0.38180417,-0.00002848,0.00001884,-0.000014
 32,-0.00009139,-0.00010718,0.00003030,0.00000979,0.00000934,-0.0000079
 7,0.00000652,0.00000156,0.00000039,0.00000090,0.00000799,-0.00000353,-
 0.00000991,0.00000042,0.00000285,-0.00000145,0.00000290,-0.00000026,0.
 00000073,0.00000301,-0.00000071,0.00000030,0.00000213,-0.00000033,-0.0
 0000068,0.00000530,-0.00000114,0.00001230,0.00001164,-0.00000407,0.000
 17156,0.00005791,-0.00000704,0.00000036,0.00000174,0.00000112,-0.00010
 828,0.00008596,-0.00002162,-0.00049755,0.00034980,-0.00004803,-0.02601
 362,-0.02921811,0.00062633,0.00206854,0.00152293,0.00070568,-0.1880374
 1,-0.14266223,-0.00322290,0.21250833,0.16772141,0.00001113,-0.00000639
 ,-0.00000155,0.00002761,0.00003906,-0.00000852,-0.00000367,-0.00000319
 ,-0.00000287,-0.00000157,0.00000074,0.00000135,-0.00000070,-0.00000394
 ,-0.00000050,0.00000242,0.00000055,0.00000154,-0.00000041,-0.00000048,
 0.00000102,-0.00000041,-0.00000104,0.00000087,-0.00000012,-0.00000074,
 0.00000045,0.00000032,-0.00000160,0.00000094,-0.00000380,-0.00000388,0
 .00000353,-0.00005716,-0.00002321,0.00000414,0.00000024,-0.00000007,0.
 00000285,0.00003884,-0.00003072,0.00000623,0.00019164,-0.00011356,0.00
 001416,0.00587794,0.00513113,-0.00232213,0.00139923,-0.00112824,-0.000
 31322,-0.03177378,-0.01031016,-0.00378494,0.02307247,0.00388202,0.0050
 2062,-0.00102377,0.00119900,-0.00027825,-0.00501467,-0.00333716,0.0007
 4699,0.00012458,0.00032102,-0.00009099,0.00036002,0.00011048,-0.000025
 19,0.00002335,0.00025252,-0.00007022,-0.00048321,-0.00002539,0.0000331
 9,0.00013363,0.00006655,-0.00002378,0.00002865,0.00011900,-0.00002766,
 0.00002408,0.00006760,-0.00001707,-0.00001781,0.00022065,-0.00005148,0
 .00041252,0.00040700,-0.00007454,0.00645797,0.00189366,-0.00044915,-0.
 00016784,0.00000321,-0.00000211,-0.00378965,0.00313127,-0.00075403,-0.
 01973114,0.02381357,-0.00583825,-0.17156597,0.01470145,-0.15873697,0.0
 0815380,0.00126843,-0.00473918,0.00023006,0.01263634,-0.01627546,-0.00
 157441,-0.00025127,-0.00048886,0.20654541,0.00091468,-0.00072314,0.000
 14484,0.00335203,0.00303762,-0.00065698,-0.00027881,-0.00027963,0.0000
 7414,-0.00025077,-0.00007795,0.00002185,-0.00002144,-0.00021970,0.0000
 6659,0.00034428,0.00001153,-0.00003329,-0.00000902,-0.00008560,0.00002
 700,-0.00002491,-0.00009374,0.00002026,-0.00001338,-0.00005955,0.00001
 423,0.00001562,-0.00016687,0.00003734,-0.00036780,-0.00041117,0.000047
 35,-0.00488660,-0.00270481,0.00075756,0.00017764,-0.00000675,0.0000419
 8,0.00356174,-0.00263621,0.00053944,0.02107062,-0.01464656,0.00469019,
 0.01172057,-0.05885481,0.01278318,-0.00447250,0.00883979,-0.01692525,0
 .01931980,-0.01837268,0.03072843,0.00245369,0.00511776,-0.00221210,-0.
 03300384,0.06825645,-0.00048763,0.00040818,-0.00019079,-0.00176577,-0.
 00152554,0.00059106,0.00012896,0.00016731,-0.00000471,0.00013443,0.000
 04603,-0.00002114,0.00001385,0.00012708,-0.00001004,-0.00018745,-0.000
 01038,-0.00003229,0.00000758,0.00002908,-0.00000803,0.00001324,0.00005
 024,-0.00001884,0.00000722,0.00003224,-0.00000904,-0.00001112,0.000092
 21,-0.00003081,0.00017419,0.00018006,-0.00015943,0.00276864,0.00120156
 ,0.00001704,-0.00006203,0.00000335,0.00006014,-0.00183832,0.00135942,-
 0.00045596,-0.01098709,0.01001065,0.00190415,-0.16404074,0.01844511,-0
 .28583589,-0.01841256,-0.00788854,-0.03574980,-0.01329263,0.01629680,-
 0.01114838,-0.00185851,-0.00354853,0.00057483,0.20508822,-0.02215172,0
 .33203489,0.00166659,-0.00466876,0.00110875,0.02085410,0.00156846,-0.0
 0031813,0.00006642,-0.00051011,0.00012904,-0.00091190,0.00014811,-0.00
 001575,0.00029760,-0.00053574,0.00012658,0.00142450,-0.00020201,0.0000
 3928,-0.00047204,0.00026802,-0.00006849,-0.00006694,-0.00023160,0.0000
 5258,-0.00005466,-0.00013613,0.00003358,0.00006397,-0.00058701,0.00013
 883,-0.00056983,0.00007853,-0.00002014,-0.02270957,0.01750987,-0.00421
 875,0.00119505,-0.00051832,0.00013976,0.00293322,-0.00801980,0.0018847
 2,-0.18199689,0.10992825,-0.02650474,-0.01533413,0.00022272,-0.0211694
 6,0.00118365,0.00128787,0.00535214,0.00273839,-0.00508606,0.00520211,0
 .00048893,0.00099314,-0.00038804,0.01350616,-0.01414124,0.01261152,0.1
 7199751,-0.00412184,-0.00284450,0.00126785,0.01057209,-0.01395377,0.00
 235592,-0.00026079,0.00181150,-0.00062228,0.00092763,0.00011995,-0.000
 04578,-0.00009614,0.00053310,-0.00018948,0.00068547,0.00017944,0.00011
 989,-0.00009182,0.00001876,-0.00003224,0.00003573,0.00022765,-0.000027
 83,0.00002559,0.00012180,-0.00002580,-0.00009142,0.00008853,0.00002920
 ,0.00091242,0.00162957,0.00011791,0.00611989,0.01495839,-0.00470879,-0
 .00011591,0.00000685,-0.00068290,-0.01254571,0.00764588,-0.00074985,0.
 11190698,-0.18673011,0.03942997,0.01193580,0.00090975,0.02073744,-0.00
 115549,-0.00152139,-0.00509898,-0.00197073,0.00465088,-0.00452471,-0.0
 0042379,-0.00081286,0.00024651,-0.01934541,0.00528721,-0.01336109,-0.0
 9815204,0.16890830,0.00098176,0.00125596,0.00228628,-0.00250578,0.0021
 6772,-0.00484382,0.00006148,-0.00064787,-0.00072108,-0.00021819,-0.000
 03379,0.00000389,0.00001840,-0.00018060,-0.00020279,-0.00016274,0.0001
 1133,0.00062226,0.00002117,-0.00003577,-0.00019793,-0.00000797,-0.0000
 3017,0.00010521,-0.00000577,-0.00002429,0.00002272,0.00002177,0.000030
 66,0.00020863,-0.00020287,0.00011984,0.00207406,-0.00135052,-0.0046606
 4,-0.00358668,0.00003191,-0.00066329,-0.00265996,0.00294606,-0.0007554
 5,0.00450577,-0.02697064,0.03937828,-0.03283138,-0.00627067,0.00282681
 ,-0.00742820,0.00068692,0.00006846,0.00167280,0.00008815,-0.00074409,0
 .00075549,0.00007697,0.00014518,-0.00002707,0.00725988,-0.00670047,-0.
 00480702,0.02440601,-0.03190605,0.04453742,-0.00015198,0.00015359,-0.0
 0005558,-0.00066590,-0.00057243,0.00013894,0.00000563,0.00006776,-0.00
 000310,0.00005346,0.00000922,-0.00001310,0.00000494,0.00004647,-0.0000
 1530,-0.00006254,-0.00000421,0.00001259,0.00000596,-0.00000028,0.00000
 846,0.00000548,0.00002181,-0.00000559,0.00000282,0.00001189,-0.0000023
 1,-0.00000315,0.00003331,-0.00000726,0.00006989,0.00005697,-0.00001121
 ,0.00103436,0.00021294,-0.00005057,-0.00000384,0.00000047,0.00000224,-
 0.00056776,0.00049201,-0.00011291,-0.00211709,0.00236524,-0.00053314,-
 0.18720126,-0.04303463,0.02158653,-0.01807491,0.00174575,0.01646205,-0
 .01412116,-0.01569387,0.00430960,0.00308291,-0.00061963,0.00244474,-0.
 03824695,-0.00430593,-0.00706950,0.00440237,-0.00566362,0.00132691,0.3
 1518377,-0.00003521,0.00004386,-0.00000331,-0.00016854,-0.00012258,0.0
 0002013,-0.00003308,0.00001091,0.00001441,0.00002522,0.00000953,0.0000
 0219,0.00000211,0.00000589,0.00000029,-0.00001170,-0.00000412,-0.00000
 285,0.00002104,0.00000930,-0.00002430,0.00000024,0.00000631,-0.0000011
 9,0.00000273,0.00000077,-0.00000076,0.00000046,0.00000681,-0.00000190,
 0.00000889,0.00001261,-0.00000444,0.00019985,0.00005969,-0.00001606,-0
 .00000464,-0.00000480,0.00000018,-0.00009826,0.00009295,-0.00002351,-0
 .00043133,0.00057554,-0.00013019,-0.02745436,-0.05328909,-0.00664255,0
 .01368920,0.00413997,-0.01008069,-0.03143930,-0.02202914,0.00770893,0.
 00098256,-0.00180028,0.00502738,-0.00260875,0.00922462,-0.00002643,0.0
 0067895,-0.00110291,0.00025220,0.00817150,0.15353571,-0.00004377,0.000
 06269,-0.00000404,-0.00022195,-0.00013225,0.00002722,0.00003183,0.0000
 2040,0.00001775,0.00000479,-0.00000054,-0.00000907,-0.00000067,0.00001
 819,0.00000409,-0.00002259,0.00000043,-0.00000473,0.00000011,-0.000011
 32,-0.00000504,0.00000201,0.00000307,-0.00000364,-0.00000030,0.0000037
 3,-0.00000263,-0.00000140,0.00001030,-0.00000416,0.00001873,0.00001558
 ,-0.00000744,0.00030654,0.00005083,-0.00000524,-0.00000236,-0.00000569
 ,-0.00000535,-0.00016402,0.00013441,-0.00002870,-0.00059855,0.00082514
 ,-0.00021973,0.04264835,0.00202661,-0.06403759,0.03520959,-0.00411822,
 -0.01856201,0.01249920,0.01033305,0.00280260,-0.00104981,0.00151053,0.
 00023002,-0.02130102,-0.00138828,0.00434162,0.00100006,-0.00176375,0.0
 0034287,-0.17297009,0.17356443,0.45279919,0.00002523,-0.00002467,0.000
 01375,0.00011068,0.00008940,-0.00002949,-0.00000851,-0.00001008,0.0000
 1300,-0.00000650,-0.00000341,-0.00000776,-0.00000039,-0.00000697,0.000
 00690,0.00001154,-0.00000067,-0.00000525,0.00000305,0.00000523,-0.0000
 0115,-0.00000107,-0.00000261,0.00000056,-0.00000013,-0.00000218,0.0000
 0074,0.00000060,-0.00000571,0.00000129,-0.00001093,-0.00000942,0.00000
 303,-0.00017170,-0.00003806,0.00000474,0.00000104,0.00000213,0.0000017
 4,0.00009343,-0.00008092,0.00001515,0.00037601,-0.00041724,0.00010947,
 -0.02085174,0.01080068,0.03031350,-0.00360477,-0.00051253,0.00263258,0
 .00127166,0.00113651,-0.00131927,-0.00003422,-0.00011280,-0.00034804,0
 .00561518,-0.00115445,-0.00093450,-0.00070249,0.00091310,-0.00023224,-
 0.06263504,0.03850241,0.10465531,0.08051908,-0.00000284,0.00000438,0.0
 0000264,-0.00001449,-0.00000746,0.00001357,0.00001188,0.00000333,-0.00
 000189,-0.00000240,0.00000083,-0.00000188,-0.00000106,0.00000162,0.000
 00061,-0.00000347,0.00000043,-0.00000262,-0.00000282,-0.00000659,0.000
 00236,0.00000064,-0.00000149,-0.00000011,-0.00000051,0.00000108,-0.000
 00018,-0.00000038,0.00000088,-0.00000053,0.00000417,0.00000110,0.00000
 066,0.00003276,0.00000319,0.00000475,0.00000050,0.00000031,-0.00000005
 ,-0.00002121,0.00001179,-0.00000505,-0.00005147,0.00003809,-0.00002353
 ,-0.00361790,0.00037853,0.00728366,-0.00176294,0.00298297,0.00066926,-
 0.00059045,-0.00119462,-0.00011224,0.00011908,-0.00031996,-0.00048807,
 -0.00163994,-0.00043579,0.00006290,0.00010491,-0.00013201,0.00002602,0
 .05650566,-0.08938154,-0.18115934,-0.04906772,0.08805094,-0.00001484,0
 .00001600,-0.00000247,-0.00006784,-0.00005637,0.00001339,0.00000552,0.
 00000307,-0.00000253,0.00000498,0.00000032,-0.00000196,0.00000104,0.00
 000390,-0.00000121,-0.00000732,-0.00000058,-0.00000097,-0.00000050,0.0
 0000469,0.00000383,0.00000010,0.00000237,0.00000034,0.00000037,0.00000
 090,0.00000032,-0.00000027,0.00000347,-0.00000021,0.00000507,0.0000066
 0,0.00000009,0.00010066,0.00002541,-0.00000854,-0.00000161,0.00000016,
 0.00000054,-0.00005508,0.00004921,-0.00001373,-0.00023505,0.00025159,-
 0.00005983,0.00681997,-0.00201835,-0.01063828,-0.00056979,0.00032532,0
 .00358830,-0.00226383,-0.00219938,0.00107860,0.00002043,-0.00002396,0.
 00059825,-0.00388408,0.00007367,-0.00104156,0.00047853,-0.00056516,0.0
 0016852,0.13455762,-0.16963196,-0.37766601,-0.13489406,0.17372908,0.38
 398511\\0.00000188,0.00000168,-0.00001398,-0.00000048,0.00000101,-0.00
 000118,-0.00000163,-0.00000031,0.00000435,-0.00000250,-0.00000048,-0.0
 0000369,-0.00000022,-0.00000052,-0.00000213,-0.00000220,-0.00000119,0.
 00000430,-0.00000046,0.00000031,-0.00000242,-0.00000115,-0.00000034,-0
 .00000316,-0.00000234,-0.00000068,-0.00000248,-0.00000106,-0.00000115,
 -0.00000158,-0.00000003,-0.00000263,-0.00000373,-0.00000622,-0.0000062
 4,0.00000211,0.00000131,-0.00000257,0.00000248,-0.00000278,0.00000212,
 0.00001788,0.00001515,0.00000302,-0.00000181,0.00000990,0.00001238,-0.
 00001458,-0.00000405,0.00001111,0.00001058,-0.00000779,-0.00000990,-0.
 00000327,0.00001239,-0.00000412,0.00000498,0.00001568,0.00000391,0.000
 00671,-0.00001812,-0.00000217,0.00000063,-0.00001090,0.00000254,0.0000
 0285,0.00000563,-0.00000578,-0.00000287\\\@


 ROSE IS A RED
 TY COBB IS BLUE
 'CAUSE PETE JUST HIT
 NO. 4592.
 Job cpu time:       0 days  3 hours 52 minutes 11.5 seconds.
 Elapsed time:       0 days  0 hours  9 minutes 44.4 seconds.
 File lengths (MBytes):  RWF=    471 Int=      0 D2E=      0 Chk=     24 Scr=      1
 Normal termination of Gaussian 16 at Sun Dec 11 11:24:06 2022.
