          39
 G =       -0.562786 Gcorr = 0.240699 a.u. Nimag =   0 Frame:     1 Step:     1 Geom:     1
C          13.99707200     17.88334000     15.61157700
H          14.57130100     17.23733700     14.90801200
H          14.72360200     18.41755400     16.23788300
H          13.40652400     17.19119500     16.24091100
C          12.48519800     19.78834500     15.83001100
H          13.25132400     20.32866700     16.41008400
H          11.86724900     20.54170200     15.31070300
H          11.83361600     19.25139000     16.54134200
C          13.95070300     19.59276900     13.87063900
H          13.33609400     20.20830700     13.18445800
H          14.69273200     20.22715300     14.37011700
H          14.49640600     18.89266600     13.19389200
C          12.02915700     18.03625600     14.14092400
H          11.52403800     17.36660400     14.87314800
H          12.55011300     17.33918900     13.42786500
C          11.00775600     18.91520900     13.40557000
H          11.42095200     19.92015400     13.17562000
H          10.11257800     19.08045600     14.03230700
C          10.60521700     18.26342200     12.08165000
H           9.95513700     18.92899900     11.48760300
H          10.02630900     17.33388200     12.24647500
N          13.11031600     18.83383500     14.85453300
C          11.87298500     17.96438300     11.26790000
O          12.74530500     18.84550600     11.21967700
O          11.95705400     16.81239900     10.78376500
P          15.33197500     16.47541400     11.35844500
O          15.12654200     16.24323000     12.79417100
O          16.79035100     15.99567500     10.93501200
H          16.88794300     16.18370800      9.92245400
O          14.37328300     15.71293500     10.36057500
H          13.39507500     16.15147700     10.43943000
O          15.30973000     18.00956100     10.94496900
H          14.30130400     18.35150600     10.92703900
O          11.13043500     15.00396700     12.64092400
H          11.18138400     14.16880200     12.18406600
H          11.42583800     15.66462000     11.96679200
O          12.97901200     15.30867800     14.70365000
H          13.76784700     15.31520300     14.15167100
H          12.27056300     15.08453800     14.07416300
          39
 G =       -0.557566 Gcorr = 0.241221 a.u. Nimag =   0 Frame:     2 Step:     2 Geom:     2
C          14.17435400     17.32534200     15.32114600
H          14.81871900     17.03025700     14.45898000
H          14.83265700     17.59327400     16.15779600
H          13.59679900     16.42459400     15.60227300
C          12.46382900     18.85657100     16.15589100
H          13.11199100     19.21025900     16.97160700
H          11.74029200     19.65184700     15.91385900
H          11.88574600     17.98520300     16.53664300
C          14.09808700     19.61861800     14.48646800
H          13.49450900     20.52934900     14.35306500
H          14.91061200     19.83609900     15.19620200
H          14.57444000     19.38823500     13.50230600
C          12.32399300     17.98964300     13.85192500
H          11.60128400     17.26156000     14.28773200
H          12.93703000     17.40332800     13.11419900
C          11.55488700     19.09746800     13.12826400
H          12.24439800     19.83127800     12.65565600
H          10.90101900     19.65966200     13.81515500
C          10.72260600     18.44843200     12.01525500
H          10.11530400     19.20229500     11.48433700
H          10.02401500     17.68979900     12.40314800
N          13.26135500     18.46235500     14.94722800
C          11.71498300     17.81564300     11.02459900
O          12.36066000     18.57837400     10.30041500
O          11.84711100     16.56673600     11.08680200
P          15.30542100     16.88705500     11.04137000
O          15.32233300     17.37610000     12.42721000
O          16.75064500     16.33835700     10.65169700
H          16.69504700     16.01056500      9.67243700
O          14.35207700     15.64963900     10.77331500
H          13.33507200     15.99201800     10.77667700
O          14.99678800     17.96524700      9.92546000
H          13.96091900     18.22737900      9.98984700
O          11.92200500     15.05995400     13.28465300
H          12.66768600     14.52953800     13.01144800
H          11.73016200     15.61299000     12.47574000
O          11.37933200     15.58913800     15.99293100
H          10.77884300     14.92057600     16.30841600
H          11.54301500     15.35525300     15.05787500
          39
 G =       -0.561507 Gcorr = 0.239322 a.u. Nimag =   0 Frame:     3 Step:     3 Geom:     3
C          13.86269500     17.42613100     15.55192600
H          14.11766700     16.65477200     14.78625600
H          14.80560500     17.77614000     15.99503700
H          13.26557300     16.91204800     16.32555100
C          12.62778400     19.49622300     15.99542400
H          13.47544900     19.88808800     16.58116700
H          12.08881900     20.35585800     15.55983900
H          11.93908500     18.98693200     16.69258400
C          14.00966300     19.28401100     13.98393700
H          13.47253900     20.02057200     13.35514100
H          14.82744000     19.78625800     14.51549600
H          14.46504600     18.57457000     13.25431100
C          11.89419400     17.96903000     14.19758200
H          11.26385800     17.42186300     14.93967600
H          12.28858200     17.18048100     13.49958200
C          11.04555900     18.99164000     13.43144000
H          11.58875800     19.94632700     13.26894600
H          10.13650500     19.25036900     14.00418400
C          10.66128200     18.42574200     12.06211800
H          10.10893800     19.16972700     11.46194000
H          10.00078300     17.54537100     12.15316500
N          13.09409400     18.55754800     14.92173400
C          11.94523300     18.04790100     11.30532500
O          12.85306000     18.89659500     11.28299100
O          11.99763500     16.89243500     10.83590100
P          15.35516200     16.48430600     11.19714500
O          15.04392300     16.01704700     12.55660600
O          16.81246800     16.01424400     10.76369900
H          16.97210300     16.37417800      9.80653200
O          14.40624100     15.95162100     10.04881800
H          13.41457800     16.32094300     10.25286700
O          15.40511700     18.06364900     11.04059800
H          14.39978100     18.43064200     11.00594000
O          12.20795900     14.83722900     12.72838000
H          13.17249100     14.81526100     12.65441200
H          11.95251500     15.46472900     12.01743600
O          11.72026800     15.36687400     15.32965700
H          11.30226500     14.58716900     15.67859700
H          11.87930800     15.15551200     14.37807900
          39
 G =       -0.560608 Gcorr = 0.238536 a.u. Nimag =   0 Frame:     4 Step:     4 Geom:     4
C          14.11982200     17.11544400     15.39091800
H          14.75567600     16.79844500     14.52924300
H          14.78833400     17.36169400     16.22609900
H          13.50786300     16.23856700     15.67398700
C          12.43900500     18.68857300     16.20989400
H          13.08084100     19.01048000     17.04338800
H          11.74811200     19.51051900     15.96150000
H          11.82369100     17.83324200     16.56441300
C          14.12912300     19.42488500     14.59275800
H          13.55954100     20.35903300     14.48164000
H          14.94685200     19.59004600     15.30972700
H          14.60897100     19.20929400     13.60313600
C          12.32031900     17.85017600     13.89561000
H          11.54919400     17.16437300     14.32223400
H          12.91722700     17.22375200     13.17890800
C          11.62739100     18.99140300     13.14763800
H          12.36281500     19.71345500     12.72863200
H          10.95386700     19.56149700     13.80910400
C          10.83784500     18.39027900     11.97830100
H          10.23059300     19.16142100     11.47285000
H          10.14160900     17.59996600     12.30714300
N          13.25088700     18.28499300     15.01280500
C          11.86955000     17.83054200     10.98551500
O          12.48512200     18.63314600     10.28113100
O          12.06365800     16.58520600     11.02571000
P          15.48672400     17.11879400     11.19565900
O          15.35276400     17.51948000     12.60496200
O          16.99801700     16.70193500     10.90449100
H          17.05023100     16.43356300      9.90720600
O          14.65455700     15.84232400     10.76694700
H          13.61320300     16.09733600     10.78223000
O          15.19859200     18.25031000     10.12649900
H          14.14565900     18.42275600     10.09835000
O          11.16111900     15.12103000     13.00704700
H          11.33591400     14.24734000     12.68037000
H          11.45839600     15.72076400     12.24815500
O          11.20640700     15.55630900     15.75540300
H          10.52615400     14.99781700     16.11724600
H          11.20438500     15.35984400     14.79318000
          39
 G =       -0.562053 Gcorr = 0.237090 a.u. Nimag =   0 Frame:     5 Step:     5 Geom:     5
C          14.11115300     17.16224800     15.36613800
H          14.71041500     16.79849000     14.49777600
H          14.81068900     17.42252200     16.17045400
H          13.48706500     16.30908300     15.70165800
C          12.48640100     18.79563400     16.17812600
H          13.15823200     19.13858200     16.97907900
H          11.79934400     19.61776500     15.92031900
H          11.87322200     17.96171600     16.58266900
C          14.14439400     19.44363500     14.49186200
H          13.59149100     20.38600600     14.36776200
H          14.98610200     19.61299500     15.17960200
H          14.59120700     19.18662600     13.49678400
C          12.28398400     17.88583300     13.89732300
H          11.50160000     17.24447000     14.37036900
H          12.84355800     17.21121500     13.19432300
C          11.60909700     19.01671300     13.11764200
H          12.35618500     19.69581200     12.65003800
H          10.97162900     19.63644800     13.77011300
C          10.77102400     18.39338200     11.99466400
H          10.16853900     19.16087000     11.47801000
H          10.06508700     17.63408700     12.37259200
N          13.25579800     18.33634200     14.97284800
C          11.75891200     17.77112000     10.99462100
O          12.36580600     18.53003700     10.23661300
O          11.93058200     16.52450800     11.08147900
P          15.36680000     17.00367700     11.13543000
O          15.27485200     17.45419500     12.53278400
O          16.86313800     16.55100800     10.82115800
H          16.88562100     16.24742200      9.83301000
O          14.50368900     15.72766600     10.77037900
H          13.46784200     15.99827800     10.81107700
O          15.07092800     18.10292100     10.03498300
H          14.02041600     18.28883600     10.02311600
O          10.99998000     15.17402800     13.12330000
H          11.03686700     14.28566000     12.79218400
H          11.32767500     15.73077500     12.34179100
O          11.45741400     15.59891600     15.82124300
H          10.92128400     14.96117600     16.28033000
H          11.31200200     15.40934000     14.86637900
          39
 G =       -0.570824 Gcorr = 0.222835 a.u. Nimag =   0 Frame:     6 Step:     6 Geom:     6
C          13.96555100     17.13374400     15.50908300
H          14.62690500     16.78429700     14.67208700
H          14.61035200     17.35344800     16.36890600
H          13.29676900     16.28724000     15.77540300
C          12.26102600     18.76860900     16.20195800
H          12.82806600     19.00575200     17.11503400
H          11.65843900     19.65010800     15.93213000
H          11.55612300     17.94077800     16.44826700
C          14.13573900     19.44905200     14.71304500
H          13.61972900     20.35466200     14.36090000
H          14.78975100     19.71423700     15.55481400
H          14.79962800     19.10306100     13.87142900
C          12.33628400     17.95912600     13.85103000
H          11.64834900     17.11721000     14.12479000
H          13.05927600     17.51893500     13.10255300
C          11.54510400     19.10093700     13.20805900
H          12.22127700     19.93833900     12.92809800
H          10.79261200     19.51353000     13.90588700
C          10.84132000     18.60087200     11.93850600
H          10.38054800     19.45037400     11.39637900
H          10.01865300     17.90143700     12.17910400
N          13.16805300     18.34520400     15.07011600
C          11.86148100     17.91470800     11.03432300
O          12.68768900     18.63193400     10.41840300
O          11.86700800     16.64857900     11.02126000
P          15.15529300     16.68512000     11.43175900
O          15.04744800     17.33989000     12.76592900
O          16.59970500     15.94606000     11.21314600
H          16.77991200     15.60443300     10.29451200
O          14.06079200     15.48291100     11.26172800
H          13.16643900     15.75258100     10.73637200
O          14.99230400     17.56513000     10.10297500
H          14.02327300     18.10140400      9.97293200
O          11.70079600     15.10326100     13.04776600
H          12.60557700     14.95391500     12.72308400
H          11.25140900     15.57642000     12.30290800
O          11.30054100     15.72597900     15.68066100
H          10.83608200     14.99404600     16.07275700
H          11.39471600     15.49270800     14.71192800
          39
 G =       -0.560469 Gcorr = 0.238675 a.u. Nimag =   0 Frame:     7 Step:     7 Geom:     7
C          14.12386800     17.25206600     15.38068000
H          14.75945400     16.90650400     14.52989000
H          14.79372600     17.55382700     16.19638900
H          13.53375200     16.37738300     15.71261100
C          12.41435200     18.82605500     16.13599700
H          13.05476300     19.20241500     16.94747000
H          11.70343400     19.61952400     15.85368300
H          11.82075400     17.97578100     16.53677900
C          14.07584200     19.51936600     14.47090100
H          13.48457400     20.43394200     14.31819700
H          14.89428900     19.73798600     15.17260000
H          14.55402300     19.26576900     13.48953300
C          12.29769700     17.87319700     13.86631800
H          11.54556100     17.19176200     14.33206200
H          12.90348400     17.22627200     13.17586600
C          11.57355300     18.96108100     13.07007800
H          12.28932400     19.67771900     12.60979300
H          10.89265800     19.54783400     13.70906500
C          10.78831900     18.28643200     11.93852000
H          10.16082700     19.01872100     11.40101000
H          10.11171500     17.49881700     12.31186300
N          13.22635000     18.38238700     14.95335100
C          11.82433200     17.70026500     10.96577600
O          12.41691100     18.48002800     10.21726400
O          12.04606800     16.46303000     11.06584200
P          15.45863700     17.07958700     11.17882200
O          15.32792400     17.54595400     12.56803300
O          16.97630100     16.68214200     10.89362300
H          17.02607700     16.36772800      9.90975400
O          14.65185600     15.76521000     10.82175600
H          13.60554700     15.99764100     10.83292300
O          15.13583000     18.15032200     10.05837200
H          14.07878100     18.29693800     10.03073900
O          11.18807500     15.07690600     13.12180300
H          11.37984900     14.19240100     12.83631200
H          11.46760600     15.64556200     12.33278700
O          11.24833300     15.64978800     15.84341200
H          10.58286700     15.09587400     16.23829200
H          11.24270900     15.40581900     14.89185800
          39
 G =       -0.561661 Gcorr = 0.237424 a.u. Nimag =   0 Frame:     8 Step:     8 Geom:     8
C          14.12231700     17.20488600     15.37102700
H          14.74817700     16.86374300     14.51229100
H          14.79874900     17.49146500     16.18600000
H          13.52587000     16.32832600     15.69699100
C          12.43088800     18.78128000     16.15907400
H          13.08120800     19.15356100     16.96461400
H          11.71572200     19.57531400     15.88996900
H          11.84580100     17.92662100     16.56198800
C          14.08170400     19.48248300     14.48745400
H          13.49627300     20.40378900     14.35463400
H          14.90986000     19.68430700     15.18282200
H          14.54737800     19.23868600     13.49781600
C          12.28454900     17.85551900     13.88077900
H          11.51388600     17.19851000     14.35141800
H          12.87159100     17.18875300     13.19320400
C          11.58917400     18.95816400     13.07899300
H          12.32349200     19.65040300     12.61046100
H          10.92858000     19.56902800     13.71659000
C          10.77978000     18.29879400     11.95544600
H          10.16121800     19.04325400     11.42443200
H          10.09169000     17.52428300     12.33609700
N          13.22902800     18.34537300     14.96367200
C          11.79408100     17.69302400     10.97222400
O          12.38200400     18.45970900     10.20691400
O          12.00525900     16.45385600     11.07761100
P          15.42529600     17.06004900     11.15979200
O          15.30135400     17.52980700     12.54823900
O          16.94068500     16.65749800     10.86915100
H          16.98573400     16.34044700      9.88600200
O          14.61393900     15.74655000     10.80836900
H          13.56906100     15.97861000     10.83436600
O          15.10150200     18.12794900     10.03670200
H          14.04521600     18.27704600     10.01302300
O          11.00776500     15.13985900     13.11012800
H          10.90933100     14.25751600     12.77799400
H          11.39565800     15.65011100     12.32265100
O          11.52977900     15.54404400     15.80331900
H          11.04996000     14.86655400     16.26751300
H          11.36647100     15.36085400     14.85025000
          39
 G =       -0.561993 Gcorr = 0.237151 a.u. Nimag =   0 Frame:     9 Step:     9 Geom:     9
C          14.01776200     17.19142100     15.42104100
H          14.66453100     16.86667100     14.57152400
H          14.67497000     17.49635500     16.24512800
H          13.44025700     16.29984700     15.73994500
C          12.26999100     18.71896100     16.18200500
H          12.89581200     19.10573300     17.00006000
H          11.53911300     19.49481900     15.90228000
H          11.70053600     17.84806300     16.57230900
C          13.92976300     19.46885400     14.54030100
H          13.32150600     20.37375300     14.39757900
H          14.73930300     19.69286600     15.25068800
H          14.41980700     19.23929700     13.55898400
C          12.18994600     17.79447900     13.89956500
H          11.43685600     17.10557500     14.35292000
H          12.81086300     17.15562400     13.21491600
C          11.46676000     18.87868700     13.09724600
H          12.18213000     19.60277300     12.64786100
H          10.77362600     19.45826200     13.72952500
C          10.70120800     18.20125500     11.95404800
H          10.06597300     18.92799800     11.41807100
H          10.03435600     17.39964500     12.31527700
N          13.10057500     18.30783700     15.00017000
C          11.75371800     17.64063600     10.98389100
O          12.33166500     18.43468900     10.23944600
O          12.00187000     16.40764200     11.08065700
P          15.39783400     17.10479200     11.22711200
O          15.23906300     17.55280300     12.61925400
O          16.92808400     16.74747800     10.95584800
H          16.99717400     16.44442300      9.96967700
O          14.62786200     15.77537400     10.84498800
H          13.57606700     15.97994200     10.85516000
O          15.06320000     18.17955800     10.11347500
H          14.00390600     18.29858000     10.07223200
O          11.09706100     15.00650000     13.09975400
H          11.19440200     14.12149000     12.77168600
H          11.41312300     15.58087500     12.32607800
O          11.45793200     15.46205500     15.80670400
H          10.95211500     14.79183800     16.25370200
H          11.34930300     15.26258200     14.84891200
          39
 G =       -0.557553 Gcorr = 0.241475 a.u. Nimag =   0 Frame:    10 Step:    10 Geom:    10
C          14.09692800     17.24127200     15.38901300
H          14.75921700     16.92962400     14.54533000
H          14.74042700     17.53307100     16.22912100
H          13.51673200     16.34661400     15.68324200
C          12.35675000     18.77765100     16.15057300
H          12.98116100     19.16319700     16.97028000
H          11.62716000     19.55450400     15.87001200
H          11.78413300     17.90787500     16.54135400
C          14.02845900     19.52140700     14.51645400
H          13.42564500     20.42882500     14.36546200
H          14.83042200     19.74369900     15.23601000
H          14.52757900     19.28692700     13.54105800
C          12.27655500     17.86391500     13.86441500
H          11.49626600     17.20881400     14.31519100
H          12.88567900     17.19499900     13.19816300
C          11.59727200     18.95517900     13.03373200
H          12.34245800     19.62568000     12.55031900
H          10.94222600     19.59052900     13.65268400
C          10.78391500     18.27531000     11.92513500
H          10.17300200     19.01196200     11.37457800
H          10.08909700     17.51577600     12.32153400
N          13.18833300     18.36572300     14.96977400
C          11.79564900     17.63698100     10.95893400
O          12.37810500     18.37866400     10.16512000
O          12.00995800     16.40360600     11.10826300
P          15.42524200     17.05489200     11.20646100
O          15.28448400     17.57406200     12.57584100
O          16.94685600     16.65535100     10.94583600
H          17.00477900     16.30405500      9.97508200
O          14.62884400     15.72109400     10.90008200
H          13.58105000     15.94382000     10.89984900
O          15.10247100     18.07661500     10.04153700
H          14.04421400     18.21137900      9.99954200
O          11.13311300     15.08346400     13.20745200
H          11.19527700     14.18841600     12.89797400
H          11.43272200     15.62734600     12.40909100
O          11.28756600     15.50887800     15.99213900
H          10.70731200     14.86407100     16.38335500
H          11.24296700     15.33478900     15.03003400
          39
 G =       -0.561989 Gcorr = 0.237152 a.u. Nimag =   0 Frame:    11 Step:    11 Geom:    11
C          14.01695200     17.18540100     15.42089900
H          14.66211900     16.83910700     14.57871200
H          14.67376100     17.45520000     16.25743000
H          13.39619800     16.31747400     15.72346200
C          12.32623600     18.78269600     16.16765700
H          12.95586500     19.13664300     16.99756400
H          11.63379200     19.59132000     15.88292000
H          11.71384200     17.93474000     16.54320500
C          14.04179300     19.47065800     14.55648900
H          13.47561500     20.40199500     14.41062900
H          14.84878100     19.65478200     15.28105500
H          14.53690400     19.22627000     13.58133400
C          12.24046000     17.87842900     13.87733300
H          11.45186000     17.21925400     14.31419600
H          12.84350300     17.21844500     13.19677700
C          11.57668000     18.99866600     13.07317700
H          12.32918900     19.69453400     12.64017000
H          10.89959300     19.60283700     13.69975900
C          10.80004200     18.36322300     11.91346000
H          10.20486000     19.12061100     11.37391900
H          10.09392500     17.58855300     12.25849300
N          13.15584400     18.34386400     14.99515800
C          11.84184300     17.76458200     10.95455400
O          12.46485000     18.53811700     10.22500200
O          12.03463000     16.52128200     11.04535000
P          15.45497500     17.06835100     11.24640700
O          15.29468900     17.51225200     12.63969500
O          16.97213000     16.64668900     10.99510200
H          17.04360400     16.35053400     10.00699000
O          14.63354200     15.77699700     10.84169700
H          13.59138800     16.02744800     10.83882700
O          15.18431500     18.16502000     10.13671200
H          14.13203800     18.33100900     10.08155000
O          11.04096100     15.14497300     13.04052100
H          11.39599400     15.71200100     12.27883100
H          11.10195000     14.25989700     12.70398300
O          11.37855400     15.56700100     15.75711700
H          10.84663100     14.91209600     16.19647200
H          11.27012200     15.37708200     14.79741400
          39
 G =       -0.559000 Gcorr = 0.240094 a.u. Nimag =   0 Frame:    12 Step:    12 Geom:    12
C          14.14315400     17.39545600     15.33284400
H          14.80962300     17.10411500     14.48636300
H          14.77904400     17.74579000     16.15554700
H          13.62208500     16.47181800     15.65855000
C          12.31412500     18.82725900     16.08653700
H          12.91878600     19.27618400     16.88865400
H          11.52604400     19.54179200     15.79900100
H          11.81445700     17.92588600     16.50382000
C          13.91800900     19.65079300     14.42379500
H          13.25641700     20.51499000     14.26623000
H          14.71109000     19.93524900     15.13126100
H          14.42238200     19.43355500     13.44727700
C          12.26941700     17.87184200     13.81734600
H          11.52013300     17.19624400     14.29129200
H          12.90800300     17.21219900     13.16969900
C          11.53818900     18.90389800     12.95532900
H          12.24994400     19.59521200     12.45110400
H          10.85375100     19.52503500     13.55657100
C          10.75823000     18.15380600     11.86830600
H          10.10140100     18.84169800     11.30752000
H          10.11136000     17.36411900     12.28684400
N          13.15953400     18.45019200     14.90350300
C          11.79811400     17.55485400     10.90694800
O          12.32113700     18.30880200     10.08418800
O          12.09410200     16.34198900     11.08669300
P          15.45623600     17.22911400     11.14344700
O          15.28092200     17.76236200     12.50314900
O          17.00194000     16.93303800     10.88585000
H          17.08326600     16.56870600      9.92164800
O          14.75632900     15.83677800     10.86241500
H          13.69576000     15.98212400     10.87292000
O          15.06166900     18.20357300      9.96003100
H          13.99709200     18.26029500      9.91596200
O          11.21876800     15.04983400     13.19456000
H          11.54661300     15.57518400     12.39177400
H          11.14981100     14.16322100     12.86516600
O          11.76648400     15.44703900     15.91276800
H          11.44006000     14.67498600     16.36254000
H          11.58653700     15.28100300     14.96256900
          39
 G =       -0.558904 Gcorr = 0.240163 a.u. Nimag =   0 Frame:    13 Step:    13 Geom:    13
C          14.03038300     17.31700000     15.37788900
H          14.70944700     17.02897700     14.54030700
H          14.65468100     17.64005900     16.22032100
H          13.48564500     16.39712700     15.67445000
C          12.21371900     18.76999800     16.12060400
H          11.44477200     19.50391700     15.83005000
H          11.68931400     17.87108800     16.51200200
H          12.81033700     19.19382200     16.94211300
C          13.86589700     19.59167200     14.50511200
H          13.22397300     20.47103400     14.35005700
H          14.64962200     19.84843300     15.23327900
H          14.38568500     19.38210600     13.53503500
C          12.19622600     17.85510100     13.83451000
H          11.42128900     17.19088400     14.28276500
H          12.83323800     17.18972900     13.19130200
C          11.50799100     18.91574300     12.97185000
H          12.24621000     19.59738800     12.49319000
H          10.82480200     19.54399200     13.56701400
C          10.73517400     18.19899100     11.85749600
H          10.10408300     18.90899900     11.29484400
H          10.06416600     17.41628500     12.25057600
N          13.07554000     18.39751000     14.94790100
C          11.78224100     17.59400000     10.90800400
O          12.33579000     18.34972400     10.10706000
O          12.05201000     16.37303600     11.07441600
P          15.42710700     17.19714800     11.21630600
O          15.23182600     17.71271600     12.58014100
O          16.97261300     16.87719700     10.98717700
H          17.06809700     16.52505000     10.01977800
O          14.70877500     15.82251700     10.89801200
H          13.65066400     15.98718000     10.88858000
O          15.07609800     18.19727600     10.04048300
H          14.01411000     18.27517800      9.97538700
O          11.06299900     15.08933300     13.13560000
H          11.45434300     15.58879700     12.34372400
H          10.88677600     14.22495900     12.78947900
O          11.61119300     15.40068400     15.86766600
H          11.29113900     14.61232900     16.29294000
H          11.43204300     15.26306400     14.91259300
          39
 G =       -0.564604 Gcorr = 0.238867 a.u. Nimag =   0 Frame:    14 Step:    14 Geom:    14
C          13.75509600     17.75738800     15.65336500
H          14.36774100     17.14629500     14.94746500
H          14.44769200     18.25284400     16.34611500
H          13.12767200     17.03705400     16.21065300
C          12.20944300     19.63483900     15.88648100
H          11.61736900     20.41229300     15.37294700
H          11.51838300     19.04573600     16.51448700
H          12.92448800     20.14468500     16.55280800
C          13.81995400     19.58221000     14.03630800
H          13.25341000     20.23277700     13.34178000
H          14.50929300     20.19082700     14.63371300