          29
 Energy =    -1176.88623950 a.u.  Frame:     1 Step:     1 Geom:     1
C           8.76437400      9.87744800     10.41593200
C           9.98355900     10.04830400     11.15465400
C          10.26035000     11.26400900     11.78728900
C           9.32047800     12.27316000     11.67306400
C           8.12085200     12.09475000     10.95133000
C           7.82133300     10.90248400     10.31420400
H          11.18906000     11.39433900     12.34011100
H           9.50166900     13.23582400     12.15109300
H           7.41531200     12.92467400     10.89861300
H           6.89903000     10.76906400      9.75772500
H           8.13884500      8.17300300      9.28794500
C          10.02592100      8.01506800     10.31919500
H          10.33326700      7.01534900     10.03320800
N           8.80844000      8.57533400      9.90382900
N          10.72919700      8.86572800     11.07409200
P          13.00537800      8.81799200      8.48848500
O          11.58198200      8.68040500      8.15201400
O          13.34166300      9.27049400      9.97186500
H          12.52769100      9.02533900     10.59766800
O          13.76530600      7.43359300      8.28800700
H          14.76162500      7.58786100      8.50390100
O          13.89409300      9.80818800      7.62513000
H          13.36204000     10.70133300      7.48675700
O          12.39324300     12.16066600      7.01145500
H          12.34376600     12.20490300      6.05819200
H          11.48822300     11.91757700      7.28870900
O           9.91567000     11.13849500      7.75965200
H          10.32357300     10.26184600      7.84224900
H           9.72407400     11.40278600      8.66364400
          29
 Energy =    -1176.88666860 a.u.  Frame:     2 Step:     2 Geom:     2
C           9.42061800      9.48955400     11.16126300
C           9.12307000      9.74153500      9.77901000
C           8.58902900      8.72879900      8.97681700
C           8.36431300      7.49691500      9.56597700
C           8.65292300      7.25927400     10.92674800
C           9.18074000      8.24383200     11.74516500
H           8.36536300      8.92177400      7.92934000
H           7.94823200      6.68262300      8.97292500
H           8.45024400      6.26953400     11.33810300
H           9.39857400      8.05803200     12.79230800
H          10.31739300     10.81802200     12.57561500
C           9.97197600     11.59733600     10.59574700
H          10.36725500     12.60163700     10.69877000
N           9.94582400     10.68611500     11.66214400
N           9.47235400     11.06314600      9.47618400
P          12.68895300     11.29154000      8.27329800
O          12.52225900     10.93648000      9.68734800
O          11.38970800     11.17423200      7.36479600
H          10.53420200     11.32538600      7.95834400
O          13.18386700     12.79674200      8.12852700
H          13.34544500     12.98131000      7.12721300
O          13.76127500     10.49711600      7.41737100
H          13.54411400      9.47112000      7.48926300
O          13.09502400      7.72734100      7.68446800
H          12.25858600      7.57742000      7.24733400
H          12.88796500      7.67947700      8.63769000
O          12.24419700      7.99765500     10.34467800
H          12.43697100      8.94747500     10.30809100
H          11.28954100      7.94859000     10.42547400
          29
 Energy =    -1176.88102630 a.u.  Frame:     3 Step:     3 Geom:     3
C           9.12870900      9.72615200     11.32947000
C           9.31824500     10.05618000      9.94689300
C           9.20480200      9.06889500      8.96286100
C           8.89704600      7.78561800      9.37957600
C           8.69062500      7.47405000     10.74083900
C           8.80224600      8.43054500     11.73571600
H           9.37574700      9.31046000      7.91611300
H           8.83249700      6.98397700      8.64192000
H           8.44505800      6.44645600     11.00750800
H           8.65341700      8.18622100     12.78131600
H           9.35390500     11.00353000     13.02823400
C           9.68400400     11.89514600     11.09459200
H           9.93141700     12.90967200     11.37058200
N           9.35178900     10.91324900     12.03955600
N           9.64855100     11.41486500      9.84931100
P          12.90293400     10.75682000      8.89271600
O          12.33561000      9.64088800      9.65269600
O          11.88639500     11.67803200      8.09255200
H          10.97886000     11.74374100      8.62537300
O          13.72365100     11.73569100      9.84309500
H          14.17977300     12.44354300      9.24922500
O          13.96878100     10.41594000      7.76146200
H          13.52560800      9.74864000      7.08806100
O          12.64103200      8.52840400      6.02358300
H          11.92010400      8.99228800      5.59970500
H          12.20986400      7.96901900      6.69720400
O          11.40707000      7.20153100      8.17007500
H          12.00128100      6.54018300      8.52391800
H          11.53099500      7.97028100      8.75586200
          29
 Energy =    -1176.88212980 a.u.  Frame:     4 Step:     4 Geom:     4
C           8.21113900      9.81581400     11.44303400
C           9.48416000      9.78061200     10.78164300
C          10.42302300      8.79610800     11.11035300
C          10.06786700      7.87565300     12.07948700
C           8.81159700      7.91619200     12.72343400
C           7.86568000      8.88014800     12.42145900
H          11.39808800      8.76969900     10.61705300
H          10.77278400      7.09360500     12.36220100
H           8.58920300      7.16291500     13.48008800
H           6.90249800      8.91057200     12.91843100
H           6.60756700     11.19826700     11.14372800
C           8.37598400     11.48504300      9.94121200
H           8.09750900     12.35250200      9.35972100
N           7.52432600     10.90606000     10.89577800
N           9.53615800     10.83295700      9.86028400
P          13.08439700     10.87240300      8.45806100
O          13.16371500      9.50253300      8.98544900
O          11.65637900     11.38059200      8.02335200
H          10.99065300     11.20455900      8.83974100
O          13.55313400     12.01222600      9.47277200
H          14.52638100     11.80958500      9.73420200
O          13.98521000     11.16896800      7.18369200
H          13.84096200     10.39446500      6.49495000
O          13.76569600      8.90554200      5.39231100
H          14.62477900      8.49539300      5.32238500
H          13.24338400      8.28418000      5.93690900
O          12.41231200      7.29116800      7.23041600
H          11.47131700      7.46044200      7.17093500
H          12.71411100      7.89180900      7.93693100
          29
 Energy =    -1176.85550320 a.u.  Frame:     5 Step:     5 Geom:     5
C           8.77047700     10.11854500     10.34606500
C          10.19948000     10.15851000     10.47468400
C          10.82065700     11.17494300     11.22701600
C          10.00131600     12.10924100     11.83337600
C           8.58605700     12.05733000     11.71014100
C           7.94974500     11.07429300     10.97153800
H          11.91180900     11.21126100     11.29427900
H          10.44144000     12.91466800     12.42291900
H           7.99431600     12.82235900     12.21492000
H           6.86891800     11.03721900     10.87481200
H           7.57535000      8.72356000      9.21126900
C           9.72004600      8.42578800      9.17583500
H           9.81531100      7.55927500      8.51849200
N           8.48754200      9.00766300      9.52222400
N          10.75814700      9.08861000      9.73755600
P          12.89375000      8.81237900      8.89815500
O          12.07268300      8.25512200      7.77830800
O          13.07648100      8.08382400     10.36841200
H          12.34291600      8.12389100     11.02426000
O          14.47903300      8.54051700      8.50992200
H          15.12047100      8.52871300      9.26202300
O          12.93732300     10.40605200      9.17477400
H          12.34799600     11.04270100      8.54482400
O          11.18479400     11.78675800      7.82589200
H          10.50179800     11.83881800      8.49837400
H          10.82815800     11.12885800      7.13766600
O          10.36261100      9.74196200      6.41339500
H          10.97280100      9.05455400      6.85669200
H          10.64858700      9.76260000      5.50219600
          29
 Energy =    -1176.83857860 a.u.  Frame:     6 Step:     6 Geom:     6
C           8.75699100     10.37023300     10.64482100
C          10.18323200     10.49833800     10.55467600
C          10.82459900     11.66916000     11.00610800
C          10.02830800     12.66380300     11.54309700
C           8.61641500     12.52520000     11.63797400
C           7.95934700     11.39049300     11.19405300
H          11.90854000     11.76956900     10.90509300
H          10.48319900     13.58801400     11.90095000
H           8.04401400     13.34673500     12.07055800
H           6.88075400     11.28832100     11.25901000
H           7.52463200      8.71967700      9.99780000
C           9.66076200      8.51954900      9.69791000
H           9.73189000      7.53883900      9.22784800
N           8.44606100      9.10600800     10.09748400
N          10.71304000      9.32585000      9.96748600
P          12.76906500      8.91239100      9.04656500
O          11.90216100      8.16463700      8.08739600
O          13.07487300      8.47069300     10.60951800
H          12.41755200      8.67594400     11.31178600
O          14.33923700      8.60084400      8.61289400
H          15.01902300      8.69323000      9.32293100
O          12.79638600     10.53302400      8.97660600
H          12.04341400     10.99572500      8.36716100
O          11.15566000     11.36871500      7.13730700
H          11.76253200     11.75030500      6.50336100
H          10.86067800     10.48146700      6.71778600
O          10.76738300      8.97545400      6.12264400
H          11.68853000      8.62419400      6.14138200
H          10.37174100      8.52360300      6.89781200
          29
 Energy =    -1176.86772130 a.u.  Frame:     7 Step:     7 Geom:     7
C          10.52800700      9.23441200     11.75443600
C           9.77356100      9.37001500     10.53720700
C           9.12593700     10.58452100     10.23589200
C           9.24823700     11.61823800     11.14695300
C           9.99255700     11.47408800     12.34905600
C          10.63874000     10.29366800     12.67390500
H           8.56707700     10.68815300      9.30445300
H           8.76330600     12.57579600     10.95059100
H          10.05028400     12.32728900     13.02700000
H          11.20012200     10.18177900     13.59653800
H          11.64768900      7.52170300     12.43654600
C          10.62829300      7.33522800     10.52531000
H          10.91450800      6.33097300     10.23323300
N          11.06182200      7.93085600     11.73203200
N           9.85385500      8.16740000      9.80519100
P          11.52860000      9.45939700      7.39603100
O          11.05172400     10.82196600      7.74533700
O          10.45257000      8.28061800      7.05919500
H           9.80397600      8.01042900      7.79887000
O          12.34945700      9.39751000      5.97788100
H          12.34415500      8.52226600      5.50362500
O          12.51397900      8.83303300      8.50530400
H          12.92648700      9.53743500      9.24482400
O          13.16484300     10.63112800     10.24175800
H          12.50916500     10.49506600     10.93256200
H          12.85855200     11.50698300      9.78072600
O          11.81873600     12.57603000      9.19921500
H          10.95812100     12.10028500      9.25163900
H          12.00565800     12.55375100      8.23470100
          29
 Energy =    -1176.86899580 a.u.  Frame:     8 Step:     8 Geom:     8
C           9.43035000      9.80805200     11.24022900
C           9.93824800      8.54946000     10.75600800
C           9.06461300      7.62404800     10.15376700
C           7.73060700      7.97545700     10.04170000
C           7.24125000      9.22008800     10.51924500
C           8.07171600     10.14865700     11.12404600
H           9.44540900      6.66773700      9.80033800
H           7.02531500      7.28481700      9.57946900
H           6.17943100      9.43874900     10.40355300
H           7.69713900     11.09699500     11.49703700
H          10.54297600     11.42154400     12.14383500
C          11.66364600      9.64754300     11.58100800
H          12.66730400      9.95010700     11.86819100
N          10.54160900     10.48736200     11.77662900
N          11.32885200      8.48645200     10.98502700
P          11.97025600     11.29471400      8.41448700
O          12.65402000     10.86099600      9.65843100
O          10.60255800     10.43669200      8.08353400
H          10.03937100     10.10800000      8.82739800
O          11.45732500     12.84716000      8.44844300
H          11.31449500     13.28566400      7.56265900
O          12.72579400     11.17506500      7.01866500
H          13.14517400     10.16361900      6.74459300
O          13.39392400      8.73651300      6.73378000
H          12.52171100      8.32580600      6.71801300
H          13.77826000      8.50458500      7.66221700
O          13.85115400      8.44100200      9.26885600
H          13.12207500      7.96279100      9.70086500
H          13.79543100      9.36033800      9.62798700
