          47
 G =       -0.781411 Gcorr = 0.270955 a.u. Nimag =   0 Frame:     1 Step:     1 Geom:     1
C           8.17534500     10.46676900     11.16925500
C           9.07256300     10.40825200     12.23516100
C           9.83791500      9.26603400     12.44300400
C           9.70770000      8.18937900     11.55271300
C           8.82069200      8.29422100     10.48062000
H          10.54225600      9.21238600     13.28080500
H           7.55567100     11.36547200     10.99110400
H           9.18483800     11.28728700     12.87931400
H           8.75034400      7.49968400      9.72822400
C          10.52816200      6.96032400     11.69328300
H           9.92286100      6.05005800     11.77148000
H          11.20099600      6.83992000     10.81827600
H          11.19782600      6.99419900     12.56728700
N           8.04691900      9.40855600     10.31922000
C           7.07875700      9.49502000      9.19841200
H           6.21538700      8.83478000      9.44372300
H           6.67378300     10.54332200      9.14610400
C           7.65419000      9.11390700      7.82001900
H           8.24635500      8.17472900      7.88233100
H           6.79724400      8.86725600      7.15453100
C           8.48381700     10.21385200      7.16529000
H           7.88294700     11.13381700      7.02434000
H           8.79616500      9.90998500      6.14922400
S           9.94044200     10.61046600      8.14797500
O          10.93147700     11.29546900      7.32109400
O          10.36010000      9.30226200      8.72160600
O           9.36153400     11.50691400      9.21148500
P          13.06715000      9.93405200     11.01217000
O          11.95601800     10.56746900     11.73579800
O          14.06462200     10.85555400     10.20384100
H          13.53584500     11.62321700      9.70219300
O          14.05077800      9.21134100     12.04362500
H          14.84823200      8.84377400     11.50298000
O          12.69942700      8.73946900     10.04213300
H          11.80386800      8.96269300      9.51951000
O          12.71764000     12.87933100      8.87882500
H          12.04525800     13.16590500      9.51046900
H          12.20992700     12.42041300      8.17834500
O           6.99193000     12.91230100      9.49760300
H           7.19313600     13.32850300     10.34344800
H           7.85363400     12.54190800      9.23185000
O          10.58533400     13.09786500     10.95596100
H          11.09302800     12.41998300     11.42137300
H          10.12283600     12.56715100     10.25020900
O           8.15789000     13.52611700     12.07271900
H           8.13764800     14.41870400     12.40106500
H           9.06952400     13.40995300     11.71002800
          47
 G =       -0.779607 Gcorr = 0.272548 a.u. Nimag =   0 Frame:     2 Step:     2 Geom:     2
C           8.13937200     10.32131400     11.04087000
C           8.98721700     10.14246100     12.13271500
C           9.73435500      8.97513700     12.25247500
C           9.63968700      8.00266500     11.24598100
C           8.80244800      8.22992700     10.15221400
H          10.39682300      8.82357500     13.11209800
H           7.53201700     11.23536700     10.93611900
H           9.07940800     10.94928000     12.86703600
H           8.76271100      7.51952200      9.31752000
C          10.45211000      6.76100600     11.28659400
H           9.84504800      5.85077000     11.22402500
H          11.17138700      6.74158600     10.44050300
H          11.07338300      6.68891600     12.19317600
N           8.04321800      9.36229000     10.07609500
C           7.12899100      9.58727900      8.92885400
H           6.22907600      8.94902700      9.08195500
H           6.77105200     10.65731100      8.95270000
C           7.74613500      9.30156400      7.54569300
H           8.31292300      8.34523900      7.55147600
H           6.90867500      9.13313000      6.83251400
C           8.62599100     10.42751400      7.01082500
H           8.04584700     11.36614800      6.90456700
H           8.98521600     10.18858100      5.99324000
S          10.03217500     10.72808500      8.09435700
O          11.06006100     11.48887800      7.38821800
O          10.42858600      9.37280400      8.56584600
O           9.39253700     11.52143900      9.20549400
P          12.98762900      9.82611800     11.06560600
O          11.82589800     10.37917700     11.77571100
O          14.01572500     10.82661400     10.40334400
H          13.50552800     11.63333900      9.94547700
O          13.92072100      9.02366100     12.08499000
H          14.75348500      8.71339800     11.56186100
O          12.69548300      8.71914900      9.97345900
H          11.82988100      8.97913100      9.41891100
O          12.71882700     12.95186800      9.19299900
H          12.00584700     13.17178600      9.80680100
H          12.26162500     12.55313400      8.42451900
O           6.99817100     12.89554300      9.28820900
H           7.08849600     13.25048700     10.17950000
H           7.89025200     12.53745700      9.11923600
O          10.46573500     12.97036200     11.15353000
H          10.95064300     12.26287100     11.59693500
H          10.06514500     12.49430500     10.37467800
O           7.92025100     13.35790400     12.03078500
H           7.87113200     14.23450800     12.39705500
H           8.86309900     13.24839500     11.76325700
          47
 G =       -0.778956 Gcorr = 0.270584 a.u. Nimag =   0 Frame:     3 Step:     3 Geom:     3
C           8.05098400     10.26429400     11.01509800
C           8.80501200     10.01919500     12.16013200
C           9.55673300      8.85152300     12.26388200
C           9.57304700      7.95806500     11.18373100
C           8.81360900      8.24425000     10.04694700
H          10.13881300      8.64224700     13.16826600
H           7.45592200     11.18575800     10.90833000
H           8.82849300     10.77531900     12.95224100
H           8.84964600      7.59111900      9.16686000
C          10.43092700      6.74687900     11.19307900
H          10.91548600      6.57567500     12.16656100
H           9.88985500      5.83293800     10.92358900
H          11.26474700      6.86529600     10.46790600
N           8.03749600      9.36535100      9.98988900
C           7.17942600      9.63185900      8.80966300
H           6.29641900      8.95585200      8.87275400
H           6.77703700     10.68555200      8.87797500
C           7.88205300      9.45484700      7.45066200
H           8.49450400      8.52770400      7.43474500
H           7.09409300      9.29111300      6.68213900
C           8.73099100     10.65120400      7.03511500
H           8.10950000     11.56613900      6.95485200
H           9.15211100     10.49539500      6.02521100
S          10.07255400     10.95660800      8.20105500
O          11.16428700     11.62512300      7.48746800
O          10.43316200      9.59491600      8.70853000
O           9.39506500     11.77083200      9.25260600
P          12.78299900      9.98861100     11.37870200
O          11.53074300     10.36964300     12.03815300
O          13.76724300     11.16892300     11.01042600
H          13.73161200     11.37179700      9.97488400
O          13.64906200      9.10117400     12.38534200
H          14.56714800      8.93342800     11.95675600
O          12.68614700      9.06153300     10.09768200
H          11.77147300      9.23949900      9.58030900
O          13.79605400     11.71857100      8.28139600
H          14.03505100     10.89902900      7.85027200
H          12.86456000     11.86213700      7.98488400
O           6.83430700     12.83480400      9.27776600
H           6.78426200     13.12971000     10.19418100
H           7.78273600     12.63176800      9.16719400
O           9.89148000     12.89993900     11.68456900
H          10.50338000     12.23984300     12.02371100
H           9.79227100     12.62724200     10.74328500
O           7.24574300     13.23526500     12.14222600
H           7.14163500     14.11589700     12.48718600
H           8.22014100     13.11615500     12.05180600
          47
 G =       -0.781371 Gcorr = 0.270996 a.u. Nimag =   0 Frame:     4 Step:     4 Geom:     4
C           8.01539600     10.34095300     10.94700600
C           8.76964400     10.19414300     12.11071800
C           9.51661600      9.03987200     12.31879600
C           9.51585800      8.04268200     11.33164100
C           8.77208900      8.23622600     10.16697000
H          10.10797200      8.91634500     13.23307600
H           7.41169100     11.24999900     10.76667000
H           8.78737000     11.01567100     12.83528500
H           8.80916900      7.50846400      9.34766000
C          10.32814000      6.80823700     11.47269400
H           9.73064800      5.89297100     11.39328100
H          11.11040100      6.76583300     10.68578600
H          10.87829500      6.76826400     12.42619400
N           8.01054000      9.35839100     10.00173300
C           7.19215600      9.53773400      8.77729300
H           6.31266100      8.85800000      8.85409000
H           6.78457700     10.58633600      8.76131200
C           7.94312100      9.27509900      7.45693000
H           8.53497000      8.33550600      7.51628000
H           7.18106600      9.08302600      6.66925300
C           8.83480800     10.42812200      7.00681100
H           8.24454800     11.35490200      6.86584200
H           9.27859800     10.21058900      6.01786400
S          10.14811400     10.74532200      8.19802500
O          11.22598900     11.50295500      7.56631400
O          10.51080900      9.39473500      8.70861500
O           9.42444500     11.54483200      9.25032200
P          12.88937300      9.83908600     11.37844400
O          11.68559500     10.40472800     12.00338900
O          13.96821400     10.82945200     10.78474700
H          13.49698700     11.63497800     10.28522100
O          13.74360400      9.03559300     12.46390100
H          14.60882200      8.71777800     12.00112700
O          12.66559900      8.72925900     10.27337200
H          11.84310900      8.99425100      9.65820700
O          12.77337200     12.95397800      9.47149100
H          12.02113600     13.18274700     10.03277800
H          12.36687600     12.55568500      8.67459800
O           7.02223600     12.91810800      9.34650100
H           7.10713500     13.25745300     10.24469500
H           7.91547800     12.57289900      9.16361000
O          10.38937400     12.98496800     11.26720600
H          10.84478400     12.27276000     11.73539300
H          10.02947500     12.51407000     10.46571300
O           7.83432300     13.31183300     12.09394800
H           7.75810800     14.17585400     12.48470900
H           8.78672500     13.22934000     11.84451100
          47
 G =       -0.761578 Gcorr = 0.251537 a.u. Nimag =   0 Frame:     5 Step:     5 Geom:     5
C           8.06872000     10.39691800     10.98288500
C           8.84664900     10.24189400     12.13958800
C           9.58676500      9.08387200     12.33488700
C           9.51016000      8.04077000     11.38006500
C           8.70778300      8.21583300     10.24928800
H          10.25438500      8.99259900     13.19927200
H           7.53570900     11.35713500     10.77261100
H           8.90768500     11.07506000     12.84794300
H           8.66628400      7.45216500      9.46307200
C          10.31471300      6.80348900     11.53967100
H           9.88585700      5.92761200     11.04043200
H          11.32679100      6.96415700     11.09099600
H          10.49053900      6.53809300     12.59046100
N           8.00365300      9.39030100     10.05642700
C           7.20433900      9.59614500      8.80557800
H           6.31686900      8.92510700      8.84517800
H           6.80871400     10.65773100      8.80697700
C           7.99490400      9.35295700      7.50826700
H           8.63174800      8.44126700      7.59432600
H           7.25850200      9.12051700      6.70680800
C           8.84970600     10.53348000      7.05949300
H           8.24005500     11.46553200      7.02352000
H           9.17394600     10.39100600      6.00797800
S          10.23725900     10.73743900      8.13200400
O          11.26856500     11.58759400      7.51248600
O          10.69760500      9.36359500      8.48077900
O           9.68397800     11.43517000      9.35375800
P          12.86649200      9.91496100     11.14805100
O          11.73131800     10.60916400     11.83164500
O          13.74239600     10.79797100     10.17619700
H          13.33579500     11.85117600      9.81052900
O          13.91204000      9.23140800     12.21848900
H          14.74548000      8.85764500     11.82666700
O          12.44287000      8.58322500     10.30626700
H          11.87798200      8.74670000      9.42733200
O          12.74050400     12.94096000      9.30454300
H          11.93686400     13.08429500      9.91503500
H          12.33919900     12.58240500      8.44030500
O           7.29413300     12.61543500      9.20954200
H           7.06093800     13.31866800      9.83227700
H           8.28341200     12.54724200      9.27790300
O          10.82242600     12.78470800     11.14874700
H          11.29614800     12.48104900     11.95547000
H          10.50547600     11.90062500     10.74153000
O           8.22339600     13.45354000     11.39997500
H           8.18989900     14.25035900     11.91354800
H           9.20137000     13.27105400     11.25122100
          47
 G =       -0.761557 Gcorr = 0.251559 a.u. Nimag =   0 Frame:     6 Step:     6 Geom:     6
C           8.02623200     10.30896400     11.00155900
C           8.83738300     10.15649100     12.13549200
C           9.59760000      9.00704800     12.30247300
C           9.50809400      7.96918400     11.34310700
C           8.67290900      8.14121400     10.23583700
H          10.29006200      8.91903800     13.14745000
H           7.47558200     11.26352300     10.81235900
H           8.90682400     10.98564100     12.84777500
H           8.61984400      7.38222400      9.44574200
C          10.33216800      6.74126000     11.47233200
H          11.32898300      6.91701800     10.99597900
H          10.54117400      6.47216300     12.51607800
H           9.90016400      5.86291100     10.98017800
N           7.94886400      9.30765400     10.07023800
C           7.11314600      9.51136000      8.84304700
H           6.23489100      8.82980200      8.90293700
H           6.70554000     10.56825900      8.86178100
C           7.87044500      9.28498300      7.52306200
H           8.51956800      8.38004700      7.58581700
H           7.11498700      9.04904000      6.74059300
C           8.69925900     10.47789800      7.05859300
H           8.07845900     11.40321500      7.04547400
H           8.99570600     10.34578800      5.99755700
S          10.11349400     10.69110100      8.09367600
O          11.11751300     11.55695100      7.45121400
O          10.59886500      9.32056600      8.42089100
O           9.58671100     11.37503200      9.33471700
P          12.83435400      9.88360500     11.03128500
O          11.70963200     10.55818200     11.75087100
O          13.67186800     10.78464500     10.04239900
H          13.24151900     11.83482000      9.69492700
O          13.91700800      9.20564900     12.06777900
H          14.74204100      8.84124600     11.65026700
O          12.40504000      8.55243500     10.19132400
H          11.81364100      8.71442600      9.32973200
O          12.61863600     12.91931600      9.21192400
H          11.83007800     13.04795100      9.84495500
H          12.19868300     12.55985800      8.35670800
O           7.18072500     12.52845000      9.26278800
H           6.95566600     13.22525300      9.89558000
H           8.17224400     12.47142900      9.30521200
O          10.75487200     12.72652300     11.10800700
H          11.25464900     12.42471200     11.89953200
H          10.43814600     11.84068800     10.70450500
O           8.15685400     13.36291800     11.43408100
H           8.12689500     14.15605500     11.95338900
H           9.13299700     13.19348300     11.25879600
          47
 G =       -0.781371 Gcorr = 0.270996 a.u. Nimag =   0 Frame:     7 Step:     7 Geom:     7
C           8.04058700     10.24817300     10.85944900
C           8.77773500     10.19742400     12.04213500
C           9.61069400      9.11444900     12.30085100
C           9.71253400      8.09185100     11.34546600
C           8.98227000      8.19011400     10.16045600
H          10.18964000      9.06657100     13.23007200
H           7.36966000     11.09937100     10.63889400
H           8.71261100     11.03853700     12.74106400
H           9.09654900      7.44410900      9.36502200
C          10.61793400      6.93191700     11.54134700
H          11.41763000      6.92860200     10.77103900
H          11.14922000      6.96574100     12.50575800
H          10.09737700      5.96944000     11.48039200
N           8.13668700      9.24132700      9.94506600
C           7.33493600      9.31798700      8.69908800
H           6.51172900      8.57132800      8.77845800
H           6.84433300     10.32893300      8.64254400
C           8.13498100      9.07938800      7.40319000
H           8.79893400      8.19294500      7.50336500
H           7.40927500      8.80373300      6.60605400
C           8.94125100     10.28741000      6.93674500
H           8.28188900     11.15905500      6.75594700
H           9.42328100     10.07842400      5.96396500
S          10.19769700     10.74332000      8.14415400
O          11.22507900     11.56766300      7.51184000
O          10.65599000      9.44136900      8.70214500
O           9.38863500     11.51081200      9.15736500
P          12.93024400     10.15484900     11.40533900
O          11.67268900     10.64158000     11.98942400
O          13.93965300     11.20962600     10.80047700
H          13.41680700     11.96099300     10.26899100
O          13.82211600      9.45518500     12.53166700
H          14.71897200      9.19250900     12.09529900
O          12.81895200      8.99746600     10.33250100
H          11.99328400      9.17804000      9.69176000
O          12.60867500     13.19352200      9.40149900
H          11.82799800     13.37739600      9.93995600
H          12.25344800     12.74077900      8.60918700
O           6.88183800     12.68790100      9.15838000
H           6.91783700     13.05989900     10.04698000
H           7.80377200     12.41013100      9.00615700
O          10.18907000     13.08519600     11.14519300
H          10.68925900     12.42650100     11.64491400
H           9.88652700     12.56292800     10.35168900
O           7.59742600     13.22751000     11.90735700
H           7.44324600     14.09319800     12.27045200
H           8.55906900     13.21482400     11.68092400
          47
 G =       -0.779342 Gcorr = 0.273130 a.u. Nimag =   0 Frame:     8 Step:     8 Geom:     8
C           8.03108700     10.16548800     10.83896000
C           8.71586100     10.17371300     12.05332000
C           9.56794200      9.12462700     12.38193400
C           9.74353600      8.07912700     11.46305900
C           9.06460600      8.11961200     10.24419500
H          10.10421700      9.12109600     13.33759000
H           7.34454900     10.98463100     10.56664200
H           8.59599100     11.03407900     12.72048400
H           9.23756400      7.35413700      9.47815200
C          10.67637100      6.95627900     11.73221900
H          11.15888600      7.03200000     12.71954200
H          10.19224200      5.97500400     11.67134800
H          11.51214400      6.96252700     11.00100900
N           8.19820900      9.13632900      9.95979400
C           7.45200700      9.15750900      8.67717100
H           6.63223400      8.40652200      8.74936500
H           6.95766300     10.16228500      8.56058500
C           8.30940100      8.87887400      7.42666500
H           8.98542500      8.01177900      7.59216400
H           7.62271700      8.55432400      6.61349200
C           9.11140300     10.08224100      6.94070900
H           8.44232900     10.92690600      6.68214300
H           9.64872300      9.83788100      6.00609700
S          10.28895800     10.62853200      8.18886400
O          11.31650400     11.46899900      7.57901000
O          10.76495200      9.36582400      8.81795500
O           9.39954600     11.39916000      9.13049900
P          12.86645300     10.27142900     11.60064300
O          11.56064800     10.72391000     12.10072000
O          13.86206600     11.34583600     11.00812000
H          13.33671200     12.05668200     10.42520000
O          13.72553900      9.65157800     12.79707700
H          14.65467700      9.41345300     12.41804200
O          12.85846800      9.07217900     10.56879300
H          12.06002100      9.19396700      9.88112700
O          12.52649900     13.22324300      9.47502000
H          11.71144800     13.39187500      9.96576500
H          12.23288700     12.72766200      8.68318100
O           6.90520600     12.58272900      8.83057600
H           6.85044800     12.95074200      9.71923900
H           7.83133400     12.28320400      8.78793500
O          10.02581100     13.07560600     11.09479100
H          10.52154400     12.45822800     11.64802700
H           9.79000600     12.51114300     10.30757600
O           7.37510300     13.16807600     11.65567000
H           7.16982600     14.04352200     11.96639500
H           8.35025300     13.17547200     11.50315800
          47
 G =       -0.761686 Gcorr = 0.250444 a.u. Nimag =   0 Frame:     9 Step:    10 Geom:    10
C           7.72226700     10.13053200     10.95158800
C           8.37422700      9.98245700     12.17497300
C           9.34591200      8.99361000     12.34321700
C           9.62814000      8.11692000     11.27651600
C           8.95562900      8.28998100     10.05773200
H           9.90575500      8.92564300     13.28416500
H           6.99556300     10.95821200     10.78311800
H           8.15008700     10.68798400     12.98298900
H           9.20687300      7.67247900      9.18291800
C          10.66958700      7.06236200     11.39545800
H          10.32917700      6.07998800     11.04701600
H          11.56494900      7.33357400     10.79373200
H          11.03617100      6.94090900     12.42544900
N           8.01723500      9.28837300      9.90425800
C           7.32642400      9.49678400      8.59123000
H           6.53360800      8.72171100      8.49050500
H           6.79864900     10.50293000      8.62497400
C           8.25477400      9.46520500      7.36625600
H           8.97777300      8.61920000      7.43668800
H           7.62410500      9.23885100      6.47719100
C           9.00321500     10.76943700      7.11363900
H           8.28830700     11.62875300      7.13684900
H           9.39824500     10.78633700      6.07678000
S          10.29602600     11.00772600      8.28935700
O          11.49162800     11.59587800      7.65264000
O          10.62723500      9.61910300      8.80756800
O           9.73484400     11.85947100      9.36950800
P          12.57589100     10.40641600     11.57748900
O          11.26345900     10.56635600     12.25581100
O          13.21770400     11.72832700     10.93985800
H          13.55232900     11.70312100      9.87901600
O          13.71632000      9.81558600     12.60496000
H          14.65313800      9.83155200     12.28557700
O          12.65784900      9.32849700     10.36687700
H          11.81791700      9.28219600      9.68016100
O          13.74095600     11.90996500      8.44736800
H          13.32426200     11.11640100      8.02132400
H          13.06519900     12.61159200      8.25956100
O           7.07069900     12.39598200      9.06772300
H           6.59297900     12.91408400      9.73981800
H           8.02256400     12.49626900      9.32320000
O           9.86256000     12.95383500     11.72385000
H          10.21798300     12.11956000     12.12618800
H          10.18706700     12.91235500     10.79252700
O           7.28901000     12.90154500     11.49155200
H           7.06998700     13.61686500     12.07172000
H           8.32573600     12.84510800     11.51913200
          47
 G =       -0.779418 Gcorr = 0.267054 a.u. Nimag =   0 Frame:    10 Step:    11 Geom:    11
C           8.31137700     10.60604400     10.52278700
C           8.91902700     10.61103500     11.78373500
C           9.49727800      9.45450000     12.28441100
C           9.48920200      8.29033600     11.49447500
C           8.85964200      8.31429600     10.25453700
H           9.97439500      9.45092000     13.26997400
H           7.88477600     11.52570800     10.08013700
H           8.95461300     11.54419300     12.35462300
H           8.86746200      7.43859600      9.59800500
C          10.19957600      7.06277900     11.93290800
H          10.46925000      7.08542400     12.99880200
H           9.63131600      6.14416800     11.75045500
H          11.16269800      6.97087100     11.38493100
N           8.25240600      9.45359800      9.80014900
C           7.54707500      9.45437100      8.49531100
H           6.60551600      8.87090500      8.62069700
H           7.24280800     10.50579600      8.25357500
C           8.36983200      8.88450700      7.32119800
H           8.92597000      7.97297900      7.63410300
H           7.65786800      8.53358000      6.54361200
C           9.33449800      9.88748400      6.69480600
H           8.79642200     10.75203300      6.26823600
H           9.87597100      9.42721300      5.84889400
S          10.52531500     10.47783500      7.91609400
O          11.64154100     11.14491400      7.24469300
O          10.86549300      9.25062100      8.68719000
O           9.69427100     11.42497100      8.73067700
P          12.86185300     10.17395000     11.49052000
O          11.60721000     10.83057300     11.88319300
O          13.98573900     11.04821600     10.80062300
H          13.55537800     11.76499900     10.15773800
O          13.62134800      9.62536100     12.78536600
H          14.51915200      9.22823900     12.47034500
O          12.73647900      8.86104800     10.62043500
H          12.01931400      9.01440700      9.84567800
O          12.89335200     12.94195100      9.06912900
H          12.60186000     12.40905700      8.30016000
H          12.07252700     13.22298500      9.48956700
O           6.05211900     11.40601400     11.66329300
H           6.59875500     12.21036500     11.65859800
H           5.41005600     11.54500600     12.35203300
O          10.27894100     13.20064400     10.59934100
H          10.74529500     12.58522000     11.18092300
H          10.03899300     12.61987100      9.82207000
O           7.81039500     13.63016300     11.56094100
H           7.59533000     14.52402600     11.32540600
H           8.74032900     13.49825300     11.23565000
          47
 G =       -0.779971 Gcorr = 0.268519 a.u. Nimag =   0 Frame:    11 Step:    12 Geom:    12
C           8.00682000     10.26107200     10.87795400
C           8.74774500     10.12911700     12.05250100
C           9.51976500      8.99318800     12.26654800
C           9.55140000      7.99604700     11.28003600
C           8.80939500      8.17083700     10.11044200
H          10.11870900      8.88877900     13.17715600
H           7.39611400     11.15931800     10.68661000
H           8.74562200     10.95583500     12.77298500
H           8.86566700      7.44140800      9.29432400
C          10.41019800      6.79287800     11.42314100
H          11.13855000      6.73423800     10.58972000
H          11.02670600      6.82672100     12.33651700
H           9.83716500      5.85868200     11.43662600
N           8.03285500      9.28031000      9.93291900
C           7.24627200      9.44737700      8.68680300
H           6.38369100      8.74459100      8.72912900
H           6.80669200     10.48771300      8.66314600
C           8.05478400      9.21630800      7.39545300
H           8.68972300      8.30781700      7.47952800
H           7.33111800      8.98686600      6.58174800
C           8.90449100     10.40942200      6.97263700
H           8.26933200     11.30181600      6.79773700
H           9.39735700     10.20874000      6.00329300
S          10.15632800     10.82120900      8.20343100
O          11.24943500     11.52457600      7.53004500
O          10.52153300      9.51317700      8.82266600
O           9.37825500     11.65830200      9.17252700
P          12.88272700     10.25285600     11.54292400
O          12.33927700     11.54087500     11.96921100
O          13.95695200     10.21257000     10.38022700
H          13.85234000     11.04966000      9.74727200
O          13.64980000      9.54617700     12.75353800
H          14.12480200      8.71409600     12.37885900
O          11.82668500      9.13287800     11.16817100
H          11.43867500      9.28712500     10.19237900
O          13.65257800     12.32640000      8.61840200
H          13.31980700     13.08841900      9.09279700
H          12.87373900     12.02101400      8.09543200
O           6.81031800     12.64640700      8.89291200
H           6.67000900     13.01429600      9.77168300
H           7.76997200     12.46326600      8.88363700
O           9.70118600     12.96996300     11.52804100
H          10.52432100     12.61715800     11.86728600
H           9.63876400     12.57240400     10.63043400
O           6.95699600     13.29640800     11.73669700
H           6.79571900     14.19836400     11.99869700
H           7.92963100     13.20334600     11.75579800
          47
 G =       -0.776991 Gcorr = 0.268041 a.u. Nimag =   0 Frame:    12 Step:    13 Geom:    13
C           8.39955100     10.61068400     10.67435100
C           9.00265300     10.45042200     11.92450800
C           9.55631200      9.22679200     12.27573700
C           9.51561200      8.17003100     11.35159200
C           8.85171100      8.34950400     10.13952200