 Entering Gaussian System, Link 0=g16
 Initial command:
 /data0/home/wuhanyu/software/g16/l1.exe "/data0/home/wuhanyu/software/g16/scratch/Gau-1576282.inp" -scrdir="/data0/home/wuhanyu/software/g16/scratch/"
 Default is to use a total of  22 processors:
                               22 via shared-memory
                                1 via Linda
 Entering Link 1 = /data0/home/wuhanyu/software/g16/l1.exe PID=   1576283.
  
 Copyright (c) 1988,1990,1992,1993,1995,1998,2003,2009,2016,
            Gaussian, Inc.  All Rights Reserved.
  
 This is part of the Gaussian(R) 16 program.  It is based on
 the Gaussian(R) 09 system (copyright 2009, Gaussian, Inc.),
 the Gaussian(R) 03 system (copyright 2003, Gaussian, Inc.),
 the Gaussian(R) 98 system (copyright 1998, Gaussian, Inc.),
 the Gaussian(R) 94 system (copyright 1995, Gaussian, Inc.),
 the Gaussian 92(TM) system (copyright 1992, Gaussian, Inc.),
 the Gaussian 90(TM) system (copyright 1990, Gaussian, Inc.),
 the Gaussian 88(TM) system (copyright 1988, Gaussian, Inc.),
 the Gaussian 86(TM) system (copyright 1986, Carnegie Mellon
 University), and the Gaussian 82(TM) system (copyright 1983,
 Carnegie Mellon University). Gaussian is a federally registered
 trademark of Gaussian, Inc.
  
 This software contains proprietary and confidential information,
 including trade secrets, belonging to Gaussian, Inc.
  
 This software is provided under written license and may be
 used, copied, transmitted, or stored only in accord with that
 written license.
  
 The following legend is applicable only to US Government
 contracts under FAR:
  
                    RESTRICTED RIGHTS LEGEND
  
 Use, reproduction and disclosure by the US Government is
 subject to restrictions as set forth in subparagraphs (a)
 and (c) of the Commercial Computer Software - Restricted
 Rights clause in FAR 52.227-19.
  
 Gaussian, Inc.
 340 Quinnipiac St., Bldg. 40, Wallingford CT 06492
  
  
 ---------------------------------------------------------------
 Warning -- This program may not be used in any manner that
 competes with the business of Gaussian, Inc. or will provide
 assistance to any competitor of Gaussian, Inc.  The licensee
 of this program is prohibited from giving any competitor of
 Gaussian, Inc. access to this program.  By using this program,
 the user acknowledges that Gaussian, Inc. is engaged in the
 business of creating and licensing software in the field of
 computational chemistry and represents and warrants to the
 licensee that it is not a competitor of Gaussian, Inc. and that
 it will not use this program in any manner prohibited above.
 ---------------------------------------------------------------
  

 Cite this work as:
 Gaussian 16, Revision A.03,
 M. J. Frisch, G. W. Trucks, H. B. Schlegel, G. E. Scuseria, 
 M. A. Robb, J. R. Cheeseman, G. Scalmani, V. Barone, 
 G. A. Petersson, H. Nakatsuji, X. Li, M. Caricato, A. V. Marenich, 
 J. Bloino, B. G. Janesko, R. Gomperts, B. Mennucci, H. P. Hratchian, 
 J. V. Ortiz, A. F. Izmaylov, J. L. Sonnenberg, D. Williams-Young, 
 F. Ding, F. Lipparini, F. Egidi, J. Goings, B. Peng, A. Petrone, 
 T. Henderson, D. Ranasinghe, V. G. Zakrzewski, J. Gao, N. Rega, 
 G. Zheng, W. Liang, M. Hada, M. Ehara, K. Toyota, R. Fukuda, 
 J. Hasegawa, M. Ishida, T. Nakajima, Y. Honda, O. Kitao, H. Nakai, 
 T. Vreven, K. Throssell, J. A. Montgomery, Jr., J. E. Peralta, 
 F. Ogliaro, M. J. Bearpark, J. J. Heyd, E. N. Brothers, K. N. Kudin, 
 V. N. Staroverov, T. A. Keith, R. Kobayashi, J. Normand, 
 K. Raghavachari, A. P. Rendell, J. C. Burant, S. S. Iyengar, 
 J. Tomasi, M. Cossi, J. M. Millam, M. Klene, C. Adamo, R. Cammi, 
 J. W. Ochterski, R. L. Martin, K. Morokuma, O. Farkas, 
 J. B. Foresman, and D. J. Fox, Gaussian, Inc., Wallingford CT, 2016.
 
 ******************************************
 Gaussian 16:  ES64L-G16RevA.03 25-Dec-2016
                19-May-2022 
 ******************************************
 %nproc=22
 Will use up to   22 processors via shared memory.
 %mem=100GB
 ---------------------------------------------------
 #p M062X/6-311+G(2d,p) nosymm em=GD3 counterpoise=5
 ---------------------------------------------------
 1/38=1,62=5,172=1/1;
 2/12=2,15=1,17=6,18=5,40=1/2;
 1/38=1,53=2,62=5,63=1/22;
 3/5=4,6=6,7=112,11=2,25=1,30=1,74=-55,124=31/1,2,3;
 4//1;
 5/5=2,38=5/2;
 6/7=2,8=2,9=2,10=2,28=1/1;
 1/53=2,62=5,63=1/22;
 3/5=7,6=11,7=112,11=2,25=1,30=1,74=-55,82=7,124=31/1,2,3;
 4//1;
 5/5=2,38=5/2;
 6/7=2,8=2,9=2,10=2,28=1/1;
 1/53=2,62=5,63=1/22(-4);
 99/5=1,9=1/99;
 Leave Link    1 at Thu May 19 13:13:37 2022, MaxMem= 13421772800 cpu:               0.7 elap:               0.0
 (Enter /data0/home/wuhanyu/software/g16/l101.exe)
 -------------------
 Title Card Required
 -------------------
 Symbolic Z-matrix:
 Charge =  0 Multiplicity = 1 in supermolecule
 Charge =  0 Multiplicity = 1 in fragment      1.
 Charge =  0 Multiplicity = 1 in fragment      2.
 Charge =  0 Multiplicity = 1 in fragment      3.
 Charge =  0 Multiplicity = 1 in fragment      4.
 Charge =  0 Multiplicity = 1 in fragment      5.
 C                     9.5491    11.94159   11.40796    
 C                     9.94576   10.571    11.5716    
 C                     11.25804   10.26036   11.94457    
 C                     12.13146   11.31325   12.14935    
 C                     11.73071   12.65918   11.98991    
 C                     10.44275   12.99571   11.61505    
 H                     11.56274   9.22187   12.05753    
 H                     13.16078   11.1103   12.44315    
 H                     12.46331   13.44571   12.16968    
 H                     10.12339   14.0271   11.47978    
 H                     7.66446   12.73158   10.76456    
 C                     7.83993   10.56747   10.9412    
 H                     6.85648   10.24462   10.62578    
 N                     8.20657   11.91168   11.02454    
 N                     8.85118   9.7521    11.27836    
 P                     9.41381   8.81613   8.09069    
 O                     8.60825   10.04555   8.06453    
 O                     9.10924   7.77639   9.24323    
 H                     9.07446   8.30175   10.16682    
 O                     9.16513   7.9479    6.78004    
 H                     9.73589   7.08973   6.86635    
 O                     10.99585   8.96347   8.12533    
 H                     11.27348   9.94604   8.31308    
 O                     11.80004   11.64312   8.70156    
 H                     11.77757   11.74232   9.65857    
 H                     11.05076   12.16127   8.37783    
 O                     9.37141   12.77951   7.69817    
 H                     9.41235   12.89963   6.74985    
 H                     9.05899   11.85917   7.81793    
 O                     8.03245   14.18575   9.75806    
 H                     8.53969   13.7788   9.03609    
 H                     7.47397   14.83997   9.34887    
 
 ITRead=  0  0  0  0  0  0  0  0  0  0  0  0  0  0  0  0  0  0  0  0
 ITRead=  0  0  0  0  0  0  0  0  0  0  0  0
 MicOpt= -1 -1 -1 -1 -1 -1 -1 -1 -1 -1 -1 -1 -1 -1 -1 -1 -1 -1 -1 -1
 MicOpt= -1 -1 -1 -1 -1 -1 -1 -1 -1 -1 -1 -1
 NAtoms=     32 NQM=       32 NQMF=       0 NMMI=      0 NMMIF=      0
                NMic=       0 NMicF=      0.
                    Isotopes and Nuclear Properties:
 (Nuclear quadrupole moments (NQMom) in fm**2, nuclear magnetic moments (NMagM)
  in nuclear magnetons)

  Atom         1           2           3           4           5           6           7           8           9          10
 IAtWgt=          12          12          12          12          12          12           1           1           1           1
 AtmWgt=  12.0000000  12.0000000  12.0000000  12.0000000  12.0000000  12.0000000   1.0078250   1.0078250   1.0078250   1.0078250
 NucSpn=           0           0           0           0           0           0           1           1           1           1
 AtZEff=  -0.0000000  -0.0000000  -0.0000000  -0.0000000  -0.0000000  -0.0000000  -0.0000000  -0.0000000  -0.0000000  -0.0000000
 NQMom=    0.0000000   0.0000000   0.0000000   0.0000000   0.0000000   0.0000000   0.0000000   0.0000000   0.0000000   0.0000000
 NMagM=    0.0000000   0.0000000   0.0000000   0.0000000   0.0000000   0.0000000   2.7928460   2.7928460   2.7928460   2.7928460
 AtZNuc=   6.0000000   6.0000000   6.0000000   6.0000000   6.0000000   6.0000000   1.0000000   1.0000000   1.0000000   1.0000000

  Atom        11          12          13          14          15          16          17          18          19          20
 IAtWgt=           1          12           1          14          14          31          16          16           1          16
 AtmWgt=   1.0078250  12.0000000   1.0078250  14.0030740  14.0030740  30.9737634  15.9949146  15.9949146   1.0078250  15.9949146
 NucSpn=           1           0           1           2           2           1           0           0           1           0
 AtZEff=  -0.0000000  -0.0000000  -0.0000000  -0.0000000  -0.0000000  -0.0000000  -0.0000000  -0.0000000  -0.0000000  -0.0000000
 NQMom=    0.0000000   0.0000000   0.0000000   2.0440000   2.0440000   0.0000000   0.0000000   0.0000000   0.0000000   0.0000000
 NMagM=    2.7928460   0.0000000   2.7928460   0.4037610   0.4037610   1.1316000   0.0000000   0.0000000   2.7928460   0.0000000
 AtZNuc=   1.0000000   6.0000000   1.0000000   7.0000000   7.0000000  15.0000000   8.0000000   8.0000000   1.0000000   8.0000000

  Atom        21          22          23          24          25          26          27          28          29          30
 IAtWgt=           1          16           1          16           1           1          16           1           1          16
 AtmWgt=   1.0078250  15.9949146   1.0078250  15.9949146   1.0078250   1.0078250  15.9949146   1.0078250   1.0078250  15.9949146
 NucSpn=           1           0           1           0           1           1           0           1           1           0
 AtZEff=  -0.0000000  -0.0000000  -0.0000000  -0.0000000  -0.0000000  -0.0000000  -0.0000000  -0.0000000  -0.0000000  -0.0000000
 NQMom=    0.0000000   0.0000000   0.0000000   0.0000000   0.0000000   0.0000000   0.0000000   0.0000000   0.0000000   0.0000000
 NMagM=    2.7928460   0.0000000   2.7928460   0.0000000   2.7928460   2.7928460   0.0000000   2.7928460   2.7928460   0.0000000
 AtZNuc=   1.0000000   8.0000000   1.0000000   8.0000000   1.0000000   1.0000000   8.0000000   1.0000000   1.0000000   8.0000000

  Atom        31          32
 IAtWgt=           1           1
 AtmWgt=   1.0078250   1.0078250
 NucSpn=           1           1
 AtZEff=  -0.0000000  -0.0000000
 NQMom=    0.0000000   0.0000000
 NMagM=    2.7928460   2.7928460
 AtZNuc=   1.0000000   1.0000000
 Leave Link  101 at Thu May 19 13:13:37 2022, MaxMem= 13421772800 cpu:               2.0 elap:               0.1
 (Enter /data0/home/wuhanyu/software/g16/l202.exe)
                          Input orientation:                          
 ---------------------------------------------------------------------
 Center     Atomic      Atomic             Coordinates (Angstroms)
 Number     Number       Type             X           Y           Z
 ---------------------------------------------------------------------
      1          6           0        9.549098   11.941592   11.407958
      2          6           0        9.945762   10.570998   11.571605
      3          6           0       11.258038   10.260358   11.944571
      4          6           0       12.131459   11.313252   12.149349
      5          6           0       11.730713   12.659179   11.989909
      6          6           0       10.442750   12.995708   11.615049
      7          1           0       11.562743    9.221868   12.057530
      8          1           0       13.160784   11.110297   12.443149
      9          1           0       12.463315   13.445708   12.169676
     10          1           0       10.123394   14.027101   11.479776
     11          1           0        7.664455   12.731579   10.764559
     12          6           0        7.839934   10.567471   10.941198
     13          1           0        6.856480   10.244616   10.625775
     14          7           0        8.206568   11.911678   11.024535
     15          7           0        8.851178    9.752102   11.278363
     16         15           0        9.413813    8.816127    8.090691
     17          8           0        8.608246   10.045547    8.064532
     18          8           0        9.109237    7.776393    9.243230
     19          1           0        9.074463    8.301755   10.166820
     20          8           0        9.165128    7.947900    6.780038
     21          1           0        9.735893    7.089734    6.866354
     22          8           0       10.995854    8.963474    8.125328
     23          1           0       11.273483    9.946037    8.313078
     24          8           0       11.800036   11.643124    8.701560
     25          1           0       11.777571   11.742316    9.658569
     26          1           0       11.050758   12.161268    8.377826
     27          8           0        9.371413   12.779511    7.698174
     28          1           0        9.412348   12.899635    6.749854
     29          1           0        9.058995   11.859174    7.817931
     30          8           0        8.032453   14.185749    9.758060
     31          1           0        8.539685   13.778797    9.036095
     32          1           0        7.473968   14.839972    9.348873
 ---------------------------------------------------------------------
                    Distance matrix (angstroms):
                    1          2          3          4          5
     1  C    0.000000
     2  C    1.436193   0.000000
     3  C    2.456619   1.399167   0.000000
     4  C    2.759177   2.379496   1.383251   0.000000
     5  C    2.369186   2.778764   2.445367   1.413343   0.000000
     6  C    1.397377   2.475501   2.873224   2.442923   1.382975
     7  H    3.445810   2.161227   1.088148   2.169275   3.442077
     8  H    3.847980   3.374433   2.142760   1.089504   2.156285
     9  H    3.366785   3.867780   3.413183   2.158219   1.089793
    10  H    2.164329   3.461883   3.961288   3.441748   2.171387
    11  H    2.142410   3.244040   4.518097   4.887067   4.247491
    12  C    2.242167   2.198167   3.575543   4.520288   4.540176
    13  H    3.277458   3.247273   4.594908   5.593627   5.607952
    14  N    1.396530   2.263074   3.589539   4.126511   3.729652
    15  N    2.301685   1.398104   2.548555   3.735780   4.153206
    16  P    4.559725   3.934375   4.509918   5.485794   5.944828
    17  O    3.957106   3.790067   4.703429   5.541285   5.655922
    18  O    4.714701   3.732415   4.252608   5.485319   6.185304
    19  H    3.874805   2.807498   3.429945   4.727024   5.419083
    20  O    6.124921   5.518075   6.033252   6.996729   7.478043
    21  H    6.648427   5.856845   6.177222   7.175436   7.826164
    22  O    4.662397   3.945079   4.041938   4.796228   5.397522
    23  H    4.066205   3.573712   3.645103   4.162016   4.592307
    24  O    3.532760   3.581193   3.566921   3.479354   3.442443
    25  H    2.840099   2.896069   2.773431   2.552120   2.505590
    26  H    3.388944   3.734997   4.046986   4.013905   3.709097
    27  O    3.807385   4.495651   5.285582   5.438817   4.898956
    28  H    4.757571   5.381112   6.112073   6.250178   5.735051
    29  H    3.624264   4.066426   4.941777   5.338469   5.018315
    30  O    3.171532   4.473938   5.531177   5.547193   4.581342
    31  H    3.165434   4.323868   5.313011   5.354634   4.490125
    32  H    4.116625   5.410586   6.483032   6.478630   5.463589
                    6          7          8          9         10
     6  C    0.000000
     7  H    3.961318   0.000000
     8  H    3.410020   2.503717   0.000000
     9  H    2.143080   4.320235   2.452630   0.000000
    10  H    1.088145   5.049336   4.319904   2.507830   0.000000
    11  H    2.917537   5.402453   5.971252   5.051078   2.869894
    12  C    3.622853   4.112925   5.555354   5.582926   4.180107
    13  H    4.626932   5.024425   6.617892   6.638314   5.070428
    14  N    2.554278   4.423355   5.215260   4.667386   2.890758
    15  N    3.628697   2.870685   4.666275   5.242585   4.464831
    16  P    5.563156   4.529717   6.184408   6.882630   6.256489
    17  O    4.967396   5.035031   6.405590   6.578363   5.460068
    18  O    5.886003   4.003670   6.145684   7.207986   6.715802
    19  H    5.099291   3.257749   5.455969   6.477345   5.966883
    20  O    7.105633   5.934937   7.618192   8.375687   7.743545
    21  H    7.611194   5.901837   7.680849   8.715645   8.340317
    22  O    5.361249   3.981249   5.285769   6.212939   6.136271
    23  H    4.570954   3.824789   4.687739   5.341980   5.292047
    24  O    3.487137   4.145036   4.016843   3.964477   4.026532
    25  H    2.679655   3.486233   3.172792   3.110860   3.357579
    26  H    3.397878   4.737343   4.699319   4.245377   3.736767
    27  O    4.066499   6.038438   6.297650   5.477044   4.052465
    28  H    4.974041   6.805997   7.047419   6.243482   4.914156
    29  H    4.198165   5.585547   6.227209   5.748406   4.386566
    30  O    3.267130   6.510808   6.554989   5.098636   2.713210
    31  H    3.299377   6.247684   6.331150   5.032410   2.922562
    32  H    4.165397   7.457747   7.471606   5.898685   3.495850
                   11         12         13         14         15
    11  H    0.000000
    12  C    2.178384   0.000000
    13  H    2.618601   1.082085   0.000000
    14  N    1.016716   1.395800   2.181936   0.000000
    15  N    3.248013   1.342059   2.155751   2.267977   0.000000
    16  P    5.053770   3.697255   3.873911   4.432529   3.369549
    17  O    3.923730   3.022898   3.109386   3.522131   3.236331
    18  O    5.381051   3.504903   3.616417   4.592215   2.848120
    19  H    4.687084   2.693918   2.984091   3.810572   1.840894
    20  O    6.404062   5.092499   5.039291   5.886096   4.856813
    21  H    7.163608   5.682752   5.690127   6.548316   5.228456
    22  O    5.679998   4.523468   5.002797   4.987727   3.893995
    23  H    5.176300   4.368347   4.994760   4.541113   3.833808
    24  O    4.748024   4.674978   5.486089   4.287347   4.348752
    25  H    4.372594   4.304693   5.234093   3.827089   3.892102
    26  H    4.181961   4.406865   5.130185   3.893171   4.365243
    27  O    3.509803   4.213758   4.617513   3.629694   4.717372
    28  H    4.381921   5.047657   5.348304   4.550040   5.543399
    29  H    3.374678   3.592966   3.916868   3.318388   4.056788
    30  O    1.806398   3.811668   4.203376   2.608769   4.758031
    31  H    2.202335   3.798906   4.225009   2.747907   4.619423
    32  H    2.546718   4.574243   4.809269   3.452456   5.613026
                   16         17         18         19         20
    16  P    0.000000
    17  O    1.470067   0.000000
    18  O    1.581822   2.605644   0.000000
    19  H    2.165652   2.770881   1.063124   0.000000
    20  O    1.591689   2.521937   2.469788   3.406424   0.000000
    21  H    2.140834   3.382905   2.552203   3.577647   1.034249
    22  O    1.589265   2.622070   2.493630   2.880504   2.488524
    23  H    2.187356   2.678650   3.202577   3.312961   3.284498
    24  O    3.749551   3.625683   4.741879   4.554172   4.928455
    25  H    4.075313   3.932506   4.798026   4.404835   5.432163
    26  H    3.735238   3.246582   4.872941   4.690638   4.884772
    27  O    3.982999   2.862027   5.242816   5.121786   4.922397
    28  H    4.298009   3.243575   5.705822   5.738495   4.957994
    29  H    3.075781   1.885001   4.324708   4.262951   4.048030
    30  O    5.789742   4.510083   6.519537   5.989512   7.004451
    31  H    5.126986   3.858211   6.032922   5.618053   6.283338
    32  H    6.452343   5.091427   7.251166   6.780775   7.547158
                   21         22         23         24         25
    21  H    0.000000
    22  O    2.585231   0.000000
    23  H    3.551853   1.038151   0.000000
    24  O    5.325601   2.856445   1.818868   0.000000
    25  H    5.797537   3.268619   2.300232   0.962398   0.000000
    26  H    5.452878   3.208217   2.227341   0.966796   1.531039
    27  O    5.761799   4.169341   3.467644   2.862930   3.272387
    28  H    5.820069   4.460133   3.825080   3.330020   3.923556
    29  H    4.910321   3.497284   2.968033   2.888041   3.285157
    30  O    7.849656   6.222517   5.528780   4.666456   4.472826
    31  H    7.133180   5.481751   4.763030   3.911892   3.875388
    32  H    8.446620   6.959452   6.281702   5.417907   5.311533
                   26         27         28         29         30
    26  H    0.000000
    27  O    1.914249   0.000000
    28  H    2.424843   0.956774   0.000000
    29  H    2.090900   0.979269   1.532386   0.000000
    30  O    3.887639   2.830804   3.550705   3.198568   0.000000
    31  H    3.058628   1.865577   2.600262   2.332072   0.971662
    32  H    4.572944   3.251247   3.778508   3.706919   0.952548
                   31         32
    31  H    0.000000
    32  H    1.536123   0.000000
 Symmetry turned off by external request.
 Stoichiometry    C7H15N2O7P
 Framework group  C1[X(C7H15N2O7P)]
 Deg. of freedom    90
 Full point group                 C1      NOp   1
 Rotational constants (GHZ):           0.5245607           0.3034366           0.2721082
 Leave Link  202 at Thu May 19 13:13:37 2022, MaxMem= 13421772800 cpu:               0.1 elap:               0.0
 (Enter /data0/home/wuhanyu/software/g16/l122.exe)
 Counterpoise: doing full-system calculation.
 Leave Link  122 at Thu May 19 13:13:37 2022, MaxMem= 13421772800 cpu:               0.0 elap:               0.0
 (Enter /data0/home/wuhanyu/software/g16/l301.exe)
 Standard basis: 6-311+G(2d,p) (5D, 7F)
 Ernie: Thresh=  0.10000D-02 Tol=  0.10000D-05 Strict=F.
   557 basis functions,   848 primitive gaussians,   591 cartesian basis functions
    71 alpha electrons       71 beta electrons
       nuclear repulsion energy      1539.0513448330 Hartrees.
 IExCor= 4336 DFT=T Ex+Corr=M062X ExCW=0 ScaHFX=  0.540000
 ScaDFX=  1.000000  1.000000  1.000000  1.000000 ScalE2=  1.000000  1.000000
 IRadAn=      5 IRanWt=     -1 IRanGd=            0 ICorTp=0 IEmpDi=131
 NAtoms=   32 NActive=   32 NUniq=   32 SFac= 1.00D+00 NAtFMM=   60 NAOKFM=F Big=F
 Integral buffers will be    131072 words long.
 Raffenetti 2 integral format.
 Two-electron integral symmetry is turned off.
 R6Disp:  Grimme-D3 Dispersion energy=       -0.0024465378 Hartrees.
 Nuclear repulsion after empirical dispersion term =     1539.0488982952 Hartrees.
 Leave Link  301 at Thu May 19 13:13:37 2022, MaxMem= 13421772800 cpu:               1.1 elap:               0.1
 (Enter /data0/home/wuhanyu/software/g16/l302.exe)
 NPDir=0 NMtPBC=     1 NCelOv=     1 NCel=       1 NClECP=     1 NCelD=      1
         NCelK=      1 NCelE2=     1 NClLst=     1 CellRange=     0.0.
 One-electron integrals computed using PRISM.
 NBasis=   557 RedAO= T EigKep=  1.23D-06  NBF=   557
 NBsUse=   556 1.00D-06 EigRej=  9.52D-07 NBFU=   556
 Precomputing XC quadrature grid using
 IXCGrd= 4 IRadAn=           5 IRanWt=          -1 IRanGd=           0 AccXCQ= 0.00D+00.
 Generated NRdTot=       0 NPtTot=           0 NUsed=           0 NTot=          32
 NSgBfM=   589   589   589   589   589 MxSgAt=    32 MxSgA2=    32.
 Leave Link  302 at Thu May 19 13:13:38 2022, MaxMem= 13421772800 cpu:              12.8 elap:               0.6
 (Enter /data0/home/wuhanyu/software/g16/l303.exe)
 DipDrv:  MaxL=1.
 Leave Link  303 at Thu May 19 13:13:38 2022, MaxMem= 13421772800 cpu:               1.2 elap:               0.1
 (Enter /data0/home/wuhanyu/software/g16/l401.exe)
 ExpMin= 3.48D-02 ExpMax= 7.75D+04 ExpMxC= 2.65D+03 IAcc=3 IRadAn=         5 AccDes= 0.00D+00
 Harris functional with IExCor= 1009 and IRadAn=       5 diagonalized for initial guess.
 HarFok:  IExCor= 1009 AccDes= 0.00D+00 IRadAn=         5 IDoV= 1 UseB2=F ITyADJ=14
 ICtDFT=  3500011 ScaDFX=  1.000000  1.000000  1.000000  1.000000
 FoFCou: FMM=F IPFlag=           0 FMFlag=      100000 FMFlg1=           0
         NFxFlg=           0 DoJE=T BraDBF=F KetDBF=T FulRan=T
         wScrn=  0.000000 ICntrl=       500 IOpCl=  0 I1Cent=   200000004 NGrid=           0
         NMat0=    1 NMatS0=      1 NMatT0=    0 NMatD0=    1 NMtDS0=    0 NMtDT0=    0
 Symmetry not used in FoFCou.
 Harris En= -1252.81880047581    
 JPrj=0 DoOrth=F DoCkMO=F.
 Leave Link  401 at Thu May 19 13:13:40 2022, MaxMem= 13421772800 cpu:              49.2 elap:               2.3
 (Enter /data0/home/wuhanyu/software/g16/l502.exe)
 Two-electron integral symmetry not used.
 Closed shell SCF:
 Using DIIS extrapolation, IDIIS=  1040.
 NGot= 13421772800 LenX= 13421057117 LenY= 13420707245
 Requested convergence on RMS density matrix=1.00D-08 within 128 cycles.
 Requested convergence on MAX density matrix=1.00D-06.
 Requested convergence on             energy=1.00D-06.
 No special actions if energy rises.
 Fock matrices will be formed incrementally for  20 cycles.

 Cycle   1  Pass 1  IDiag  1:
 FoFJK:  IHMeth= 1 ICntrl=       0 DoSepK=F KAlg= 0 I1Cent=           0 FoldK=F
 IRaf= 850000000 NMat=       1 IRICut=       1 DoRegI=T DoRafI=F ISym2E= 0 IDoP0=0 IntGTp=1.
 FoFCou: FMM=F IPFlag=           0 FMFlag=      100000 FMFlg1=           0
         NFxFlg=           0 DoJE=F BraDBF=F KetDBF=F FulRan=T
         wScrn=  0.000000 ICntrl=         0 IOpCl=  0 I1Cent=           0 NGrid=           0
         NMat0=    1 NMatS0=      1 NMatT0=    0 NMatD0=    1 NMtDS0=    0 NMtDT0=    0
 Symmetry not used in FoFCou.
 E= -1252.71767669524    
 DIIS: error= 2.61D-02 at cycle   1 NSaved=   1.
 NSaved= 1 IEnMin= 1 EnMin= -1252.71767669524     IErMin= 1 ErrMin= 2.61D-02
 ErrMax= 2.61D-02  0.00D+00 EMaxC= 1.00D-01 BMatC= 1.02D+00 BMatP= 1.02D+00
 IDIUse=3 WtCom= 7.39D-01 WtEn= 2.61D-01
 Coeff-Com:  0.100D+01
 Coeff-En:   0.100D+01
 Coeff:      0.100D+01
 Gap=     0.308 Goal=   None    Shift=    0.000
 GapD=    0.308 DampG=1.000 DampE=0.500 DampFc=0.5000 IDamp=-1.
 Damping current iteration by 5.00D-01
 RMSDP=2.58D-02 MaxDP=7.54D+00              OVMax= 1.96D-01

 Cycle   2  Pass 1  IDiag  1:
 RMSU=  8.30D-03    CP:  1.40D+00
 E= -1253.00282171909     Delta-E=       -0.285145023844 Rises=F Damp=T
 DIIS: error= 5.21D-03 at cycle   2 NSaved=   2.
 NSaved= 2 IEnMin= 2 EnMin= -1253.00282171909     IErMin= 2 ErrMin= 5.21D-03
 ErrMax= 5.21D-03  0.00D+00 EMaxC= 1.00D-01 BMatC= 5.65D-02 BMatP= 1.02D+00
 IDIUse=3 WtCom= 9.48D-01 WtEn= 5.21D-02
 Coeff-Com:  0.146D-02 0.999D+00
 Coeff-En:   0.657D-01 0.934D+00
 Coeff:      0.481D-02 0.995D+00
 Gap=     0.306 Goal=   None    Shift=    0.000
 RMSDP=4.08D-03 MaxDP=6.60D-01 DE=-2.85D-01 OVMax= 1.25D-01

 Cycle   3  Pass 1  IDiag  1:
 RMSU=  3.20D-03    CP:  1.30D+00  1.05D+00
 E= -1253.32458108270     Delta-E=       -0.321759363615 Rises=F Damp=F
 DIIS: error= 2.99D-03 at cycle   3 NSaved=   3.
 NSaved= 3 IEnMin= 3 EnMin= -1253.32458108270     IErMin= 3 ErrMin= 2.99D-03
 ErrMax= 2.99D-03  0.00D+00 EMaxC= 1.00D-01 BMatC= 1.41D-02 BMatP= 5.65D-02
 IDIUse=3 WtCom= 9.70D-01 WtEn= 2.99D-02
 Coeff-Com: -0.562D-01 0.287D+00 0.770D+00
 Coeff-En:   0.000D+00 0.000D+00 0.100D+01
 Coeff:     -0.545D-01 0.278D+00 0.776D+00
 Gap=     0.284 Goal=   None    Shift=    0.000
 RMSDP=1.65D-03 MaxDP=3.62D-01 DE=-3.22D-01 OVMax= 3.50D-02

 Cycle   4  Pass 1  IDiag  1:
 RMSU=  9.42D-04    CP:  1.25D+00  9.99D-01  9.11D-01
 E= -1253.33236810555     Delta-E=       -0.007787022852 Rises=F Damp=F
 DIIS: error= 1.74D-03 at cycle   4 NSaved=   4.
 NSaved= 4 IEnMin= 4 EnMin= -1253.33236810555     IErMin= 4 ErrMin= 1.74D-03
 ErrMax= 1.74D-03  0.00D+00 EMaxC= 1.00D-01 BMatC= 3.99D-03 BMatP= 1.41D-02
 IDIUse=3 WtCom= 9.83D-01 WtEn= 1.74D-02
 Coeff-Com: -0.288D-01 0.758D-01 0.408D+00 0.545D+00
 Coeff-En:   0.000D+00 0.000D+00 0.188D+00 0.812D+00
 Coeff:     -0.283D-01 0.745D-01 0.405D+00 0.549D+00
 Gap=     0.282 Goal=   None    Shift=    0.000
 RMSDP=4.75D-04 MaxDP=1.21D-01 DE=-7.79D-03 OVMax= 1.17D-02

 Cycle   5  Pass 1  IDiag  1:
 RMSU=  2.58D-04    CP:  1.26D+00  1.02D+00  9.21D-01  7.59D-01
 E= -1253.33534217897     Delta-E=       -0.002974073412 Rises=F Damp=F
 DIIS: error= 3.43D-04 at cycle   5 NSaved=   5.
 NSaved= 5 IEnMin= 5 EnMin= -1253.33534217897     IErMin= 5 ErrMin= 3.43D-04
 ErrMax= 3.43D-04  0.00D+00 EMaxC= 1.00D-01 BMatC= 1.37D-04 BMatP= 3.99D-03
 IDIUse=3 WtCom= 9.97D-01 WtEn= 3.43D-03
 Coeff-Com: -0.851D-02 0.158D-01 0.129D+00 0.236D+00 0.628D+00
 Coeff-En:   0.000D+00 0.000D+00 0.000D+00 0.000D+00 0.100D+01
 Coeff:     -0.848D-02 0.158D-01 0.128D+00 0.235D+00 0.629D+00
 Gap=     0.282 Goal=   None    Shift=    0.000
 RMSDP=9.25D-05 MaxDP=2.26D-02 DE=-2.97D-03 OVMax= 2.19D-03

 Cycle   6  Pass 1  IDiag  1:
 RMSU=  5.64D-05    CP:  1.26D+00  1.01D+00  9.28D-01  7.48D-01  7.63D-01
 E= -1253.33544340110     Delta-E=       -0.000101222131 Rises=F Damp=F
 DIIS: error= 8.18D-05 at cycle   6 NSaved=   6.
 NSaved= 6 IEnMin= 6 EnMin= -1253.33544340110     IErMin= 6 ErrMin= 8.18D-05
 ErrMax= 8.18D-05  0.00D+00 EMaxC= 1.00D-01 BMatC= 8.90D-06 BMatP= 1.37D-04
 IDIUse=1 WtCom= 1.00D+00 WtEn= 0.00D+00
 Coeff-Com: -0.127D-02 0.107D-02 0.219D-01 0.518D-01 0.251D+00 0.675D+00
 Coeff:     -0.127D-02 0.107D-02 0.219D-01 0.518D-01 0.251D+00 0.675D+00
 Gap=     0.282 Goal=   None    Shift=    0.000
 RMSDP=3.80D-05 MaxDP=9.86D-03 DE=-1.01D-04 OVMax= 7.96D-04

 Cycle   7  Pass 1  IDiag  1:
 RMSU=  1.82D-05    CP:  1.26D+00  1.01D+00  9.25D-01  7.63D-01  8.32D-01
                    CP:  8.61D-01
 E= -1253.33545132809     Delta-E=       -0.000007926997 Rises=F Damp=F
 DIIS: error= 2.44D-05 at cycle   7 NSaved=   7.
 NSaved= 7 IEnMin= 7 EnMin= -1253.33545132809     IErMin= 7 ErrMin= 2.44D-05
 ErrMax= 2.44D-05  0.00D+00 EMaxC= 1.00D-01 BMatC= 6.69D-07 BMatP= 8.90D-06
 IDIUse=1 WtCom= 1.00D+00 WtEn= 0.00D+00
 Coeff-Com:  0.452D-03-0.122D-02-0.585D-02-0.810D-02 0.169D-01 0.197D+00
 Coeff-Com:  0.800D+00
 Coeff:      0.452D-03-0.122D-02-0.585D-02-0.810D-02 0.169D-01 0.197D+00
 Coeff:      0.800D+00
 Gap=     0.282 Goal=   None    Shift=    0.000
 RMSDP=1.88D-05 MaxDP=4.94D-03 DE=-7.93D-06 OVMax= 4.48D-04

 Cycle   8  Pass 1  IDiag  1:
 RMSU=  9.51D-06    CP:  1.26D+00  1.01D+00  9.26D-01  7.66D-01  8.36D-01
                    CP:  9.33D-01  1.05D+00
 E= -1253.33545203163     Delta-E=       -0.000000703540 Rises=F Damp=F
 DIIS: error= 2.47D-05 at cycle   8 NSaved=   8.
 NSaved= 8 IEnMin= 8 EnMin= -1253.33545203163     IErMin= 7 ErrMin= 2.44D-05
 ErrMax= 2.47D-05  0.00D+00 EMaxC= 1.00D-01 BMatC= 2.66D-07 BMatP= 6.69D-07
 IDIUse=1 WtCom= 1.00D+00 WtEn= 0.00D+00
 Coeff-Com:  0.436D-03-0.832D-03-0.652D-02-0.125D-01-0.283D-01 0.886D-03
 Coeff-Com:  0.437D+00 0.610D+00
 Coeff:      0.436D-03-0.832D-03-0.652D-02-0.125D-01-0.283D-01 0.886D-03
 Coeff:      0.437D+00 0.610D+00
 Gap=     0.282 Goal=   None    Shift=    0.000
 RMSDP=8.39D-06 MaxDP=2.45D-03 DE=-7.04D-07 OVMax= 2.23D-04

 Cycle   9  Pass 1  IDiag  1:
 RMSU=  2.56D-06    CP:  1.26D+00  1.01D+00  9.25D-01  7.67D-01  8.47D-01
                    CP:  9.41D-01  1.14D+00  7.11D-01
 E= -1253.33545232969     Delta-E=       -0.000000298056 Rises=F Damp=F
 DIIS: error= 8.08D-06 at cycle   9 NSaved=   9.
 NSaved= 9 IEnMin= 9 EnMin= -1253.33545232969     IErMin= 9 ErrMin= 8.08D-06
 ErrMax= 8.08D-06  0.00D+00 EMaxC= 1.00D-01 BMatC= 1.12D-08 BMatP= 2.66D-07
 IDIUse=1 WtCom= 1.00D+00 WtEn= 0.00D+00
 Coeff-Com:  0.762D-04-0.126D-03-0.126D-02-0.277D-02-0.818D-02-0.133D-01
 Coeff-Com:  0.570D-01 0.175D+00 0.793D+00
 Coeff:      0.762D-04-0.126D-03-0.126D-02-0.277D-02-0.818D-02-0.133D-01
 Coeff:      0.570D-01 0.175D+00 0.793D+00
 Gap=     0.282 Goal=   None    Shift=    0.000
 RMSDP=1.80D-06 MaxDP=5.01D-04 DE=-2.98D-07 OVMax= 9.93D-05

 Cycle  10  Pass 1  IDiag  1:
 RMSU=  8.59D-07    CP:  1.26D+00  1.01D+00  9.26D-01  7.66D-01  8.45D-01
                    CP:  9.46D-01  1.15D+00  7.64D-01  9.99D-01
 E= -1253.33545234608     Delta-E=       -0.000000016390 Rises=F Damp=F
 DIIS: error= 2.96D-06 at cycle  10 NSaved=  10.
 NSaved=10 IEnMin=10 EnMin= -1253.33545234608     IErMin=10 ErrMin= 2.96D-06
 ErrMax= 2.96D-06  0.00D+00 EMaxC= 1.00D-01 BMatC= 6.38D-09 BMatP= 1.12D-08
 IDIUse=1 WtCom= 1.00D+00 WtEn= 0.00D+00
 Coeff-Com: -0.410D-04 0.882D-04 0.536D-03 0.740D-03 0.383D-03-0.907D-02
 Coeff-Com: -0.557D-01-0.192D-01 0.477D+00 0.605D+00
 Coeff:     -0.410D-04 0.882D-04 0.536D-03 0.740D-03 0.383D-03-0.907D-02
 Coeff:     -0.557D-01-0.192D-01 0.477D+00 0.605D+00
 Gap=     0.282 Goal=   None    Shift=    0.000
 RMSDP=1.21D-06 MaxDP=4.03D-04 DE=-1.64D-08 OVMax= 4.51D-05

 Cycle  11  Pass 1  IDiag  1:
 RMSU=  4.51D-07    CP:  1.26D+00  1.01D+00  9.26D-01  7.67D-01  8.47D-01
                    CP:  9.44D-01  1.16D+00  7.80D-01  1.16D+00  6.63D-01
 E= -1253.33545235429     Delta-E=       -0.000000008205 Rises=F Damp=F
 DIIS: error= 9.99D-07 at cycle  11 NSaved=  11.
 NSaved=11 IEnMin=11 EnMin= -1253.33545235429     IErMin=11 ErrMin= 9.99D-07
 ErrMax= 9.99D-07  0.00D+00 EMaxC= 1.00D-01 BMatC= 2.70D-10 BMatP= 6.38D-09
 IDIUse=1 WtCom= 1.00D+00 WtEn= 0.00D+00
 Coeff-Com: -0.211D-04 0.416D-04 0.338D-03 0.576D-03 0.112D-02-0.138D-02
 Coeff-Com: -0.264D-01-0.292D-01 0.532D-01 0.180D+00 0.822D+00
 Coeff:     -0.211D-04 0.416D-04 0.338D-03 0.576D-03 0.112D-02-0.138D-02
 Coeff:     -0.264D-01-0.292D-01 0.532D-01 0.180D+00 0.822D+00
 Gap=     0.282 Goal=   None    Shift=    0.000
 RMSDP=3.74D-07 MaxDP=9.02D-05 DE=-8.21D-09 OVMax= 2.11D-05

 Cycle  12  Pass 1  IDiag  1:
 RMSU=  1.17D-07    CP:  1.26D+00  1.01D+00  9.26D-01  7.67D-01  8.47D-01
                    CP:  9.45D-01  1.16D+00  7.92D-01  1.19D+00  7.41D-01
                    CP:  1.02D+00
 E= -1253.33545235478     Delta-E=       -0.000000000497 Rises=F Damp=F
 DIIS: error= 4.79D-07 at cycle  12 NSaved=  12.
 NSaved=12 IEnMin=12 EnMin= -1253.33545235478     IErMin=12 ErrMin= 4.79D-07
 ErrMax= 4.79D-07  0.00D+00 EMaxC= 1.00D-01 BMatC= 5.20D-11 BMatP= 2.70D-10
 IDIUse=1 WtCom= 1.00D+00 WtEn= 0.00D+00
 Coeff-Com: -0.170D-05 0.277D-05 0.558D-04 0.114D-03 0.352D-03 0.702D-03
 Coeff-Com: -0.254D-02-0.814D-02-0.423D-01-0.204D-01 0.290D+00 0.782D+00
 Coeff:     -0.170D-05 0.277D-05 0.558D-04 0.114D-03 0.352D-03 0.702D-03
 Coeff:     -0.254D-02-0.814D-02-0.423D-01-0.204D-01 0.290D+00 0.782D+00
 Gap=     0.282 Goal=   None    Shift=    0.000
 RMSDP=1.96D-07 MaxDP=6.17D-05 DE=-4.97D-10 OVMax= 8.49D-06

 Cycle  13  Pass 1  IDiag  1:
 RMSU=  4.98D-08    CP:  1.26D+00  1.01D+00  9.26D-01  7.67D-01  8.47D-01
                    CP:  9.45D-01  1.16D+00  7.94D-01  1.21D+00  7.20D-01
                    CP:  1.18D+00  1.26D+00
 E= -1253.33545235495     Delta-E=       -0.000000000168 Rises=F Damp=F
 DIIS: error= 1.63D-07 at cycle  13 NSaved=  13.
 NSaved=13 IEnMin=13 EnMin= -1253.33545235495     IErMin=13 ErrMin= 1.63D-07
 ErrMax= 1.63D-07  0.00D+00 EMaxC= 1.00D-01 BMatC= 1.37D-11 BMatP= 5.20D-11
 IDIUse=1 WtCom= 1.00D+00 WtEn= 0.00D+00
 Coeff-Com:  0.329D-05-0.652D-05-0.359D-04-0.536D-04-0.377D-04 0.662D-03
 Coeff-Com:  0.389D-02 0.202D-02-0.291D-01-0.442D-01-0.125D-01 0.398D+00
 Coeff-Com:  0.681D+00
 Coeff:      0.329D-05-0.652D-05-0.359D-04-0.536D-04-0.377D-04 0.662D-03
 Coeff:      0.389D-02 0.202D-02-0.291D-01-0.442D-01-0.125D-01 0.398D+00
 Coeff:      0.681D+00
 Gap=     0.282 Goal=   None    Shift=    0.000
 RMSDP=3.39D-08 MaxDP=6.32D-06 DE=-1.68D-10 OVMax= 3.13D-06

 Cycle  14  Pass 1  IDiag  1:
 RMSU=  2.08D-08    CP:  1.26D+00  1.01D+00  9.26D-01  7.67D-01  8.47D-01
                    CP:  9.44D-01  1.16D+00  7.94D-01  1.21D+00  7.17D-01
                    CP:  1.22D+00  1.34D+00  1.06D+00
 E= -1253.33545235496     Delta-E=       -0.000000000006 Rises=F Damp=F
 DIIS: error= 6.81D-08 at cycle  14 NSaved=  14.
 NSaved=14 IEnMin=14 EnMin= -1253.33545235496     IErMin=14 ErrMin= 6.81D-08
 ErrMax= 6.81D-08  0.00D+00 EMaxC= 1.00D-01 BMatC= 9.51D-13 BMatP= 1.37D-11
 IDIUse=1 WtCom= 1.00D+00 WtEn= 0.00D+00
 Coeff-Com:  0.112D-05-0.225D-05-0.173D-04-0.294D-04-0.612D-04 0.103D-03
 Coeff-Com:  0.137D-02 0.171D-02-0.321D-02-0.110D-01-0.457D-01 0.262D-01
 Coeff-Com:  0.213D+00 0.817D+00
 Coeff:      0.112D-05-0.225D-05-0.173D-04-0.294D-04-0.612D-04 0.103D-03
 Coeff:      0.137D-02 0.171D-02-0.321D-02-0.110D-01-0.457D-01 0.262D-01
 Coeff:      0.213D+00 0.817D+00
 Gap=     0.282 Goal=   None    Shift=    0.000
 RMSDP=3.50D-08 MaxDP=1.10D-05 DE=-5.91D-12 OVMax= 1.14D-06

 Cycle  15  Pass 1  IDiag  1:
 RMSU=  6.43D-09    CP:  1.26D+00  1.01D+00  9.26D-01  7.67D-01  8.47D-01
                    CP:  9.45D-01  1.16D+00  7.95D-01  1.21D+00  7.14D-01
                    CP:  1.23D+00  1.40D+00  1.16D+00  1.07D+00
 E= -1253.33545235505     Delta-E=       -0.000000000092 Rises=F Damp=F
 DIIS: error= 1.49D-08 at cycle  15 NSaved=  15.
 NSaved=15 IEnMin=15 EnMin= -1253.33545235505     IErMin=15 ErrMin= 1.49D-08
 ErrMax= 1.49D-08  0.00D+00 EMaxC= 1.00D-01 BMatC= 1.73D-13 BMatP= 9.51D-13
 IDIUse=1 WtCom= 1.00D+00 WtEn= 0.00D+00
 Coeff-Com: -0.257D-07 0.172D-07-0.199D-05-0.399D-05-0.167D-04-0.296D-04
 Coeff-Com:  0.207D-04 0.445D-03 0.239D-02 0.162D-02-0.150D-01-0.407D-01
 Coeff-Com: -0.157D-01 0.320D+00 0.747D+00
 Coeff:     -0.257D-07 0.172D-07-0.199D-05-0.399D-05-0.167D-04-0.296D-04
 Coeff:      0.207D-04 0.445D-03 0.239D-02 0.162D-02-0.150D-01-0.407D-01
 Coeff:     -0.157D-01 0.320D+00 0.747D+00
 Gap=     0.282 Goal=   None    Shift=    0.000
 RMSDP=8.06D-09 MaxDP=2.05D-06 DE=-9.23D-11 OVMax= 2.95D-07

 Cycle  16  Pass 1  IDiag  1:
 RMSU=  2.41D-09    CP:  1.26D+00  1.01D+00  9.26D-01  7.67D-01  8.47D-01
                    CP:  9.44D-01  1.16D+00  7.95D-01  1.21D+00  7.14D-01
                    CP:  1.23D+00  1.40D+00  1.18D+00  1.15D+00  1.02D+00
 E= -1253.33545235511     Delta-E=       -0.000000000062 Rises=F Damp=F
 DIIS: error= 4.86D-09 at cycle  16 NSaved=  16.
 NSaved=16 IEnMin=16 EnMin= -1253.33545235511     IErMin=16 ErrMin= 4.86D-09
 ErrMax= 4.86D-09  0.00D+00 EMaxC= 1.00D-01 BMatC= 2.40D-14 BMatP= 1.73D-13
 IDIUse=1 WtCom= 1.00D+00 WtEn= 0.00D+00
 Coeff-Com: -0.139D-06 0.256D-06 0.947D-06 0.158D-05-0.546D-06-0.225D-04
 Coeff-Com: -0.152D-03 0.129D-04 0.127D-02 0.195D-02-0.136D-02-0.206D-01
 Coeff-Com: -0.334D-01 0.567D-01 0.323D+00 0.672D+00
 Coeff:     -0.139D-06 0.256D-06 0.947D-06 0.158D-05-0.546D-06-0.225D-04
 Coeff:     -0.152D-03 0.129D-04 0.127D-02 0.195D-02-0.136D-02-0.206D-01
 Coeff:     -0.334D-01 0.567D-01 0.323D+00 0.672D+00
 Gap=     0.282 Goal=   None    Shift=    0.000
 RMSDP=1.42D-09 MaxDP=1.93D-07 DE=-6.18D-11 OVMax= 9.07D-08

 SCF Done:  E(RM062X) =  -1253.33545236     A.U. after   16 cycles
            NFock= 16  Conv=0.14D-08     -V/T= 2.0033
 KE= 1.249199989370D+03 PE=-6.031205979313D+03 EE= 1.989621639293D+03
 Leave Link  502 at Thu May 19 13:16:01 2022, MaxMem= 13421772800 cpu:            3077.2 elap:             140.3
 (Enter /data0/home/wuhanyu/software/g16/l601.exe)
 Copying SCF densities to generalized density rwf, IOpCl= 0 IROHF=0.

 **********************************************************************

            Population analysis using the SCF density.

 **********************************************************************

 Alpha  occ. eigenvalues --  -78.15139 -19.65548 -19.65401 -19.63937 -19.63933
 Alpha  occ. eigenvalues --  -19.63649 -19.62767 -19.59251 -14.80860 -14.76117
 Alpha  occ. eigenvalues --  -10.63479 -10.59637 -10.58481 -10.56056 -10.55807
 Alpha  occ. eigenvalues --  -10.55627 -10.55387  -6.95839  -5.07748  -5.07684
 Alpha  occ. eigenvalues --   -5.07618  -1.21317  -1.16823  -1.15352  -1.14032
 Alpha  occ. eigenvalues --   -1.13395  -1.12924  -1.12435  -1.09242  -0.99091
 Alpha  occ. eigenvalues --   -0.96320  -0.85524  -0.84428  -0.72785  -0.71610
 Alpha  occ. eigenvalues --   -0.70033  -0.69173  -0.64569  -0.63657  -0.62830
 Alpha  occ. eigenvalues --   -0.62405  -0.61433  -0.60527  -0.58244  -0.56958
 Alpha  occ. eigenvalues --   -0.55616  -0.53344  -0.52936  -0.52042  -0.51740
 Alpha  occ. eigenvalues --   -0.50815  -0.50026  -0.49231  -0.49070  -0.48034
 Alpha  occ. eigenvalues --   -0.46897  -0.44855  -0.44283  -0.44129  -0.43442
 Alpha  occ. eigenvalues --   -0.42851  -0.42496  -0.41857  -0.40697  -0.39740
 Alpha  occ. eigenvalues --   -0.39055  -0.38291  -0.37687  -0.36784  -0.29789
 Alpha  occ. eigenvalues --   -0.29342
 Alpha virt. eigenvalues --   -0.01130   0.00276   0.01350   0.01658   0.02484
 Alpha virt. eigenvalues --    0.02619   0.03228   0.03757   0.04522   0.04715
 Alpha virt. eigenvalues --    0.04954   0.06192   0.06673   0.07050   0.07628
 Alpha virt. eigenvalues --    0.08147   0.08595   0.09357   0.10455   0.10991
 Alpha virt. eigenvalues --    0.12078   0.12321   0.12704   0.12806   0.13518
 Alpha virt. eigenvalues --    0.14186   0.14664   0.15015   0.15562   0.15724
 Alpha virt. eigenvalues --    0.16080   0.16885   0.17125   0.17432   0.17502
 Alpha virt. eigenvalues --    0.18233   0.18636   0.19101   0.19114   0.19493
 Alpha virt. eigenvalues --    0.19925   0.20534   0.20735   0.21013   0.21284
 Alpha virt. eigenvalues --    0.21730   0.21988   0.22251   0.22834   0.23174
 Alpha virt. eigenvalues --    0.23704   0.23868   0.24187   0.24504   0.24905
 Alpha virt. eigenvalues --    0.24951   0.25127   0.25657   0.26339   0.26605
 Alpha virt. eigenvalues --    0.26764   0.27198   0.27629   0.28313   0.28511
 Alpha virt. eigenvalues --    0.28872   0.29326   0.29701   0.29738   0.30001
 Alpha virt. eigenvalues --    0.30654   0.31194   0.31689   0.31741   0.32383
 Alpha virt. eigenvalues --    0.33132   0.33900   0.34059   0.34783   0.35071
 Alpha virt. eigenvalues --    0.35510   0.36544   0.37163   0.37519   0.38187
 Alpha virt. eigenvalues --    0.39587   0.40111   0.40725   0.41347   0.41627
 Alpha virt. eigenvalues --    0.42399   0.43012   0.44014   0.45259   0.46379
 Alpha virt. eigenvalues --    0.46452   0.46954   0.47617   0.48533   0.49391
 Alpha virt. eigenvalues --    0.51550   0.51800   0.53449   0.54258   0.54895
 Alpha virt. eigenvalues --    0.55745   0.56342   0.56698   0.57422   0.57512
 Alpha virt. eigenvalues --    0.58383   0.59412   0.60099   0.60604   0.60916
 Alpha virt. eigenvalues --    0.61927   0.63542   0.64176   0.65382   0.66122
 Alpha virt. eigenvalues --    0.66446   0.67084   0.67605   0.67777   0.68441
 Alpha virt. eigenvalues --    0.68842   0.69827   0.70948   0.72008   0.72445
 Alpha virt. eigenvalues --    0.73402   0.74062   0.74305   0.75062   0.76588
 Alpha virt. eigenvalues --    0.76972   0.77678   0.79245   0.80433   0.80913
 Alpha virt. eigenvalues --    0.81868   0.83178   0.83996   0.85081   0.85093
 Alpha virt. eigenvalues --    0.85838   0.86218   0.86789   0.87027   0.88482
 Alpha virt. eigenvalues --    0.88844   0.90012   0.90262   0.91157   0.91965
 Alpha virt. eigenvalues --    0.94196   0.94413   0.95403   0.96184   0.97118
 Alpha virt. eigenvalues --    0.99493   1.00936   1.03142   1.04529   1.05527
 Alpha virt. eigenvalues --    1.06400   1.07640   1.08120   1.09373   1.10176
 Alpha virt. eigenvalues --    1.11049   1.12410   1.12748   1.13253   1.13919
 Alpha virt. eigenvalues --    1.15023   1.15597   1.15931   1.16971   1.17079
 Alpha virt. eigenvalues --    1.18195   1.18480   1.19247   1.20490   1.20722
 Alpha virt. eigenvalues --    1.21589   1.22201   1.22845   1.23501   1.24168
 Alpha virt. eigenvalues --    1.24690   1.25424   1.26044   1.27311   1.27883
 Alpha virt. eigenvalues --    1.27931   1.28514   1.29675   1.30878   1.31223
 Alpha virt. eigenvalues --    1.32467   1.33072   1.34388   1.34611   1.35277
 Alpha virt. eigenvalues --    1.36316   1.36490   1.38279   1.38989   1.39438
 Alpha virt. eigenvalues --    1.39572   1.40459   1.41078   1.42132   1.43868
 Alpha virt. eigenvalues --    1.44462   1.45044   1.45709   1.47019   1.48205
 Alpha virt. eigenvalues --    1.48903   1.49905   1.50233   1.52726   1.52811
 Alpha virt. eigenvalues --    1.54443   1.55098   1.56804   1.58888   1.59364
 Alpha virt. eigenvalues --    1.60841   1.61246   1.62073   1.63332   1.64401
 Alpha virt. eigenvalues --    1.66216   1.67141   1.68117   1.69228   1.69765
 Alpha virt. eigenvalues --    1.70065   1.70982   1.71845   1.73027   1.74237
 Alpha virt. eigenvalues --    1.75501   1.76206   1.76631   1.77694   1.78755
 Alpha virt. eigenvalues --    1.80163   1.81367   1.81853   1.82483   1.86368
 Alpha virt. eigenvalues --    1.88635   1.89340   1.90151   1.91488   1.92390
 Alpha virt. eigenvalues --    1.92853   1.94132   1.95278   1.97377   1.98112
 Alpha virt. eigenvalues --    1.99148   2.00475   2.01316   2.01478   2.03399
 Alpha virt. eigenvalues --    2.04017   2.05656   2.07259   2.07620   2.08601
 Alpha virt. eigenvalues --    2.09987   2.12028   2.12767   2.14207   2.15785
 Alpha virt. eigenvalues --    2.17121   2.18876   2.20760   2.21938   2.22923
 Alpha virt. eigenvalues --    2.24768   2.25416   2.29599   2.32094   2.32892
 Alpha virt. eigenvalues --    2.33654   2.36607   2.36772   2.38453   2.41449
 Alpha virt. eigenvalues --    2.42598   2.44041   2.47296   2.47842   2.51343
 Alpha virt. eigenvalues --    2.53239   2.56029   2.56647   2.59485   2.60987
 Alpha virt. eigenvalues --    2.62612   2.63846   2.65101   2.65538   2.68645
 Alpha virt. eigenvalues --    2.69080   2.69721   2.71443   2.71933   2.74319
 Alpha virt. eigenvalues --    2.76182   2.77136   2.78394   2.79244   2.80944
 Alpha virt. eigenvalues --    2.83695   2.84717   2.85841   2.86792   2.88617
 Alpha virt. eigenvalues --    2.91328   2.92101   2.93683   2.94826   2.96180
 Alpha virt. eigenvalues --    2.97069   2.98191   2.99268   3.00549   3.01166
 Alpha virt. eigenvalues --    3.05099   3.06993   3.09506   3.11360   3.14290
 Alpha virt. eigenvalues --    3.15548   3.17162   3.18084   3.18747   3.21371
 Alpha virt. eigenvalues --    3.24251   3.26083   3.29774   3.30156   3.31074
 Alpha virt. eigenvalues --    3.31476   3.36234   3.36421   3.38732   3.40000
 Alpha virt. eigenvalues --    3.40873   3.43535   3.45306   3.48081   3.48588
 Alpha virt. eigenvalues --    3.50430   3.51774   3.54533   3.57392   3.58675
 Alpha virt. eigenvalues --    3.59822   3.61239   3.62428   3.63994   3.65171
 Alpha virt. eigenvalues --    3.68794   3.73757   3.74796   3.75063   3.77716
 Alpha virt. eigenvalues --    3.79834   3.84164   3.87557   3.93328   3.94237
 Alpha virt. eigenvalues --    3.95467   3.96226   4.00532   4.01860   4.04687
 Alpha virt. eigenvalues --    4.07002   4.09846   4.15703   4.26247   4.43607
 Alpha virt. eigenvalues --    4.57348   4.66707   4.71791   4.74836   4.92603
 Alpha virt. eigenvalues --    5.00865   5.02039   5.04333   5.07927   5.09824
 Alpha virt. eigenvalues --    5.12002   5.13354   5.14634   5.14879   5.17092
 Alpha virt. eigenvalues --    5.17969   5.19279   5.20249   5.22377   5.22933
 Alpha virt. eigenvalues --    5.25674   5.27494   5.31522   5.32652   5.36753
 Alpha virt. eigenvalues --    5.41350   5.42596   5.44023   5.55261   5.58853
 Alpha virt. eigenvalues --    5.60332   5.60640   5.63915   5.65246   5.66360
 Alpha virt. eigenvalues --    5.69368   5.94857   5.98072   6.00146   6.74933
 Alpha virt. eigenvalues --    6.76793   6.77965   6.79790   6.80979   6.81184
 Alpha virt. eigenvalues --    6.81723   6.81964   6.83172   6.83923   6.84330
 Alpha virt. eigenvalues --    6.87596   6.88517   6.89456   6.90923   6.92023
 Alpha virt. eigenvalues --    6.92827   6.94727   6.94982   6.95329   6.98034
 Alpha virt. eigenvalues --    6.99317   7.01084   7.03819   7.06643   7.12908
 Alpha virt. eigenvalues --    7.13348   7.16336   7.18585   7.18788   7.26529
 Alpha virt. eigenvalues --    7.28620   7.35139   7.37281   7.44311   7.70383
 Alpha virt. eigenvalues --   14.28156  14.30130  14.40509  23.81473  24.03288
 Alpha virt. eigenvalues --   24.06812  24.11600  24.13074  24.25240  24.27940
 Alpha virt. eigenvalues --   35.75212  35.81235  50.01706  50.03426  50.04512
 Alpha virt. eigenvalues --   50.06344  50.08245  50.09962  50.13396 163.95651
          Condensed to atoms (all electrons):
               1          2          3          4          5          6
     1  C   23.048258 -13.015576  -1.293376  -1.229562   0.805170  -3.847475
     2  C  -13.015576  20.965654  -1.346114   0.872083  -1.393601   1.062076
     3  C   -1.293376  -1.346114   8.604122  -0.329096   0.048065   1.325619
     4  C   -1.229562   0.872083  -0.329096   6.155650   0.351013  -0.077240
     5  C    0.805170  -1.393601   0.048065   0.351013   5.687685   0.289652
     6  C   -3.847475   1.062076   1.325619  -0.077240   0.289652   8.095274
     7  H    0.040219  -0.021983   0.339467  -0.008269   0.008068  -0.018740
     8  H   -0.008196   0.031896  -0.046191   0.394426  -0.033733   0.011312
     9  H    0.039980   0.000483   0.003698  -0.032929   0.395918  -0.057358
    10  H    0.033454  -0.006940  -0.015476   0.010734  -0.012495   0.342954
    11  H    0.046023  -0.018010  -0.012433   0.000758  -0.003743  -0.040675
    12  C    0.543809  -0.875113  -0.508743   0.035877  -0.023967  -0.540249
    13  H    0.014849   0.022742   0.013819   0.000462   0.001042   0.013081
    14  N   -1.071406   1.090393  -0.056918   0.064772  -0.045099   0.067313
    15  N    1.848791  -1.581367  -0.447380  -0.074896   0.083528  -0.225847
    16  P   -0.026800   0.084435  -0.018192  -0.006459   0.013957   0.010122
    17  O   -0.040331   0.077381  -0.013804   0.009953   0.004642  -0.016778
    18  O   -0.046080  -0.015847   0.068834   0.004429  -0.002660   0.016924
    19  H    0.000853   0.053827  -0.058163   0.006878   0.000991  -0.015311
    20  O    0.003657  -0.010536   0.005462   0.000459  -0.000061   0.000141
    21  H    0.000115   0.000318  -0.000242  -0.000234  -0.000031   0.000050
    22  O    0.079567  -0.059490  -0.016772  -0.025064   0.000607  -0.020444
    23  H   -0.083933   0.045056   0.062645  -0.021209  -0.002833   0.038899
    24  O    0.196999   0.181083  -0.249535   0.096057  -0.007792  -0.246790
    25  H   -0.037607  -0.124810   0.110945  -0.020226  -0.012568   0.078119
    26  H   -0.019007  -0.087652   0.066349  -0.029469   0.017824   0.086403
    27  O   -0.058278   0.045980  -0.002141   0.002695  -0.005425   0.009487
    28  H   -0.003592   0.002217  -0.001129   0.000474  -0.000243  -0.002256
    29  H    0.027104  -0.016416   0.001400  -0.000148   0.000257  -0.004051
    30  O   -0.056554   0.072820   0.006328   0.001542  -0.025635   0.010351
    31  H    0.018699  -0.015541   0.002003  -0.002236   0.004529   0.006268
    32  H   -0.017474   0.003202  -0.000168   0.000087   0.004331   0.008221
               7          8          9         10         11         12
     1  C    0.040219  -0.008196   0.039980   0.033454   0.046023   0.543809
     2  C   -0.021983   0.031896   0.000483  -0.006940  -0.018010  -0.875113
     3  C    0.339467  -0.046191   0.003698  -0.015476  -0.012433  -0.508743
     4  C   -0.008269   0.394426  -0.032929   0.010734   0.000758   0.035877
     5  C    0.008068  -0.033733   0.395918  -0.012495  -0.003743  -0.023967
     6  C   -0.018740   0.011312  -0.057358   0.342954  -0.040675  -0.540249
     7  H    0.509334  -0.005089  -0.000204   0.000078   0.000027   0.006008
     8  H   -0.005089   0.530808  -0.005301  -0.000215  -0.000002   0.000615
     9  H   -0.000204  -0.005301   0.530412  -0.004418   0.000011   0.000849
    10  H    0.000078  -0.000215  -0.004418   0.492704   0.001256   0.003432
    11  H    0.000027  -0.000002   0.000011   0.001256   0.359481   0.014412
    12  C    0.006008   0.000615   0.000849   0.003432   0.014412   5.893742
    13  H   -0.000020  -0.000000  -0.000000  -0.000012  -0.002978   0.375787
    14  N   -0.001239   0.000548  -0.000699  -0.005772   0.327577   0.294590
    15  N    0.009024  -0.000686   0.000222  -0.000033   0.002139   0.650536
    16  P   -0.000413   0.000058   0.000000   0.000061   0.000012  -0.033757
    17  O    0.000152   0.000002  -0.000001   0.000067  -0.000706  -0.002015
    18  O   -0.000858  -0.000000  -0.000001  -0.000011   0.000006  -0.027389
    19  H    0.001513  -0.000003   0.000001   0.000009  -0.000048   0.011245
    20  O   -0.000004  -0.000000   0.000000  -0.000000   0.000021  -0.004846
    21  H   -0.000003   0.000000   0.000000  -0.000000   0.000000   0.001493
    22  O   -0.000274  -0.000024   0.000002   0.000022   0.000160   0.054044
    23  H   -0.000724   0.000022  -0.000013  -0.000063  -0.000106  -0.018835
    24  O    0.001333  -0.000002   0.000205   0.002508   0.001750   0.073078
    25  H   -0.000585  -0.000247  -0.000577  -0.001511  -0.000342  -0.011242
    26  H   -0.000131  -0.000007  -0.000165  -0.000985  -0.000747  -0.023249
    27  O    0.000001   0.000003  -0.000014   0.000161  -0.001806   0.006373
    28  H    0.000000   0.000000   0.000000   0.000009   0.000139   0.003019
    29  H    0.000005  -0.000001  -0.000003  -0.000077   0.000270  -0.009057
    30  O   -0.000008  -0.000000   0.000053  -0.003024  -0.041052  -0.015320
    31  H   -0.000000  -0.000000   0.000003  -0.000724   0.004290  -0.002965
    32  H   -0.000000  -0.000000   0.000000   0.000404   0.001005   0.000338
              13         14         15         16         17         18
     1  C    0.014849  -1.071406   1.848791  -0.026800  -0.040331  -0.046080
     2  C    0.022742   1.090393  -1.581367   0.084435   0.077381  -0.015847
     3  C    0.013819  -0.056918  -0.447380  -0.018192  -0.013804   0.068834
     4  C    0.000462   0.064772  -0.074896  -0.006459   0.009953   0.004429
     5  C    0.001042  -0.045099   0.083528   0.013957   0.004642  -0.002660
     6  C    0.013081   0.067313  -0.225847   0.010122  -0.016778   0.016924
     7  H   -0.000020  -0.001239   0.009024  -0.000413   0.000152  -0.000858
     8  H   -0.000000   0.000548  -0.000686   0.000058   0.000002  -0.000000
     9  H   -0.000000  -0.000699   0.000222   0.000000  -0.000001  -0.000001
    10  H   -0.000012  -0.005772  -0.000033   0.000061   0.000067  -0.000011
    11  H   -0.002978   0.327577   0.002139   0.000012  -0.000706   0.000006
    12  C    0.375787   0.294590   0.650536  -0.033757  -0.002015  -0.027389
    13  H    0.487108  -0.038948  -0.056528   0.000459  -0.003219   0.001338
    14  N   -0.038948   6.812588  -0.185071   0.001155   0.017614   0.002625
    15  N   -0.056528  -0.185071   7.345984  -0.025073  -0.031490  -0.022510
    16  P    0.000459   0.001155  -0.025073  12.395890   0.496187   0.311911
    17  O   -0.003219   0.017614  -0.031490   0.496187   8.186228  -0.019749
    18  O    0.001338   0.002625  -0.022510   0.311911  -0.019749   8.097384
    19  H   -0.000532   0.005693   0.043119   0.009975  -0.006273   0.228104
    20  O    0.000115  -0.000209   0.001285   0.271252  -0.000285  -0.001249
    21  H   -0.000001  -0.000059  -0.000270   0.003609  -0.006874  -0.006640
    22  O   -0.000537  -0.009033   0.017143   0.277939  -0.051199  -0.010959
    23  H    0.000034   0.002338  -0.008592   0.018860  -0.018314   0.010007
    24  O   -0.000074  -0.011490  -0.027435  -0.001218   0.034410  -0.010701
    25  H   -0.000015  -0.003459   0.010332  -0.006087  -0.007607   0.001784
    26  H    0.000040   0.000063   0.004309   0.008922  -0.009214   0.001690
    27  O   -0.000325   0.015667  -0.004690  -0.009237  -0.028504  -0.002167
    28  H   -0.000008   0.000164   0.000102  -0.001043   0.000036  -0.000047
    29  H    0.000327   0.005166   0.000112   0.013984   0.085824   0.003335
    30  O    0.000109  -0.004652  -0.002880  -0.000652   0.000039  -0.000018
    31  H    0.000057  -0.006874   0.000073   0.001616  -0.001589   0.000028
    32  H    0.000002   0.005490  -0.000046   0.000032   0.000052  -0.000000
              19         20         21         22         23         24
     1  C    0.000853   0.003657   0.000115   0.079567  -0.083933   0.196999
     2  C    0.053827  -0.010536   0.000318  -0.059490   0.045056   0.181083
     3  C   -0.058163   0.005462  -0.000242  -0.016772   0.062645  -0.249535
     4  C    0.006878   0.000459  -0.000234  -0.025064  -0.021209   0.096057
     5  C    0.000991  -0.000061  -0.000031   0.000607  -0.002833  -0.007792
     6  C   -0.015311   0.000141   0.000050  -0.020444   0.038899  -0.246790
     7  H    0.001513  -0.000004  -0.000003  -0.000274  -0.000724   0.001333
     8  H   -0.000003  -0.000000   0.000000  -0.000024   0.000022  -0.000002
     9  H    0.000001   0.000000   0.000000   0.000002  -0.000013   0.000205
    10  H    0.000009  -0.000000  -0.000000   0.000022  -0.000063   0.002508
    11  H   -0.000048   0.000021   0.000000   0.000160  -0.000106   0.001750
    12  C    0.011245  -0.004846   0.001493   0.054044  -0.018835   0.073078
    13  H   -0.000532   0.000115  -0.000001  -0.000537   0.000034  -0.000074
    14  N    0.005693  -0.000209  -0.000059  -0.009033   0.002338  -0.011490
    15  N    0.043119   0.001285  -0.000270   0.017143  -0.008592  -0.027435
    16  P    0.009975   0.271252   0.003609   0.277939   0.018860  -0.001218
    17  O   -0.006273  -0.000285  -0.006874  -0.051199  -0.018314   0.034410
    18  O    0.228104  -0.001249  -0.006640  -0.010959   0.010007  -0.010701
    19  H    0.315979  -0.000473   0.001910  -0.008004  -0.001796   0.002787
    20  O   -0.000473   7.948814   0.249900  -0.009273   0.005307   0.001223
    21  H    0.001910   0.249900   0.448604  -0.007139   0.000817   0.000032
    22  O   -0.008004  -0.009273  -0.007139   8.135687   0.205561   0.043489
    23  H   -0.001796   0.005307   0.000817   0.205561   0.366795  -0.070283
    24  O    0.002787   0.001223   0.000032   0.043489  -0.070283   8.191228
    25  H   -0.000465  -0.000146   0.000002  -0.013622   0.030128   0.199994
    26  H   -0.000299  -0.000209   0.000016  -0.019897   0.039286   0.177857
    27  O    0.000012  -0.000543   0.000036   0.008901  -0.011557   0.048377
    28  H   -0.000001  -0.000206  -0.000010   0.000722  -0.000862   0.003282
    29  H    0.000214   0.001108   0.000023  -0.013271   0.008351  -0.029265
    30  O    0.000010  -0.000031   0.000000   0.000034  -0.000072   0.002835
    31  H    0.000008   0.000029   0.000001  -0.000326   0.000438  -0.008466
    32  H   -0.000000  -0.000000   0.000000  -0.000002   0.000006  -0.000334
              25         26         27         28         29         30
     1  C   -0.037607  -0.019007  -0.058278  -0.003592   0.027104  -0.056554
     2  C   -0.124810  -0.087652   0.045980   0.002217  -0.016416   0.072820
     3  C    0.110945   0.066349  -0.002141  -0.001129   0.001400   0.006328
     4  C   -0.020226  -0.029469   0.002695   0.000474  -0.000148   0.001542
     5  C   -0.012568   0.017824  -0.005425  -0.000243   0.000257  -0.025635
     6  C    0.078119   0.086403   0.009487  -0.002256  -0.004051   0.010351
     7  H   -0.000585  -0.000131   0.000001   0.000000   0.000005  -0.000008
     8  H   -0.000247  -0.000007   0.000003   0.000000  -0.000001  -0.000000
     9  H   -0.000577  -0.000165  -0.000014   0.000000  -0.000003   0.000053
    10  H   -0.001511  -0.000985   0.000161   0.000009  -0.000077  -0.003024
    11  H   -0.000342  -0.000747  -0.001806   0.000139   0.000270  -0.041052
    12  C   -0.011242  -0.023249   0.006373   0.003019  -0.009057  -0.015320
    13  H   -0.000015   0.000040  -0.000325  -0.000008   0.000327   0.000109
    14  N   -0.003459   0.000063   0.015667   0.000164   0.005166  -0.004652
    15  N    0.010332   0.004309  -0.004690   0.000102   0.000112  -0.002880
    16  P   -0.006087   0.008922  -0.009237  -0.001043   0.013984  -0.000652
    17  O   -0.007607  -0.009214  -0.028504   0.000036   0.085824   0.000039
    18  O    0.001784   0.001690  -0.002167  -0.000047   0.003335  -0.000018
    19  H   -0.000465  -0.000299   0.000012  -0.000001   0.000214   0.000010
    20  O   -0.000146  -0.000209  -0.000543  -0.000206   0.001108  -0.000031
    21  H    0.000002   0.000016   0.000036  -0.000010   0.000023   0.000000
    22  O   -0.013622  -0.019897   0.008901   0.000722  -0.013271   0.000034
    23  H    0.030128   0.039286  -0.011557  -0.000862   0.008351  -0.000072
    24  O    0.199994   0.177857   0.048377   0.003282  -0.029265   0.002835
    25  H    0.447641   0.033094  -0.009643  -0.000200   0.003224  -0.000282
    26  H    0.033094   0.430261  -0.014535  -0.003375   0.007224  -0.003524
    27  O   -0.009643  -0.014535   8.132091   0.275253   0.277369  -0.002677
    28  H   -0.000200  -0.003375   0.275253   0.400221  -0.016203   0.001063
    29  H    0.003224   0.007224   0.277369  -0.016203   0.318390  -0.009215
    30  O   -0.000282  -0.003524  -0.002677   0.001063  -0.009215   8.192039
    31  H    0.001024   0.005327   0.000721  -0.001745   0.007034   0.282793
    32  H    0.000044   0.000364   0.002480  -0.000600   0.000341   0.268574
              31         32
     1  C    0.018699  -0.017474
     2  C   -0.015541   0.003202
     3  C    0.002003  -0.000168
     4  C   -0.002236   0.000087
     5  C    0.004529   0.004331
     6  C    0.006268   0.008221
     7  H   -0.000000  -0.000000
     8  H   -0.000000  -0.000000
     9  H    0.000003   0.000000
    10  H   -0.000724   0.000404
    11  H    0.004290   0.001005
    12  C   -0.002965   0.000338
    13  H    0.000057   0.000002
    14  N   -0.006874   0.005490
    15  N    0.000073  -0.000046
    16  P    0.001616   0.000032
    17  O   -0.001589   0.000052
    18  O    0.000028  -0.000000
    19  H    0.000008  -0.000000
    20  O    0.000029  -0.000000
    21  H    0.000001   0.000000
    22  O   -0.000326  -0.000002
    23  H    0.000438   0.000006
    24  O   -0.008466  -0.000334
    25  H    0.001024   0.000044
    26  H    0.005327   0.000364
    27  O    0.000721   0.002480
    28  H   -0.001745  -0.000600
    29  H    0.007034   0.000341
    30  O    0.282793   0.268574
    31  H    0.349598  -0.010391
    32  H   -0.010391   0.407902
 Mulliken charges:
               1
     1  C    0.107700
     2  C   -0.022650
     3  C   -0.242883
     4  C   -0.151310
     5  C   -0.147392
     6  C   -0.359052
     7  H    0.143315
     8  H    0.130007
     9  H    0.129843
    10  H    0.163905
    11  H    0.363308
    12  C    0.127500
    13  H    0.171828
    14  N   -0.272830
    15  N   -0.321907
    16  P    1.208494
    17  O   -0.654635
    18  O   -0.581513
    19  H    0.408241
    20  O   -0.460702
    21  H    0.314576
    22  O   -0.558550
    23  H    0.404645
    24  O   -0.595144
    25  H    0.334911
    26  H    0.333436
    27  O   -0.674069
    28  H    0.344818
    29  H    0.336642
    30  O   -0.672996
    31  H    0.366320
    32  H    0.326140
 Sum of Mulliken charges =  -0.00000
 Mulliken charges with hydrogens summed into heavy atoms:
               1
     1  C    0.107700
     2  C   -0.022650
     3  C   -0.099567
     4  C   -0.021303
     5  C   -0.017549
     6  C   -0.195147
    12  C    0.299328
    14  N    0.090478
    15  N   -0.321907
    16  P    1.208494
    17  O   -0.654635
    18  O   -0.173272
    20  O   -0.146126
    22  O   -0.153904
    24  O    0.073203
    27  O    0.007391
    30  O    0.019464
         Mulliken charges condensed to fragments:
      1     -0.180616
      2      0.080558
      3      0.073203
      4      0.007391
      5      0.019464
 Electronic spatial extent (au):  <R**2>=         159109.4620
 Charge=             -0.0000 electrons
 Dipole moment (field-independent basis, Debye):
    X=             -1.0830    Y=              3.8168    Z=             -0.0841  Tot=              3.9684
 Quadrupole moment (field-independent basis, Debye-Ang):
   XX=           -124.5830   YY=            -14.5562   ZZ=           -109.6203
   XY=             16.1059   XZ=             -8.0796   YZ=             31.9689
 Traceless Quadrupole moment (field-independent basis, Debye-Ang):
   XX=            -41.6632   YY=             68.3637   ZZ=            -26.7005
   XY=             16.1059   XZ=             -8.0796   YZ=             31.9689
 Octapole moment (field-independent basis, Debye-Ang**2):
  XXX=          -3372.8575  YYY=          -1770.6050  ZZZ=          -3257.8770  XYY=           -484.3647
  XXY=          -1138.0847  XXZ=          -1137.8000  XZZ=          -1096.9816  YZZ=           -886.4800
  YYZ=           -292.5639  XYZ=            159.3750
 Hexadecapole moment (field-independent basis, Debye-Ang**3):
 XXXX=         -65692.8553 YYYY=         -49087.0327 ZZZZ=         -67004.0423 XXXY=         -34847.9471
 XXXZ=         -31571.0942 YYYX=         -22539.6409 YYYZ=         -20780.3662 ZZZX=         -31737.9976
 ZZZY=         -32837.9943 XXYY=         -20058.1078 XXZZ=         -20977.0066 YYZZ=         -17129.9153
 XXYZ=         -10487.9073 YYXZ=          -5460.7825 ZZXY=          -9553.1036
 N-N= 1.539048898295D+03 E-N=-6.031205977799D+03  KE= 1.249199989370D+03
 No NMR shielding tensors so no spin-rotation constants.
 Leave Link  601 at Thu May 19 13:16:01 2022, MaxMem= 13421772800 cpu:               3.5 elap:               0.2
 (Enter /data0/home/wuhanyu/software/g16/l122.exe)
 CPIOFr:  IOpCl= 0 IRwI=-1 IRwCP=  731 ICalc= -1 LCPTot=      476108 Len1MO=     1251798 IndFrg=      476108
 CPIOFr:  IOpCl= 0 IRwI=-1 IRwCP=  731 ICalc=  0 LCPTot=      476108 Len1MO=     1251798 IndFrg=     1727906
 Counterpoise: doing calculation for fragment   1 using the basis set of the full-system, NewBq=T
 Leave Link  122 at Thu May 19 13:16:01 2022, MaxMem= 13421772800 cpu:               0.5 elap:               0.0
 (Enter /data0/home/wuhanyu/software/g16/l301.exe)
 Basis read from rwf:  (5D, 7F)
 No pseudopotential information found on rwf file.
   557 basis functions,   848 primitive gaussians,   591 cartesian basis functions
    31 alpha electrons       31 beta electrons
       nuclear repulsion energy       401.5231121484 Hartrees.
 IExCor= 4336 DFT=T Ex+Corr=M062X ExCW=0 ScaHFX=  0.540000
 ScaDFX=  1.000000  1.000000  1.000000  1.000000 ScalE2=  1.000000  1.000000
 IRadAn=      5 IRanWt=     -1 IRanGd=            0 ICorTp=0 IEmpDi=131
 NAtoms=   32 NActive=   32 NUniq=   32 SFac= 1.00D+00 NAtFMM=   60 NAOKFM=F Big=F
 Integral buffers will be    131072 words long.
 Raffenetti 2 integral format.
 Two-electron integral symmetry is turned off.
 R6Disp:  Grimme-D3 Dispersion energy=       -0.0002902515 Hartrees.
 Nuclear repulsion after empirical dispersion term =      401.5228218969 Hartrees.
 No density basis found on file   718.
 Leave Link  301 at Thu May 19 13:16:01 2022, MaxMem= 13421772800 cpu:               1.2 elap:               0.1
 (Enter /data0/home/wuhanyu/software/g16/l302.exe)
 NPDir=0 NMtPBC=     1 NCelOv=     1 NCel=       1 NClECP=     1 NCelD=      1
         NCelK=      1 NCelE2=     1 NClLst=     1 CellRange=     0.0.
 One-electron integrals computed using PRISM.
 NBasis=   557 RedAO= T EigKep=  1.23D-06  NBF=   557
 NBsUse=   556 1.00D-06 EigRej=  9.52D-07 NBFU=   556
 Precomputing XC quadrature grid using
 IXCGrd= 4 IRadAn=           5 IRanWt=          -1 IRanGd=           0 AccXCQ= 0.00D+00.
 Generated NRdTot=       0 NPtTot=           0 NUsed=           0 NTot=          32
 NSgBfM=   589   589   589   589   589 MxSgAt=    32 MxSgA2=    32.
 Leave Link  302 at Thu May 19 13:16:02 2022, MaxMem= 13421772800 cpu:              11.8 elap:               0.6
 (Enter /data0/home/wuhanyu/software/g16/l303.exe)
 DipDrv:  MaxL=1.
 Leave Link  303 at Thu May 19 13:16:02 2022, MaxMem= 13421772800 cpu:               1.2 elap:               0.1
 (Enter /data0/home/wuhanyu/software/g16/l401.exe)
 ExpMin= 3.48D-02 ExpMax= 7.75D+04 ExpMxC= 2.65D+03 IAcc=3 IRadAn=         5 AccDes= 0.00D+00
 Harris functional with IExCor= 1009 and IRadAn=       5 diagonalized for initial guess.
 HarFok:  IExCor= 1009 AccDes= 0.00D+00 IRadAn=         5 IDoV= 1 UseB2=F ITyADJ=14
 ICtDFT=  3500011 ScaDFX=  1.000000  1.000000  1.000000  1.000000
 FoFCou: FMM=F IPFlag=           0 FMFlag=      100000 FMFlg1=           0
         NFxFlg=           0 DoJE=T BraDBF=F KetDBF=T FulRan=T
         wScrn=  0.000000 ICntrl=       500 IOpCl=  0 I1Cent=   200000004 NGrid=           0
         NMat0=    1 NMatS0=      1 NMatT0=    0 NMatD0=    1 NMtDS0=    0 NMtDT0=    0
 Symmetry not used in FoFCou.
 Harris En= -379.614473280511    
 JPrj=0 DoOrth=F DoCkMO=F.
 Leave Link  401 at Thu May 19 13:16:04 2022, MaxMem= 13421772800 cpu:              46.6 elap:               2.2
 (Enter /data0/home/wuhanyu/software/g16/l502.exe)
 Two-electron integral symmetry not used.
 Closed shell SCF:
 Using DIIS extrapolation, IDIIS=  1040.
 NGot= 13421772800 LenX= 13421057117 LenY= 13420707245
 Requested convergence on RMS density matrix=1.00D-08 within 128 cycles.
 Requested convergence on MAX density matrix=1.00D-06.
 Requested convergence on             energy=1.00D-06.
 No special actions if energy rises.
 Fock matrices will be formed incrementally for  20 cycles.

 Cycle   1  Pass 1  IDiag  1:
 FoFJK:  IHMeth= 1 ICntrl=       0 DoSepK=F KAlg= 0 I1Cent=           0 FoldK=F
 IRaf= 850000000 NMat=       1 IRICut=       1 DoRegI=T DoRafI=F ISym2E= 0 IDoP0=0 IntGTp=1.
 FoFCou: FMM=F IPFlag=           0 FMFlag=      100000 FMFlg1=           0
         NFxFlg=           0 DoJE=F BraDBF=F KetDBF=F FulRan=T
         wScrn=  0.000000 ICntrl=         0 IOpCl=  0 I1Cent=           0 NGrid=           0
         NMat0=    1 NMatS0=      1 NMatT0=    0 NMatD0=    1 NMtDS0=    0 NMtDT0=    0
 Symmetry not used in FoFCou.
 E= -379.611417122846    
 DIIS: error= 1.44D-02 at cycle   1 NSaved=   1.
 NSaved= 1 IEnMin= 1 EnMin= -379.611417122846     IErMin= 1 ErrMin= 1.44D-02
 ErrMax= 1.44D-02  0.00D+00 EMaxC= 1.00D-01 BMatC= 2.49D-01 BMatP= 2.49D-01
 IDIUse=3 WtCom= 8.56D-01 WtEn= 1.44D-01
 Coeff-Com:  0.100D+01
 Coeff-En:   0.100D+01
 Coeff:      0.100D+01
 Gap=     0.306 Goal=   None    Shift=    0.000
 GapD=    0.306 DampG=1.000 DampE=0.500 DampFc=0.5000 IDamp=-1.
 Damping current iteration by 5.00D-01
 RMSDP=7.42D-03 MaxDP=1.90D+00              OVMax= 2.14D-01

 Cycle   2  Pass 1  IDiag  1:
 RMSU=  3.06D-03    CP:  1.17D+00
 E= -379.708067269590     Delta-E=       -0.096650146745 Rises=F Damp=T
 DIIS: error= 4.70D-03 at cycle   2 NSaved=   2.
 NSaved= 2 IEnMin= 2 EnMin= -379.708067269590     IErMin= 2 ErrMin= 4.70D-03
 ErrMax= 4.70D-03  0.00D+00 EMaxC= 1.00D-01 BMatC= 2.64D-02 BMatP= 2.49D-01
 IDIUse=3 WtCom= 9.53D-01 WtEn= 4.70D-02
 Coeff-Com: -0.895D-01 0.109D+01
 Coeff-En:   0.000D+00 0.100D+01
 Coeff:     -0.853D-01 0.109D+01
 Gap=     0.298 Goal=   None    Shift=    0.000
 RMSDP=1.80D-03 MaxDP=2.95D-01 DE=-9.67D-02 OVMax= 1.77D-01

 Cycle   3  Pass 1  IDiag  1:
 RMSU=  1.63D-03    CP:  1.11D+00  9.77D-01
 E= -379.800254633499     Delta-E=       -0.092187363908 Rises=F Damp=F
 DIIS: error= 5.31D-03 at cycle   3 NSaved=   3.
 NSaved= 3 IEnMin= 3 EnMin= -379.800254633499     IErMin= 2 ErrMin= 4.70D-03
 ErrMax= 5.31D-03  0.00D+00 EMaxC= 1.00D-01 BMatC= 1.80D-02 BMatP= 2.64D-02
 IDIUse=3 WtCom= 9.47D-01 WtEn= 5.31D-02
 Coeff-Com: -0.138D+00 0.540D+00 0.598D+00
 Coeff-En:   0.000D+00 0.000D+00 0.100D+01
 Coeff:     -0.131D+00 0.511D+00 0.620D+00
 Gap=     0.279 Goal=   None    Shift=    0.000
 RMSDP=9.98D-04 MaxDP=2.60D-01 DE=-9.22D-02 OVMax= 6.05D-02

 Cycle   4  Pass 1  IDiag  1:
 RMSU=  6.33D-04    CP:  1.06D+00  9.36D-01  7.54D-01
 E= -379.815410794583     Delta-E=       -0.015156161084 Rises=F Damp=F
 DIIS: error= 1.56D-03 at cycle   4 NSaved=   4.
 NSaved= 4 IEnMin= 4 EnMin= -379.815410794583     IErMin= 4 ErrMin= 1.56D-03
 ErrMax= 1.56D-03  0.00D+00 EMaxC= 1.00D-01 BMatC= 2.47D-03 BMatP= 1.80D-02
 IDIUse=3 WtCom= 9.84D-01 WtEn= 1.56D-02
 Coeff-Com: -0.584D-01 0.150D+00 0.328D+00 0.581D+00
 Coeff-En:   0.000D+00 0.000D+00 0.647D-01 0.935D+00
 Coeff:     -0.575D-01 0.147D+00 0.324D+00 0.586D+00
 Gap=     0.277 Goal=   None    Shift=    0.000
 RMSDP=2.72D-04 MaxDP=6.23D-02 DE=-1.52D-02 OVMax= 1.30D-02

 Cycle   5  Pass 1  IDiag  1:
 RMSU=  1.77D-04    CP:  1.06D+00  8.95D-01  7.81D-01  7.49D-01
 E= -379.817524339593     Delta-E=       -0.002113545010 Rises=F Damp=F
 DIIS: error= 3.63D-04 at cycle   5 NSaved=   5.
 NSaved= 5 IEnMin= 5 EnMin= -379.817524339593     IErMin= 5 ErrMin= 3.63D-04
 ErrMax= 3.63D-04  0.00D+00 EMaxC= 1.00D-01 BMatC= 9.53D-05 BMatP= 2.47D-03
 IDIUse=3 WtCom= 9.96D-01 WtEn= 3.63D-03
 Coeff-Com: -0.200D-01 0.425D-01 0.117D+00 0.264D+00 0.597D+00
 Coeff-En:   0.000D+00 0.000D+00 0.000D+00 0.000D+00 0.100D+01
 Coeff:     -0.199D-01 0.423D-01 0.117D+00 0.263D+00 0.598D+00
 Gap=     0.275 Goal=   None    Shift=    0.000
 RMSDP=6.29D-05 MaxDP=1.41D-02 DE=-2.11D-03 OVMax= 4.00D-03

 Cycle   6  Pass 1  IDiag  1:
 RMSU=  4.51D-05    CP:  1.06D+00  9.04D-01  7.82D-01  7.64D-01  8.81D-01
 E= -379.817611870232     Delta-E=       -0.000087530639 Rises=F Damp=F
 DIIS: error= 1.71D-04 at cycle   6 NSaved=   6.
 NSaved= 6 IEnMin= 6 EnMin= -379.817611870232     IErMin= 6 ErrMin= 1.71D-04
 ErrMax= 1.71D-04  0.00D+00 EMaxC= 1.00D-01 BMatC= 1.16D-05 BMatP= 9.53D-05
 IDIUse=3 WtCom= 9.98D-01 WtEn= 1.71D-03
 Coeff-Com: -0.277D-02 0.337D-02 0.186D-01 0.533D-01 0.288D+00 0.640D+00
 Coeff-En:   0.000D+00 0.000D+00 0.000D+00 0.000D+00 0.286D-01 0.971D+00
 Coeff:     -0.277D-02 0.336D-02 0.186D-01 0.532D-01 0.287D+00 0.640D+00
 Gap=     0.276 Goal=   None    Shift=    0.000
 RMSDP=3.04D-05 MaxDP=5.89D-03 DE=-8.75D-05 OVMax= 1.47D-03

 Cycle   7  Pass 1  IDiag  1:
 RMSU=  1.87D-05    CP:  1.06D+00  8.97D-01  7.83D-01  7.67D-01  9.01D-01
                    CP:  1.07D+00
 E= -379.817624721657     Delta-E=       -0.000012851425 Rises=F Damp=F
 DIIS: error= 4.68D-05 at cycle   7 NSaved=   7.
 NSaved= 7 IEnMin= 7 EnMin= -379.817624721657     IErMin= 7 ErrMin= 4.68D-05
 ErrMax= 4.68D-05  0.00D+00 EMaxC= 1.00D-01 BMatC= 4.14D-07 BMatP= 1.16D-05
 IDIUse=1 WtCom= 1.00D+00 WtEn= 0.00D+00
 Coeff-Com:  0.148D-02-0.362D-02-0.661D-02-0.167D-01-0.410D-02 0.964D-01
 Coeff-Com:  0.933D+00
 Coeff:      0.148D-02-0.362D-02-0.661D-02-0.167D-01-0.410D-02 0.964D-01
 Coeff:      0.933D+00
 Gap=     0.276 Goal=   None    Shift=    0.000
 RMSDP=1.06D-05 MaxDP=2.36D-03 DE=-1.29D-05 OVMax= 4.67D-04

 Cycle   8  Pass 1  IDiag  1:
 RMSU=  3.22D-06    CP:  1.06D+00  8.95D-01  7.84D-01  7.66D-01  9.23D-01
                    CP:  1.17D+00  1.18D+00
 E= -379.817625387260     Delta-E=       -0.000000665603 Rises=F Damp=F
 DIIS: error= 1.63D-05 at cycle   8 NSaved=   8.
 NSaved= 8 IEnMin= 8 EnMin= -379.817625387260     IErMin= 8 ErrMin= 1.63D-05
 ErrMax= 1.63D-05  0.00D+00 EMaxC= 1.00D-01 BMatC= 1.78D-07 BMatP= 4.14D-07
 IDIUse=1 WtCom= 1.00D+00 WtEn= 0.00D+00
 Coeff-Com:  0.107D-02-0.221D-02-0.514D-02-0.147D-01-0.328D-01-0.203D-01
 Coeff-Com:  0.495D+00 0.579D+00
 Coeff:      0.107D-02-0.221D-02-0.514D-02-0.147D-01-0.328D-01-0.203D-01
 Coeff:      0.495D+00 0.579D+00
 Gap=     0.276 Goal=   None    Shift=    0.000
 RMSDP=2.00D-06 MaxDP=2.14D-04 DE=-6.66D-07 OVMax= 2.18D-04

 Cycle   9  Pass 1  IDiag  1:
 RMSU=  1.49D-06    CP:  1.06D+00  8.95D-01  7.84D-01  7.66D-01  9.22D-01
                    CP:  1.18D+00  1.23D+00  1.01D+00
 E= -379.817625606479     Delta-E=       -0.000000219218 Rises=F Damp=F
 DIIS: error= 8.96D-06 at cycle   9 NSaved=   9.
 NSaved= 9 IEnMin= 9 EnMin= -379.817625606479     IErMin= 9 ErrMin= 8.96D-06
 ErrMax= 8.96D-06  0.00D+00 EMaxC= 1.00D-01 BMatC= 8.99D-09 BMatP= 1.78D-07
 IDIUse=1 WtCom= 1.00D+00 WtEn= 0.00D+00
 Coeff-Com: -0.558D-04 0.173D-03 0.434D-03 0.381D-03-0.269D-02-0.150D-01
 Coeff-Com: -0.673D-01 0.111D+00 0.973D+00
 Coeff:     -0.558D-04 0.173D-03 0.434D-03 0.381D-03-0.269D-02-0.150D-01
 Coeff:     -0.673D-01 0.111D+00 0.973D+00
 Gap=     0.276 Goal=   None    Shift=    0.000
 RMSDP=1.38D-06 MaxDP=3.05D-04 DE=-2.19D-07 OVMax= 9.42D-05

 Cycle  10  Pass 1  IDiag  1:
 RMSU=  4.58D-07    CP:  1.06D+00  8.95D-01  7.84D-01  7.66D-01  9.22D-01
                    CP:  1.18D+00  1.24D+00  1.20D+00  1.13D+00
 E= -379.817625628798     Delta-E=       -0.000000022319 Rises=F Damp=F
 DIIS: error= 1.83D-06 at cycle  10 NSaved=  10.
 NSaved=10 IEnMin=10 EnMin= -379.817625628798     IErMin=10 ErrMin= 1.83D-06
 ErrMax= 1.83D-06  0.00D+00 EMaxC= 1.00D-01 BMatC= 9.61D-10 BMatP= 8.99D-09
 IDIUse=1 WtCom= 1.00D+00 WtEn= 0.00D+00
 Coeff-Com: -0.990D-04 0.222D-03 0.582D-03 0.127D-02 0.164D-02-0.263D-02
 Coeff-Com: -0.619D-01-0.205D-01 0.272D+00 0.809D+00
 Coeff:     -0.990D-04 0.222D-03 0.582D-03 0.127D-02 0.164D-02-0.263D-02
 Coeff:     -0.619D-01-0.205D-01 0.272D+00 0.809D+00
 Gap=     0.276 Goal=   None    Shift=    0.000
 RMSDP=4.31D-07 MaxDP=8.66D-05 DE=-2.23D-08 OVMax= 3.57D-05

 Cycle  11  Pass 1  IDiag  1:
 RMSU=  1.32D-07    CP:  1.06D+00  8.95D-01  7.84D-01  7.66D-01  9.22D-01
                    CP:  1.18D+00  1.24D+00  1.23D+00  1.22D+00  1.07D+00
 E= -379.817625630938     Delta-E=       -0.000000002140 Rises=F Damp=F
 DIIS: error= 1.04D-06 at cycle  11 NSaved=  11.
 NSaved=11 IEnMin=11 EnMin= -379.817625630938     IErMin=11 ErrMin= 1.04D-06
 ErrMax= 1.04D-06  0.00D+00 EMaxC= 1.00D-01 BMatC= 2.74D-10 BMatP= 9.61D-10
 IDIUse=1 WtCom= 1.00D+00 WtEn= 0.00D+00
 Coeff-Com: -0.334D-04 0.706D-04 0.204D-03 0.507D-03 0.991D-03 0.839D-03
 Coeff-Com: -0.196D-01-0.274D-01-0.103D-01 0.393D+00 0.662D+00
 Coeff:     -0.334D-04 0.706D-04 0.204D-03 0.507D-03 0.991D-03 0.839D-03
 Coeff:     -0.196D-01-0.274D-01-0.103D-01 0.393D+00 0.662D+00
 Gap=     0.276 Goal=   None    Shift=    0.000
 RMSDP=9.59D-08 MaxDP=1.39D-05 DE=-2.14D-09 OVMax= 1.43D-05

 Cycle  12  Pass 1  IDiag  1:
 RMSU=  6.00D-08    CP:  1.06D+00  8.95D-01  7.84D-01  7.66D-01  9.22D-01
                    CP:  1.18D+00  1.24D+00  1.24D+00  1.23D+00  1.14D+00
                    CP:  1.06D+00
 E= -379.817625631345     Delta-E=       -0.000000000407 Rises=F Damp=F
 DIIS: error= 1.88D-07 at cycle  12 NSaved=  12.
 NSaved=12 IEnMin=12 EnMin= -379.817625631345     IErMin=12 ErrMin= 1.88D-07
 ErrMax= 1.88D-07  0.00D+00 EMaxC= 1.00D-01 BMatC= 1.47D-11 BMatP= 2.74D-10
 IDIUse=1 WtCom= 1.00D+00 WtEn= 0.00D+00
 Coeff-Com:  0.887D-05-0.200D-04-0.487D-04-0.871D-04-0.867D-04 0.696D-03
 Coeff-Com:  0.588D-02-0.452D-02-0.448D-01-0.350D-01 0.126D+00 0.952D+00
 Coeff:      0.887D-05-0.200D-04-0.487D-04-0.871D-04-0.867D-04 0.696D-03
 Coeff:      0.588D-02-0.452D-02-0.448D-01-0.350D-01 0.126D+00 0.952D+00
 Gap=     0.276 Goal=   None    Shift=    0.000
 RMSDP=5.63D-08 MaxDP=1.20D-05 DE=-4.07D-10 OVMax= 6.30D-06

 Cycle  13  Pass 1  IDiag  1:
 RMSU=  3.23D-08    CP:  1.06D+00  8.95D-01  7.84D-01  7.65D-01  9.22D-01
                    CP:  1.18D+00  1.24D+00  1.24D+00  1.23D+00  1.17D+00
                    CP:  1.19D+00  1.32D+00
 E= -379.817625631370     Delta-E=       -0.000000000025 Rises=F Damp=F
 DIIS: error= 8.19D-08 at cycle  13 NSaved=  13.
 NSaved=13 IEnMin=13 EnMin= -379.817625631370     IErMin=13 ErrMin= 8.19D-08
 ErrMax= 8.19D-08  0.00D+00 EMaxC= 1.00D-01 BMatC= 2.74D-12 BMatP= 1.47D-11
 IDIUse=1 WtCom= 1.00D+00 WtEn= 0.00D+00
 Coeff-Com:  0.506D-05-0.113D-04-0.309D-04-0.615D-04-0.109D-03 0.198D-03
 Coeff-Com:  0.335D-02 0.352D-03-0.118D-01-0.373D-01-0.243D-01 0.300D+00
 Coeff-Com:  0.769D+00
 Coeff:      0.506D-05-0.113D-04-0.309D-04-0.615D-04-0.109D-03 0.198D-03
 Coeff:      0.335D-02 0.352D-03-0.118D-01-0.373D-01-0.243D-01 0.300D+00
 Coeff:      0.769D+00
 Gap=     0.276 Goal=   None    Shift=    0.000
 RMSDP=1.45D-08 MaxDP=2.56D-06 DE=-2.48D-11 OVMax= 1.87D-06

 Cycle  14  Pass 1  IDiag  1:
 RMSU=  7.57D-09    CP:  1.06D+00  8.95D-01  7.84D-01  7.65D-01  9.22D-01
                    CP:  1.18D+00  1.24D+00  1.24D+00  1.23D+00  1.18D+00
                    CP:  1.21D+00  1.42D+00  1.11D+00
 E= -379.817625631407     Delta-E=       -0.000000000037 Rises=F Damp=F
 DIIS: error= 3.88D-08 at cycle  14 NSaved=  14.
 NSaved=14 IEnMin=14 EnMin= -379.817625631407     IErMin=14 ErrMin= 3.88D-08
 ErrMax= 3.88D-08  0.00D+00 EMaxC= 1.00D-01 BMatC= 8.68D-13 BMatP= 2.74D-12
 IDIUse=1 WtCom= 1.00D+00 WtEn= 0.00D+00
 Coeff-Com:  0.242D-06-0.585D-06-0.376D-05-0.689D-05-0.353D-04-0.480D-04
 Coeff-Com:  0.203D-03 0.102D-02 0.512D-02-0.867D-02-0.489D-01-0.845D-01
 Coeff-Com:  0.391D+00 0.745D+00
[...]
     4  C    0.000000
     5  C    0.000000
     6  C    0.000000
    12  C    0.000000
    14  N    0.000000
    15  N    0.000000
    16  P    0.000000
    17  O    0.000000
    18  O    0.000000
    20  O    0.000000
    22  O    0.000000
    24  O    0.000000
    27  O    0.000000
    30  O    0.000000
         Mulliken charges condensed to fragments:
      1      0.000000
      2      0.000000
      3      0.000000
      4      0.000000
      5      0.000000
 Electronic spatial extent (au):  <R**2>=          11018.6094
 Charge=              0.0000 electrons
 Dipole moment (field-independent basis, Debye):
    X=             -0.4811    Y=             -1.4182    Z=             -1.4872  Tot=              2.1105
 Quadrupole moment (field-independent basis, Debye-Ang):
   XX=            -16.4862   YY=            -41.6008   ZZ=            -28.0666
   XY=            -18.6276   XZ=            -17.8865   YZ=            -30.6452
 Traceless Quadrupole moment (field-independent basis, Debye-Ang):
   XX=             12.2317   YY=            -12.8829   ZZ=              0.6512
   XY=            -18.6276   XZ=            -17.8865   YZ=            -30.6452
 Octapole moment (field-independent basis, Debye-Ang**2):
  XXX=           -336.4264  YYY=           -900.5995  ZZZ=           -384.4697  XYY=           -448.1172
  XXY=           -319.8495  XXZ=           -261.7527  XZZ=           -295.1289  YZZ=           -453.2843
  YYZ=           -581.0541  XYZ=           -331.3515
 Hexadecapole moment (field-independent basis, Debye-Ang**3):
 XXXX=          -5515.2041 YYYY=         -17118.2289 ZZZZ=          -4579.0509 XXXY=          -5247.9076
 XXXZ=          -3868.0718 YYYX=          -9062.1663 YYYZ=         -10370.3096 ZZZX=          -3861.8921
 ZZZY=          -5676.0919 XXYY=          -5963.0106 XXZZ=          -3506.0230 YYZZ=          -7313.3140
 XXYZ=          -4247.7073 YYXZ=          -5932.3488 ZZXY=          -4609.1448
 N-N= 9.093048844791D+00 E-N=-1.990365092392D+02  KE= 7.619139583328D+01
 No NMR shielding tensors so no spin-rotation constants.
 Leave Link  601 at Thu May 19 13:24:09 2022, MaxMem= 13421772800 cpu:               1.6 elap:               0.1
 (Enter /data0/home/wuhanyu/software/g16/l122.exe)
 CPIOFr:  IOpCl= 0 IRwI=-1 IRwCP=  731 ICalc=  9 LCPTot=      476108 Len1MO=     1251798 IndFrg=    12994088
 Counterpoise: doing calculation for fragment   5 using the basis set of the fragment.
 Leave Link  122 at Thu May 19 13:24:09 2022, MaxMem= 13421772800 cpu:               0.2 elap:               0.0
 (Enter /data0/home/wuhanyu/software/g16/l301.exe)
 Basis read from rwf:  (5D, 7F)
 No pseudopotential information found on rwf file.
    39 basis functions,    58 primitive gaussians,    41 cartesian basis functions
     5 alpha electrons        5 beta electrons
       nuclear repulsion energy         9.1456804406 Hartrees.
 IExCor= 4336 DFT=T Ex+Corr=M062X ExCW=0 ScaHFX=  0.540000
 ScaDFX=  1.000000  1.000000  1.000000  1.000000 ScalE2=  1.000000  1.000000
 IRadAn=      5 IRanWt=     -1 IRanGd=            0 ICorTp=0 IEmpDi=131
 NAtoms=   32 NActive=    3 NUniq=    3 SFac= 1.00D+00 NAtFMM=   60 NAOKFM=F Big=F
 Integral buffers will be    131072 words long.
 Raffenetti 2 integral format.
 Two-electron integral symmetry is turned off.
 R6Disp:  Grimme-D3 Dispersion energy=       -0.0000000081 Hartrees.
 Nuclear repulsion after empirical dispersion term =        9.1456804325 Hartrees.
 No density basis found on file   718.
 Leave Link  301 at Thu May 19 13:24:09 2022, MaxMem= 13421772800 cpu:               1.1 elap:               0.1
 (Enter /data0/home/wuhanyu/software/g16/l302.exe)
 NPDir=0 NMtPBC=     1 NCelOv=     1 NCel=       1 NClECP=     1 NCelD=      1
         NCelK=      1 NCelE2=     1 NClLst=     1 CellRange=     0.0.
 One-electron integrals computed using PRISM.
 NBasis=    39 RedAO= T EigKep=  3.07D-03  NBF=    39
 NBsUse=    39 1.00D-06 EigRej= -1.00D+00 NBFU=    39
 Precomputing XC quadrature grid using
 IXCGrd= 4 IRadAn=           5 IRanWt=          -1 IRanGd=           0 AccXCQ= 0.00D+00.
 Generated NRdTot=       0 NPtTot=           0 NUsed=           0 NTot=          32
 NSgBfM=    41    41    41    41    41 MxSgAt=     3 MxSgA2=     3.
 Leave Link  302 at Thu May 19 13:24:09 2022, MaxMem= 13421772800 cpu:               2.0 elap:               0.1
 (Enter /data0/home/wuhanyu/software/g16/l303.exe)
 DipDrv:  MaxL=1.
 Leave Link  303 at Thu May 19 13:24:09 2022, MaxMem= 13421772800 cpu:               0.4 elap:               0.0
 (Enter /data0/home/wuhanyu/software/g16/l401.exe)
 ExpMin= 8.45D-02 ExpMax= 8.59D+03 ExpMxC= 1.30D+03 IAcc=3 IRadAn=         5 AccDes= 0.00D+00
 Harris functional with IExCor= 1009 and IRadAn=       5 diagonalized for initial guess.
 HarFok:  IExCor= 1009 AccDes= 0.00D+00 IRadAn=         5 IDoV= 1 UseB2=F ITyADJ=14
 ICtDFT=  3500011 ScaDFX=  1.000000  1.000000  1.000000  1.000000
 FoFCou: FMM=F IPFlag=           0 FMFlag=      100000 FMFlg1=           0
         NFxFlg=           0 DoJE=T BraDBF=F KetDBF=T FulRan=T
         wScrn=  0.000000 ICntrl=       500 IOpCl=  0 I1Cent=   200000004 NGrid=           0
         NMat0=    1 NMatS0=      1 NMatT0=    0 NMatD0=    1 NMtDS0=    0 NMtDT0=    0
 Symmetry not used in FoFCou.
 Harris En= -76.4171037288971    
 JPrj=0 DoOrth=F DoCkMO=F.
 Leave Link  401 at Thu May 19 13:24:09 2022, MaxMem= 13421772800 cpu:               2.6 elap:               0.1
 (Enter /data0/home/wuhanyu/software/g16/l502.exe)
 Keep R1 ints in memory in canonical form, NReq=19314679.
 FoFCou: FMM=F IPFlag=           0 FMFlag=           0 FMFlg1=           0
         NFxFlg=           0 DoJE=F BraDBF=F KetDBF=F FulRan=T
         wScrn=  0.000000 ICntrl=       600 IOpCl=  0 I1Cent=           0 NGrid=           0
         NMat0=    1 NMatS0=    780 NMatT0=    0 NMatD0=    1 NMtDS0=    0 NMtDT0=    0
 Symmetry not used in FoFCou.
 Two-electron integral symmetry not used.
 Closed shell SCF:
 Using DIIS extrapolation, IDIIS=  1040.
 NGot= 13421772800 LenX= 13421462577 LenY= 13421460455
 Requested convergence on RMS density matrix=1.00D-08 within 128 cycles.
 Requested convergence on MAX density matrix=1.00D-06.
 Requested convergence on             energy=1.00D-06.
 No special actions if energy rises.
 Integral accuracy reduced to 1.0D-05 until final iterations.

 Cycle   1  Pass 0  IDiag  1:
 E= -76.3456609678023    
 DIIS: error= 7.09D-02 at cycle   1 NSaved=   1.
 NSaved= 1 IEnMin= 1 EnMin= -76.3456609678023     IErMin= 1 ErrMin= 7.09D-02
 ErrMax= 7.09D-02  0.00D+00 EMaxC= 1.00D-01 BMatC= 1.22D-01 BMatP= 1.22D-01
 IDIUse=3 WtCom= 2.91D-01 WtEn= 7.09D-01
 Coeff-Com:  0.100D+01
 Coeff-En:   0.100D+01
 Coeff:      0.100D+01
 Gap=     0.326 Goal=   None    Shift=    0.000
 GapD=    0.326 DampG=1.000 DampE=0.500 DampFc=0.5000 IDamp=-1.
 Damping current iteration by 5.00D-01
 RMSDP=7.84D-03 MaxDP=1.02D-01              OVMax= 1.69D-01

 Cycle   2  Pass 0  IDiag  1:
 E= -76.3775723643443     Delta-E=       -0.031911396542 Rises=F Damp=T
 DIIS: error= 1.16D-02 at cycle   2 NSaved=   2.
 NSaved= 2 IEnMin= 2 EnMin= -76.3775723643443     IErMin= 2 ErrMin= 1.16D-02
 ErrMax= 1.16D-02  0.00D+00 EMaxC= 1.00D-01 BMatC= 4.77D-03 BMatP= 1.22D-01
 IDIUse=3 WtCom= 8.84D-01 WtEn= 1.16D-01
 Coeff-Com:  0.796D-01 0.920D+00
 Coeff-En:   0.183D+00 0.817D+00
 Coeff:      0.917D-01 0.908D+00
 Gap=     0.459 Goal=   None    Shift=    0.000
 RMSDP=9.26D-04 MaxDP=1.37D-02 DE=-3.19D-02 OVMax= 1.01D-01

 Cycle   3  Pass 0  IDiag  1:
 E= -76.4217683708836     Delta-E=       -0.044196006539 Rises=F Damp=F
 DIIS: error= 2.19D-03 at cycle   3 NSaved=   3.
 NSaved= 3 IEnMin= 3 EnMin= -76.4217683708836     IErMin= 3 ErrMin= 2.19D-03
 ErrMax= 2.19D-03  0.00D+00 EMaxC= 1.00D-01 BMatC= 9.13D-05 BMatP= 4.77D-03
 IDIUse=3 WtCom= 9.78D-01 WtEn= 2.19D-02
 Coeff-Com: -0.200D-01 0.398D-01 0.980D+00
 Coeff-En:   0.000D+00 0.000D+00 0.100D+01
 Coeff:     -0.195D-01 0.389D-01 0.981D+00
 Gap=     0.463 Goal=   None    Shift=    0.000
 RMSDP=1.15D-04 MaxDP=9.88D-04 DE=-4.42D-02 OVMax= 3.28D-03

 Cycle   4  Pass 0  IDiag  1:
 E= -76.4218458243224     Delta-E=       -0.000077453439 Rises=F Damp=F
 DIIS: error= 4.07D-04 at cycle   4 NSaved=   4.
 NSaved= 4 IEnMin= 4 EnMin= -76.4218458243224     IErMin= 4 ErrMin= 4.07D-04
 ErrMax= 4.07D-04  0.00D+00 EMaxC= 1.00D-01 BMatC= 3.27D-06 BMatP= 9.13D-05
 IDIUse=3 WtCom= 9.96D-01 WtEn= 4.07D-03
 Coeff-Com: -0.190D-02-0.209D-02 0.164D+00 0.840D+00
 Coeff-En:   0.000D+00 0.000D+00 0.000D+00 0.100D+01
 Coeff:     -0.189D-02-0.208D-02 0.163D+00 0.841D+00
 Gap=     0.464 Goal=   None    Shift=    0.000
 RMSDP=2.19D-05 MaxDP=3.49D-04 DE=-7.75D-05 OVMax= 5.23D-04

 Cycle   5  Pass 0  IDiag  1:
 E= -76.4218478254519     Delta-E=       -0.000002001130 Rises=F Damp=F
 DIIS: error= 8.78D-05 at cycle   5 NSaved=   5.
 NSaved= 5 IEnMin= 5 EnMin= -76.4218478254519     IErMin= 5 ErrMin= 8.78D-05
 ErrMax= 8.78D-05  0.00D+00 EMaxC= 1.00D-01 BMatC= 8.14D-08 BMatP= 3.27D-06
 IDIUse=1 WtCom= 1.00D+00 WtEn= 0.00D+00
 Coeff-Com:  0.115D-02-0.176D-02-0.358D-01-0.674D-01 0.110D+01
 Coeff:      0.115D-02-0.176D-02-0.358D-01-0.674D-01 0.110D+01
 Gap=     0.464 Goal=   None    Shift=    0.000
 RMSDP=8.89D-06 MaxDP=1.03D-04 DE=-2.00D-06 OVMax= 1.97D-04

 Initial convergence to 1.0D-05 achieved.  Increase integral accuracy.
 Cycle   6  Pass 1  IDiag  1:
 E= -76.4218475805230     Delta-E=        0.000000244929 Rises=F Damp=F
 DIIS: error= 1.63D-05 at cycle   1 NSaved=   1.
 NSaved= 1 IEnMin= 1 EnMin= -76.4218475805230     IErMin= 1 ErrMin= 1.63D-05
 ErrMax= 1.63D-05  0.00D+00 EMaxC= 1.00D-01 BMatC= 8.95D-09 BMatP= 8.95D-09
 IDIUse=1 WtCom= 1.00D+00 WtEn= 0.00D+00
 Coeff-Com:  0.100D+01
 Coeff:      0.100D+01
 Gap=     0.464 Goal=   None    Shift=    0.000
 RMSDP=8.89D-06 MaxDP=1.03D-04 DE= 2.45D-07 OVMax= 4.10D-05

 Cycle   7  Pass 1  IDiag  1:
 E= -76.4218475881173     Delta-E=       -0.000000007594 Rises=F Damp=F
 DIIS: error= 6.24D-06 at cycle   2 NSaved=   2.
 NSaved= 2 IEnMin= 2 EnMin= -76.4218475881173     IErMin= 2 ErrMin= 6.24D-06
 ErrMax= 6.24D-06  0.00D+00 EMaxC= 1.00D-01 BMatC= 6.07D-10 BMatP= 8.95D-09
 IDIUse=1 WtCom= 1.00D+00 WtEn= 0.00D+00
 Coeff-Com:  0.301D-01 0.970D+00
 Coeff:      0.301D-01 0.970D+00
 Gap=     0.464 Goal=   None    Shift=    0.000
 RMSDP=5.99D-07 MaxDP=9.30D-06 DE=-7.59D-09 OVMax= 1.49D-05

 Cycle   8  Pass 1  IDiag  1:
 E= -76.4218475883403     Delta-E=       -0.000000000223 Rises=F Damp=F
 DIIS: error= 4.63D-06 at cycle   3 NSaved=   3.
 NSaved= 3 IEnMin= 3 EnMin= -76.4218475883403     IErMin= 3 ErrMin= 4.63D-06
 ErrMax= 4.63D-06  0.00D+00 EMaxC= 1.00D-01 BMatC= 5.71D-10 BMatP= 6.07D-10
 IDIUse=1 WtCom= 1.00D+00 WtEn= 0.00D+00
 Coeff-Com: -0.487D-01 0.511D+00 0.538D+00
 Coeff:     -0.487D-01 0.511D+00 0.538D+00
 Gap=     0.464 Goal=   None    Shift=    0.000
 RMSDP=2.89D-07 MaxDP=3.55D-06 DE=-2.23D-10 OVMax= 7.13D-06

 Cycle   9  Pass 1  IDiag  1:
 E= -76.4218475887253     Delta-E=       -0.000000000385 Rises=F Damp=F
 DIIS: error= 6.21D-07 at cycle   4 NSaved=   4.
 NSaved= 4 IEnMin= 4 EnMin= -76.4218475887253     IErMin= 4 ErrMin= 6.21D-07
 ErrMax= 6.21D-07  0.00D+00 EMaxC= 1.00D-01 BMatC= 4.72D-12 BMatP= 5.71D-10
 IDIUse=1 WtCom= 1.00D+00 WtEn= 0.00D+00
 Coeff-Com: -0.114D-02-0.619D-01 0.253D-02 0.106D+01
 Coeff:     -0.114D-02-0.619D-01 0.253D-02 0.106D+01
 Gap=     0.464 Goal=   None    Shift=    0.000
 RMSDP=8.68D-08 MaxDP=6.30D-07 DE=-3.85D-10 OVMax= 1.66D-06

 Cycle  10  Pass 1  IDiag  1:
 E= -76.4218475887340     Delta-E=       -0.000000000009 Rises=F Damp=F
 DIIS: error= 8.19D-08 at cycle   5 NSaved=   5.
 NSaved= 5 IEnMin= 5 EnMin= -76.4218475887340     IErMin= 5 ErrMin= 8.19D-08
 ErrMax= 8.19D-08  0.00D+00 EMaxC= 1.00D-01 BMatC= 2.24D-13 BMatP= 4.72D-12
 IDIUse=1 WtCom= 1.00D+00 WtEn= 0.00D+00
 Coeff-Com:  0.342D-02-0.452D-01-0.367D-01 0.120D+00 0.959D+00
 Coeff:      0.342D-02-0.452D-01-0.367D-01 0.120D+00 0.959D+00
 Gap=     0.464 Goal=   None    Shift=    0.000
 RMSDP=2.18D-08 MaxDP=1.62D-07 DE=-8.64D-12 OVMax= 4.46D-07

 Cycle  11  Pass 1  IDiag  1:
 E= -76.4218475887344     Delta-E=       -0.000000000000 Rises=F Damp=F
 DIIS: error= 6.27D-09 at cycle   6 NSaved=   6.
 NSaved= 6 IEnMin= 6 EnMin= -76.4218475887344     IErMin= 6 ErrMin= 6.27D-09
 ErrMax= 6.27D-09  0.00D+00 EMaxC= 1.00D-01 BMatC= 1.49D-15 BMatP= 2.24D-13
 IDIUse=1 WtCom= 1.00D+00 WtEn= 0.00D+00
 Coeff-Com: -0.122D-03 0.268D-02 0.143D-02-0.193D-01-0.509D-01 0.107D+01
 Coeff:     -0.122D-03 0.268D-02 0.143D-02-0.193D-01-0.509D-01 0.107D+01
 Gap=     0.464 Goal=   None    Shift=    0.000
 RMSDP=2.42D-09 MaxDP=2.56D-08 DE=-3.84D-13 OVMax= 4.75D-08

 SCF Done:  E(RM062X) =  -76.4218475887     A.U. after   11 cycles
            NFock= 11  Conv=0.24D-08     -V/T= 2.0028
 KE= 7.621027840354D+01 PE=-1.991515563297D+02 EE= 3.737374990498D+01
 Leave Link  502 at Thu May 19 13:24:10 2022, MaxMem= 13421772800 cpu:               8.2 elap:               0.4
 (Enter /data0/home/wuhanyu/software/g16/l601.exe)
 Copying SCF densities to generalized density rwf, IOpCl= 0 IROHF=0.

 **********************************************************************

            Population analysis using the SCF density.

 **********************************************************************

 Alpha  occ. eigenvalues --  -19.62454  -1.13446  -0.61278  -0.47244  -0.39984
 Alpha virt. eigenvalues --    0.06396   0.13387   0.17356   0.17950   0.18984
 Alpha virt. eigenvalues --    0.23106   0.51628   0.53647   0.97620   1.00139
 Alpha virt. eigenvalues --    1.06073   1.19696   1.19738   1.33045   1.33610
 Alpha virt. eigenvalues --    1.68901   1.74037   1.76414   2.07748   2.09787
 Alpha virt. eigenvalues --    2.34123   2.45103   2.54061   2.89561   3.01452
 Alpha virt. eigenvalues --    5.05764   5.47232   5.95681   6.78029   6.80489
 Alpha virt. eigenvalues --    6.86518   6.91706   7.09367  49.96494
          Condensed to atoms (all electrons):
              30         31         32
    30  O    7.910848   0.323213   0.326495
    31  H    0.323213   0.420193  -0.025186
    32  H    0.326495  -0.025186   0.419914
 Mulliken charges:
               1
     1  C    0.000000
     2  C    0.000000
     3  C    0.000000
     4  C    0.000000
     5  C    0.000000
     6  C    0.000000
     7  H    0.000000
     8  H    0.000000
     9  H    0.000000
    10  H    0.000000
    11  H    0.000000
    12  C    0.000000
    13  H    0.000000
    14  N    0.000000
    15  N    0.000000
    16  P    0.000000
    17  O    0.000000
    18  O    0.000000
    19  H    0.000000
    20  O    0.000000
    21  H    0.000000
    22  O    0.000000
    23  H    0.000000
    24  O    0.000000
    25  H    0.000000
    26  H    0.000000
    27  O    0.000000
    28  H    0.000000
    29  H    0.000000
    30  O   -0.560556
    31  H    0.281780
    32  H    0.278776
 Sum of Mulliken charges =   0.00000
 Mulliken charges with hydrogens summed into heavy atoms:
               1
     1  C    0.000000
     2  C    0.000000
     3  C    0.000000
     4  C    0.000000
     5  C    0.000000
     6  C    0.000000
    12  C    0.000000
    14  N    0.000000
    15  N    0.000000
    16  P    0.000000
    17  O    0.000000
    18  O    0.000000
    20  O    0.000000
    22  O    0.000000
    24  O    0.000000
    27  O    0.000000
    30  O    0.000000
         Mulliken charges condensed to fragments:
      1      0.000000
      2      0.000000
      3      0.000000
      4      0.000000
      5      0.000000
 Electronic spatial extent (au):  <R**2>=          12875.0814
 Charge=              0.0000 electrons
 Dipole moment (field-independent basis, Debye):
    X=             -0.0999    Y=              0.4526    Z=             -2.0332  Tot=              2.0854
 Quadrupole moment (field-independent basis, Debye-Ang):
   XX=             -7.6885   YY=              6.8267   ZZ=            -45.5709
   XY=              0.5605   XZ=            -17.7007   YZ=            -24.3298
 Traceless Quadrupole moment (field-independent basis, Debye-Ang):
   XX=              7.7891   YY=             22.3042   ZZ=            -30.0933
   XY=              0.5605   XZ=            -17.7007   YZ=            -24.3298
 Octapole moment (field-independent basis, Debye-Ang**2):
  XXX=           -165.9781  YYY=             17.4160  ZZZ=           -752.6687  XYY=            -12.6087
  XXY=           -106.3875  XXZ=           -212.6938  XZZ=           -382.8773  YZZ=           -601.7909
  YYZ=           -339.9269  XYZ=           -230.4033
 Hexadecapole moment (field-independent basis, Debye-Ang**3):
 XXXX=          -2570.8317 YYYY=          -2093.1042 ZZZZ=         -10906.9914 XXXY=          -2438.4848
 XXXZ=          -2753.3963 YYYX=          -1159.3565 YYYZ=          -5581.2853 ZZZX=          -6240.6315
 ZZZY=         -10238.0076 XXYY=          -1866.2434 XXZZ=          -3795.1306 YYZZ=          -8480.5341
 XXYZ=          -2974.9334 YYXZ=          -3450.1646 ZZXY=          -5218.7498
 N-N= 9.145680432479D+00 E-N=-1.991515563323D+02  KE= 7.621027840354D+01
 No NMR shielding tensors so no spin-rotation constants.
 Leave Link  601 at Thu May 19 13:24:10 2022, MaxMem= 13421772800 cpu:               1.6 elap:               0.1
 (Enter /data0/home/wuhanyu/software/g16/l122.exe)
 CPIOFr:  IOpCl= 0 IRwI=-1 IRwCP=  731 ICalc= 10 LCPTot=      476108 Len1MO=     1251798 IndFrg=    14245886
 Restoring MOs from calculation   1 to rwf.
 CPIOFr:  IOpCl= 0 IRwI=-2 IRwCP=  731 ICalc=  0 LCPTot=      476108 Len1MO=     1251798 IndFrg=     1727906
 Counterpoise corrected energy =   -1253.328254070458
                   BSSE energy =       0.007198284653
              sum of fragments =   -1253.231599154382
           complexation energy =     -65.17 kcal/mole (raw)
           complexation energy =     -60.65 kcal/mole (corrected)
 Leave Link  122 at Thu May 19 13:24:10 2022, MaxMem= 13421772800 cpu:               0.5 elap:               0.0
 (Enter /data0/home/wuhanyu/software/g16/l9999.exe)
 1\1\GINC-LOCALHOST\SP\RM062X\6-311+G(2d,p)\C7H15N2O7P1\WUHANYU\19-May-
 2022\0\\#p M062X/6-311+G(2d,p) nosymm em=GD3 counterpoise=5\\Title Car
 d Required\\0,1\C,0,9.549098,11.941592,11.407958\C,0,9.945762,10.57099
 8,11.571605\C,0,11.258038,10.260358,11.944571\C,0,12.131459,11.313252,
 12.149349\C,0,11.730713,12.659179,11.989909\C,0,10.44275,12.995708,11.
 615049\H,0,11.562743,9.221868,12.05753\H,0,13.160784,11.110297,12.4431
 49\H,0,12.463315,13.445708,12.169676\H,0,10.123394,14.027101,11.479776
 \H,0,7.664455,12.731579,10.764559\C,0,7.839934,10.567471,10.941198\H,0
 ,6.85648,10.244616,10.625775\N,0,8.206568,11.911678,11.024535\N,0,8.85
 1178,9.752102,11.278363\P,0,9.413813,8.816127,8.090691\O,0,8.608246,10
 .045547,8.064532\O,0,9.109237,7.776393,9.24323\H,0,9.074463,8.301755,1
 0.16682\O,0,9.165128,7.9479,6.780038\H,0,9.735893,7.089734,6.866354\O,
 0,10.995854,8.963474,8.125328\H,0,11.273483,9.946037,8.313078\O,0,11.8
 00036,11.643124,8.70156\H,0,11.777571,11.742316,9.658569\H,0,11.050758
 ,12.161268,8.377826\O,0,9.371413,12.779511,7.698174\H,0,9.412348,12.89
 9635,6.749854\H,0,9.058995,11.859174,7.817931\O,0,8.032453,14.185749,9
 .75806\H,0,8.539685,13.778797,9.036095\H,0,7.473968,14.839972,9.348873
 \\Version=ES64L-G16RevA.03\HF=-76.4218476\RMSD=2.424e-09\Dipole=-0.474
 9049,1.5379898,-0.0615537\Quadrupole=-32.4698199,52.7826775,-20.312857
 5,11.6285213,-7.0008155,23.549187\PG=C01 [X(C7H15N2O7P1)]\\@


 O WAD SOME POWER THE GIFTIE GIE US       
 TO SEE OURSELS AS OTHERS SEE US.....     
 IT WOULD FRAE MONIE A BLUNDER FREE US,   
                     AND FOOLISH NOTION...
 WHAT AIRS IN DRESS AND GAIT WAD LEA'E US,
                     AND EV'N DEVOTION....
                                          
              (ROBERT BURNS 'TO A LOUSE') 
 Job cpu time:       0 days  3 hours 50 minutes  9.0 seconds.
 Elapsed time:       0 days  0 hours 10 minutes 32.6 seconds.
 File lengths (MBytes):  RWF=    305 Int=      0 D2E=      0 Chk=    127 Scr=      1
 Normal termination of Gaussian 16 at Thu May 19 13:24:10 2022.
