 Entering Gaussian System, Link 0=g16
 Initial command:
 /data0/hywu0/study/g16/l1.exe "/data0/hywu0/study/g16/scratch/Gau-873092.inp" -scrdir="/data0/hywu0/study/g16/scratch/"
 Default is to use a total of   8 processors:
                                8 via shared-memory
                                1 via Linda
 Entering Link 1 = /data0/hywu0/study/g16/l1.exe PID=    873093.
  
 Copyright (c) 1988,1990,1992,1993,1995,1998,2003,2009,2016,
            Gaussian, Inc.  All Rights Reserved.
  
 This is part of the Gaussian(R) 16 program.  It is based on
 the Gaussian(R) 09 system (copyright 2009, Gaussian, Inc.),
 the Gaussian(R) 03 system (copyright 2003, Gaussian, Inc.),
 the Gaussian(R) 98 system (copyright 1998, Gaussian, Inc.),
 the Gaussian(R) 94 system (copyright 1995, Gaussian, Inc.),
 the Gaussian 92(TM) system (copyright 1992, Gaussian, Inc.),
 the Gaussian 90(TM) system (copyright 1990, Gaussian, Inc.),
 the Gaussian 88(TM) system (copyright 1988, Gaussian, Inc.),
 the Gaussian 86(TM) system (copyright 1986, Carnegie Mellon
 University), and the Gaussian 82(TM) system (copyright 1983,
 Carnegie Mellon University). Gaussian is a federally registered
 trademark of Gaussian, Inc.
  
 This software contains proprietary and confidential information,
 including trade secrets, belonging to Gaussian, Inc.
  
 This software is provided under written license and may be
 used, copied, transmitted, or stored only in accord with that
 written license.
  
 The following legend is applicable only to US Government
 contracts under FAR:
  
                    RESTRICTED RIGHTS LEGEND
  
 Use, reproduction and disclosure by the US Government is
 subject to restrictions as set forth in subparagraphs (a)
 and (c) of the Commercial Computer Software - Restricted
 Rights clause in FAR 52.227-19.
  
 Gaussian, Inc.
 340 Quinnipiac St., Bldg. 40, Wallingford CT 06492
  
  
 ---------------------------------------------------------------
 Warning -- This program may not be used in any manner that
 competes with the business of Gaussian, Inc. or will provide
 assistance to any competitor of Gaussian, Inc.  The licensee
 of this program is prohibited from giving any competitor of
 Gaussian, Inc. access to this program.  By using this program,
 the user acknowledges that Gaussian, Inc. is engaged in the
 business of creating and licensing software in the field of
 computational chemistry and represents and warrants to the
 licensee that it is not a competitor of Gaussian, Inc. and that
 it will not use this program in any manner prohibited above.
 ---------------------------------------------------------------
  

 Cite this work as:
 Gaussian 16, Revision A.03,
 M. J. Frisch, G. W. Trucks, H. B. Schlegel, G. E. Scuseria, 
 M. A. Robb, J. R. Cheeseman, G. Scalmani, V. Barone, 
 G. A. Petersson, H. Nakatsuji, X. Li, M. Caricato, A. V. Marenich, 
 J. Bloino, B. G. Janesko, R. Gomperts, B. Mennucci, H. P. Hratchian, 
 J. V. Ortiz, A. F. Izmaylov, J. L. Sonnenberg, D. Williams-Young, 
 F. Ding, F. Lipparini, F. Egidi, J. Goings, B. Peng, A. Petrone, 
 T. Henderson, D. Ranasinghe, V. G. Zakrzewski, J. Gao, N. Rega, 
 G. Zheng, W. Liang, M. Hada, M. Ehara, K. Toyota, R. Fukuda, 
 J. Hasegawa, M. Ishida, T. Nakajima, Y. Honda, O. Kitao, H. Nakai, 
 T. Vreven, K. Throssell, J. A. Montgomery, Jr., J. E. Peralta, 
 F. Ogliaro, M. J. Bearpark, J. J. Heyd, E. N. Brothers, K. N. Kudin, 
 V. N. Staroverov, T. A. Keith, R. Kobayashi, J. Normand, 
 K. Raghavachari, A. P. Rendell, J. C. Burant, S. S. Iyengar, 
 J. Tomasi, M. Cossi, J. M. Millam, M. Klene, C. Adamo, R. Cammi, 
 J. W. Ochterski, R. L. Martin, K. Morokuma, O. Farkas, 
 J. B. Foresman, and D. J. Fox, Gaussian, Inc., Wallingford CT, 2016.
 
 ******************************************
 Gaussian 16:  ES64L-G16RevA.03 25-Dec-2016
                10-Jul-2023 
 ******************************************
 %chk=QACOO.chk
 %nprocshared=16
 Will use up to   16 processors via shared memory.
 %mem=50GB
 ------------------------------------
 #p 6-311+g(2d,p) nosymm em=gd3 m062x
 ------------------------------------
 1/38=1,172=1/1;
 2/12=2,15=1,17=6,18=5,40=1/2;
 3/5=4,6=6,7=112,11=2,25=1,30=1,74=-55,124=31/1,2,3;
 4//1;
 5/5=2,38=5/2;
 6/7=2,8=2,9=2,10=2,28=1/1;
 99/5=1,9=1/99;
 Leave Link    1 at Mon Jul 10 19:11:27 2023, MaxMem=  6710886400 cpu:               0.5 elap:               0.0
 (Enter /data0/hywu0/study/g16/l101.exe)
 -------------------
 Title Card Required
 -------------------
 Symbolic Z-matrix:
 Charge =  0 Multiplicity = 1
 C                     4.36393   12.69306   10.94131 
 H                     4.11575   12.1554   10.01365 
 H                     5.25454   13.31271   10.76701 
 H                     4.63474   11.91405   11.70121 
 C                     2.83475   14.52376   10.38404 
 H                     2.5845    14.03772   9.4262 
 H                     1.95472   15.11396   10.69922 
 H                     3.66243   15.22936   10.20256 
 C                     2.04207   12.58954   11.66099 
 H                     1.20941   13.08932   12.19609 
 H                     1.67142   12.159    10.7232 
 H                     2.33511   11.75161   12.33895 
 C                     3.62551   14.22462   12.70933 
 H                     4.52506   14.83552   12.49398 
 H                     3.95067   13.4287   13.43821 
 C                     2.52227   15.09145   13.33452 
 H                     1.51349   14.77821   12.98958 
 H                     2.63909   16.14877   13.03829 
 C                     2.54875   14.96295   14.85905 
 H                     1.69675   15.49151   15.32001 
 H                     3.46059   15.40629   15.29424 
 N                     3.2014    13.51314   11.43134 
 C                     2.46276   13.4761   15.26211 
 O                     1.77976   12.74495   14.50637 
 O                     3.11749   13.11509   16.24366 
 
 ITRead=  0  0  0  0  0  0  0  0  0  0  0  0  0  0  0  0  0  0  0  0
 ITRead=  0  0  0  0  0
 MicOpt= -1 -1 -1 -1 -1 -1 -1 -1 -1 -1 -1 -1 -1 -1 -1 -1 -1 -1 -1 -1
 MicOpt= -1 -1 -1 -1 -1
 NAtoms=     25 NQM=       25 NQMF=       0 NMMI=      0 NMMIF=      0
                NMic=       0 NMicF=      0.
                    Isotopes and Nuclear Properties:
 (Nuclear quadrupole moments (NQMom) in fm**2, nuclear magnetic moments (NMagM)
  in nuclear magnetons)

  Atom         1           2           3           4           5           6           7           8           9          10
 IAtWgt=          12           1           1           1          12           1           1           1          12           1
 AtmWgt=  12.0000000   1.0078250   1.0078250   1.0078250  12.0000000   1.0078250   1.0078250   1.0078250  12.0000000   1.0078250
 NucSpn=           0           1           1           1           0           1           1           1           0           1
 AtZEff=  -0.0000000  -0.0000000  -0.0000000  -0.0000000  -0.0000000  -0.0000000  -0.0000000  -0.0000000  -0.0000000  -0.0000000
 NQMom=    0.0000000   0.0000000   0.0000000   0.0000000   0.0000000   0.0000000   0.0000000   0.0000000   0.0000000   0.0000000
 NMagM=    0.0000000   2.7928460   2.7928460   2.7928460   0.0000000   2.7928460   2.7928460   2.7928460   0.0000000   2.7928460
 AtZNuc=   6.0000000   1.0000000   1.0000000   1.0000000   6.0000000   1.0000000   1.0000000   1.0000000   6.0000000   1.0000000

  Atom        11          12          13          14          15          16          17          18          19          20
 IAtWgt=           1           1          12           1           1          12           1           1          12           1
 AtmWgt=   1.0078250   1.0078250  12.0000000   1.0078250   1.0078250  12.0000000   1.0078250   1.0078250  12.0000000   1.0078250
 NucSpn=           1           1           0           1           1           0           1           1           0           1
 AtZEff=  -0.0000000  -0.0000000  -0.0000000  -0.0000000  -0.0000000  -0.0000000  -0.0000000  -0.0000000  -0.0000000  -0.0000000
 NQMom=    0.0000000   0.0000000   0.0000000   0.0000000   0.0000000   0.0000000   0.0000000   0.0000000   0.0000000   0.0000000
 NMagM=    2.7928460   2.7928460   0.0000000   2.7928460   2.7928460   0.0000000   2.7928460   2.7928460   0.0000000   2.7928460
 AtZNuc=   1.0000000   1.0000000   6.0000000   1.0000000   1.0000000   6.0000000   1.0000000   1.0000000   6.0000000   1.0000000

  Atom        21          22          23          24          25
 IAtWgt=           1          14          12          16          16
 AtmWgt=   1.0078250  14.0030740  12.0000000  15.9949146  15.9949146
 NucSpn=           1           2           0           0           0
 AtZEff=  -0.0000000  -0.0000000  -0.0000000  -0.0000000  -0.0000000
 NQMom=    0.0000000   2.0440000   0.0000000   0.0000000   0.0000000
 NMagM=    2.7928460   0.4037610   0.0000000   0.0000000   0.0000000
 AtZNuc=   1.0000000   7.0000000   6.0000000   8.0000000   8.0000000
 Leave Link  101 at Mon Jul 10 19:11:27 2023, MaxMem=  6710886400 cpu:               1.8 elap:               0.1
 (Enter /data0/hywu0/study/g16/l202.exe)
                          Input orientation:                          
 ---------------------------------------------------------------------
 Center     Atomic      Atomic             Coordinates (Angstroms)
 Number     Number       Type             X           Y           Z
 ---------------------------------------------------------------------
      1          6           0        4.363933   12.693059   10.941306
      2          1           0        4.115753   12.155399   10.013654
      3          1           0        5.254536   13.312712   10.767014
      4          1           0        4.634740   11.914049   11.701212
      5          6           0        2.834748   14.523762   10.384041
      6          1           0        2.584503   14.037724    9.426204
      7          1           0        1.954724   15.113960   10.699222
      8          1           0        3.662426   15.229358   10.202565
      9          6           0        2.042072   12.589536   11.660985
     10          1           0        1.209412   13.089316   12.196094
     11          1           0        1.671422   12.158998   10.723199
     12          1           0        2.335110   11.751606   12.338946
     13          6           0        3.625512   14.224620   12.709333
     14          1           0        4.525062   14.835524   12.493978
     15          1           0        3.950674   13.428699   13.438209
     16          6           0        2.522274   15.091451   13.334523
     17          1           0        1.513488   14.778210   12.989575
     18          1           0        2.639091   16.148773   13.038290
     19          6           0        2.548754   14.962947   14.859054
     20          1           0        1.696746   15.491510   15.320014
     21          1           0        3.460591   15.406291   15.294244
     22          7           0        3.201397   13.513144   11.431340
     23          6           0        2.462764   13.476101   15.262110
     24          8           0        1.779757   12.744945   14.506368
     25          8           0        3.117492   13.115089   16.243656
 ---------------------------------------------------------------------
                    Distance matrix (angstroms):
                    1          2          3          4          5
     1  C    0.000000
     2  H    1.100550   0.000000
     3  H    1.098873   1.789903   0.000000
     4  H    1.121450   1.781979   1.792521   0.000000
     5  C    2.449576   2.717959   2.732889   3.433003   0.000000
     6  H    2.696299   2.496592   3.074490   3.726812   1.102863
     7  H    3.423982   3.727349   3.760033   4.292540   1.105493
     8  H    2.733251   3.112943   2.554789   3.765981   1.102656
     9  C    2.433042   2.683715   3.412051   2.679520   2.449521
    10  H    3.417969   3.752608   4.295952   3.655001   2.825401
    11  H    2.753617   2.545235   3.764529   3.130138   2.657153
    12  H    2.637395   2.956471   3.664842   2.391943   3.428723
    13  C    2.452930   3.433467   2.694049   2.715435   2.474222
    14  H    2.650832   3.674590   2.415263   3.029113   2.721432
    15  H    2.635616   3.657338   2.974692   2.404011   3.431093
    16  C    3.856356   4.710387   4.149852   4.150434   3.020804
    17  H    4.082683   4.744157   4.591612   4.427811   2.932453
    18  H    4.394813   5.222642   4.476884   4.868601   3.118330
    19  C    4.878116   5.815128   5.175840   4.859947   4.505598
    20  H    5.841087   6.718533   6.175341   5.875863   5.157074
    21  H    5.208236   6.235557   5.300672   5.146286   5.027985
    22  N    1.504713   2.165491   2.167229   2.164349   1.500872
    23  C    4.785075   5.658879   5.294013   4.453929   5.003151
    24  O    4.403445   5.097933   5.136070   4.087813   4.612025
    25  O    5.463208   6.382042   5.882144   4.937442   6.033191
                    6          7          8          9         10
     6  H    0.000000
     7  H    1.781988   0.000000
     8  H    1.784558   1.782198   0.000000
     9  C    2.717669   2.702838   3.423623   0.000000
    10  H    3.234601   2.625890   3.817226   1.108803   0.000000
    11  H    2.458765   2.968608   3.696250   1.096443   1.802322
    12  H    3.711145   3.760161   4.291929   1.116973   1.754158
    13  C    3.449285   2.760979   2.700879   2.505956   2.718431
    14  H    3.716651   3.147271   2.479883   3.450156   3.759190
    15  H    4.281766   3.784966   3.714142   2.739613   3.028621
    16  C    4.048354   2.695817   3.335885   3.048098   2.651070
    17  H    3.793811   2.356509   3.548083   2.614354   1.890618
    18  H    4.184098   2.647723   3.151805   3.862845   3.480453
    19  C    5.511186   4.204745   4.795219   4.014655   3.520751
    20  H    6.135031   4.643363   5.488252   4.682862   3.970756
    21  H    6.088875   4.844308   5.098749   4.811120   4.476015
    22  N    2.162478   2.157036   2.160515   1.499941   2.175427
    23  C    5.864132   4.874488   5.487449   3.732436   3.334809
    24  O    5.303486   4.487450   5.314082   2.861672   2.404423
    25  O    6.900216   6.007351   6.423540   4.736413   4.474840
                   11         12         13         14         15
    11  H    0.000000
    12  H    1.793624   0.000000
    13  C    3.468428   2.813916   0.000000
    14  H    4.294498   3.785561   1.108500   0.000000
    15  H    3.765423   2.575086   1.127156   1.789036   0.000000
    16  C    4.017741   3.490096   1.536031   2.187047   2.194498
    17  H    3.467229   3.202923   2.201282   3.052618   2.821760
    18  H    4.713208   4.462798   2.187145   2.361733   3.046143
    19  C    5.073178   4.087701   2.515121   3.084739   2.517558
    20  H    5.677762   4.825055   3.484366   4.051687   3.588394
    21  H    5.885617   4.832930   2.846983   3.049650   2.756069
    22  N    2.162406   2.162688   1.522937   2.151738   2.143845
    23  C    4.791941   3.396331   2.903263   3.709941   2.354302
    24  O    3.829809   2.448031   2.970789   3.994613   2.514232
    25  O    5.786249   4.209272   3.739062   4.359041   2.943310
                   16         17         18         19         20
    16  C    0.000000
    17  H    1.111197   0.000000
    18  H    1.104233   1.774204   0.000000
    19  C    1.530166   2.144960   2.174747   0.000000
    20  H    2.187171   2.444039   2.554657   1.103531   0.000000
    21  H    2.195466   3.081752   2.513060   1.103354   1.766090
    22  N    2.564053   2.622504   3.137677   3.778504   4.615159
    23  C    2.515649   2.785862   3.481328   1.542906   2.156852
    24  O    2.725921   2.550633   3.805227   2.373874   2.865751
    25  O    3.566980   3.990970   4.439198   2.378059   2.918734
                   21         22         23         24         25
    21  H    0.000000
    22  N    4.309665   0.000000
    23  C    2.173091   3.901506   0.000000
    24  O    3.244798   3.473757   1.253887   0.000000
    25  O    2.503739   4.829480   1.233868   2.223671   0.000000
 Symmetry turned off by external request.
 Stoichiometry    C7H15NO2
 Framework group  C1[X(C7H15NO2)]
 Deg. of freedom    69
 Full point group                 C1      NOp   1
 Rotational constants (GHZ):           2.3585009           0.7797344           0.7212680
 Leave Link  202 at Mon Jul 10 19:11:27 2023, MaxMem=  6710886400 cpu:               0.1 elap:               0.0
 (Enter /data0/hywu0/study/g16/l301.exe)
 Standard basis: 6-311+G(2d,p) (5D, 7F)
 Ernie: Thresh=  0.10000D-02 Tol=  0.10000D-05 Strict=F.
   360 basis functions,   540 primitive gaussians,   380 cartesian basis functions
    40 alpha electrons       40 beta electrons
       nuclear repulsion energy       591.1339831641 Hartrees.
 IExCor= 4336 DFT=T Ex+Corr=M062X ExCW=0 ScaHFX=  0.540000
 ScaDFX=  1.000000  1.000000  1.000000  1.000000 ScalE2=  1.000000  1.000000
 IRadAn=      5 IRanWt=     -1 IRanGd=            0 ICorTp=0 IEmpDi=131
 NAtoms=   25 NActive=   25 NUniq=   25 SFac= 1.00D+00 NAtFMM=   60 NAOKFM=F Big=F
 Integral buffers will be    131072 words long.
 Raffenetti 2 integral format.
 Two-electron integral symmetry is turned off.
 R6Disp:  Grimme-D3 Dispersion energy=       -0.0010085580 Hartrees.
 Nuclear repulsion after empirical dispersion term =      591.1329746061 Hartrees.
 Leave Link  301 at Mon Jul 10 19:11:27 2023, MaxMem=  6710886400 cpu:               0.5 elap:               0.0
 (Enter /data0/hywu0/study/g16/l302.exe)
 NPDir=0 NMtPBC=     1 NCelOv=     1 NCel=       1 NClECP=     1 NCelD=      1
         NCelK=      1 NCelE2=     1 NClLst=     1 CellRange=     0.0.
 One-electron integrals computed using PRISM.
 NBasis=   360 RedAO= T EigKep=  1.27D-05  NBF=   360
 NBsUse=   360 1.00D-06 EigRej= -1.00D+00 NBFU=   360
 Precomputing XC quadrature grid using
 IXCGrd= 4 IRadAn=           5 IRanWt=          -1 IRanGd=           0 AccXCQ= 0.00D+00.
 Generated NRdTot=       0 NPtTot=           0 NUsed=           0 NTot=          32
 NSgBfM=   380   380   380   380   380 MxSgAt=    25 MxSgA2=    25.
 Leave Link  302 at Mon Jul 10 19:11:27 2023, MaxMem=  6710886400 cpu:               4.1 elap:               0.3
 (Enter /data0/hywu0/study/g16/l303.exe)
 DipDrv:  MaxL=1.
 Leave Link  303 at Mon Jul 10 19:11:28 2023, MaxMem=  6710886400 cpu:               0.8 elap:               0.1
 (Enter /data0/hywu0/study/g16/l401.exe)
 ExpMin= 4.38D-02 ExpMax= 8.59D+03 ExpMxC= 1.30D+03 IAcc=3 IRadAn=         5 AccDes= 0.00D+00
 Harris functional with IExCor= 1009 and IRadAn=       5 diagonalized for initial guess.
 HarFok:  IExCor= 1009 AccDes= 0.00D+00 IRadAn=         5 IDoV= 1 UseB2=F ITyADJ=14
 ICtDFT=  3500011 ScaDFX=  1.000000  1.000000  1.000000  1.000000
 FoFCou: FMM=F IPFlag=           0 FMFlag=      100000 FMFlg1=           0
         NFxFlg=           0 DoJE=T BraDBF=F KetDBF=T FulRan=T
         wScrn=  0.000000 ICntrl=       500 IOpCl=  0 I1Cent=   200000004 NGrid=           0
         NMat0=    1 NMatS0=      1 NMatT0=    0 NMatD0=    1 NMtDS0=    0 NMtDT0=    0
 Symmetry not used in FoFCou.
 Harris En= -480.725484740486    
 JPrj=0 DoOrth=F DoCkMO=F.
 Leave Link  401 at Mon Jul 10 19:11:29 2023, MaxMem=  6710886400 cpu:              21.3 elap:               1.3
 (Enter /data0/hywu0/study/g16/l502.exe)
 Two-electron integral symmetry not used.
 Closed shell SCF:
 Using DIIS extrapolation, IDIIS=  1040.
 NGot=  6710886400 LenX=  6710588673 LenY=  6710443832
 Requested convergence on RMS density matrix=1.00D-08 within 128 cycles.
 Requested convergence on MAX density matrix=1.00D-06.
 Requested convergence on             energy=1.00D-06.
 No special actions if energy rises.
 Fock matrices will be formed incrementally for  20 cycles.

 Cycle   1  Pass 1  IDiag  1:
 FoFJK:  IHMeth= 1 ICntrl=       0 DoSepK=F KAlg= 0 I1Cent=           0 FoldK=F
 IRaf= 940000000 NMat=       1 IRICut=       1 DoRegI=T DoRafI=F ISym2E= 0 IDoP0=0 IntGTp=1.
 FoFCou: FMM=F IPFlag=           0 FMFlag=      100000 FMFlg1=           0
         NFxFlg=           0 DoJE=F BraDBF=F KetDBF=F FulRan=T
         wScrn=  0.000000 ICntrl=         0 IOpCl=  0 I1Cent=           0 NGrid=           0
         NMat0=    1 NMatS0=      1 NMatT0=    0 NMatD0=    1 NMtDS0=    0 NMtDT0=    0
 Symmetry not used in FoFCou.
 E= -480.477661409230    
 DIIS: error= 3.70D-02 at cycle   1 NSaved=   1.
 NSaved= 1 IEnMin= 1 EnMin= -480.477661409230     IErMin= 1 ErrMin= 3.70D-02
 ErrMax= 3.70D-02  0.00D+00 EMaxC= 1.00D-01 BMatC= 4.96D-01 BMatP= 4.96D-01
 IDIUse=3 WtCom= 6.30D-01 WtEn= 3.70D-01
 Coeff-Com:  0.100D+01
 Coeff-En:   0.100D+01
 Coeff:      0.100D+01
 Gap=     0.324 Goal=   None    Shift=    0.000
 GapD=    0.324 DampG=1.000 DampE=0.500 DampFc=0.5000 IDamp=-1.
 Damping current iteration by 5.00D-01
 RMSDP=1.82D-02 MaxDP=1.62D+00              OVMax= 4.66D-01

 Cycle   2  Pass 1  IDiag  1:
 RMSU=  9.09D-03    CP:  1.07D+00
 E= -480.606555745278     Delta-E=       -0.128894336048 Rises=F Damp=T
 DIIS: error= 7.52D-03 at cycle   2 NSaved=   2.
 NSaved= 2 IEnMin= 2 EnMin= -480.606555745278     IErMin= 2 ErrMin= 7.52D-03
 ErrMax= 7.52D-03  0.00D+00 EMaxC= 1.00D-01 BMatC= 4.40D-02 BMatP= 4.96D-01
 IDIUse=3 WtCom= 9.25D-01 WtEn= 7.52D-02
 Coeff-Com:  0.601D-01 0.940D+00
 Coeff-En:   0.219D+00 0.781D+00
 Coeff:      0.720D-01 0.928D+00
 Gap=     0.184 Goal=   None    Shift=    0.000
 RMSDP=8.75D-03 MaxDP=9.14D-01 DE=-1.29D-01 OVMax= 3.23D-01

 Cycle   3  Pass 1  IDiag  1:
 RMSU=  3.14D-03    CP:  9.38D-01  1.13D-01
 E= -480.832179435213     Delta-E=       -0.225623689935 Rises=F Damp=F
 DIIS: error= 1.08D-02 at cycle   3 NSaved=   3.
 NSaved= 3 IEnMin= 3 EnMin= -480.832179435213     IErMin= 2 ErrMin= 7.52D-03
 ErrMax= 1.08D-02  0.00D+00 EMaxC= 1.00D-01 BMatC= 2.65D-02 BMatP= 4.40D-02
 IDIUse=3 WtCom= 8.92D-01 WtEn= 1.08D-01
 Coeff-Com: -0.547D-01 0.426D+00 0.629D+00
 Coeff-En:   0.000D+00 0.000D+00 0.100D+01
 Coeff:     -0.488D-01 0.380D+00 0.669D+00
 Gap=     0.214 Goal=   None    Shift=    0.000
 RMSDP=8.56D-04 MaxDP=8.04D-02 DE=-2.26D-01 OVMax= 4.87D-02

 Cycle   4  Pass 1  IDiag  1:
 RMSU=  7.79D-04    CP:  9.53D-01  1.39D-01  1.07D+00
 E= -480.850482339950     Delta-E=       -0.018302904737 Rises=F Damp=F
 DIIS: error= 2.24D-03 at cycle   4 NSaved=   4.
 NSaved= 4 IEnMin= 4 EnMin= -480.850482339950     IErMin= 4 ErrMin= 2.24D-03
 ErrMax= 2.24D-03  0.00D+00 EMaxC= 1.00D-01 BMatC= 4.37D-03 BMatP= 2.65D-02
 IDIUse=3 WtCom= 9.78D-01 WtEn= 2.24D-02
 Coeff-Com: -0.385D-01 0.107D+00 0.321D+00 0.610D+00
 Coeff-En:   0.000D+00 0.000D+00 0.162D-01 0.984D+00
 Coeff:     -0.376D-01 0.105D+00 0.314D+00 0.618D+00
 Gap=     0.212 Goal=   None    Shift=    0.000
 RMSDP=3.17D-04 MaxDP=1.83D-02 DE=-1.83D-02 OVMax= 1.70D-02

 Cycle   5  Pass 1  IDiag  1:
 RMSU=  2.93D-04    CP:  9.48D-01  1.32D-01  1.09D+00  9.70D-01
 E= -480.853698090933     Delta-E=       -0.003215750984 Rises=F Damp=F
 DIIS: error= 1.11D-03 at cycle   5 NSaved=   5.
 NSaved= 5 IEnMin= 5 EnMin= -480.853698090933     IErMin= 5 ErrMin= 1.11D-03
 ErrMax= 1.11D-03  0.00D+00 EMaxC= 1.00D-01 BMatC= 5.06D-04 BMatP= 4.37D-03
 IDIUse=3 WtCom= 9.89D-01 WtEn= 1.11D-02
 Coeff-Com: -0.156D-01 0.259D-01 0.100D+00 0.311D+00 0.579D+00
 Coeff-En:   0.000D+00 0.000D+00 0.000D+00 0.000D+00 0.100D+01
 Coeff:     -0.154D-01 0.256D-01 0.989D-01 0.307D+00 0.584D+00
 Gap=     0.210 Goal=   None    Shift=    0.000
 RMSDP=1.08D-04 MaxDP=6.44D-03 DE=-3.22D-03 OVMax= 8.05D-03

 Cycle   6  Pass 1  IDiag  1:
 RMSU=  9.07D-05    CP:  9.49D-01  1.30D-01  1.09D+00  1.04D+00  1.01D+00
 E= -480.854077755645     Delta-E=       -0.000379664712 Rises=F Damp=F
 DIIS: error= 2.81D-04 at cycle   6 NSaved=   6.
 NSaved= 6 IEnMin= 6 EnMin= -480.854077755645     IErMin= 6 ErrMin= 2.81D-04
 ErrMax= 2.81D-04  0.00D+00 EMaxC= 1.00D-01 BMatC= 5.88D-05 BMatP= 5.06D-04
 IDIUse=3 WtCom= 9.97D-01 WtEn= 2.81D-03
 Coeff-Com: -0.390D-03-0.373D-02-0.797D-02 0.314D-01 0.277D+00 0.703D+00
 Coeff-En:   0.000D+00 0.000D+00 0.000D+00 0.000D+00 0.000D+00 0.100D+01
 Coeff:     -0.389D-03-0.372D-02-0.795D-02 0.314D-01 0.277D+00 0.704D+00
 Gap=     0.212 Goal=   None    Shift=    0.000
 RMSDP=6.02D-05 MaxDP=3.38D-03 DE=-3.80D-04 OVMax= 3.21D-03

 Cycle   7  Pass 1  IDiag  1:
 RMSU=  4.41D-05    CP:  9.50D-01  1.29D-01  1.10D+00  1.07D+00  1.11D+00
                    CP:  1.10D+00
 E= -480.854125496167     Delta-E=       -0.000047740522 Rises=F Damp=F
 DIIS: error= 1.02D-04 at cycle   7 NSaved=   7.
 NSaved= 7 IEnMin= 7 EnMin= -480.854125496167     IErMin= 7 ErrMin= 1.02D-04
 ErrMax= 1.02D-04  0.00D+00 EMaxC= 1.00D-01 BMatC= 6.10D-06 BMatP= 5.88D-05
 IDIUse=3 WtCom= 9.99D-01 WtEn= 1.02D-03
 Coeff-Com:  0.198D-02-0.501D-02-0.131D-01-0.213D-01 0.654D-01 0.300D+00
 Coeff-Com:  0.672D+00
 Coeff-En:   0.000D+00 0.000D+00 0.000D+00 0.000D+00 0.000D+00 0.000D+00
 Coeff-En:   0.100D+01
 Coeff:      0.198D-02-0.500D-02-0.130D-01-0.212D-01 0.654D-01 0.299D+00
 Coeff:      0.673D+00
 Gap=     0.213 Goal=   None    Shift=    0.000
 RMSDP=1.72D-05 MaxDP=1.12D-03 DE=-4.77D-05 OVMax= 9.01D-04

 Cycle   8  Pass 1  IDiag  1:
 RMSU=  1.38D-05    CP:  9.50D-01  1.29D-01  1.10D+00  1.07D+00  1.14D+00
                    CP:  1.13D+00  1.08D+00
 E= -480.854130656735     Delta-E=       -0.000005160568 Rises=F Damp=F
 DIIS: error= 3.58D-05 at cycle   8 NSaved=   8.
 NSaved= 8 IEnMin= 8 EnMin= -480.854130656735     IErMin= 8 ErrMin= 3.58D-05
 ErrMax= 3.58D-05  0.00D+00 EMaxC= 1.00D-01 BMatC= 6.10D-07 BMatP= 6.10D-06
 IDIUse=1 WtCom= 1.00D+00 WtEn= 0.00D+00
 Coeff-Com:  0.631D-03-0.113D-02-0.169D-02-0.833D-02-0.158D-02 0.191D-01
 Coeff-Com:  0.243D+00 0.750D+00
 Coeff:      0.631D-03-0.113D-02-0.169D-02-0.833D-02-0.158D-02 0.191D-01
 Coeff:      0.243D+00 0.750D+00
 Gap=     0.213 Goal=   None    Shift=    0.000
 RMSDP=9.33D-06 MaxDP=1.07D-03 DE=-5.16D-06 OVMax= 3.56D-04

 Cycle   9  Pass 1  IDiag  1:
 RMSU=  5.51D-06    CP:  9.50D-01  1.28D-01  1.10D+00  1.06D+00  1.14D+00
                    CP:  1.13D+00  1.15D+00  1.25D+00
 E= -480.854131294611     Delta-E=       -0.000000637876 Rises=F Damp=F
 DIIS: error= 1.19D-05 at cycle   9 NSaved=   9.
 NSaved= 9 IEnMin= 9 EnMin= -480.854131294611     IErMin= 9 ErrMin= 1.19D-05
 ErrMax= 1.19D-05  0.00D+00 EMaxC= 1.00D-01 BMatC= 5.30D-08 BMatP= 6.10D-07
 IDIUse=1 WtCom= 1.00D+00 WtEn= 0.00D+00
 Coeff-Com: -0.347D-04 0.231D-03 0.910D-03-0.307D-03-0.508D-02-0.247D-01
 Coeff-Com:  0.563D-02 0.233D+00 0.790D+00
 Coeff:     -0.347D-04 0.231D-03 0.910D-03-0.307D-03-0.508D-02-0.247D-01
 Coeff:      0.563D-02 0.233D+00 0.790D+00
 Gap=     0.213 Goal=   None    Shift=    0.000
 RMSDP=2.81D-06 MaxDP=1.97D-04 DE=-6.38D-07 OVMax= 1.13D-04

 Cycle  10  Pass 1  IDiag  1:
 RMSU=  1.17D-06    CP:  9.50D-01  1.28D-01  1.10D+00  1.06D+00  1.14D+00
                    CP:  1.12D+00  1.19D+00  1.35D+00  1.04D+00
 E= -480.854131351248     Delta-E=       -0.000000056637 Rises=F Damp=F
 DIIS: error= 4.75D-06 at cycle  10 NSaved=  10.
 NSaved=10 IEnMin=10 EnMin= -480.854131351248     IErMin=10 ErrMin= 4.75D-06
 ErrMax= 4.75D-06  0.00D+00 EMaxC= 1.00D-01 BMatC= 1.34D-08 BMatP= 5.30D-08
 IDIUse=1 WtCom= 1.00D+00 WtEn= 0.00D+00
 Coeff-Com: -0.977D-04 0.171D-03 0.462D-03 0.858D-03-0.139D-02-0.139D-01
 Coeff-Com: -0.295D-01 0.583D-02 0.371D+00 0.667D+00
 Coeff:     -0.977D-04 0.171D-03 0.462D-03 0.858D-03-0.139D-02-0.139D-01
 Coeff:     -0.295D-01 0.583D-02 0.371D+00 0.667D+00
 Gap=     0.213 Goal=   None    Shift=    0.000
 RMSDP=1.01D-06 MaxDP=7.68D-05 DE=-5.66D-08 OVMax= 3.75D-05

 Cycle  11  Pass 1  IDiag  1:
 RMSU=  4.10D-07    CP:  9.50D-01  1.28D-01  1.10D+00  1.06D+00  1.14D+00
                    CP:  1.12D+00  1.19D+00  1.40D+00  1.10D+00  1.15D+00
 E= -480.854131365214     Delta-E=       -0.000000013966 Rises=F Damp=F
 DIIS: error= 9.23D-07 at cycle  11 NSaved=  11.
 NSaved=11 IEnMin=11 EnMin= -480.854131365214     IErMin=11 ErrMin= 9.23D-07
 ErrMax= 9.23D-07  0.00D+00 EMaxC= 1.00D-01 BMatC= 5.94D-10 BMatP= 1.34D-08
 IDIUse=1 WtCom= 1.00D+00 WtEn= 0.00D+00
 Coeff-Com: -0.214D-04 0.441D-04 0.147D-04 0.769D-04 0.456D-04-0.183D-02
 Coeff-Com: -0.574D-02-0.167D-01 0.163D-01 0.124D+00 0.884D+00
 Coeff:     -0.214D-04 0.441D-04 0.147D-04 0.769D-04 0.456D-04-0.183D-02
 Coeff:     -0.574D-02-0.167D-01 0.163D-01 0.124D+00 0.884D+00
 Gap=     0.213 Goal=   None    Shift=    0.000
 RMSDP=2.89D-07 MaxDP=2.31D-05 DE=-1.40D-08 OVMax= 1.53D-05

 Cycle  12  Pass 1  IDiag  1:
 RMSU=  1.28D-07    CP:  9.50D-01  1.28D-01  1.10D+00  1.06D+00  1.14D+00
                    CP:  1.12D+00  1.19D+00  1.41D+00  1.12D+00  1.22D+00
                    CP:  1.24D+00
 E= -480.854131366087     Delta-E=       -0.000000000874 Rises=F Damp=F
 DIIS: error= 2.48D-07 at cycle  12 NSaved=  12.
 NSaved=12 IEnMin=12 EnMin= -480.854131366087     IErMin=12 ErrMin= 2.48D-07
 ErrMax= 2.48D-07  0.00D+00 EMaxC= 1.00D-01 BMatC= 7.00D-11 BMatP= 5.94D-10
 IDIUse=1 WtCom= 1.00D+00 WtEn= 0.00D+00
 Coeff-Com:  0.506D-05-0.483D-05-0.345D-04-0.881D-04 0.152D-03 0.703D-03
 Coeff-Com:  0.179D-02-0.457D-02-0.348D-01-0.472D-01 0.199D+00 0.885D+00
 Coeff:      0.506D-05-0.483D-05-0.345D-04-0.881D-04 0.152D-03 0.703D-03
 Coeff:      0.179D-02-0.457D-02-0.348D-01-0.472D-01 0.199D+00 0.885D+00
 Gap=     0.213 Goal=   None    Shift=    0.000
 RMSDP=7.65D-08 MaxDP=4.66D-06 DE=-8.74D-10 OVMax= 6.33D-06

 Cycle  13  Pass 1  IDiag  1:
 RMSU=  4.34D-08    CP:  9.50D-01  1.28D-01  1.10D+00  1.06D+00  1.14D+00
                    CP:  1.12D+00  1.19D+00  1.41D+00  1.12D+00  1.24D+00
                    CP:  1.33D+00  1.17D+00
 E= -480.854131366222     Delta-E=       -0.000000000135 Rises=F Damp=F
 DIIS: error= 7.40D-08 at cycle  13 NSaved=  13.
 NSaved=13 IEnMin=13 EnMin= -480.854131366222     IErMin=13 ErrMin= 7.40D-08
 ErrMax= 7.40D-08  0.00D+00 EMaxC= 1.00D-01 BMatC= 7.61D-12 BMatP= 7.00D-11
 IDIUse=1 WtCom= 1.00D+00 WtEn= 0.00D+00
 Coeff-Com:  0.276D-05-0.468D-05-0.586D-05-0.217D-04 0.636D-04 0.292D-03
 Coeff-Com:  0.791D-03-0.649D-03-0.108D-01-0.195D-01-0.137D-01 0.250D+00
 Coeff-Com:  0.793D+00
 Coeff:      0.276D-05-0.468D-05-0.586D-05-0.217D-04 0.636D-04 0.292D-03
 Coeff:      0.791D-03-0.649D-03-0.108D-01-0.195D-01-0.137D-01 0.250D+00
 Coeff:      0.793D+00
 Gap=     0.213 Goal=   None    Shift=    0.000
 RMSDP=2.21D-08 MaxDP=1.79D-06 DE=-1.35D-10 OVMax= 1.58D-06

 Cycle  14  Pass 1  IDiag  1:
 RMSU=  1.15D-08    CP:  9.50D-01  1.28D-01  1.10D+00  1.06D+00  1.14D+00
                    CP:  1.12D+00  1.19D+00  1.41D+00  1.12D+00  1.25D+00
                    CP:  1.34D+00  1.22D+00  1.17D+00
 E= -480.854131366215     Delta-E=        0.000000000008 Rises=F Damp=F
 DIIS: error= 3.70D-08 at cycle  14 NSaved=  14.
 NSaved=14 IEnMin=13 EnMin= -480.854131366222     IErMin=14 ErrMin= 3.70D-08
 ErrMax= 3.70D-08  0.00D+00 EMaxC= 1.00D-01 BMatC= 9.06D-13 BMatP= 7.61D-12
 IDIUse=1 WtCom= 1.00D+00 WtEn= 0.00D+00
 Coeff-Com: -0.210D-06 0.665D-07 0.598D-05 0.105D-04 0.493D-05-0.424D-04
 Coeff-Com: -0.675D-04 0.278D-03 0.201D-02 0.240D-02-0.300D-01-0.438D-01
 Coeff-Com:  0.238D+00 0.831D+00
 Coeff:     -0.210D-06 0.665D-07 0.598D-05 0.105D-04 0.493D-05-0.424D-04
 Coeff:     -0.675D-04 0.278D-03 0.201D-02 0.240D-02-0.300D-01-0.438D-01
 Coeff:      0.238D+00 0.831D+00
 Gap=     0.213 Goal=   None    Shift=    0.000
 RMSDP=9.20D-09 MaxDP=6.14D-07 DE= 7.73D-12 OVMax= 4.83D-07

 SCF Done:  E(RM062X) =  -480.854131366     A.U. after   14 cycles
            NFock= 14  Conv=0.92D-08     -V/T= 2.0047
 KE= 4.785815642666D+02 PE=-2.303656165497D+03 EE= 7.530874952578D+02
 Leave Link  502 at Mon Jul 10 19:12:27 2023, MaxMem=  6710886400 cpu:             927.4 elap:              58.2
 (Enter /data0/hywu0/study/g16/l601.exe)
 Copying SCF densities to generalized density rwf, IOpCl= 0 IROHF=0.

 **********************************************************************

            Population analysis using the SCF density.

 **********************************************************************

 Alpha  occ. eigenvalues --  -19.49756 -19.49212 -14.92215 -10.64407 -10.64371
 Alpha  occ. eigenvalues --  -10.62106 -10.61240 -10.56030 -10.55240 -10.50528
 Alpha  occ. eigenvalues --   -1.16713  -1.09080  -0.99287  -0.90817  -0.88756
 Alpha  occ. eigenvalues --   -0.87041  -0.82161  -0.74937  -0.69293  -0.63850
 Alpha  occ. eigenvalues --   -0.63402  -0.61906  -0.56131  -0.54891  -0.53542
 Alpha  occ. eigenvalues --   -0.51817  -0.51294  -0.50863  -0.49404  -0.49116
 Alpha  occ. eigenvalues --   -0.47514  -0.46425  -0.43690  -0.43088  -0.41366
 Alpha  occ. eigenvalues --   -0.39528  -0.37341  -0.25399  -0.25201  -0.24089
 Alpha virt. eigenvalues --   -0.02783  -0.00521  -0.00370   0.01192   0.01440
 Alpha virt. eigenvalues --    0.03168   0.03285   0.03793   0.04040   0.05024
 Alpha virt. eigenvalues --    0.06998   0.07274   0.07788   0.08428   0.08875
 Alpha virt. eigenvalues --    0.09385   0.10184   0.11252   0.11440   0.12090
 Alpha virt. eigenvalues --    0.12693   0.13159   0.13559   0.13802   0.14252
 Alpha virt. eigenvalues --    0.15062   0.15173   0.16153   0.16383   0.16972
 Alpha virt. eigenvalues --    0.17368   0.17871   0.18731   0.18964   0.19351
 Alpha virt. eigenvalues --    0.20590   0.21290   0.21406   0.22626   0.23009
 Alpha virt. eigenvalues --    0.24529   0.24869   0.25146   0.25809   0.26649
 Alpha virt. eigenvalues --    0.26843   0.28340   0.28958   0.29564   0.31089
 Alpha virt. eigenvalues --    0.31733   0.32971   0.33591   0.34083   0.35597
 Alpha virt. eigenvalues --    0.36953   0.37019   0.37313   0.37946   0.38126
 Alpha virt. eigenvalues --    0.39038   0.40805   0.41864   0.42611   0.44327
 Alpha virt. eigenvalues --    0.45001   0.45781   0.48111   0.49237   0.50074
 Alpha virt. eigenvalues --    0.50317   0.51168   0.52931   0.53555   0.54572
 Alpha virt. eigenvalues --    0.56470   0.56646   0.57718   0.59050   0.59272
 Alpha virt. eigenvalues --    0.60363   0.61540   0.61672   0.62632   0.62975
 Alpha virt. eigenvalues --    0.65338   0.65922   0.66441   0.66720   0.67635
 Alpha virt. eigenvalues --    0.68530   0.69126   0.70312   0.72030   0.72902
 Alpha virt. eigenvalues --    0.73453   0.74019   0.74994   0.75859   0.76704
 Alpha virt. eigenvalues --    0.77521   0.78388   0.80555   0.81368   0.82603
 Alpha virt. eigenvalues --    0.85027   0.85640   0.86732   0.87126   0.88513
 Alpha virt. eigenvalues --    0.90189   0.94302   0.94738   0.95844   0.96995
 Alpha virt. eigenvalues --    0.99547   1.02671   1.05317   1.09574   1.11229
 Alpha virt. eigenvalues --    1.11856   1.12522   1.13740   1.15287   1.16148
 Alpha virt. eigenvalues --    1.17622   1.18387   1.19416   1.19909   1.20428
 Alpha virt. eigenvalues --    1.22650   1.23474   1.24996   1.25949   1.28207
 Alpha virt. eigenvalues --    1.28813   1.30084   1.31302   1.34116   1.34504
 Alpha virt. eigenvalues --    1.35297   1.36977   1.37766   1.40264   1.42071
 Alpha virt. eigenvalues --    1.42625   1.43494   1.45452   1.46288   1.48758
 Alpha virt. eigenvalues --    1.49878   1.51467   1.53815   1.55687   1.56839
 Alpha virt. eigenvalues --    1.59707   1.67646   1.68255   1.70176   1.70695
 Alpha virt. eigenvalues --    1.71903   1.74356   1.77063   1.78201   1.78934
 Alpha virt. eigenvalues --    1.80099   1.81458   1.83700   1.84181   1.85597
 Alpha virt. eigenvalues --    1.87371   1.88503   1.88683   1.92206   1.93021
 Alpha virt. eigenvalues --    1.94063   1.96423   1.97609   2.00480   2.01944
 Alpha virt. eigenvalues --    2.04593   2.05964   2.07169   2.11258   2.14848
 Alpha virt. eigenvalues --    2.16667   2.19490   2.20591   2.22623   2.23883
 Alpha virt. eigenvalues --    2.25660   2.26790   2.28693   2.29652   2.30463
 Alpha virt. eigenvalues --    2.33082   2.33482   2.34659   2.35380   2.35941
 Alpha virt. eigenvalues --    2.36189   2.37609   2.39665   2.39878   2.43057
 Alpha virt. eigenvalues --    2.43890   2.44981   2.46661   2.48515   2.54076
 Alpha virt. eigenvalues --    2.57116   2.61392   2.63929   2.66013   2.67102
 Alpha virt. eigenvalues --    2.69222   2.70565   2.75704   2.76895   2.79203
 Alpha virt. eigenvalues --    2.82213   2.85246   2.86542   2.88828   2.91997
 Alpha virt. eigenvalues --    2.96190   3.00929   3.01279   3.03551   3.08265
 Alpha virt. eigenvalues --    3.09331   3.11543   3.14134   3.16833   3.19824
 Alpha virt. eigenvalues --    3.20939   3.23142   3.30107   3.31694   3.32383
 Alpha virt. eigenvalues --    3.33944   3.35604   3.36110   3.37841   3.39189
 Alpha virt. eigenvalues --    3.42086   3.42695   3.45571   3.49484   3.51730
 Alpha virt. eigenvalues --    3.55231   3.56210   3.56925   3.58836   3.59317
 Alpha virt. eigenvalues --    3.60929   3.61762   3.64000   3.64733   3.66657
 Alpha virt. eigenvalues --    3.68361   3.68734   3.71256   3.71664   3.75387
 Alpha virt. eigenvalues --    3.77727   3.79012   3.80142   3.82263   3.85582
 Alpha virt. eigenvalues --    3.88858   3.91315   3.99621   4.03295   4.10986
 Alpha virt. eigenvalues --    4.12438   4.13974   4.14161   4.16441   4.17541
 Alpha virt. eigenvalues --    4.19874   4.25992   4.28147   4.38794   4.43379
 Alpha virt. eigenvalues --    4.56214   4.76655   4.78913   4.81101   5.21558
 Alpha virt. eigenvalues --    5.22956   5.32750   5.34266   5.41263   5.45378
 Alpha virt. eigenvalues --    5.46446   5.49641   5.52441   6.01164   6.31499
 Alpha virt. eigenvalues --    6.90575   6.97962   6.98126   7.01041   7.15113
 Alpha virt. eigenvalues --    7.21034   7.23991   7.32573   7.34159   7.44470
 Alpha virt. eigenvalues --   23.92892  23.98318  24.03511  24.07018  24.07992
 Alpha virt. eigenvalues --   24.11716  24.30534  35.49071  50.21715  50.27067
          Condensed to atoms (all electrons):
               1          2          3          4          5          6
     1  C    5.582133   0.392479   0.404305   0.426359  -0.182353  -0.020117
     2  H    0.392479   0.461191  -0.019885  -0.018828  -0.023491   0.000088
     3  H    0.404305  -0.019885   0.457519  -0.017944  -0.011011   0.000289
     4  H    0.426359  -0.018828  -0.017944   0.429189   0.017534   0.000128
     5  C   -0.182353  -0.023491  -0.011011   0.017534   5.609043   0.394834
     6  H   -0.020117   0.000088   0.000289   0.000128   0.394834   0.459769
     7  H    0.020325   0.000049   0.000125  -0.000232   0.406318  -0.018891
     8  H   -0.015688   0.000275   0.001085   0.000070   0.411891  -0.020417
     9  C   -0.152182  -0.019123   0.024374  -0.017380  -0.153649  -0.020796
    10  H    0.022992   0.000027  -0.000196   0.000360  -0.014912   0.000248
    11  H   -0.026494  -0.001714   0.000025   0.000019  -0.013568  -0.000654
    12  H   -0.010071  -0.000153   0.000272   0.001795   0.015769   0.000279
    13  C   -0.465165   0.045674  -0.033266  -0.014512  -0.172174   0.044212
    14  H    0.008023   0.000061   0.000899  -0.000357  -0.029653   0.000026
    15  H    0.004993  -0.000016   0.000219   0.001344   0.007989  -0.000221
    16  C    0.047187   0.000923  -0.003271  -0.005657  -0.008922   0.001870
    17  H    0.015182  -0.000009   0.000038   0.000067  -0.018135  -0.000324
    18  H   -0.006484  -0.000008  -0.000005   0.000010   0.003348   0.000066
    19  C   -0.047044   0.001210   0.000841  -0.002085  -0.068812   0.003867
    20  H    0.000386  -0.000000   0.000000  -0.000003   0.000350  -0.000002
    21  H    0.001725  -0.000001   0.000002   0.000011  -0.000271  -0.000002
    22  N    0.338632  -0.020819  -0.009737  -0.031242   0.173131  -0.026442
    23  C    0.044125  -0.000151   0.001383   0.001810  -0.032045  -0.000569
    24  O   -0.017275  -0.000191  -0.000119  -0.001657   0.013693  -0.000020
    25  O    0.001247   0.000001   0.000013   0.000133  -0.000377  -0.000001
               7          8          9         10         11         12
     1  C    0.020325  -0.015688  -0.152182   0.022992  -0.026494  -0.010071
     2  H    0.000049   0.000275  -0.019123   0.000027  -0.001714  -0.000153
     3  H    0.000125   0.001085   0.024374  -0.000196   0.000025   0.000272
     4  H   -0.000232   0.000070  -0.017380   0.000360   0.000019   0.001795
     5  C    0.406318   0.411891  -0.153649  -0.014912  -0.013568   0.015769
     6  H   -0.018891  -0.020417  -0.020796   0.000248  -0.000654   0.000279
     7  H    0.443965  -0.018016  -0.006324   0.000843  -0.000327   0.000221
     8  H   -0.018016   0.445556   0.016572  -0.000023   0.000359  -0.000200
     9  C   -0.006324   0.016572   5.646957   0.400920   0.375258   0.426108
    10  H    0.000843  -0.000023   0.400920   0.416153  -0.019117  -0.009574
    11  H   -0.000327   0.000359   0.375258  -0.019117   0.476147  -0.021895
    12  H    0.000221  -0.000200   0.426108  -0.009574  -0.021895   0.394967
    13  C   -0.046552  -0.016500  -0.315739  -0.027043   0.054417  -0.048561
    14  H    0.000097  -0.000819   0.017391  -0.000025  -0.000053   0.000163
    15  H    0.000119   0.000441  -0.018601  -0.000018  -0.000128  -0.000223
    16  C    0.015166  -0.002992  -0.071023  -0.008926  -0.002388   0.004758
    17  H    0.000028   0.000297  -0.015179   0.003299  -0.000214   0.000086
    18  H   -0.001607   0.000115   0.001950   0.000476   0.000004  -0.000063
    19  C   -0.000952  -0.003622  -0.022607   0.009568   0.001335   0.000259
    20  H    0.000018  -0.000000   0.000633  -0.000110  -0.000002   0.000015
    21  H    0.000005   0.000016  -0.000777  -0.000004  -0.000001  -0.000020
    22  N   -0.015361  -0.010201   0.331334  -0.017593  -0.019816  -0.005551
    23  C    0.001722   0.000383   0.023478   0.004546  -0.002717   0.007710
    24  O   -0.000235   0.000094  -0.059140   0.003069   0.006426  -0.016113
    25  O    0.000007  -0.000003   0.000261  -0.000131  -0.000013   0.000137
              13         14         15         16         17         18
     1  C   -0.465165   0.008023   0.004993   0.047187   0.015182  -0.006484
     2  H    0.045674   0.000061  -0.000016   0.000923  -0.000009  -0.000008
     3  H   -0.033266   0.000899   0.000219  -0.003271   0.000038  -0.000005
     4  H   -0.014512  -0.000357   0.001344  -0.005657   0.000067   0.000010
     5  C   -0.172174  -0.029653   0.007989  -0.008922  -0.018135   0.003348
     6  H    0.044212   0.000026  -0.000221   0.001870  -0.000324   0.000066
     7  H   -0.046552   0.000097   0.000119   0.015166   0.000028  -0.001607
     8  H   -0.016500  -0.000819   0.000441  -0.002992   0.000297   0.000115
     9  C   -0.315739   0.017391  -0.018601  -0.071023  -0.015179   0.001950
    10  H   -0.027043  -0.000025  -0.000018  -0.008926   0.003299   0.000476
    11  H    0.054417  -0.000053  -0.000128  -0.002388  -0.000214   0.000004
    12  H   -0.048561   0.000163  -0.000223   0.004758   0.000086  -0.000063
    13  C    7.450158   0.340211   0.397807  -0.521188  -0.180330   0.000578
    14  H    0.340211   0.478856  -0.027167  -0.018176   0.004291  -0.013109
    15  H    0.397807  -0.027167   0.412891  -0.029259  -0.000338   0.003947
    16  C   -0.521188  -0.018176  -0.029259   6.388065   0.579918   0.324370
    17  H   -0.180330   0.004291  -0.000338   0.579918   0.519915  -0.043389
    18  H    0.000578  -0.013109   0.003947   0.324370  -0.043389   0.542227
    19  C    0.310379  -0.011920  -0.029521  -0.493422  -0.137204   0.065790
    20  H    0.052653  -0.000128   0.000811  -0.111102  -0.006573  -0.001970
    21  H   -0.043760   0.000041  -0.000256   0.024355   0.006444  -0.007521
    22  N   -0.258942   0.027493  -0.007548   0.124359   0.078221  -0.026627
    23  C   -0.453149   0.019966   0.048061  -0.015045   0.051394  -0.003370
    24  O    0.111964   0.000873  -0.015507  -0.017439  -0.014705   0.003371
    25  O   -0.009902  -0.000379   0.006409   0.005138  -0.001096  -0.000856
              19         20         21         22         23         24
     1  C   -0.047044   0.000386   0.001725   0.338632   0.044125  -0.017275
     2  H    0.001210  -0.000000  -0.000001  -0.020819  -0.000151  -0.000191
     3  H    0.000841   0.000000   0.000002  -0.009737   0.001383  -0.000119
     4  H   -0.002085  -0.000003   0.000011  -0.031242   0.001810  -0.001657
     5  C   -0.068812   0.000350  -0.000271   0.173131  -0.032045   0.013693
     6  H    0.003867  -0.000002  -0.000002  -0.026442  -0.000569  -0.000020
     7  H   -0.000952   0.000018   0.000005  -0.015361   0.001722  -0.000235
     8  H   -0.003622  -0.000000   0.000016  -0.010201   0.000383   0.000094
     9  C   -0.022607   0.000633  -0.000777   0.331334   0.023478  -0.059140
    10  H    0.009568  -0.000110  -0.000004  -0.017593   0.004546   0.003069
    11  H    0.001335  -0.000002  -0.000001  -0.019816  -0.002717   0.006426
    12  H    0.000259   0.000015  -0.000020  -0.005551   0.007710  -0.016113
    13  C    0.310379   0.052653  -0.043760  -0.258942  -0.453149   0.111964
    14  H   -0.011920  -0.000128   0.000041   0.027493   0.019966   0.000873
    15  H   -0.029521   0.000811  -0.000256  -0.007548   0.048061  -0.015507
    16  C   -0.493422  -0.111102   0.024355   0.124359  -0.015045  -0.017439
    17  H   -0.137204  -0.006573   0.006444   0.078221   0.051394  -0.014705
    18  H    0.065790  -0.001970  -0.007521  -0.026627  -0.003370   0.003371
    19  C    6.044492   0.462479   0.383981  -0.142434   0.165721  -0.050733
    20  H    0.462479   0.521880  -0.029749  -0.000239  -0.054895  -0.004529
    21  H    0.383981  -0.029749   0.507340   0.003997  -0.005171   0.004361
    22  N   -0.142434  -0.000239   0.003997   6.752459   0.092244  -0.053153
    23  C    0.165721  -0.054895  -0.005171   0.092244   5.240250   0.204238
    24  O   -0.050733  -0.004529   0.004361  -0.053153   0.204238   8.610653
    25  O   -0.073075   0.004196  -0.018728  -0.002010   0.424223  -0.079534
              25
     1  C    0.001247
     2  H    0.000001
     3  H    0.000013
     4  H    0.000133
     5  C   -0.000377
     6  H   -0.000001
     7  H    0.000007
     8  H   -0.000003
     9  C    0.000261
    10  H   -0.000131
    11  H   -0.000013
    12  H    0.000137
    13  C   -0.009902
    14  H   -0.000379
    15  H    0.006409
    16  C    0.005138
    17  H   -0.001096
    18  H   -0.000856
    19  C   -0.073075
    20  H    0.004196
    21  H   -0.018728
    22  N   -0.002010
    23  C    0.424223
    24  O   -0.079534
    25  O    8.283522
 Mulliken charges:
               1
     1  C   -0.367223
     2  H    0.202412
     3  H    0.204045
     4  H    0.231066
     5  C   -0.324526
     6  H    0.202782
     7  H    0.219488
     8  H    0.211326
     9  C   -0.392717
    10  H    0.235173
    11  H    0.195110
    12  H    0.259885
    13  C   -0.201268
    14  H    0.203394
    15  H    0.243773
    16  C   -0.207298
    17  H    0.158315
    18  H    0.158755
    19  C   -0.366488
    20  H    0.165884
    21  H    0.173983
    22  N   -0.274156
    23  C    0.235859
    24  O   -0.628392
    25  O   -0.539181
 Sum of Mulliken charges =  -0.00000
 Mulliken charges with hydrogens summed into heavy atoms:
               1
     1  C    0.270299
     5  C    0.309070
     9  C    0.297452
    13  C    0.245899
    16  C    0.109772
    19  C   -0.026621
    22  N   -0.274156
    23  C    0.235859
    24  O   -0.628392
    25  O   -0.539181
 Electronic spatial extent (au):  <R**2>=         106325.0257
 Charge=             -0.0000 electrons
 Dipole moment (field-independent basis, Debye):
    X=              2.7102    Y=              3.0920    Z=            -14.8395  Tot=             15.3986
 Quadrupole moment (field-independent basis, Debye-Ang):
   XX=            -45.3859   YY=             22.3276   ZZ=           -463.2330
   XY=             42.4614   XZ=             -9.5100   YZ=           -152.1016
 Traceless Quadrupole moment (field-independent basis, Debye-Ang):
   XX=            116.7112   YY=            184.4247   ZZ=           -301.1358
   XY=             42.4614   XZ=             -9.5100   YZ=           -152.1016
 Octapole moment (field-independent basis, Debye-Ang**2):
  XXX=           -447.0458  YYY=           -826.9766  ZZZ=         -10673.6361  XYY=            481.4363
  XXY=           -615.7009  XXZ=           -740.4984  XZZ=           -930.3960  YZZ=          -5515.1814
  YYZ=          -2213.0921  XYZ=            -32.1829
 Hexadecapole moment (field-independent basis, Debye-Ang**3):
 XXXX=          -2955.0628 YYYY=         -39117.1011 ZZZZ=        -217443.6423 XXXY=          -6129.9902
 XXXZ=          -6264.5452 YYYX=           2839.4939 YYYZ=         -43530.9737 ZZZX=         -25834.0252
 ZZZY=        -132932.3339 XXYY=          -8957.9782 XXZZ=         -12537.3170 YYZZ=         -75556.7305
 XXYZ=          -9985.5347 YYXZ=          -1374.1011 ZZXY=         -11038.0142
 N-N= 5.911329746061D+02 E-N=-2.303656169707D+03  KE= 4.785815642666D+02
 No NMR shielding tensors so no spin-rotation constants.
 Leave Link  601 at Mon Jul 10 19:12:27 2023, MaxMem=  6710886400 cpu:               1.8 elap:               0.1
 (Enter /data0/hywu0/study/g16/l9999.exe)
 1\1\GINC-LOCALHOST\SP\RM062X\6-311+G(2d,p)\C7H15N1O2\HYWU0\10-Jul-2023
 \0\\#p 6-311+g(2d,p) nosymm em=gd3 m062x\\Title Card Required\\0,1\C,0
 ,4.363933,12.693059,10.941306\H,0,4.115753,12.155399,10.013654\H,0,5.2
 54536,13.312712,10.767014\H,0,4.63474,11.914049,11.701212\C,0,2.834748
 ,14.523762,10.384041\H,0,2.584503,14.037724,9.426204\H,0,1.954724,15.1
 1396,10.699222\H,0,3.662426,15.229358,10.202565\C,0,2.042072,12.589536
 ,11.660985\H,0,1.209412,13.089316,12.196094\H,0,1.671422,12.158998,10.
 723199\H,0,2.33511,11.751606,12.338946\C,0,3.625512,14.22462,12.709333
 \H,0,4.525062,14.835524,12.493978\H,0,3.950674,13.428699,13.438209\C,0
 ,2.522274,15.091451,13.334523\H,0,1.513488,14.77821,12.989575\H,0,2.63
 9091,16.148773,13.03829\C,0,2.548754,14.962947,14.859054\H,0,1.696746,
 15.49151,15.320014\H,0,3.460591,15.406291,15.294244\N,0,3.201397,13.51
 3144,11.43134\C,0,2.462764,13.476101,15.26211\O,0,1.779757,12.744945,1
 4.506368\O,0,3.117492,13.115089,16.243656\\Version=ES64L-G16RevA.03\HF
 =-480.8541314\RMSD=9.202e-09\Dipole=1.0662747,1.2164912,-5.8383183\Qua
 drupole=86.771896,137.11522,-223.8871159,31.5690416,-7.0704591,-113.08
 37769\PG=C01 [X(C7H15N1O2)]\\@


 HOW IS IT THAT THE SKY FEEDS THE STARS?

                           -- LUCRETIUS
 Job cpu time:       0 days  0 hours 15 minutes 59.0 seconds.
 Elapsed time:       0 days  0 hours  1 minutes  0.3 seconds.
 File lengths (MBytes):  RWF=     71 Int=      0 D2E=      0 Chk=      9 Scr=      1
 Normal termination of Gaussian 16 at Mon Jul 10 19:12:27 2023.
