          27
 Energy =     -0.03048500 a.u.  #Cluster:    1
C           3.09594300     10.42366800      6.92721400
C           3.72018200      9.34842400      7.54571500
C           2.45194300     10.39790400      9.08505900
N           2.31212600     11.05498600      7.89543700
H           3.16095900     10.77099900      5.91305200
H           4.40596700      8.62499500      7.14626400
H           1.98487700     10.68105100     10.05373400
C           1.57850300     12.29240300      7.70210800
H           2.27554900     13.16202900      7.73816100
H           1.03344300     12.29236200      6.74573200
H           0.85893900     12.46912800      8.53713600
N           3.29928000      9.33715300      8.87784500
C           3.86965700      8.49071800      9.93164200
H           3.90050700      7.44031800      9.56892100
H           3.19237300      8.51851600     10.82654300
C           5.27886900      8.98276600     10.33097000
H           5.90378200      8.11486300     10.61242300
H           5.78016200      9.45773900      9.46112500
C           5.23245800      9.98920200     11.48226900
H           6.20499600     10.49592100     11.60804900
H           4.99509400      9.50466100     12.44465400
C           4.16131500     11.03361600     11.14833000
O           3.06468000     10.94520100     11.73058800
O           4.38813400     11.81752300     10.20399300
O           2.02002100     13.10001500     10.27371400
H           1.85234100     12.82365200     11.18056400
H           2.96790200     12.82019700     10.16876800
          27
 Energy =     -0.03036900 a.u.  #Cluster:    2
C           3.14815000     11.28743200      7.59721400
C           4.15082100     10.34866500      7.78841100
C           2.40351200      9.77912600      9.09723500
N           2.07087300     10.91069700      8.40393100
H           3.13817600     12.18825500      7.00232600
H           5.13564000     10.29417600      7.36684300
H           1.77867500      9.26832500      9.83256900
C           0.91392700     11.73361300      8.71671800
H           0.98054700     12.06193700      9.78963600
H           0.91350600     12.66114600      8.11231100
H          -0.02498300     11.18032100      8.56282000
N           3.67019100      9.40850400      8.71176200
C           4.50628600      8.45711900      9.44773200
H           5.12324500      7.88678400      8.71605900
H           3.84974200      7.72433000      9.97250000
C           5.41153800      9.18183000     10.46696100
H           6.20625500      8.48379500     10.79426300
H           5.93490300     10.03442500      9.97818000
C           4.65149200      9.70884500     11.68214000
H           5.35324600     10.07563600     12.45310900
H           4.03456200      8.93164500     12.15889300
C           3.76271000     10.89228900     11.24698700
O           2.53347000     10.69786700     11.23459000
O           4.34353000     11.91416400     10.84488300
O           3.03731200     13.44200500      9.11456700
H           3.32666600     14.29972100      9.39270500
H           3.45600900     12.82736300      9.79466900
          27
 Energy =     -0.02910300 a.u.  #Cluster:    3
C           3.85667700     10.61313500      7.10199200
C           4.19308300      9.41516200      7.71773100
C           2.60475300     10.42016700      8.96095800
N           2.86759300     11.21552400      7.88365900
H           4.24370900     11.06224400      6.20700800
H           4.91236000      8.67098800      7.43483100
H           1.86671200     10.63044700      9.75424000
C           2.38459900     12.57900500      7.75719400
H           1.29863900     12.64206900      7.99089400
H           2.89298200     13.21881300      8.52633800
H           2.57400500     12.98744600      6.75499400
N           3.39537300      9.29787400      8.86180400
C           3.64840500      8.37534800      9.97392800
H           3.77078000      7.34828700      9.56497100
H           2.75533700      8.36579500     10.64736800
C           4.90167500      8.80469900     10.77083400
H           5.38182400      7.90704400     11.20316800
H           5.65004100      9.25865600     10.08517400
C           4.58247000      9.80869700     11.87857500
H           5.50768300     10.19312400     12.34284300
H           3.98884400      9.35296200     12.68956700
C           3.81673100     10.99638600     11.27624600
O           2.67283000     11.21470000     11.73603600
O           4.30328500     11.57001900     10.29263700
O           1.09451200     12.65760400     10.21919200
H           0.48567200     13.03332400     10.83880000
H           1.79942900     12.23049300     10.80902900
          27
 Energy =     -0.02901500 a.u.  #Cluster:    4
C           3.36561200     10.53342900      7.03100400
C           3.84774200      9.36221800      7.60008900
C           2.47171600     10.34927900      9.08644900
N           2.51107200     11.12518800      7.96454700
H           3.57216300     10.97170600      6.07284200
H           4.53119600      8.63383300      7.20796800
H           1.88578500     10.55436700      9.99706800
C           1.97226100     12.47175300      7.89851000
H           0.96034800     12.52376800      8.35852300
H           2.61485200     13.15300100      8.51794900
H           1.92974100     12.84412300      6.86574200
N           3.27114300      9.24997100      8.87000800
C           3.74859900      8.36471000      9.93785000
H           3.84414300      7.33386400      9.53123700
H           2.98431200      8.33563100     10.75382100
C           5.09931000      8.86253000     10.50134100
H           5.67861600      7.99633100     10.87219400
H           5.70556500      9.31725100      9.68763100
C           4.93065100      9.89239800     11.61820900
H           5.90681100     10.31057500     11.92105700
H           4.48328800      9.44903800     12.52425500
C           4.05005300     11.04600700     11.11314500
O           2.98751900     11.25382400     11.74167300
O           4.36111300     11.59913000     10.05022200
O           1.20999000     12.80349300     10.55518400
H           1.97810500     12.30935900     10.98400500
H           0.81829500     13.27323400     11.27748800
          27
 Energy =     -0.02899100 a.u.  #Cluster:    5
C           3.58768600     10.50464200      6.93229400
C           4.12742800      9.42563500      7.61991900
C           2.55738200     10.37208900      8.93086900
N           2.61420200     11.07100100      7.75791300
H           3.82651000     10.89369500      5.96021900
H           4.90250100      8.74071000      7.33106000
H           1.90946200     10.60307700      9.80492400
C           1.87615000     12.28794900      7.47098100
H           0.92062900     12.32313900      8.03939500
H           2.45764600     13.17873100      7.81191500
H           1.65990200     12.38317700      6.39542400
N           3.46807700      9.34761100      8.84907000
C           3.86251500      8.47199600      9.95819800
H           3.99587400      7.43951000      9.56824400
H           3.03077700      8.44248700     10.71189600
C           5.15586600      8.98366600     10.63109700
H           5.74740000      8.12135400     10.99093700
H           5.79261700      9.50932500      9.88842100
C           4.86240300      9.93732100     11.79089400
H           5.77488100     10.47020200     12.10970100
H           4.47500000      9.40410600     12.67570200
C           3.82730800     10.95835100     11.30520600
O           2.64684600     10.80327500     11.66926300
O           4.18950000     11.79294500     10.45125800
O           1.78756100     12.99989500     10.17706300
H           2.74871500     12.76085000     10.22297800
H           1.47516600     12.64326800     11.01517100
          27
 Energy =     -0.02897300 a.u.  #Cluster:    6
C           3.48142600     10.42302400      7.03739200
C           3.80414900      9.24267500      7.69288400
C           2.50110500     10.47028400      9.06207700
N           2.66904700     11.16464100      7.89895600
H           3.76925300     10.77339500      6.06436800
H           4.41113700      8.41800800      7.37247400
H           1.90326900     10.79939700      9.92987100
C           2.27562400     12.55235000      7.72956700
H           1.20469200     12.69753400      7.98258700
H           2.85408200     13.18724400      8.45330900
H           2.46673600     12.90727000      6.70679100
N           3.17347600      9.27529700      8.94215200
C           3.50639800      8.40629300     10.07618700
H           3.47619900      7.34794900      9.73572500
H           2.72530500      8.52835700     10.86789300
C           4.89645100      8.76135700     10.65263000
H           5.35907800      7.84900000     11.07306900
H           5.56909200      9.10418300      9.83664000
C           4.83069100      9.85187000     11.72201600
H           5.84293900     10.18639500     12.00941300
H           4.34255200      9.49494600     12.64519000
C           4.06475000     11.05922100     11.16081700
O           3.02329300     11.39313900     11.76910600
O           4.43249600     11.53441200     10.07744200
O           1.34398400     12.87548300     10.40239300
H           0.85935100     13.33075400     11.07579800
H           2.09342500     12.42553500     10.91326600
          27
 Energy =     -0.02888500 a.u.  #Cluster:    7
C           3.97469100     10.50412900      7.05901700
C           4.35673000      9.36049800      7.74737200
C           2.64780400     10.31313100      8.86536400
N           2.91173700     11.07459200      7.76376500
H           4.37589500     10.93640000      6.16185800
H           5.13568800      8.65385700      7.53458900
H           1.86341000     10.50698900      9.61524300
C           2.34620800     12.39397200      7.54430000
H           2.71737100     13.08904300      8.34564200
H           2.62418800     12.79752900      6.56027300
H           1.24063400     12.37835300      7.64266900
N           3.51282700      9.24259200      8.85734500
C           3.76645900      8.38833600     10.02275200
H           3.97800100      7.35534400      9.66899900
H           2.84125500      8.34726900     10.65042200
C           4.94405700      8.93693600     10.86081800
H           5.45714400      8.09416900     11.36071000
H           5.69761100      9.40869300     10.19328600
C           4.49984100      9.96620900     11.90020300
H           5.37110600     10.43611300     12.38941400
H           3.89648900      9.50805600     12.70256400
C           3.68758000     11.06726800     11.20129100
O           2.50338300     11.21386800     11.57833700
O           4.19210600     11.63643200     10.22377600
O           0.96399600     12.70597200     10.02877200
H           1.63549600     12.23510300     10.61321300
H           0.41829100     13.16916400     10.64802200
          27
 Energy =     -0.02860400 a.u.  #Cluster:    8
C           1.81334900     10.31513900      8.32128700
C           2.25436200      9.16460500      8.95760900
C           4.06736100     10.35291700      8.33515700
N           2.94805000     11.02854000      7.92659300
H           0.81142200     10.68691800      8.16325900
H           1.69417500      8.37458900      9.41889000
H           5.09636300     10.68391500      8.20854700
C           2.96544900     12.40945100      7.47213300
H           3.60630600     12.53229500      6.58612700
H           1.94044800     12.76595600      7.25099000
H           3.34916100     13.06069200      8.30334700
N           3.65661700      9.19158300      8.94399500
C           4.51930000      8.31936900      9.74433100
H           5.17967100      7.74185100      9.05581200
H           3.87741200      7.58232900     10.28220200
C           5.37284200      9.10741100     10.76054100
H           5.99981900      8.38500400     11.32041500
H           6.08544400      9.77686400     10.23139700
C           4.54568700      9.93803200     11.73733100
H           5.17692700     10.31954600     12.56085300
H           3.74637300      9.34387600     12.21045400
C           3.92002400     11.16730300     11.04493700
O           2.78101400     11.49392600     11.41443400
O           4.56718900     11.69630300     10.12096100
O           1.21479700     12.62210200      9.59198400
H           0.66779600     13.15340300     10.15384800
H           1.88264300     12.22609400     10.23257300
          27
 Energy =     -0.02723100 a.u.  #Cluster:    9
C           4.26896900     10.82367000      7.18718500
C           4.56516700      9.58998400      7.75014000
C           2.72095400     10.39744900      8.76254800
N           3.11844900     11.30200600      7.82014400
H           4.78038900     11.37387900      6.42021200
H           5.36996300      8.91128700      7.54344900
H           1.84073000     10.48921200      9.41018100
C           2.58907900     12.65108500      7.73039100
H           2.89750600     13.14883900      6.80080400
H           1.47934500     12.65358600      7.80822400
H           2.94969400     13.24416500      8.61278300
N           3.58323800      9.32490500      8.71207700
C           3.69495200      8.31772100      9.77241400
H           4.00122100      7.35142700      9.31337000
H           2.69005500      8.16347600     10.23479900
C           4.71203800      8.75906500     10.84932000
H           5.17548400      7.86080700     11.29856300
H           5.53968900      9.33237000     10.37551600
C           4.08503700      9.62251900     11.94212500
H           4.84991400      9.96181000     12.66381300
H           3.33204400      9.06687500     12.52670300
C           3.44000300     10.87377500     11.32363500
O           2.28056500     11.15075200     11.69216900
O           4.05642900     11.45610800     10.41710100
O           0.93047100     12.64084700      9.97456900
H           0.26102000     13.01941500     10.52667300
H           1.53759700     12.17298100     10.63109900
          27
 Energy =     -0.02685800 a.u.  #Cluster:   10
C           2.85012100      9.87692900      6.85629900
C           3.11167200      8.88558600      7.79270600
C           3.56062400     10.87193200      8.75154300
N           3.14231500     11.09621700      7.46871200
H           2.49215500      9.79706400      5.84835600
H           3.01449500      7.82018800      7.71018700
H           3.86267300     11.68741400      9.49601500
C           2.88995100     12.41866200      6.92441400
H           2.49915900     12.36516500      5.89533000
H           2.13541600     12.94705700      7.55809600
H           3.81612900     13.02640300      6.92527400
N           3.55445100      9.51997300      8.96019100
C           3.76927600      8.82212100     10.23563300
H           3.82229800      7.72965400     10.03574300
H           2.85483400      8.99525200     10.87407600
C           5.02842200      9.29354400     10.98764900
H           5.63635800      8.41804900     11.28252000
H           5.68167400      9.90019700     10.32577600
C           4.66749100     10.11920700     12.22753900
H           5.57060900     10.51308300     12.72273500
H           4.11749200      9.52898100     12.97671900
C           3.80830700     11.29192600     11.72752400
O           2.57908300     11.22123800     11.90280000
O           4.39254000     12.14021700     11.02315300
O           1.33987300     11.73800100      9.58985500
H           0.45049100     11.94968900      9.83838500
H           1.81209100     11.64626800     10.47278100
