 Entering Gaussian System, Link 0=g16
 Initial command:
 /data0/home/software/g16/l1.exe "/data0/home/software/g16/scratch/Gau-330352.inp" -scrdir="/data0/home/software/g16/scratch/"
 Default is to use a total of  22 processors:
                               22 via shared-memory
                                1 via Linda
 Entering Link 1 = /data0/home/software/g16/l1.exe PID=    330353.
  
 Copyright (c) 1988,1990,1992,1993,1995,1998,2003,2009,2016,
            Gaussian, Inc.  All Rights Reserved.
  
 This is part of the Gaussian(R) 16 program.  It is based on
 the Gaussian(R) 09 system (copyright 2009, Gaussian, Inc.),
 the Gaussian(R) 03 system (copyright 2003, Gaussian, Inc.),
 the Gaussian(R) 98 system (copyright 1998, Gaussian, Inc.),
 the Gaussian(R) 94 system (copyright 1995, Gaussian, Inc.),
 the Gaussian 92(TM) system (copyright 1992, Gaussian, Inc.),
 the Gaussian 90(TM) system (copyright 1990, Gaussian, Inc.),
 the Gaussian 88(TM) system (copyright 1988, Gaussian, Inc.),
 the Gaussian 86(TM) system (copyright 1986, Carnegie Mellon
 University), and the Gaussian 82(TM) system (copyright 1983,
 Carnegie Mellon University). Gaussian is a federally registered
 trademark of Gaussian, Inc.
  
 This software contains proprietary and confidential information,
 including trade secrets, belonging to Gaussian, Inc.
  
 This software is provided under written license and may be
 used, copied, transmitted, or stored only in accord with that
 written license.
  
 The following legend is applicable only to US Government
 contracts under FAR:
  
                    RESTRICTED RIGHTS LEGEND
  
 Use, reproduction and disclosure by the US Government is
 subject to restrictions as set forth in subparagraphs (a)
 and (c) of the Commercial Computer Software - Restricted
 Rights clause in FAR 52.227-19.
  
 Gaussian, Inc.
 340 Quinnipiac St., Bldg. 40, Wallingford CT 06492
  
  
 ---------------------------------------------------------------
 Warning -- This program may not be used in any manner that
 competes with the business of Gaussian, Inc. or will provide
 assistance to any competitor of Gaussian, Inc.  The licensee
 of this program is prohibited from giving any competitor of
 Gaussian, Inc. access to this program.  By using this program,
 the user acknowledges that Gaussian, Inc. is engaged in the
 business of creating and licensing software in the field of
 computational chemistry and represents and warrants to the
 licensee that it is not a competitor of Gaussian, Inc. and that
 it will not use this program in any manner prohibited above.
 ---------------------------------------------------------------
  

 Cite this work as:
 Gaussian 16, Revision A.03,
 M. J. Frisch, G. W. Trucks, H. B. Schlegel, G. E. Scuseria, 
 M. A. Robb, J. R. Cheeseman, G. Scalmani, V. Barone, 
 G. A. Petersson, H. Nakatsuji, X. Li, M. Caricato, A. V. Marenich, 
 J. Bloino, B. G. Janesko, R. Gomperts, B. Mennucci, H. P. Hratchian, 
 J. V. Ortiz, A. F. Izmaylov, J. L. Sonnenberg, D. Williams-Young, 
 F. Ding, F. Lipparini, F. Egidi, J. Goings, B. Peng, A. Petrone, 
 T. Henderson, D. Ranasinghe, V. G. Zakrzewski, J. Gao, N. Rega, 
 G. Zheng, W. Liang, M. Hada, M. Ehara, K. Toyota, R. Fukuda, 
 J. Hasegawa, M. Ishida, T. Nakajima, Y. Honda, O. Kitao, H. Nakai, 
 T. Vreven, K. Throssell, J. A. Montgomery, Jr., J. E. Peralta, 
 F. Ogliaro, M. J. Bearpark, J. J. Heyd, E. N. Brothers, K. N. Kudin, 
 V. N. Staroverov, T. A. Keith, R. Kobayashi, J. Normand, 
 K. Raghavachari, A. P. Rendell, J. C. Burant, S. S. Iyengar, 
 J. Tomasi, M. Cossi, J. M. Millam, M. Klene, C. Adamo, R. Cammi, 
 J. W. Ochterski, R. L. Martin, K. Morokuma, O. Farkas, 
 J. B. Foresman, and D. J. Fox, Gaussian, Inc., Wallingford CT, 2016.
 
 ******************************************
 Gaussian 16:  ES64L-G16RevA.03 25-Dec-2016
                19-Feb-2023 
 ******************************************
 %nproc=24
 Will use up to   24 processors via shared memory.
 %mem=50GB
 ---------------------------------------------------
 #p M062X/6-311+G(2d,p) nosymm em=GD3 counterpoise=4
 ---------------------------------------------------
 1/38=1,62=4,172=1/1;
 2/12=2,15=1,17=6,18=5,40=1/2;
 1/38=1,53=2,62=4,63=1/22;
 3/5=4,6=6,7=112,11=2,25=1,30=1,74=-55,124=31/1,2,3;
 4//1;
 5/5=2,38=5/2;
 6/7=2,8=2,9=2,10=2,28=1/1;
 1/53=2,62=4,63=1/22;
 3/5=7,6=11,7=112,11=2,25=1,30=1,74=-55,82=7,124=31/1,2,3;
 4//1;
 5/5=2,38=5/2;
 6/7=2,8=2,9=2,10=2,28=1/1;
 1/53=2,62=4,63=1/22(-4);
 99/5=1,9=1/99;
 Leave Link    1 at Sun Feb 19 22:33:29 2023, MaxMem=  6710886400 cpu:               0.7 elap:               0.0
 (Enter /data0/home/software/g16/l101.exe)
 -------------------
 Title Card Required
 -------------------
 Symbolic Z-matrix:
 Charge =  0 Multiplicity = 1 in supermolecule
 Charge =  0 Multiplicity = 1 in fragment      1.
 Charge =  0 Multiplicity = 1 in fragment      2.
 Charge =  0 Multiplicity = 1 in fragment      3.
 Charge =  0 Multiplicity = 1 in fragment      4.
 C                     8.22452   10.2382   10.9724    
 C                     9.02505   9.93644   12.07511    
 C                     9.65164   8.69871   12.16815    
 C                     9.49465   7.77627   11.12204    
 C                     8.71852   8.12631   10.01728    
 H                     10.27054   8.4504    13.03862    
 H                     7.71029   11.21301   10.88591    
 H                     9.19088   10.70498   12.83747    
 H                     8.64019   7.46133   9.14923    
 C                     10.17789   6.45885   11.13809    
 H                     9.48556   5.61687   11.02703    
 H                     10.9177   6.39472   10.31214    
 H                     10.76245   6.29438   12.05749    
 N                     8.06685   9.3271    9.97019    
 C                     7.21846   9.66371   8.8012     
 H                     6.30999   9.02039   8.84172    
 H                     6.85919   10.72527   8.897      
 C                     7.91912   9.49389   7.43782    
 H                     8.44238   8.51414   7.38098    
 H                     7.12653   9.44187   6.65874    
 C                     8.88066   10.62405   7.08484    
 H                     8.35749   11.60114   7.08589    
 H                     9.26477   10.49768   6.05624    
 S                     10.26582   10.69743   8.23821    
 O                     11.38024   11.42174   7.634      
 O                     10.51511   9.27383   8.59229    
 O                     9.65675   11.44677   9.39728    
 O                     13.07294   12.52299   9.70175    
 H                     12.60329   12.27329   8.88301    
 H                     12.36782   12.70439   10.34206    
 O                     7.36596   12.8399   9.36318    
 H                     7.50583   13.75408   9.57914    
 H                     8.26697   12.43447   9.36214    
 O                     10.8406   12.49929   11.63299    
 H                     11.27029   11.69498   11.9359    
 H                     10.35307   12.20358   10.84025    
 
 ITRead=  0  0  0  0  0  0  0  0  0  0  0  0  0  0  0  0  0  0  0  0
 ITRead=  0  0  0  0  0  0  0  0  0  0  0  0  0  0  0  0
 MicOpt= -1 -1 -1 -1 -1 -1 -1 -1 -1 -1 -1 -1 -1 -1 -1 -1 -1 -1 -1 -1
 MicOpt= -1 -1 -1 -1 -1 -1 -1 -1 -1 -1 -1 -1 -1 -1 -1 -1
 NAtoms=     36 NQM=       36 NQMF=       0 NMMI=      0 NMMIF=      0
                NMic=       0 NMicF=      0.
                    Isotopes and Nuclear Properties:
 (Nuclear quadrupole moments (NQMom) in fm**2, nuclear magnetic moments (NMagM)
  in nuclear magnetons)

  Atom         1           2           3           4           5           6           7           8           9          10
 IAtWgt=          12          12          12          12          12           1           1           1           1          12
 AtmWgt=  12.0000000  12.0000000  12.0000000  12.0000000  12.0000000   1.0078250   1.0078250   1.0078250   1.0078250  12.0000000
 NucSpn=           0           0           0           0           0           1           1           1           1           0
 AtZEff=  -0.0000000  -0.0000000  -0.0000000  -0.0000000  -0.0000000  -0.0000000  -0.0000000  -0.0000000  -0.0000000  -0.0000000
 NQMom=    0.0000000   0.0000000   0.0000000   0.0000000   0.0000000   0.0000000   0.0000000   0.0000000   0.0000000   0.0000000
 NMagM=    0.0000000   0.0000000   0.0000000   0.0000000   0.0000000   2.7928460   2.7928460   2.7928460   2.7928460   0.0000000
 AtZNuc=   6.0000000   6.0000000   6.0000000   6.0000000   6.0000000   1.0000000   1.0000000   1.0000000   1.0000000   6.0000000

  Atom        11          12          13          14          15          16          17          18          19          20
 IAtWgt=           1           1           1          14          12           1           1          12           1           1
 AtmWgt=   1.0078250   1.0078250   1.0078250  14.0030740  12.0000000   1.0078250   1.0078250  12.0000000   1.0078250   1.0078250
 NucSpn=           1           1           1           2           0           1           1           0           1           1
 AtZEff=  -0.0000000  -0.0000000  -0.0000000  -0.0000000  -0.0000000  -0.0000000  -0.0000000  -0.0000000  -0.0000000  -0.0000000
 NQMom=    0.0000000   0.0000000   0.0000000   2.0440000   0.0000000   0.0000000   0.0000000   0.0000000   0.0000000   0.0000000
 NMagM=    2.7928460   2.7928460   2.7928460   0.4037610   0.0000000   2.7928460   2.7928460   0.0000000   2.7928460   2.7928460
 AtZNuc=   1.0000000   1.0000000   1.0000000   7.0000000   6.0000000   1.0000000   1.0000000   6.0000000   1.0000000   1.0000000

  Atom        21          22          23          24          25          26          27          28          29          30
 IAtWgt=          12           1           1          32          16          16          16          16           1           1
 AtmWgt=  12.0000000   1.0078250   1.0078250  31.9720718  15.9949146  15.9949146  15.9949146  15.9949146   1.0078250   1.0078250
 NucSpn=           0           1           1           0           0           0           0           0           1           1
 AtZEff=  -0.0000000  -0.0000000  -0.0000000  -0.0000000  -0.0000000  -0.0000000  -0.0000000  -0.0000000  -0.0000000  -0.0000000
 NQMom=    0.0000000   0.0000000   0.0000000   0.0000000   0.0000000   0.0000000   0.0000000   0.0000000   0.0000000   0.0000000
 NMagM=    0.0000000   2.7928460   2.7928460   0.0000000   0.0000000   0.0000000   0.0000000   0.0000000   2.7928460   2.7928460
 AtZNuc=   6.0000000   1.0000000   1.0000000  16.0000000   8.0000000   8.0000000   8.0000000   8.0000000   1.0000000   1.0000000

  Atom        31          32          33          34          35          36
 IAtWgt=          16           1           1          16           1           1
 AtmWgt=  15.9949146   1.0078250   1.0078250  15.9949146   1.0078250   1.0078250
 NucSpn=           0           1           1           0           1           1
 AtZEff=  -0.0000000  -0.0000000  -0.0000000  -0.0000000  -0.0000000  -0.0000000
 NQMom=    0.0000000   0.0000000   0.0000000   0.0000000   0.0000000   0.0000000
 NMagM=    0.0000000   2.7928460   2.7928460   0.0000000   2.7928460   2.7928460
 AtZNuc=   8.0000000   1.0000000   1.0000000   8.0000000   1.0000000   1.0000000
 Leave Link  101 at Sun Feb 19 22:33:29 2023, MaxMem=  6710886400 cpu:               2.2 elap:               0.1
 (Enter /data0/home/software/g16/l202.exe)
                          Input orientation:                          
 ---------------------------------------------------------------------
 Center     Atomic      Atomic             Coordinates (Angstroms)
 Number     Number       Type             X           Y           Z
 ---------------------------------------------------------------------
      1          6           0        8.224521   10.238203   10.972404
      2          6           0        9.025047    9.936438   12.075114
      3          6           0        9.651635    8.698713   12.168146
      4          6           0        9.494654    7.776267   11.122039
      5          6           0        8.718524    8.126306   10.017284
      6          1           0       10.270542    8.450397   13.038618
      7          1           0        7.710290   11.213005   10.885908
      8          1           0        9.190877   10.704981   12.837472
      9          1           0        8.640189    7.461325    9.149226
     10          6           0       10.177895    6.458854   11.138091
     11          1           0        9.485557    5.616869   11.027034
     12          1           0       10.917704    6.394718   10.312138
     13          1           0       10.762450    6.294375   12.057492
     14          7           0        8.066850    9.327097    9.970187
     15          6           0        7.218458    9.663707    8.801203
     16          1           0        6.309994    9.020390    8.841723
     17          1           0        6.859191   10.725268    8.897001
     18          6           0        7.919124    9.493889    7.437824
     19          1           0        8.442376    8.514144    7.380978
     20          1           0        7.126526    9.441867    6.658738
     21          6           0        8.880656   10.624054    7.084845
     22          1           0        8.357492   11.601144    7.085889
     23          1           0        9.264771   10.497684    6.056237
     24         16           0       10.265817   10.697429    8.238213
     25          8           0       11.380242   11.421741    7.634001
     26          8           0       10.515107    9.273832    8.592287
     27          8           0        9.656751   11.446768    9.397280
     28          8           0       13.072938   12.522995    9.701750
     29          1           0       12.603292   12.273286    8.883009
     30          1           0       12.367824   12.704391   10.342057
     31          8           0        7.365961   12.839897    9.363178
     32          1           0        7.505833   13.754080    9.579144
     33          1           0        8.266965   12.434474    9.362144
     34          8           0       10.840604   12.499290   11.632993
     35          1           0       11.270291   11.694976   11.935899
     36          1           0       10.353070   12.203576   10.840249
 ---------------------------------------------------------------------
                    Distance matrix (angstroms):
                    1          2          3          4          5
     1  C    0.000000
     2  C    1.395662   0.000000
     3  C    2.415881   1.390407   0.000000
     4  C    2.774303   2.407327   1.403528   0.000000
     5  C    2.369895   2.757752   2.413411   1.394772   0.000000
     6  H    3.413458   2.165159   1.096553   2.174794   3.412075
     7  H    1.105511   2.184587   3.425583   3.879546   3.361362
     8  H    2.151791   1.095147   2.164580   3.407691   3.850473
     9  H    3.347807   3.851639   3.415850   2.172853   1.096294
    10  C    4.257535   3.781621   2.520899   1.484134   2.483217
    11  H    4.790608   4.468693   3.290514   2.161506   2.811620
    12  H    4.739363   4.385660   3.218088   2.142356   2.814557
    13  H    4.813759   4.035282   2.650848   2.162957   3.419949
    14  N    1.363603   2.391685   2.781624   2.402178   1.367039
    15  C    2.460960   3.749218   4.264724   3.758960   2.468330
    16  H    3.112601   4.320356   4.726006   4.109713   2.825305
    17  H    2.531532   3.926014   4.754478   4.537958   3.386260
    18  C    3.624986   4.787836   5.099985   4.359583   3.027034
    19  H    3.989760   4.939366   4.940987   3.955665   2.678952
    20  H    4.521887   5.760739   6.105901   5.320085   3.942713
    21  C    3.961377   5.039489   5.490109   4.978536   3.855416
    22  H    4.120715   5.301815   5.994018   5.675679   4.560474
    23  H    5.031714   6.049739   6.382898   5.755111   4.648840
    24  S    3.442903   4.103709   4.451568   4.176641   3.488536
    25  O    4.743867   5.241808   5.564300   5.386217   4.860522
    26  O    3.441185   3.845700   3.723320   3.111860   2.564204
    27  O    2.448046   3.138621   3.902503   4.058774   3.505730
    28  O    5.508356   5.358037   5.693290   6.111691   6.196076
    29  H    5.261252   5.334251   5.681723   5.907628   5.794432
    30  H    4.862754   4.673244   5.172788   5.757594   5.863594
    31  O    3.177349   4.305489   5.499232   5.767606   4.947244
    32  H    3.849555   4.807522   6.071584   6.486153   5.773597
    33  H    2.723664   3.764981   4.873076   5.128678   4.381030
    34  O    3.520338   3.171739   4.018012   4.937570   5.122180
    35  H    3.511015   2.855338   3.413441   4.378531   4.788320
    36  H    2.900151   2.903180   3.813055   4.518556   4.469132
                    6          7          8          9         10
     6  H    0.000000
     7  H    4.338324   0.000000
     8  H    2.507845   2.501765   0.000000
     9  H    4.331707   4.237438   4.942441   0.000000
    10  C    2.754420   5.362334   4.678856   2.706487   0.000000
    11  H    3.562521   5.872668   5.408642   2.764566   1.095721
    12  H    3.475389   5.816580   5.285604   2.770756   1.110689
    13  H    2.419300   5.906032   4.746752   3.784676   1.101842
    14  N    3.878161   2.126577   3.373918   2.117498   3.747977
    15  C    5.361252   2.643524   4.611524   2.644414   4.948777
    16  H    5.798686   3.308637   5.206087   2.820470   5.176430
    17  H    5.827980   2.217658   4.578699   3.726781   5.851373
    18  C    6.163354   3.858530   5.678054   2.753207   5.292018
    19  H    5.946019   4.483786   5.927339   2.067428   4.620838
    20  H    7.181276   4.620246   6.635794   3.523670   6.186584
    21  C    6.488758   4.020535   5.761554   3.784488   5.954874
    22  H    7.001568   3.874231   5.880336   4.634153   6.795392
    23  H    7.345516   5.123848   6.784805   4.379059   6.555241
    24  S    5.300289   3.715754   4.723213   3.734298   5.136394
    25  O    6.266594   4.907853   5.690622   5.048633   6.193104
    26  O    4.528545   4.109512   4.671549   2.666586   3.810372
    27  O    4.755452   2.461579   3.549959   4.120520   5.308606
    28  O    5.964408   5.645910   5.311151   6.750930   6.871547
    29  H    6.109443   5.392334   5.453617   6.239553   6.691455
    30  H    5.455868   4.920633   4.507519   6.542771   6.666048
    31  O    6.419748   2.254783   4.467539   5.531588   7.195485
    32  H    6.909459   2.864698   4.770019   6.408616   7.924049
    33  H    5.779589   2.030697   3.990321   4.991677   6.520251
    34  O    4.323689   3.465766   2.718807   6.032580   6.096801
    35  H    3.569703   3.742778   2.473234   5.710235   5.408031
    36  H    4.350401   2.822694   2.754157   5.318126   5.755104
                   11         12         13         14         15
    11  H    0.000000
    12  H    1.779655   0.000000
    13  H    1.775194   1.755116   0.000000
    14  N    4.110407   4.104040   4.562949   0.000000
    15  C    5.144994   5.162716   5.875006   1.483104   0.000000
    16  H    5.142348   5.503387   6.131614   2.110460   1.113914
    17  H    6.126221   6.101459   6.697533   2.136598   1.124794
    18  C    5.510665   5.182473   6.297835   2.542146   1.542262
    19  H    4.772437   4.383026   5.672733   2.739693   2.199207
    20  H    6.267188   6.083213   7.230020   3.444282   2.155881
    21  C    6.401458   5.696689   6.856711   3.266432   2.575083
    22  H    7.253737   6.638542   7.659142   3.684418   2.827254
    23  H    6.969930   6.138339   7.478363   4.257264   3.523883
    24  S    5.847941   4.820731   5.849822   3.116569   3.266793
    25  O    6.985631   5.714658   6.799913   4.563317   4.666207
    26  O    4.512355   3.377761   4.576679   2.809877   3.326190
    27  O    6.055834   5.286793   5.903088   2.710906   3.078943
    28  O    7.894318   6.524828   7.048658   5.945312   6.577344
    29  H    7.656697   6.280221   7.015228   5.517363   5.984399
    30  H    7.681772   6.474235   6.827023   5.481129   6.175432
    31  O    7.709296   7.419955   7.851072   3.633107   3.228894
    32  H    8.498817   8.144836   8.508523   4.479490   4.173599
    33  H    7.122960   6.663900   7.154940   3.172626   3.015157
    34  O    7.040672   6.246311   6.219910   4.530060   5.401806
    35  H    6.399586   5.554606   5.425788   4.442174   5.510873
    36  H    6.646215   5.860081   6.047142   3.775969   4.520446
                   16         17         18         19         20
    16  H    0.000000
    17  H    1.792005   0.000000
    18  C    2.187335   2.183793   0.000000
    19  H    2.633840   3.113498   1.112171   0.000000
    20  H    2.368500   2.593917   1.112606   1.764585   0.000000
    21  C    3.502379   2.716703   1.525258   2.175202   2.157801
    22  H    3.733027   2.508424   2.180951   3.102233   2.521946
    23  H    4.321115   3.729417   2.174202   2.523035   2.459644
    24  S    4.338804   3.469853   2.756102   2.970946   3.731799
    25  O    5.738684   4.745540   3.966666   4.141159   4.792196
    26  O    4.220122   3.945281   2.849621   2.518057   3.905039
    27  O    4.170939   2.932095   3.266887   3.760381   4.233353
    28  O    7.664548   6.518443   6.392389   6.549731   7.356160
    29  H    7.084394   5.949055   5.635161   5.805210   6.554333
    30  H    7.247080   6.029109   6.207481   6.460286   7.189027
    31  O    3.996951   2.223914   3.899839   4.878517   4.349475
    32  H    4.937777   3.171304   4.785947   5.758991   5.221860
    33  H    3.969451   2.262647   3.531436   4.395995   4.191026
    34  O    6.357701   5.146305   5.930171   6.301787   6.919929
    35  H    6.428988   5.443624   6.025594   6.233947   7.077833
    36  H    5.520257   4.262487   4.984275   5.406405   5.960089
                   21         22         23         24         25
    21  C    0.000000
    22  H    1.108335   0.000000
    23  H    1.105237   1.760955   0.000000
    24  S    1.803971   2.405464   2.408944   0.000000
    25  O    2.680636   3.077276   2.796147   1.460015   0.000000
    26  O    2.601329   3.512964   3.081023   1.487999   2.506049
    27  O    2.574206   2.656018   3.495279   1.508611   2.465806
    28  O    5.294280   5.470646   5.647458   3.654389   2.890254
    29  H    4.450998   4.659209   4.721136   2.891864   1.944480
    30  H    5.205533   5.282286   5.732953   3.587825   3.155008
    31  O    3.520662   2.775552   4.475187   3.776888   4.595179
    32  H    4.231871   3.402466   5.109682   4.331134   4.922848
    33  H    2.973269   2.425690   3.959267   2.876796   3.701972
    34  O    5.295617   5.258200   6.131059   3.886080   4.176632
    35  H    5.512708   5.658251   6.326614   3.959413   4.311969
    36  H    4.331969   4.294237   5.194346   3.007770   3.456353
                   26         27         28         29         30
    26  O    0.000000
    27  O    2.471121   0.000000
    28  O    4.281410   3.594621   0.000000
    29  H    3.666301   3.103177   0.976350   0.000000
    30  H    4.273522   3.134348   0.969579   1.539519   0.000000
    31  O    4.819566   2.681360   5.725788   5.289730   5.098549
    32  H    5.486551   3.159622   5.702917   5.353638   5.032180
    33  H    3.954299   1.705375   4.818770   4.365694   4.224941
    34  O    4.444707   2.740022   2.951877   3.274226   2.010220
    35  H    4.196663   3.018229   2.987737   3.381046   2.182620
    36  H    3.696348   1.771942   2.965787   2.983144   2.135005
                   31         32         33         34         35
    31  O    0.000000
    32  H    0.949703   0.000000
    33  H    0.988017   1.538756   0.000000
    34  O    4.164279   4.112602   3.432867   0.000000
    35  H    4.813889   4.895441   4.023809   0.960887   0.000000
    36  H    3.392560   3.478679   2.567088   0.976514   1.516713
                   36
    36  H    0.000000
 Symmetry turned off by external request.
 Stoichiometry    C9H19NO6S
 Framework group  C1[X(C9H19NO6S)]
 Deg. of freedom   102
 Full point group                 C1      NOp   1
 Rotational constants (GHZ):           0.4512271           0.3592008           0.3126872
 Leave Link  202 at Sun Feb 19 22:33:29 2023, MaxMem=  6710886400 cpu:               0.1 elap:               0.0
 (Enter /data0/home/software/g16/l122.exe)
 Counterpoise: doing full-system calculation.
 Leave Link  122 at Sun Feb 19 22:33:29 2023, MaxMem=  6710886400 cpu:               0.0 elap:               0.0
 (Enter /data0/home/software/g16/l301.exe)
 Standard basis: 6-311+G(2d,p) (5D, 7F)
 Ernie: Thresh=  0.10000D-02 Tol=  0.10000D-05 Strict=F.
   581 basis functions,   880 primitive gaussians,   615 cartesian basis functions
    72 alpha electrons       72 beta electrons
       nuclear repulsion energy      1619.7812545617 Hartrees.
 IExCor= 4336 DFT=T Ex+Corr=M062X ExCW=0 ScaHFX=  0.540000
 ScaDFX=  1.000000  1.000000  1.000000  1.000000 ScalE2=  1.000000  1.000000
 IRadAn=      5 IRanWt=     -1 IRanGd=            0 ICorTp=0 IEmpDi=131
 NAtoms=   36 NActive=   36 NUniq=   36 SFac= 1.00D+00 NAtFMM=   60 NAOKFM=F Big=F
 Integral buffers will be    131072 words long.
 Raffenetti 2 integral format.
 Two-electron integral symmetry is turned off.
 R6Disp:  Grimme-D3 Dispersion energy=       -0.0027435812 Hartrees.
 Nuclear repulsion after empirical dispersion term =     1619.7785109805 Hartrees.
 Leave Link  301 at Sun Feb 19 22:33:29 2023, MaxMem=  6710886400 cpu:               1.1 elap:               0.1
 (Enter /data0/home/software/g16/l302.exe)
 NPDir=0 NMtPBC=     1 NCelOv=     1 NCel=       1 NClECP=     1 NCelD=      1
         NCelK=      1 NCelE2=     1 NClLst=     1 CellRange=     0.0.
 One-electron integrals computed using PRISM.
 NBasis=   581 RedAO= T EigKep=  1.79D-06  NBF=   581
 NBsUse=   581 1.00D-06 EigRej= -1.00D+00 NBFU=   581
 Precomputing XC quadrature grid using
 IXCGrd= 4 IRadAn=           5 IRanWt=          -1 IRanGd=           0 AccXCQ= 0.00D+00.
 Generated NRdTot=       0 NPtTot=           0 NUsed=           0 NTot=          32
 NSgBfM=   612   611   611   612   612 MxSgAt=    36 MxSgA2=    36.
 Leave Link  302 at Sun Feb 19 22:33:30 2023, MaxMem=  6710886400 cpu:              14.9 elap:               0.6
 (Enter /data0/home/software/g16/l303.exe)
 DipDrv:  MaxL=1.
 Leave Link  303 at Sun Feb 19 22:33:30 2023, MaxMem=  6710886400 cpu:               1.5 elap:               0.1
 (Enter /data0/home/software/g16/l401.exe)
 ExpMin= 4.05D-02 ExpMax= 9.34D+04 ExpMxC= 3.17D+03 IAcc=3 IRadAn=         5 AccDes= 0.00D+00
 Harris functional with IExCor= 1009 and IRadAn=       5 diagonalized for initial guess.
 HarFok:  IExCor= 1009 AccDes= 0.00D+00 IRadAn=         5 IDoV= 1 UseB2=F ITyADJ=14
 ICtDFT=  3500011 ScaDFX=  1.000000  1.000000  1.000000  1.000000
 FoFCou: FMM=F IPFlag=           0 FMFlag=      100000 FMFlg1=           0
         NFxFlg=           0 DoJE=T BraDBF=F KetDBF=T FulRan=T
         wScrn=  0.000000 ICntrl=       500 IOpCl=  0 I1Cent=   200000004 NGrid=           0
         NMat0=    1 NMatS0=      1 NMatT0=    0 NMatD0=    1 NMtDS0=    0 NMtDT0=    0
 Symmetry not used in FoFCou.
 Harris En= -1258.13576645458    
 JPrj=0 DoOrth=F DoCkMO=F.
 Leave Link  401 at Sun Feb 19 22:33:33 2023, MaxMem=  6710886400 cpu:              64.9 elap:               2.7
 (Enter /data0/home/software/g16/l502.exe)
 Two-electron integral symmetry not used.
 Closed shell SCF:
 Using DIIS extrapolation, IDIIS=  1040.
 NGot=  6710886400 LenX=  6710110827 LenY=  6709731987
 Requested convergence on RMS density matrix=1.00D-08 within 128 cycles.
 Requested convergence on MAX density matrix=1.00D-06.
 Requested convergence on             energy=1.00D-06.
 No special actions if energy rises.
 Fock matrices will be formed incrementally for  20 cycles.

 Cycle   1  Pass 1  IDiag  1:
 FoFJK:  IHMeth= 1 ICntrl=       0 DoSepK=F KAlg= 0 I1Cent=           0 FoldK=F
 IRaf= 870000000 NMat=       1 IRICut=       1 DoRegI=T DoRafI=F ISym2E= 0 IDoP0=0 IntGTp=1.
 FoFCou: FMM=F IPFlag=           0 FMFlag=      100000 FMFlg1=           0
         NFxFlg=           0 DoJE=F BraDBF=F KetDBF=F FulRan=T
         wScrn=  0.000000 ICntrl=         0 IOpCl=  0 I1Cent=           0 NGrid=           0
         NMat0=    1 NMatS0=      1 NMatT0=    0 NMatD0=    1 NMtDS0=    0 NMtDT0=    0
 Symmetry not used in FoFCou.
 E= -1257.90204163702    
 DIIS: error= 2.11D-02 at cycle   1 NSaved=   1.
 NSaved= 1 IEnMin= 1 EnMin= -1257.90204163702     IErMin= 1 ErrMin= 2.11D-02
 ErrMax= 2.11D-02  0.00D+00 EMaxC= 1.00D-01 BMatC= 1.09D+00 BMatP= 1.09D+00
 IDIUse=3 WtCom= 7.89D-01 WtEn= 2.11D-01
 Coeff-Com:  0.100D+01
 Coeff-En:   0.100D+01
 Coeff:      0.100D+01
 Gap=     0.211 Goal=   None    Shift=    0.000
 GapD=    0.211 DampG=1.000 DampE=0.500 DampFc=0.5000 IDamp=-1.
 Damping current iteration by 5.00D-01
 RMSDP=3.43D-02 MaxDP=9.92D+00              OVMax= 1.87D-01

 Cycle   2  Pass 1  IDiag  1:
 RMSU=  1.43D-02    CP:  1.36D+00
 E= -1258.20059423339     Delta-E=       -0.298552596368 Rises=F Damp=T
 DIIS: error= 5.48D-03 at cycle   2 NSaved=   2.
 NSaved= 2 IEnMin= 2 EnMin= -1258.20059423339     IErMin= 2 ErrMin= 5.48D-03
 ErrMax= 5.48D-03  0.00D+00 EMaxC= 1.00D-01 BMatC= 6.78D-02 BMatP= 1.09D+00
 IDIUse=3 WtCom= 9.45D-01 WtEn= 5.48D-02
 Coeff-Com:  0.414D-01 0.959D+00
 Coeff-En:   0.130D+00 0.870D+00
 Coeff:      0.463D-01 0.954D+00
 Gap=     0.272 Goal=   None    Shift=    0.000
 RMSDP=1.10D-02 MaxDP=2.52D+00 DE=-2.99D-01 OVMax= 1.14D-01

 Cycle   3  Pass 1  IDiag  1:
 RMSU=  3.91D-03    CP:  1.01D+00  6.75D-01
 E= -1258.56731851571     Delta-E=       -0.366724282322 Rises=F Damp=F
 DIIS: error= 3.82D-03 at cycle   3 NSaved=   3.
 NSaved= 3 IEnMin= 3 EnMin= -1258.56731851571     IErMin= 3 ErrMin= 3.82D-03
 ErrMax= 3.82D-03  0.00D+00 EMaxC= 1.00D-01 BMatC= 2.72D-02 BMatP= 6.78D-02
 IDIUse=3 WtCom= 9.62D-01 WtEn= 3.82D-02
 Coeff-Com: -0.444D-01 0.358D+00 0.686D+00
 Coeff-En:   0.000D+00 0.000D+00 0.100D+01
 Coeff:     -0.427D-01 0.345D+00 0.698D+00
 Gap=     0.246 Goal=   None    Shift=    0.000
 RMSDP=1.26D-03 MaxDP=9.82D-02 DE=-3.67D-01 OVMax= 3.42D-02

 Cycle   4  Pass 1  IDiag  1:
 RMSU=  1.24D-03    CP:  1.01D+00  6.84D-01  9.51D-01
 E= -1258.58348695109     Delta-E=       -0.016168435382 Rises=F Damp=F
 DIIS: error= 1.81D-03 at cycle   4 NSaved=   4.
 NSaved= 4 IEnMin= 4 EnMin= -1258.58348695109     IErMin= 4 ErrMin= 1.81D-03
 ErrMax= 1.81D-03  0.00D+00 EMaxC= 1.00D-01 BMatC= 7.42D-03 BMatP= 2.72D-02
 IDIUse=3 WtCom= 9.82D-01 WtEn= 1.81D-02
 Coeff-Com: -0.270D-01 0.860D-01 0.386D+00 0.555D+00
 Coeff-En:   0.000D+00 0.000D+00 0.213D+00 0.787D+00
 Coeff:     -0.266D-01 0.844D-01 0.383D+00 0.559D+00
 Gap=     0.247 Goal=   None    Shift=    0.000
 RMSDP=7.36D-04 MaxDP=1.33D-01 DE=-1.62D-02 OVMax= 1.43D-02

 Cycle   5  Pass 1  IDiag  1:
 RMSU=  2.91D-04    CP:  1.01D+00  7.09D-01  9.68D-01  5.44D-01
 E= -1258.58953803599     Delta-E=       -0.006051084893 Rises=F Damp=F
 DIIS: error= 4.67D-04 at cycle   5 NSaved=   5.
 NSaved= 5 IEnMin= 5 EnMin= -1258.58953803599     IErMin= 5 ErrMin= 4.67D-04
 ErrMax= 4.67D-04  0.00D+00 EMaxC= 1.00D-01 BMatC= 3.50D-04 BMatP= 7.42D-03
 IDIUse=3 WtCom= 9.95D-01 WtEn= 4.67D-03
 Coeff-Com: -0.940D-02 0.199D-01 0.140D+00 0.267D+00 0.583D+00
 Coeff-En:   0.000D+00 0.000D+00 0.000D+00 0.000D+00 0.100D+01
 Coeff:     -0.935D-02 0.198D-01 0.139D+00 0.266D+00 0.585D+00
 Gap=     0.246 Goal=   None    Shift=    0.000
 RMSDP=2.34D-04 MaxDP=5.88D-02 DE=-6.05D-03 OVMax= 3.66D-03

 Cycle   6  Pass 1  IDiag  1:
 RMSU=  6.84D-05    CP:  1.01D+00  6.97D-01  9.69D-01  6.23D-01  7.17D-01
 E= -1258.58981173213     Delta-E=       -0.000273696145 Rises=F Damp=F
 DIIS: error= 1.21D-04 at cycle   6 NSaved=   6.
 NSaved= 6 IEnMin= 6 EnMin= -1258.58981173213     IErMin= 6 ErrMin= 1.21D-04
 ErrMax= 1.21D-04  0.00D+00 EMaxC= 1.00D-01 BMatC= 2.57D-05 BMatP= 3.50D-04
 IDIUse=3 WtCom= 9.99D-01 WtEn= 1.21D-03
 Coeff-Com: -0.168D-02 0.118D-02 0.276D-01 0.681D-01 0.263D+00 0.641D+00
 Coeff-En:   0.000D+00 0.000D+00 0.000D+00 0.000D+00 0.000D+00 0.100D+01
 Coeff:     -0.168D-02 0.118D-02 0.276D-01 0.681D-01 0.263D+00 0.642D+00
 Gap=     0.246 Goal=   None    Shift=    0.000
 RMSDP=7.08D-05 MaxDP=1.94D-02 DE=-2.74D-04 OVMax= 9.67D-04

 Cycle   7  Pass 1  IDiag  1:
 RMSU=  3.00D-05    CP:  1.01D+00  6.94D-01  9.71D-01  6.33D-01  7.25D-01
                    CP:  9.23D-01
 E= -1258.58983218739     Delta-E=       -0.000020455259 Rises=F Damp=F
 DIIS: error= 3.46D-05 at cycle   7 NSaved=   7.
 NSaved= 7 IEnMin= 7 EnMin= -1258.58983218739     IErMin= 7 ErrMin= 3.46D-05
 ErrMax= 3.46D-05  0.00D+00 EMaxC= 1.00D-01 BMatC= 2.20D-06 BMatP= 2.57D-05
 IDIUse=1 WtCom= 1.00D+00 WtEn= 0.00D+00
 Coeff-Com:  0.260D-03-0.146D-02-0.240D-02 0.252D-02 0.588D-01 0.264D+00
 Coeff-Com:  0.678D+00
 Coeff:      0.260D-03-0.146D-02-0.240D-02 0.252D-02 0.588D-01 0.264D+00
 Coeff:      0.678D+00
 Gap=     0.246 Goal=   None    Shift=    0.000
 RMSDP=1.41D-05 MaxDP=2.94D-03 DE=-2.05D-05 OVMax= 2.48D-04

 Cycle   8  Pass 1  IDiag  1:
 RMSU=  8.35D-06    CP:  1.01D+00  6.95D-01  9.71D-01  6.31D-01  7.38D-01
                    CP:  9.81D-01  9.12D-01
 E= -1258.58983390712     Delta-E=       -0.000001719725 Rises=F Damp=F
 DIIS: error= 1.13D-05 at cycle   8 NSaved=   8.
 NSaved= 8 IEnMin= 8 EnMin= -1258.58983390712     IErMin= 8 ErrMin= 1.13D-05
 ErrMax= 1.13D-05  0.00D+00 EMaxC= 1.00D-01 BMatC= 2.97D-07 BMatP= 2.20D-06
 IDIUse=1 WtCom= 1.00D+00 WtEn= 0.00D+00
 Coeff-Com:  0.332D-03-0.725D-03-0.503D-02-0.887D-02-0.117D-01 0.134D-01
 Coeff-Com:  0.284D+00 0.728D+00
 Coeff:      0.332D-03-0.725D-03-0.503D-02-0.887D-02-0.117D-01 0.134D-01
 Coeff:      0.284D+00 0.728D+00
 Gap=     0.246 Goal=   None    Shift=    0.000
 RMSDP=2.31D-05 MaxDP=6.90D-03 DE=-1.72D-06 OVMax= 1.69D-04

 Cycle   9  Pass 1  IDiag  1:
 RMSU=  3.91D-06    CP:  1.01D+00  6.94D-01  9.71D-01  6.33D-01  7.40D-01
                    CP:  1.00D+00  9.93D-01  8.98D-01
 E= -1258.58983417157     Delta-E=       -0.000000264456 Rises=F Damp=F
 DIIS: error= 4.37D-06 at cycle   9 NSaved=   9.
 NSaved= 9 IEnMin= 9 EnMin= -1258.58983417157     IErMin= 9 ErrMin= 4.37D-06
 ErrMax= 4.37D-06  0.00D+00 EMaxC= 1.00D-01 BMatC= 3.40D-08 BMatP= 2.97D-07
 IDIUse=1 WtCom= 1.00D+00 WtEn= 0.00D+00
 Coeff-Com:  0.123D-03-0.217D-03-0.213D-02-0.429D-02-0.960D-02-0.151D-01
 Coeff-Com:  0.695D-01 0.330D+00 0.632D+00
 Coeff:      0.123D-03-0.217D-03-0.213D-02-0.429D-02-0.960D-02-0.151D-01
 Coeff:      0.695D-01 0.330D+00 0.632D+00
 Gap=     0.246 Goal=   None    Shift=    0.000
 RMSDP=1.33D-06 MaxDP=1.65D-04 DE=-2.64D-07 OVMax= 3.83D-05

 Cycle  10  Pass 1  IDiag  1:
 RMSU=  9.61D-07    CP:  1.01D+00  6.94D-01  9.71D-01  6.33D-01  7.41D-01
                    CP:  1.01D+00  1.00D+00  9.52D-01  8.92D-01
 E= -1258.58983420139     Delta-E=       -0.000000029821 Rises=F Damp=F
 DIIS: error= 1.69D-06 at cycle  10 NSaved=  10.
 NSaved=10 IEnMin=10 EnMin= -1258.58983420139     IErMin=10 ErrMin= 1.69D-06
 ErrMax= 1.69D-06  0.00D+00 EMaxC= 1.00D-01 BMatC= 3.46D-09 BMatP= 3.40D-08
 IDIUse=1 WtCom= 1.00D+00 WtEn= 0.00D+00
 Coeff-Com:  0.137D-04-0.673D-05-0.354D-03-0.875D-03-0.264D-02-0.757D-02
 Coeff-Com: -0.281D-02 0.647D-01 0.259D+00 0.691D+00
 Coeff:      0.137D-04-0.673D-05-0.354D-03-0.875D-03-0.264D-02-0.757D-02
 Coeff:     -0.281D-02 0.647D-01 0.259D+00 0.691D+00
 Gap=     0.246 Goal=   None    Shift=    0.000
 RMSDP=5.60D-07 MaxDP=9.12D-05 DE=-2.98D-08 OVMax= 2.64D-05

 Cycle  11  Pass 1  IDiag  1:
 RMSU=  3.54D-07    CP:  1.01D+00  6.94D-01  9.71D-01  6.33D-01  7.41D-01
                    CP:  1.01D+00  1.01D+00  9.67D-01  9.24D-01  8.59D-01
 E= -1258.58983420525     Delta-E=       -0.000000003854 Rises=F Damp=F
 DIIS: error= 7.49D-07 at cycle  11 NSaved=  11.
 NSaved=11 IEnMin=11 EnMin= -1258.58983420525     IErMin=11 ErrMin= 7.49D-07
 ErrMax= 7.49D-07  0.00D+00 EMaxC= 1.00D-01 BMatC= 8.38D-10 BMatP= 3.46D-09
 IDIUse=1 WtCom= 1.00D+00 WtEn= 0.00D+00
 Coeff-Com: -0.137D-04 0.314D-04 0.182D-03 0.266D-03 0.224D-03-0.148D-02
 Coeff-Com: -0.148D-01-0.242D-01 0.212D-02 0.338D+00 0.700D+00
 Coeff:     -0.137D-04 0.314D-04 0.182D-03 0.266D-03 0.224D-03-0.148D-02
 Coeff:     -0.148D-01-0.242D-01 0.212D-02 0.338D+00 0.700D+00
 Gap=     0.246 Goal=   None    Shift=    0.000
 RMSDP=4.70D-07 MaxDP=1.23D-04 DE=-3.85D-09 OVMax= 8.13D-06

 Cycle  12  Pass 1  IDiag  1:
 RMSU=  1.21D-07    CP:  1.01D+00  6.94D-01  9.71D-01  6.33D-01  7.41D-01
                    CP:  1.01D+00  1.01D+00  9.73D-01  9.47D-01  9.52D-01
                    CP:  9.54D-01
 E= -1258.58983420616     Delta-E=       -0.000000000908 Rises=F Damp=F
 DIIS: error= 2.56D-07 at cycle  12 NSaved=  12.
 NSaved=12 IEnMin=12 EnMin= -1258.58983420616     IErMin=12 ErrMin= 2.56D-07
 ErrMax= 2.56D-07  0.00D+00 EMaxC= 1.00D-01 BMatC= 6.61D-11 BMatP= 8.38D-10
 IDIUse=1 WtCom= 1.00D+00 WtEn= 0.00D+00
 Coeff-Com: -0.562D-05 0.111D-04 0.105D-03 0.189D-03 0.400D-03 0.494D-03
 Coeff-Com: -0.499D-02-0.148D-01-0.332D-01 0.570D-01 0.258D+00 0.737D+00
 Coeff:     -0.562D-05 0.111D-04 0.105D-03 0.189D-03 0.400D-03 0.494D-03
 Coeff:     -0.499D-02-0.148D-01-0.332D-01 0.570D-01 0.258D+00 0.737D+00
 Gap=     0.246 Goal=   None    Shift=    0.000
 RMSDP=7.43D-08 MaxDP=1.35D-05 DE=-9.08D-10 OVMax= 4.25D-06

 Cycle  13  Pass 1  IDiag  1:
 RMSU=  4.54D-08    CP:  1.01D+00  6.94D-01  9.71D-01  6.33D-01  7.41D-01
                    CP:  1.01D+00  1.01D+00  9.74D-01  9.45D-01  9.75D-01
                    CP:  9.92D-01  1.04D+00
 E= -1258.58983420619     Delta-E=       -0.000000000034 Rises=F Damp=F
 DIIS: error= 9.18D-08 at cycle  13 NSaved=  13.
 NSaved=13 IEnMin=13 EnMin= -1258.58983420619     IErMin=13 ErrMin= 9.18D-08
 ErrMax= 9.18D-08  0.00D+00 EMaxC= 1.00D-01 BMatC= 1.42D-11 BMatP= 6.61D-11
 IDIUse=1 WtCom= 1.00D+00 WtEn= 0.00D+00
 Coeff-Com: -0.123D-06-0.199D-06 0.185D-04 0.393D-04 0.126D-03 0.412D-03
 Coeff-Com: -0.130D-03-0.235D-02-0.151D-01-0.231D-01-0.289D-02 0.326D+00
 Coeff-Com:  0.717D+00
 Coeff:     -0.123D-06-0.199D-06 0.185D-04 0.393D-04 0.126D-03 0.412D-03
 Coeff:     -0.130D-03-0.235D-02-0.151D-01-0.231D-01-0.289D-02 0.326D+00
 Coeff:      0.717D+00
 Gap=     0.246 Goal=   None    Shift=    0.000
 RMSDP=4.92D-08 MaxDP=1.16D-05 DE=-3.41D-11 OVMax= 2.06D-06

 Cycle  14  Pass 1  IDiag  1:
 RMSU=  2.26D-08    CP:  1.01D+00  6.94D-01  9.71D-01  6.33D-01  7.41D-01
                    CP:  1.01D+00  1.01D+00  9.75D-01  9.43D-01  9.79D-01
                    CP:  9.93D-01  1.15D+00  1.01D+00
 E= -1258.58983420623     Delta-E=       -0.000000000045 Rises=F Damp=F
 DIIS: error= 5.20D-08 at cycle  14 NSaved=  14.
 NSaved=14 IEnMin=14 EnMin= -1258.58983420623     IErMin=14 ErrMin= 5.20D-08
 ErrMax= 5.20D-08  0.00D+00 EMaxC= 1.00D-01 BMatC= 3.05D-12 BMatP= 1.42D-11
 IDIUse=1 WtCom= 1.00D+00 WtEn= 0.00D+00
 Coeff-Com:  0.106D-05-0.229D-05-0.104D-04-0.167D-04-0.160D-04 0.118D-03
 Coeff-Com:  0.816D-03 0.174D-02-0.147D-02-0.220D-01-0.551D-01 0.352D-01
 Coeff-Com:  0.378D+00 0.662D+00
 Coeff:      0.106D-05-0.229D-05-0.104D-04-0.167D-04-0.160D-04 0.118D-03
 Coeff:      0.816D-03 0.174D-02-0.147D-02-0.220D-01-0.551D-01 0.352D-01
 Coeff:      0.378D+00 0.662D+00
 Gap=     0.246 Goal=   None    Shift=    0.000
 RMSDP=1.33D-08 MaxDP=1.42D-06 DE=-4.46D-11 OVMax= 1.05D-06

 Cycle  15  Pass 1  IDiag  1:
 RMSU=  8.12D-09    CP:  1.01D+00  6.94D-01  9.71D-01  6.33D-01  7.41D-01
                    CP:  1.01D+00  1.01D+00  9.75D-01  9.43D-01  9.79D-01
                    CP:  9.97D-01  1.19D+00  1.14D+00  9.78D-01
 E= -1258.58983420623     Delta-E=        0.000000000004 Rises=F Damp=F
 DIIS: error= 1.99D-08 at cycle  15 NSaved=  15.
 NSaved=15 IEnMin=14 EnMin= -1258.58983420623     IErMin=15 ErrMin= 1.99D-08
 ErrMax= 1.99D-08  0.00D+00 EMaxC= 1.00D-01 BMatC= 2.49D-13 BMatP= 3.05D-12
 IDIUse=1 WtCom= 1.00D+00 WtEn= 0.00D+00
 Coeff-Com:  0.333D-06-0.697D-06-0.594D-05-0.106D-04-0.220D-04-0.122D-04
 Coeff-Com:  0.290D-03 0.988D-03 0.171D-02-0.361D-02-0.190D-01-0.389D-01
 Coeff-Com:  0.151D-01 0.227D+00 0.816D+00
 Coeff:      0.333D-06-0.697D-06-0.594D-05-0.106D-04-0.220D-04-0.122D-04
 Coeff:      0.290D-03 0.988D-03 0.171D-02-0.361D-02-0.190D-01-0.389D-01
 Coeff:      0.151D-01 0.227D+00 0.816D+00
 Gap=     0.246 Goal=   None    Shift=    0.000
 RMSDP=6.07D-09 MaxDP=7.92D-07 DE= 4.09D-12 OVMax= 4.14D-07

 SCF Done:  E(RM062X) =  -1258.58983421     A.U. after   15 cycles
            NFock= 15  Conv=0.61D-08     -V/T= 2.0032
 KE= 1.254551148375D+03 PE=-6.200504099850D+03 EE= 2.067584606288D+03
 Leave Link  502 at Sun Feb 19 22:36:05 2023, MaxMem=  6710886400 cpu:            3654.0 elap:             152.7
 (Enter /data0/home/software/g16/l601.exe)
 Copying SCF densities to generalized density rwf, IOpCl= 0 IROHF=0.

 **********************************************************************

            Population analysis using the SCF density.

 **********************************************************************

 Alpha  occ. eigenvalues --  -90.08943 -19.61764 -19.60411 -19.60363 -19.59322
 Alpha  occ. eigenvalues --  -19.59155 -19.54744 -14.89006 -10.65349 -10.65094
 Alpha  occ. eigenvalues --  -10.63156 -10.61378 -10.61018 -10.59994 -10.58635
 Alpha  occ. eigenvalues --  -10.57455 -10.57295  -8.42397  -6.34703  -6.34623
 Alpha  occ. eigenvalues --   -6.34610  -1.23339  -1.16379  -1.13100  -1.11758
 Alpha  occ. eigenvalues --   -1.09708  -1.09069  -1.05403  -0.99004  -0.94024
 Alpha  occ. eigenvalues --   -0.92336  -0.85387  -0.84068  -0.78500  -0.75486
 Alpha  occ. eigenvalues --   -0.73010  -0.67844  -0.65118  -0.63295  -0.61731
 Alpha  occ. eigenvalues --   -0.60839  -0.59716  -0.58908  -0.58020  -0.56359
 Alpha  occ. eigenvalues --   -0.55255  -0.54972  -0.53931  -0.53578  -0.52338
 Alpha  occ. eigenvalues --   -0.51344  -0.50949  -0.50211  -0.48830  -0.47665
 Alpha  occ. eigenvalues --   -0.46966  -0.46755  -0.46135  -0.45227  -0.43828
 Alpha  occ. eigenvalues --   -0.42610  -0.40869  -0.40615  -0.39877  -0.39519
 Alpha  occ. eigenvalues --   -0.38005  -0.37232  -0.36456  -0.36199  -0.35326
 Alpha  occ. eigenvalues --   -0.32602  -0.32014
 Alpha virt. eigenvalues --   -0.07422  -0.03442  -0.01355  -0.00209   0.00509
 Alpha virt. eigenvalues --    0.00992   0.01963   0.02459   0.03108   0.04121
 Alpha virt. eigenvalues --    0.04423   0.04835   0.05246   0.05728   0.06794
 Alpha virt. eigenvalues --    0.07051   0.07258   0.08405   0.08682   0.09428
 Alpha virt. eigenvalues --    0.09877   0.10236   0.10550   0.10682   0.11008
 Alpha virt. eigenvalues --    0.11567   0.11960   0.13004   0.13115   0.13476
 Alpha virt. eigenvalues --    0.13865   0.14190   0.14684   0.15188   0.15491
 Alpha virt. eigenvalues --    0.16040   0.16105   0.16622   0.16726   0.17171
 Alpha virt. eigenvalues --    0.17289   0.17764   0.18124   0.18400   0.18582
 Alpha virt. eigenvalues --    0.19042   0.19594   0.19952   0.20123   0.20561
 Alpha virt. eigenvalues --    0.20694   0.21192   0.21755   0.22046   0.22335
 Alpha virt. eigenvalues --    0.22825   0.22968   0.23677   0.24042   0.24258
 Alpha virt. eigenvalues --    0.24963   0.25227   0.25516   0.25791   0.26277
 Alpha virt. eigenvalues --    0.26764   0.27093   0.27539   0.28082   0.28257
 Alpha virt. eigenvalues --    0.29161   0.29290   0.29828   0.30213   0.30813
 Alpha virt. eigenvalues --    0.31003   0.31372   0.32120   0.32567   0.32906
 Alpha virt. eigenvalues --    0.33459   0.33888   0.34326   0.34910   0.35553
 Alpha virt. eigenvalues --    0.35952   0.36514   0.37073   0.37547   0.38095
 Alpha virt. eigenvalues --    0.38285   0.38816   0.39478   0.39889   0.40116
 Alpha virt. eigenvalues --    0.41593   0.41982   0.42587   0.43513   0.43932
 Alpha virt. eigenvalues --    0.44840   0.45409   0.46596   0.47960   0.48445
 Alpha virt. eigenvalues --    0.48784   0.50195   0.50425   0.51378   0.51657
 Alpha virt. eigenvalues --    0.52349   0.53317   0.53423   0.54231   0.55231
 Alpha virt. eigenvalues --    0.56148   0.56749   0.57223   0.57580   0.57764
 Alpha virt. eigenvalues --    0.58980   0.59746   0.60315   0.60816   0.61074
 Alpha virt. eigenvalues --    0.61973   0.62186   0.62702   0.63539   0.63877
 Alpha virt. eigenvalues --    0.64910   0.65107   0.65315   0.66547   0.67022
 Alpha virt. eigenvalues --    0.67335   0.68307   0.68787   0.69294   0.69734
 Alpha virt. eigenvalues --    0.71009   0.71682   0.72463   0.72659   0.73555
 Alpha virt. eigenvalues --    0.73927   0.74231   0.75688   0.75758   0.77010
 Alpha virt. eigenvalues --    0.77819   0.77985   0.79303   0.80215   0.81080
 Alpha virt. eigenvalues --    0.81696   0.82574   0.83284   0.84245   0.85034
 Alpha virt. eigenvalues --    0.85361   0.85850   0.87269   0.87578   0.88986
 Alpha virt. eigenvalues --    0.89842   0.91595   0.92051   0.92698   0.94255
 Alpha virt. eigenvalues --    0.95111   0.96100   0.97699   0.99027   1.00125
 Alpha virt. eigenvalues --    1.00722   1.02629   1.03737   1.04670   1.06289
 Alpha virt. eigenvalues --    1.07314   1.08007   1.10307   1.10391   1.11965
 Alpha virt. eigenvalues --    1.12303   1.13162   1.14021   1.15212   1.15675
 Alpha virt. eigenvalues --    1.15972   1.17065   1.18206   1.18563   1.18891
 Alpha virt. eigenvalues --    1.19941   1.21839   1.22092   1.22289   1.23288
 Alpha virt. eigenvalues --    1.24288   1.25288   1.25912   1.26535   1.26909
 Alpha virt. eigenvalues --    1.28014   1.28591   1.29454   1.29727   1.30567
 Alpha virt. eigenvalues --    1.31216   1.31663   1.32949   1.33746   1.34856
 Alpha virt. eigenvalues --    1.35089   1.35297   1.35995   1.37227   1.37628
 Alpha virt. eigenvalues --    1.38716   1.39605   1.40060   1.40184   1.41146
 Alpha virt. eigenvalues --    1.41699   1.42196   1.42900   1.43494   1.44798
 Alpha virt. eigenvalues --    1.45129   1.45633   1.46068   1.46728   1.47459
 Alpha virt. eigenvalues --    1.49009   1.50255   1.51359   1.53947   1.54581
 Alpha virt. eigenvalues --    1.55824   1.56651   1.57060   1.59013   1.59603
 Alpha virt. eigenvalues --    1.60973   1.61245   1.61659   1.62913   1.64375
 Alpha virt. eigenvalues --    1.65501   1.66666   1.67070   1.69385   1.70692
 Alpha virt. eigenvalues --    1.72573   1.73502   1.74532   1.75809   1.77143
 Alpha virt. eigenvalues --    1.78274   1.78665   1.79439   1.80376   1.80847
 Alpha virt. eigenvalues --    1.82380   1.83431   1.84484   1.85293   1.85632
 Alpha virt. eigenvalues --    1.87094   1.88580   1.90273   1.91134   1.91630
 Alpha virt. eigenvalues --    1.93711   1.94685   1.96006   1.98108   1.99107
 Alpha virt. eigenvalues --    1.99798   2.00373   2.02725   2.04133   2.05790
 Alpha virt. eigenvalues --    2.06376   2.08767   2.10745   2.11498   2.12102
 Alpha virt. eigenvalues --    2.13448   2.14138   2.15011   2.15168   2.17342
 Alpha virt. eigenvalues --    2.17664   2.18860   2.19855   2.20624   2.21653
 Alpha virt. eigenvalues --    2.23319   2.25524   2.27305   2.28332   2.29167
 Alpha virt. eigenvalues --    2.30463   2.31665   2.33124   2.33924   2.34409
 Alpha virt. eigenvalues --    2.36184   2.36663   2.37571   2.38142   2.38807
 Alpha virt. eigenvalues --    2.39222   2.42556   2.43269   2.46049   2.47382
 Alpha virt. eigenvalues --    2.48992   2.50516   2.52820   2.53977   2.54998
 Alpha virt. eigenvalues --    2.56158   2.57920   2.59061   2.63902   2.65460
 Alpha virt. eigenvalues --    2.66350   2.67574   2.68449   2.70765   2.71369
 Alpha virt. eigenvalues --    2.73392   2.74885   2.75466   2.77446   2.77952
 Alpha virt. eigenvalues --    2.79662   2.79992   2.82565   2.83951   2.84372
 Alpha virt. eigenvalues --    2.87017   2.87948   2.89599   2.90558   2.90894
 Alpha virt. eigenvalues --    2.91947   2.92364   2.94132   2.96771   2.98517
 Alpha virt. eigenvalues --    2.98709   3.00819   3.04016   3.06110   3.07262
 Alpha virt. eigenvalues --    3.08424   3.10620   3.12787   3.14058   3.16591
 Alpha virt. eigenvalues --    3.19023   3.19718   3.20965   3.23101   3.24694
 Alpha virt. eigenvalues --    3.25458   3.26326   3.27883   3.29305   3.30440
 Alpha virt. eigenvalues --    3.31442   3.33755   3.34043   3.35926   3.39506
 Alpha virt. eigenvalues --    3.40929   3.42168   3.43303   3.45923   3.47179
 Alpha virt. eigenvalues --    3.48591   3.49051   3.49954   3.50768   3.53229
 Alpha virt. eigenvalues --    3.54234   3.55091   3.57898   3.58382   3.59215
 Alpha virt. eigenvalues --    3.59524   3.61083   3.61620   3.63087   3.64389
 Alpha virt. eigenvalues --    3.65927   3.67284   3.68793   3.69772   3.71117
 Alpha virt. eigenvalues --    3.72202   3.73386   3.75106   3.77758   3.80585
 Alpha virt. eigenvalues --    3.82559   3.83859   3.85814   3.89483   3.92597
 Alpha virt. eigenvalues --    3.95181   3.98146   4.02234   4.05548   4.07604
 Alpha virt. eigenvalues --    4.13122   4.15187   4.16714   4.17710   4.19701
 Alpha virt. eigenvalues --    4.23177   4.29790   4.36319   4.47241   4.51227
 Alpha virt. eigenvalues --    4.62951   4.71081   4.95330   5.04077   5.05361
 Alpha virt. eigenvalues --    5.12369   5.17519   5.19228   5.19993   5.24523
 Alpha virt. eigenvalues --    5.26902   5.27994   5.31489   5.35686   5.37161
 Alpha virt. eigenvalues --    5.41373   5.45199   5.50218   5.54943   5.56687
 Alpha virt. eigenvalues --    5.57775   5.60097   5.61708   5.62006   5.76687
 Alpha virt. eigenvalues --    5.98211   6.01359   6.03319   6.79340   6.79638
 Alpha virt. eigenvalues --    6.81510   6.83015   6.84209   6.85868   6.86384
 Alpha virt. eigenvalues --    6.86634   6.88567   6.88807   6.90114   6.90617
 Alpha virt. eigenvalues --    6.93189   6.94157   6.94965   6.96650   6.97838
 Alpha virt. eigenvalues --    6.99805   7.00594   7.01825   7.04958   7.11470
 Alpha virt. eigenvalues --    7.18054   7.19324   7.22373   7.23566   7.28091
 Alpha virt. eigenvalues --    7.30251   7.42503   7.43312   8.62874  17.76698
 Alpha virt. eigenvalues --   17.77856  17.87428  23.84679  23.95168  23.97173
 Alpha virt. eigenvalues --   24.00534  24.03802  24.07227  24.09451  24.11523
 Alpha virt. eigenvalues --   24.23361  35.69121  50.05636  50.07223  50.07839
 Alpha virt. eigenvalues --   50.09595  50.15469  50.20396 189.94197
          Condensed to atoms (all electrons):
               1          2          3          4          5          6
     1  C   14.046303  -9.468846   2.866447  -0.698634  -1.446859   0.011135
     2  C   -9.468846  18.987985  -4.885704   1.710281   0.152245  -0.000763
     3  C    2.866447  -4.885704  10.227376  -1.525157  -0.393402   0.345387
     4  C   -0.698634   1.710281  -1.525157  11.702855  -6.035454  -0.001467
     5  C   -1.446859   0.152245  -0.393402  -6.035454  15.236871  -0.004256
     6  H    0.011135  -0.000763   0.345387  -0.001467  -0.004256   0.499017
     7  H    0.309416   0.074616   0.003877   0.000573   0.001745  -0.000261
     8  H    0.170678   0.150669   0.031971  -0.003591  -0.022001  -0.003267
     9  H   -0.003779   0.009138   0.008976   0.138283   0.193717  -0.000188
    10  C    0.351506  -0.396683   0.143059  -0.571700  -0.123181  -0.007640
    11  H   -0.001422  -0.002524  -0.011890   0.004505  -0.052469   0.000135
    12  H    0.002042  -0.003501  -0.001784   0.034375  -0.043409   0.000094
    13  H    0.010277   0.015860   0.031207  -0.162201   0.025340   0.003523
    14  N   -0.075280   0.184185  -0.379130   0.336663  -0.368916   0.000302
    15  C    0.194700  -0.438074   0.101080   0.076578  -0.390620  -0.000478
    16  H    0.003187  -0.000984   0.005997   0.020174  -0.019234  -0.000000
    17  H   -0.002554   0.045430  -0.007195   0.005096  -0.017486  -0.000003
    18  C    0.028810  -0.123240  -0.076324   0.181490  -0.388960   0.000035
    19  H    0.004744   0.000407  -0.006596  -0.018937  -0.001724  -0.000001
    20  H   -0.002331   0.004694  -0.000980  -0.010678   0.014148   0.000000
    21  C    0.164040  -0.157417   0.078638  -0.241338   0.466478   0.000139
    22  H    0.009307   0.001527  -0.001733  -0.001800  -0.009213  -0.000000
    23  H   -0.003155   0.003249  -0.000854   0.003742   0.001022   0.000000
    24  S   -0.037377   0.060411  -0.044715   0.344024  -0.539712   0.000183
    25  O   -0.029304   0.033856   0.008220  -0.002593   0.014770  -0.000009
    26  O   -0.073946   0.108500  -0.024419  -0.025518   0.091429   0.000091
    27  O   -0.132111   0.130332  -0.092042   0.032468  -0.079481  -0.000058
    28  O   -0.004619  -0.005312   0.005270   0.005350  -0.010279  -0.000003
    29  H    0.003480  -0.003112   0.000657  -0.001027   0.001589   0.000001
    30  H    0.028760  -0.033405   0.006771  -0.000810  -0.001523   0.000005
    31  O    0.081576  -0.099805  -0.012719   0.000119  -0.003371   0.000002
    32  H    0.024694  -0.018708   0.001022  -0.000407  -0.000313  -0.000000
    33  H    0.054024  -0.075366   0.017618  -0.008868   0.005323  -0.000005
    34  O   -0.287448   0.432778  -0.142564   0.031989  -0.012056  -0.000265
    35  H    0.028447  -0.033412  -0.000593  -0.001763   0.003464   0.000077
    36  H    0.075325  -0.104156   0.050171  -0.013751   0.018642   0.000043
               7          8          9         10         11         12
     1  C    0.309416   0.170678  -0.003779   0.351506  -0.001422   0.002042
     2  C    0.074616   0.150669   0.009138  -0.396683  -0.002524  -0.003501
     3  C    0.003877   0.031971   0.008976   0.143059  -0.011890  -0.001784
     4  C    0.000573  -0.003591   0.138283  -0.571700   0.004505   0.034375
     5  C    0.001745  -0.022001   0.193717  -0.123181  -0.052469  -0.043409
     6  H   -0.000261  -0.003267  -0.000188  -0.007640   0.000135   0.000094
     7  H    0.444224  -0.003004  -0.000028  -0.000728   0.000001  -0.000000
     8  H   -0.003004   0.479490   0.000016   0.004274   0.000013   0.000005
     9  H   -0.000028   0.000016   0.484084   0.007830   0.002052  -0.000664
    10  C   -0.000728   0.004274   0.007830   6.208241   0.423300   0.380078
    11  H    0.000001   0.000013   0.002052   0.423300   0.503389  -0.031723
    12  H   -0.000000   0.000005  -0.000664   0.380078  -0.031723   0.471515
    13  H   -0.000002  -0.000009  -0.000109   0.443348  -0.020275  -0.019727
    14  N   -0.048408   0.003613  -0.038114  -0.021404   0.001237   0.000967
    15  C   -0.002841   0.005357   0.024962  -0.034066  -0.000425  -0.000272
    16  H    0.000973   0.000003   0.000968  -0.002011  -0.000020   0.000002
    17  H    0.004847  -0.000101   0.000271   0.000135   0.000001   0.000000
    18  C   -0.004907   0.000810   0.001976   0.055430   0.000907  -0.001802
    19  H    0.000061  -0.000001   0.004472   0.002004   0.000050  -0.000005
    20  H   -0.000032  -0.000001  -0.000593  -0.000559   0.000000   0.000001
    21  C   -0.002523  -0.000045  -0.010048  -0.008204  -0.000278   0.001183
    22  H    0.000131  -0.000001   0.000080   0.000052   0.000000   0.000000
    23  H    0.000012  -0.000001   0.000035   0.000031  -0.000000  -0.000001
    24  S    0.001444   0.002127   0.010380  -0.004800   0.000284  -0.001227
    25  O    0.000174   0.000013   0.000310  -0.004789   0.000004  -0.000046
    26  O    0.000974  -0.000665  -0.010082  -0.033753  -0.000300   0.000657
    27  O   -0.008358  -0.002491   0.001146   0.007267   0.000043  -0.000046
    28  O    0.000056  -0.000130   0.000008   0.000906  -0.000000   0.000001
    29  H   -0.000007   0.000006  -0.000003  -0.000056  -0.000000   0.000001
    30  H   -0.000052   0.000455  -0.000001   0.000057  -0.000000   0.000000
    31  O   -0.000507   0.000641  -0.000011   0.000587   0.000000  -0.000001
    32  H   -0.002449   0.000042   0.000000  -0.000015  -0.000000  -0.000000
    33  H   -0.003301   0.000028  -0.000034  -0.000438  -0.000000   0.000001
    34  O    0.000164  -0.021449   0.000051  -0.000377  -0.000002  -0.000003
    35  H    0.000048   0.001408  -0.000010   0.000050   0.000001   0.000002
    36  H    0.001228   0.005239  -0.000044  -0.000404   0.000000   0.000004
              13         14         15         16         17         18
     1  C    0.010277  -0.075280   0.194700   0.003187  -0.002554   0.028810
     2  C    0.015860   0.184185  -0.438074  -0.000984   0.045430  -0.123240
     3  C    0.031207  -0.379130   0.101080   0.005997  -0.007195  -0.076324
     4  C   -0.162201   0.336663   0.076578   0.020174   0.005096   0.181490
     5  C    0.025340  -0.368916  -0.390620  -0.019234  -0.017486  -0.388960
     6  H    0.003523   0.000302  -0.000478  -0.000000  -0.000003   0.000035
     7  H   -0.000002  -0.048408  -0.002841   0.000973   0.004847  -0.004907
     8  H   -0.000009   0.003613   0.005357   0.000003  -0.000101   0.000810
     9  H   -0.000109  -0.038114   0.024962   0.000968   0.000271   0.001976
    10  C    0.443348  -0.021404  -0.034066  -0.002011   0.000135   0.055430
    11  H   -0.020275   0.001237  -0.000425  -0.000020   0.000001   0.000907
    12  H   -0.019727   0.000967  -0.000272   0.000002   0.000000  -0.001802
    13  H    0.505119  -0.000350   0.001112  -0.000001  -0.000000  -0.000152
    14  N   -0.000350   6.908012   0.138526  -0.052550  -0.069698   0.176806
    15  C    0.001112   0.138526   6.204614   0.426061   0.435438  -0.236426
    16  H   -0.000001  -0.052550   0.426061   0.490841  -0.020308  -0.040752
    17  H   -0.000000  -0.069698   0.435438  -0.020308   0.400726  -0.035518
    18  C   -0.000152   0.176806  -0.236426  -0.040752  -0.035518   6.430120
    19  H   -0.000001  -0.010398  -0.021182  -0.002749   0.003570   0.457389
    20  H   -0.000000   0.003832  -0.035681  -0.006377  -0.002633   0.395529
    21  C    0.000104  -0.057374  -0.047585   0.000262  -0.012779  -0.667020
    22  H   -0.000000  -0.005954  -0.000920  -0.000072   0.001422  -0.022607
    23  H   -0.000000   0.003566   0.007354  -0.000013   0.000080  -0.057642
    24  S    0.000202  -0.036008   0.018092   0.003681   0.003434   0.190565
    25  O   -0.000001  -0.059928   0.003951  -0.000004   0.000599  -0.068612
    26  O   -0.000059   0.032587  -0.035327   0.000912  -0.000785  -0.016606
    27  O    0.000006  -0.072411   0.038938   0.000921   0.004118   0.044685
    28  O    0.000001   0.002260   0.001377  -0.000000  -0.000015   0.002137
    29  H   -0.000000   0.000369  -0.000264  -0.000000   0.000004  -0.001523
    30  H    0.000000  -0.000514  -0.000252   0.000000   0.000002  -0.000138
    31  O   -0.000000   0.004111  -0.014345   0.000705   0.009126   0.027301
    32  H    0.000000  -0.002148   0.007771  -0.000011  -0.000610  -0.004788
    33  H   -0.000000   0.038997   0.027686  -0.000173  -0.004608  -0.021379
    34  O   -0.000002   0.004478  -0.002710   0.000006  -0.000090   0.004394
    35  H    0.000005  -0.001214   0.001897  -0.000000  -0.000012  -0.000893
    36  H   -0.000001  -0.002294   0.001971  -0.000022   0.000413  -0.008747
              19         20         21         22         23         24
     1  C    0.004744  -0.002331   0.164040   0.009307  -0.003155  -0.037377
     2  C    0.000407   0.004694  -0.157417   0.001527   0.003249   0.060411
     3  C   -0.006596  -0.000980   0.078638  -0.001733  -0.000854  -0.044715
     4  C   -0.018937  -0.010678  -0.241338  -0.001800   0.003742   0.344024
     5  C   -0.001724   0.014148   0.466478  -0.009213   0.001022  -0.539712
     6  H   -0.000001   0.000000   0.000139  -0.000000   0.000000   0.000183
     7  H    0.000061  -0.000032  -0.002523   0.000131   0.000012   0.001444
     8  H   -0.000001  -0.000001  -0.000045  -0.000001  -0.000001   0.002127
     9  H    0.004472  -0.000593  -0.010048   0.000080   0.000035   0.010380
    10  C    0.002004  -0.000559  -0.008204   0.000052   0.000031  -0.004800
    11  H    0.000050   0.000000  -0.000278   0.000000  -0.000000   0.000284
    12  H   -0.000005   0.000001   0.001183   0.000000  -0.000001  -0.001227
    13  H   -0.000001  -0.000000   0.000104  -0.000000  -0.000000   0.000202
    14  N   -0.010398   0.003832  -0.057374  -0.005954   0.003566  -0.036008
    15  C   -0.021182  -0.035681  -0.047585  -0.000920   0.007354   0.018092
    16  H   -0.002749  -0.006377   0.000262  -0.000072  -0.000013   0.003681
    17  H    0.003570  -0.002633  -0.012779   0.001422   0.000080   0.003434
    18  C    0.457389   0.395529  -0.667020  -0.022607  -0.057642   0.190565
    19  H    0.499144  -0.029922  -0.053858   0.004817  -0.004710   0.001437
    20  H   -0.029922   0.512759  -0.011294  -0.005292  -0.004643  -0.000362
    21  C   -0.053858  -0.011294   6.963424   0.419211   0.435312  -0.461384
    22  H    0.004817  -0.005292   0.419211   0.432164  -0.023598  -0.049657
    23  H   -0.004710  -0.004643   0.435312  -0.023598   0.462144  -0.047810
    24  S    0.001437  -0.000362  -0.461384  -0.049657  -0.047810  14.567696
    25  O   -0.000013   0.000118  -0.111548   0.005073   0.008650   0.442330
    26  O   -0.004932   0.001311  -0.045115  -0.005386   0.007222   0.271348
    27  O    0.003695   0.000115  -0.180040   0.022195  -0.000860   0.043980
    28  O    0.000001  -0.000001  -0.001782   0.000121   0.000030   0.002743
    29  H   -0.000004   0.000001   0.003046  -0.000091   0.000012   0.010061
    30  H    0.000000   0.000000  -0.003505   0.000017  -0.000000   0.000306
    31  O   -0.000411   0.000389  -0.025204  -0.000654   0.000416  -0.011243
    32  H    0.000011   0.000010   0.003445  -0.000381  -0.000028   0.003334
    33  H    0.000307  -0.000478   0.007095   0.001042  -0.000079   0.041217
    34  O   -0.000007  -0.000003   0.006001  -0.000149   0.000008  -0.018350
    35  H    0.000001   0.000000  -0.000016   0.000000  -0.000002  -0.000039
    36  H    0.000022   0.000007  -0.000263   0.000254  -0.000002   0.003844
              25         26         27         28         29         30
     1  C   -0.029304  -0.073946  -0.132111  -0.004619   0.003480   0.028760
     2  C    0.033856   0.108500   0.130332  -0.005312  -0.003112  -0.033405
     3  C    0.008220  -0.024419  -0.092042   0.005270   0.000657   0.006771
     4  C   -0.002593  -0.025518   0.032468   0.005350  -0.001027  -0.000810
     5  C    0.014770   0.091429  -0.079481  -0.010279   0.001589  -0.001523
     6  H   -0.000009   0.000091  -0.000058  -0.000003   0.000001   0.000005
     7  H    0.000174   0.000974  -0.008358   0.000056  -0.000007  -0.000052
     8  H    0.000013  -0.000665  -0.002491  -0.000130   0.000006   0.000455
     9  H    0.000310  -0.010082   0.001146   0.000008  -0.000003  -0.000001
    10  C   -0.004789  -0.033753   0.007267   0.000906  -0.000056   0.000057
    11  H    0.000004  -0.000300   0.000043  -0.000000  -0.000000  -0.000000
    12  H   -0.000046   0.000657  -0.000046   0.000001   0.000001   0.000000
    13  H   -0.000001  -0.000059   0.000006   0.000001  -0.000000   0.000000
    14  N   -0.059928   0.032587  -0.072411   0.002260   0.000369  -0.000514
    15  C    0.003951  -0.035327   0.038938   0.001377  -0.000264  -0.000252
    16  H   -0.000004   0.000912   0.000921  -0.000000  -0.000000   0.000000
    17  H    0.000599  -0.000785   0.004118  -0.000015   0.000004   0.000002
    18  C   -0.068612  -0.016606   0.044685   0.002137  -0.001523  -0.000138
    19  H   -0.000013  -0.004932   0.003695   0.000001  -0.000004   0.000000
    20  H    0.000118   0.001311   0.000115  -0.000001   0.000001   0.000000
    21  C   -0.111548  -0.045115  -0.180040  -0.001782   0.003046  -0.003505
    22  H    0.005073  -0.005386   0.022195   0.000121  -0.000091   0.000017
    23  H    0.008650   0.007222  -0.000860   0.000030   0.000012  -0.000000
    24  S    0.442330   0.271348   0.043980   0.002743   0.010061   0.000306
    25  O    8.347850  -0.068110  -0.050431  -0.026838   0.027343   0.010131
    26  O   -0.068110   8.487528  -0.009146  -0.007373   0.000766  -0.001972
    27  O   -0.050431  -0.009146   9.236111   0.015415   0.006913   0.000852
    28  O   -0.026838  -0.007373   0.015415   8.061571   0.311730   0.267550
    29  H    0.027343   0.000766   0.006913   0.311730   0.338385  -0.013980
    30  H    0.010131  -0.001972   0.000852   0.267550  -0.013980   0.417606
    31  O   -0.000164   0.002976   0.045527  -0.000034  -0.000032  -0.000090
    32  H    0.000114   0.000036  -0.000489   0.000029  -0.000015   0.000012
    33  H   -0.005772  -0.003210  -0.101574   0.001039   0.000144  -0.000109
    34  O   -0.011266   0.007913   0.048892   0.025811  -0.010302  -0.009817
    35  H    0.000007  -0.001402  -0.001653  -0.009206   0.001423   0.006938
    36  H    0.009365  -0.011941  -0.012503  -0.011109   0.006755   0.025919
              31         32         33         34         35         36
     1  C    0.081576   0.024694   0.054024  -0.287448   0.028447   0.075325
     2  C   -0.099805  -0.018708  -0.075366   0.432778  -0.033412  -0.104156
     3  C   -0.012719   0.001022   0.017618  -0.142564  -0.000593   0.050171
     4  C    0.000119  -0.000407  -0.008868   0.031989  -0.001763  -0.013751
     5  C   -0.003371  -0.000313   0.005323  -0.012056   0.003464   0.018642
     6  H    0.000002  -0.000000  -0.000005  -0.000265   0.000077   0.000043
     7  H   -0.000507  -0.002449  -0.003301   0.000164   0.000048   0.001228
     8  H    0.000641   0.000042   0.000028  -0.021449   0.001408   0.005239
     9  H   -0.000011   0.000000  -0.000034   0.000051  -0.000010  -0.000044
    10  C    0.000587  -0.000015  -0.000438  -0.000377   0.000050  -0.000404
    11  H    0.000000  -0.000000  -0.000000  -0.000002   0.000001   0.000000
    12  H   -0.000001  -0.000000   0.000001  -0.000003   0.000002   0.000004
    13  H   -0.000000   0.000000  -0.000000  -0.000002   0.000005  -0.000001
    14  N    0.004111  -0.002148   0.038997   0.004478  -0.001214  -0.002294
    15  C   -0.014345   0.007771   0.027686  -0.002710   0.001897   0.001971
    16  H    0.000705  -0.000011  -0.000173   0.000006  -0.000000  -0.000022
    17  H    0.009126  -0.000610  -0.004608  -0.000090  -0.000012   0.000413
    18  C    0.027301  -0.004788  -0.021379   0.004394  -0.000893  -0.008747
    19  H   -0.000411   0.000011   0.000307  -0.000007   0.000001   0.000022
    20  H    0.000389   0.000010  -0.000478  -0.000003   0.000000   0.000007
    21  C   -0.025204   0.003445   0.007095   0.006001  -0.000016  -0.000263
    22  H   -0.000654  -0.000381   0.001042  -0.000149   0.000000   0.000254
    23  H    0.000416  -0.000028  -0.000079   0.000008  -0.000002  -0.000002
    24  S   -0.011243   0.003334   0.041217  -0.018350  -0.000039   0.003844
    25  O   -0.000164   0.000114  -0.005772  -0.011266   0.000007   0.009365
    26  O    0.002976   0.000036  -0.003210   0.007913  -0.001402  -0.011941
    27  O    0.045527  -0.000489  -0.101574   0.048892  -0.001653  -0.012503
    28  O   -0.000034   0.000029   0.001039   0.025811  -0.009206  -0.011109
    29  H   -0.000032  -0.000015   0.000144  -0.010302   0.001423   0.006755
    30  H   -0.000090   0.000012  -0.000109  -0.009817   0.006938   0.025919
    31  O    8.201347   0.254882   0.178336   0.007298  -0.000268  -0.019203
    32  H    0.254882   0.442080  -0.008020   0.000209   0.000039  -0.001573
    33  H    0.178336  -0.008020   0.513331  -0.010173   0.000936   0.023606
    34  O    0.007298   0.000209  -0.010173   7.945579   0.332787   0.233636
    35  H   -0.000268   0.000039   0.000936   0.332787   0.419544  -0.014699
    36  H   -0.019203  -0.001573   0.023606   0.233636  -0.014699   0.383918
 Mulliken charges:
               1
     1  C   -0.201231
     2  C   -0.255153
     3  C   -0.325942
     4  C    0.697130
     5  C   -0.262864
     6  H    0.158496
     7  H    0.232849
     8  H    0.199896
     9  H    0.174953
    10  C   -0.817347
    11  H    0.185406
    12  H    0.213282
    13  H    0.166790
    14  N    0.461583
    15  C   -0.455995
    16  H    0.190589
    17  H    0.259683
    18  C   -0.220347
    19  H    0.173320
    20  H    0.178947
    21  C   -0.449755
    22  H    0.230094
    23  H    0.210513
    24  S    1.229562
    25  O   -0.473449
    26  O   -0.634202
    27  O   -0.939924
    28  O   -0.626702
    29  H    0.317732
    30  H    0.300790
    31  O   -0.627278
    32  H    0.302222
    33  H    0.332856
    34  O   -0.554963
    35  H    0.268107
    36  H    0.360350
 Sum of Mulliken charges =  -0.00000
 Mulliken charges with hydrogens summed into heavy atoms:
               1
     1  C    0.031618
     2  C   -0.055256
     3  C   -0.167446
     4  C    0.697130
     5  C   -0.087910
    10  C   -0.251869
    14  N    0.461583
    15  C   -0.005724
    18  C    0.131920
    21  C   -0.009148
    24  S    1.229562
    25  O   -0.473449
    26  O   -0.634202
    27  O   -0.939924
    28  O   -0.008180
    31  O    0.007800
    34  O    0.073495
         Mulliken charges condensed to fragments:
      1     -0.073115
      2     -0.008180
      3      0.007800
      4      0.073495
 Electronic spatial extent (au):  <R**2>=         152711.6014
 Charge=             -0.0000 electrons
 Dipole moment (field-independent basis, Debye):
    X=             -9.4617    Y=             -8.1098    Z=              2.5640  Tot=             12.7227
 Quadrupole moment (field-independent basis, Debye-Ang):
   XX=           -313.6455   YY=           -273.4496   ZZ=            -49.9554
   XY=           -186.7095   XZ=            -56.2688   YZ=            -57.3598
 Traceless Quadrupole moment (field-independent basis, Debye-Ang):
   XX=           -101.2953   YY=            -61.0994   ZZ=            162.3947
   XY=           -186.7095   XZ=            -56.2688   YZ=            -57.3598
 Octapole moment (field-independent basis, Debye-Ang**2):
  XXX=          -6473.9586  YYY=          -5866.8151  ZZZ=          -2143.2833  XYY=          -3893.7783
  XXY=          -4242.4172  XXZ=          -2584.0390  XZZ=          -1155.9831  YZZ=          -1384.1853
  YYZ=          -2473.5791  XYZ=          -1511.7222
 Hexadecapole moment (field-independent basis, Debye-Ang**3):
 XXXX=        -110635.6798 YYYY=        -105056.0636 ZZZZ=         -47284.1937 XXXY=         -78657.1923
 XXXZ=         -57184.9021 YYYX=         -71561.2481 YYYZ=         -55203.6661 ZZZX=         -26044.0382
 ZZZY=         -30950.8038 XXYY=         -65252.5501 XXZZ=         -30331.3119 YYZZ=         -33680.5020
 XXYZ=         -37140.0653 YYXZ=         -35269.1402 ZZXY=         -21757.7400
 N-N= 1.619778510981D+03 E-N=-6.200504093945D+03  KE= 1.254551148375D+03
 No NMR shielding tensors so no spin-rotation constants.
 Leave Link  601 at Sun Feb 19 22:36:06 2023, MaxMem=  6710886400 cpu:               3.8 elap:               0.2
 (Enter /data0/home/software/g16/l122.exe)
 CPIOFr:  IOpCl= 0 IRwI=-1 IRwCP=  731 ICalc= -1 LCPTot=      519026 Len1MO=     1362453 IndFrg=      519026
 CPIOFr:  IOpCl= 0 IRwI=-1 IRwCP=  731 ICalc=  0 LCPTot=      519026 Len1MO=     1362453 IndFrg=     1881479
 Counterpoise: doing calculation for fragment   1 using the basis set of the full-system, NewBq=T
 Leave Link  122 at Sun Feb 19 22:36:06 2023, MaxMem=  6710886400 cpu:               0.5 elap:               0.0
 (Enter /data0/home/software/g16/l301.exe)
 Basis read from rwf:  (5D, 7F)
 No pseudopotential information found on rwf file.
   581 basis functions,   880 primitive gaussians,   615 cartesian basis functions
    57 alpha electrons       57 beta electrons
       nuclear repulsion energy      1129.9817046665 Hartrees.
 IExCor= 4336 DFT=T Ex+Corr=M062X ExCW=0 ScaHFX=  0.540000
 ScaDFX=  1.000000  1.000000  1.000000  1.000000 ScalE2=  1.000000  1.000000
 IRadAn=      5 IRanWt=     -1 IRanGd=            0 ICorTp=0 IEmpDi=131
 NAtoms=   36 NActive=   36 NUniq=   36 SFac= 1.00D+00 NAtFMM=   60 NAOKFM=F Big=F
 Integral buffers will be    131072 words long.
 Raffenetti 2 integral format.
 Two-electron integral symmetry is turned off.
 R6Disp:  Grimme-D3 Dispersion energy=       -0.0014368307 Hartrees.
 Nuclear repulsion after empirical dispersion term =     1129.9802678358 Hartrees.
 No density basis found on file   718.
 Leave Link  301 at Sun Feb 19 22:36:06 2023, MaxMem=  6710886400 cpu:               1.3 elap:               0.1
 (Enter /data0/home/software/g16/l302.exe)
 NPDir=0 NMtPBC=     1 NCelOv=     1 NCel=       1 NClECP=     1 NCelD=      1
         NCelK=      1 NCelE2=     1 NClLst=     1 CellRange=     0.0.
 One-electron integrals computed using PRISM.
 NBasis=   581 RedAO= T EigKep=  1.79D-06  NBF=   581
 NBsUse=   581 1.00D-06 EigRej= -1.00D+00 NBFU=   581
 Precomputing XC quadrature grid using
 IXCGrd= 4 IRadAn=           5 IRanWt=          -1 IRanGd=           0 AccXCQ= 0.00D+00.
 Generated NRdTot=       0 NPtTot=           0 NUsed=           0 NTot=          32
 NSgBfM=   612   611   611   612   612 MxSgAt=    36 MxSgA2=    36.
 Leave Link  302 at Sun Feb 19 22:36:06 2023, MaxMem=  6710886400 cpu:              15.7 elap:               0.7
 (Enter /data0/home/software/g16/l303.exe)
 DipDrv:  MaxL=1.
 Leave Link  303 at Sun Feb 19 22:36:06 2023, MaxMem=  6710886400 cpu:               1.5 elap:               0.1
 (Enter /data0/home/software/g16/l401.exe)
 ExpMin= 4.05D-02 ExpMax= 9.34D+04 ExpMxC= 3.17D+03 IAcc=3 IRadAn=         5 AccDes= 0.00D+00
 Harris functional with IExCor= 1009 and IRadAn=       5 diagonalized for initial guess.
 HarFok:  IExCor= 1009 AccDes= 0.00D+00 IRadAn=         5 IDoV= 1 UseB2=F ITyADJ=14
 ICtDFT=  3500011 ScaDFX=  1.000000  1.000000  1.000000  1.000000
 FoFCou: FMM=F IPFlag=           0 FMFlag=      100000 FMFlg1=           0
         NFxFlg=           0 DoJE=T BraDBF=F KetDBF=T FulRan=T
         wScrn=  0.000000 ICntrl=       500 IOpCl=  0 I1Cent=   200000004 NGrid=           0
         NMat0=    1 NMatS0=      1 NMatT0=    0 NMatD0=    1 NMtDS0=    0 NMtDT0=    0
 Symmetry not used in FoFCou.
 Harris En= -1028.88546360066    
 JPrj=0 DoOrth=F DoCkMO=F.
 Leave Link  401 at Sun Feb 19 22:36:09 2023, MaxMem=  6710886400 cpu:              65.3 elap:               2.8
 (Enter /data0/home/software/g16/l502.exe)
 Two-electron integral symmetry not used.
 Closed shell SCF:
 Using DIIS extrapolation, IDIIS=  1040.
 NGot=  6710886400 LenX=  6710110827 LenY=  6709731987
 Requested convergence on RMS density matrix=1.00D-08 within 128 cycles.
 Requested convergence on MAX density matrix=1.00D-06.
 Requested convergence on             energy=1.00D-06.
 No special actions if energy rises.
 Fock matrices will be formed incrementally for  20 cycles.

 Cycle   1  Pass 1  IDiag  1:
 FoFJK:  IHMeth= 1 ICntrl=       0 DoSepK=F KAlg= 0 I1Cent=           0 FoldK=F
 IRaf= 870000000 NMat=       1 IRICut=       1 DoRegI=T DoRafI=F ISym2E= 0 IDoP0=0 IntGTp=1.
 FoFCou: FMM=F IPFlag=           0 FMFlag=      100000 FMFlg1=           0
         NFxFlg=           0 DoJE=F BraDBF=F KetDBF=F FulRan=T
         wScrn=  0.000000 ICntrl=         0 IOpCl=  0 I1Cent=           0 NGrid=           0
         NMat0=    1 NMatS0=      1 NMatT0=    0 NMatD0=    1 NMtDS0=    0 NMtDT0=    0
 Symmetry not used in FoFCou.
 E= -1028.75977163459    
 DIIS: error= 1.62D-02 at cycle   1 NSaved=   1.
 NSaved= 1 IEnMin= 1 EnMin= -1028.75977163459     IErMin= 1 ErrMin= 1.62D-02
 ErrMax= 1.62D-02  0.00D+00 EMaxC= 1.00D-01 BMatC= 7.82D-01 BMatP= 7.82D-01
 IDIUse=3 WtCom= 8.38D-01 WtEn= 1.62D-01
 Coeff-Com:  0.100D+01
 Coeff-En:   0.100D+01
 Coeff:      0.100D+01
 Gap=     0.180 Goal=   None    Shift=    0.000
 GapD=    0.180 DampG=1.000 DampE=0.500 DampFc=0.5000 IDamp=-1.
 Damping current iteration by 5.00D-01
 RMSDP=9.18D-03 MaxDP=7.54D-01              OVMax= 1.90D-01

 Cycle   2  Pass 1  IDiag  1:
 RMSU=  4.56D-03    CP:  9.77D-01
 E= -1028.98008293282     Delta-E=       -0.220311298236 Rises=F Damp=T
 DIIS: error= 4.96D-03 at cycle   2 NSaved=   2.
 NSaved= 2 IEnMin= 2 EnMin= -1028.98008293282     IErMin= 2 ErrMin= 4.96D-03
 ErrMax= 4.96D-03  0.00D+00 EMaxC= 1.00D-01 BMatC= 5.59D-02 BMatP= 7.82D-01
 IDIUse=3 WtCom= 9.50D-01 WtEn= 4.96D-02
 Coeff-Com:  0.433D-01 0.957D+00
 Coeff-En:   0.128D+00 0.872D+00
 Coeff:      0.475D-01 0.952D+00
 Gap=     0.243 Goal=   None    Shift=    0.000
 RMSDP=6.00D-03 MaxDP=1.48D+00 DE=-2.20D-01 OVMax= 1.31D-01

 Cycle   3  Pass 1  IDiag  1:
 RMSU=  3.24D-03    CP:  7.36D-01  9.75D-01
 E= -1029.24948433261     Delta-E=       -0.269401399781 Rises=F Damp=F
 DIIS: error= 3.66D-03 at cycle   3 NSaved=   3.
 NSaved= 3 IEnMin= 3 EnMin= -1029.24948433261     IErMin= 3 ErrMin= 3.66D-03
 ErrMax= 3.66D-03  0.00D+00 EMaxC= 1.00D-01 BMatC= 2.58D-02 BMatP= 5.59D-02
 IDIUse=3 WtCom= 9.63D-01 WtEn= 3.66D-02
 Coeff-Com: -0.544D-01 0.385D+00 0.669D+00
 Coeff-En:   0.000D+00 0.000D+00 0.100D+01
 Coeff:     -0.524D-01 0.371D+00 0.681D+00
 Gap=     0.214 Goal=   None    Shift=    0.000
 RMSDP=1.13D-03 MaxDP=9.34D-02 DE=-2.69D-01 OVMax= 3.66D-02

 Cycle   4  Pass 1  IDiag  1:
 RMSU=  9.61D-04    CP:  7.36D-01  1.08D+00  8.87D-01
 E= -1029.26683034602     Delta-E=       -0.017346013411 Rises=F Damp=F
 DIIS: error= 1.59D-03 at cycle   4 NSaved=   4.
 NSaved= 4 IEnMin= 4 EnMin= -1029.26683034602     IErMin= 4 ErrMin= 1.59D-03
 ErrMax= 1.59D-03  0.00D+00 EMaxC= 1.00D-01 BMatC= 3.99D-03 BMatP= 2.58D-02
 IDIUse=3 WtCom= 9.84D-01 WtEn= 1.59D-02
 Coeff-Com: -0.277D-01 0.840D-01 0.334D+00 0.610D+00
 Coeff-En:   0.000D+00 0.000D+00 0.113D+00 0.887D+00
 Coeff:     -0.272D-01 0.827D-01 0.330D+00 0.614D+00
 Gap=     0.216 Goal=   None    Shift=    0.000
 RMSDP=4.91D-04 MaxDP=5.89D-02 DE=-1.73D-02 OVMax= 1.47D-02

 Cycle   5  Pass 1  IDiag  1:
 RMSU=  2.17D-04    CP:  7.23D-01  1.03D+00  9.32D-01  7.38D-01
 E= -1029.27038665007     Delta-E=       -0.003556304050 Rises=F Damp=F
 DIIS: error= 5.18D-04 at cycle   5 NSaved=   5.
 NSaved= 5 IEnMin= 5 EnMin= -1029.27038665007     IErMin= 5 ErrMin= 5.18D-04
 ErrMax= 5.18D-04  0.00D+00 EMaxC= 1.00D-01 BMatC= 2.19D-04 BMatP= 3.99D-03
 IDIUse=3 WtCom= 9.95D-01 WtEn= 5.18D-03
 Coeff-Com: -0.943D-02 0.213D-01 0.119D+00 0.286D+00 0.583D+00
 Coeff-En:   0.000D+00 0.000D+00 0.000D+00 0.000D+00 0.100D+01
 Coeff:     -0.938D-02 0.212D-01 0.119D+00 0.284D+00 0.585D+00
 Gap=     0.217 Goal=   None    Shift=    0.000
 RMSDP=1.31D-04 MaxDP=2.20D-02 DE=-3.56D-03 OVMax= 4.81D-03

 Cycle   6  Pass 1  IDiag  1:
 RMSU=  5.27D-05    CP:  7.27D-01  1.05D+00  9.25D-01  7.71D-01  7.12D-01
 E= -1029.27056029963     Delta-E=       -0.000173649562 Rises=F Damp=F
 DIIS: error= 1.97D-04 at cycle   6 NSaved=   6.
 NSaved= 6 IEnMin= 6 EnMin= -1029.27056029963     IErMin= 6 ErrMin= 1.97D-04
 ErrMax= 1.97D-04  0.00D+00 EMaxC= 1.00D-01 BMatC= 3.09D-05 BMatP= 2.19D-04
 IDIUse=3 WtCom= 9.98D-01 WtEn= 1.97D-03
 Coeff-Com: -0.155D-02 0.855D-03 0.227D-01 0.767D-01 0.311D+00 0.590D+00
 Coeff-En:   0.000D+00 0.000D+00 0.000D+00 0.000D+00 0.488D-01 0.951D+00
 Coeff:     -0.155D-02 0.853D-03 0.226D-01 0.766D-01 0.311D+00 0.591D+00
 Gap=     0.217 Goal=   None    Shift=    0.000
 RMSDP=2.96D-05 MaxDP=3.60D-03 DE=-1.74D-04 OVMax= 1.30D-03

 Cycle   7  Pass 1  IDiag  1:
 RMSU=  2.57D-05    CP:  7.26D-01  1.04D+00  9.27D-01  7.75D-01  7.34D-01
                    CP:  8.96D-01
 E= -1029.27058556279     Delta-E=       -0.000025263166 Rises=F Damp=F
 DIIS: error= 2.17D-05 at cycle   7 NSaved=   7.
 NSaved= 7 IEnMin= 7 EnMin= -1029.27058556279     IErMin= 7 ErrMin= 2.17D-05
 ErrMax= 2.17D-05  0.00D+00 EMaxC= 1.00D-01 BMatC= 1.19D-06 BMatP= 3.09D-05
 IDIUse=1 WtCom= 1.00D+00 WtEn= 0.00D+00
 Coeff-Com:  0.388D-03-0.171D-02-0.378D-02-0.416D-03 0.619D-01 0.197D+00
 Coeff-Com:  0.747D+00
 Coeff:      0.388D-03-0.171D-02-0.378D-02-0.416D-03 0.619D-01 0.197D+00
 Coeff:      0.747D+00
 Gap=     0.217 Goal=   None    Shift=    0.000
 RMSDP=9.50D-06 MaxDP=1.54D-03 DE=-2.53D-05 OVMax= 2.74D-04

 Cycle   8  Pass 1  IDiag  1:
 RMSU=  6.23D-06    CP:  7.26D-01  1.04D+00  9.27D-01  7.77D-01  7.46D-01
                    CP:  9.38D-01  9.26D-01
 E= -1029.27058660324     Delta-E=       -0.000001040447 Rises=F Damp=F
 DIIS: error= 1.26D-05 at cycle   8 NSaved=   8.
 NSaved= 8 IEnMin= 8 EnMin= -1029.27058660324     IErMin= 8 ErrMin= 1.26D-05
 ErrMax= 1.26D-05  0.00D+00 EMaxC= 1.00D-01 BMatC= 2.04D-07 BMatP= 1.19D-06
 IDIUse=1 WtCom= 1.00D+00 WtEn= 0.00D+00
 Coeff-Com:  0.326D-03-0.740D-03-0.434D-02-0.945D-02-0.871D-02 0.370D-02
 Coeff-Com:  0.304D+00 0.715D+00
 Coeff:      0.326D-03-0.740D-03-0.434D-02-0.945D-02-0.871D-02 0.370D-02
[...]
 Mulliken charges with hydrogens summed into heavy atoms:
               1
     1  C    0.000000
     2  C    0.000000
     3  C    0.000000
     4  C    0.000000
     5  C    0.000000
    10  C    0.000000
    14  N    0.000000
    15  C    0.000000
    18  C    0.000000
    21  C    0.000000
    24  S    0.000000
    25  O    0.000000
    26  O    0.000000
    27  O    0.000000
    28  O    0.000000
    31  O   -0.000000
    34  O    0.000000
         Mulliken charges condensed to fragments:
      1      0.000000
      2      0.000000
      3     -0.000000
      4      0.000000
 Electronic spatial extent (au):  <R**2>=          11048.1675
 Charge=              0.0000 electrons
 Dipole moment (field-independent basis, Debye):
    X=              1.8480    Y=              0.9281    Z=              0.3871  Tot=              2.1039
 Quadrupole moment (field-independent basis, Debye-Ang):
   XX=             21.7200   YY=             18.9666   ZZ=             -0.3667
   XY=             29.8395   XZ=             20.2148   YZ=             14.2260
 Traceless Quadrupole moment (field-independent basis, Debye-Ang):
   XX=              8.2800   YY=              5.5266   ZZ=            -13.8066
   XY=             29.8395   XZ=             20.2148   YZ=             14.2260
 Octapole moment (field-independent basis, Debye-Ang**2):
  XXX=            179.2506  YYY=            272.3589  ZZZ=           -112.3608  XYY=            425.8207
  XXY=            317.6967  XXZ=            225.1676  XZZ=            159.9819  YZZ=             87.1338
  YYZ=            256.2008  XYZ=            320.9950
 Hexadecapole moment (field-independent basis, Debye-Ang**3):
 XXXX=           1158.2606 YYYY=           3079.6833 ZZZZ=          -2751.5899 XXXY=           2534.8571
 XXXZ=           1840.8625 YYYX=           5562.3527 YYYZ=           3660.2319 ZZZX=            692.2708
 ZZZY=           -535.3962 XXYY=           4312.2674 XXZZ=           1889.8855 YYZZ=           1874.0227
 XXYZ=           3286.0534 YYXZ=           4577.4925 ZZXY=           2668.1351
 N-N= 9.086284491817D+00 E-N=-1.990225343781D+02  KE= 7.618903544070D+01
 No NMR shielding tensors so no spin-rotation constants.
 Leave Link  601 at Sun Feb 19 22:44:37 2023, MaxMem=  6710886400 cpu:               1.8 elap:               0.1
 (Enter /data0/home/software/g16/l122.exe)
 CPIOFr:  IOpCl= 0 IRwI=-1 IRwCP=  731 ICalc=  7 LCPTot=      519026 Len1MO=     1362453 IndFrg=    11418650
 Counterpoise: doing calculation for fragment   4 using the basis set of the fragment.
 Leave Link  122 at Sun Feb 19 22:44:37 2023, MaxMem=  6710886400 cpu:               0.3 elap:               0.0
 (Enter /data0/home/software/g16/l301.exe)
 Basis read from rwf:  (5D, 7F)
 No pseudopotential information found on rwf file.
    39 basis functions,    58 primitive gaussians,    41 cartesian basis functions
     5 alpha electrons        5 beta electrons
       nuclear repulsion energy         9.0898723578 Hartrees.
 IExCor= 4336 DFT=T Ex+Corr=M062X ExCW=0 ScaHFX=  0.540000
 ScaDFX=  1.000000  1.000000  1.000000  1.000000 ScalE2=  1.000000  1.000000
 IRadAn=      5 IRanWt=     -1 IRanGd=            0 ICorTp=0 IEmpDi=131
 NAtoms=   36 NActive=    3 NUniq=    3 SFac= 1.00D+00 NAtFMM=   60 NAOKFM=F Big=F
 Integral buffers will be    131072 words long.
 Raffenetti 2 integral format.
 Two-electron integral symmetry is turned off.
 R6Disp:  Grimme-D3 Dispersion energy=       -0.0000000074 Hartrees.
 Nuclear repulsion after empirical dispersion term =        9.0898723504 Hartrees.
 No density basis found on file   718.
 Leave Link  301 at Sun Feb 19 22:44:37 2023, MaxMem=  6710886400 cpu:               1.3 elap:               0.1
 (Enter /data0/home/software/g16/l302.exe)
 NPDir=0 NMtPBC=     1 NCelOv=     1 NCel=       1 NClECP=     1 NCelD=      1
         NCelK=      1 NCelE2=     1 NClLst=     1 CellRange=     0.0.
 One-electron integrals computed using PRISM.
 NBasis=    39 RedAO= T EigKep=  3.01D-03  NBF=    39
 NBsUse=    39 1.00D-06 EigRej= -1.00D+00 NBFU=    39
 Precomputing XC quadrature grid using
 IXCGrd= 4 IRadAn=           5 IRanWt=          -1 IRanGd=           0 AccXCQ= 0.00D+00.
 Generated NRdTot=       0 NPtTot=           0 NUsed=           0 NTot=          32
 NSgBfM=    41    41    41    41    41 MxSgAt=     3 MxSgA2=     3.
 Leave Link  302 at Sun Feb 19 22:44:37 2023, MaxMem=  6710886400 cpu:               2.1 elap:               0.1
 (Enter /data0/home/software/g16/l303.exe)
 DipDrv:  MaxL=1.
 Leave Link  303 at Sun Feb 19 22:44:37 2023, MaxMem=  6710886400 cpu:               0.4 elap:               0.0
 (Enter /data0/home/software/g16/l401.exe)
 ExpMin= 8.45D-02 ExpMax= 8.59D+03 ExpMxC= 1.30D+03 IAcc=3 IRadAn=         5 AccDes= 0.00D+00
 Harris functional with IExCor= 1009 and IRadAn=       5 diagonalized for initial guess.
 HarFok:  IExCor= 1009 AccDes= 0.00D+00 IRadAn=         5 IDoV= 1 UseB2=F ITyADJ=14
 ICtDFT=  3500011 ScaDFX=  1.000000  1.000000  1.000000  1.000000
 FoFCou: FMM=F IPFlag=           0 FMFlag=      100000 FMFlg1=           0
         NFxFlg=           0 DoJE=T BraDBF=F KetDBF=T FulRan=T
         wScrn=  0.000000 ICntrl=       500 IOpCl=  0 I1Cent=   200000004 NGrid=           0
         NMat0=    1 NMatS0=      1 NMatT0=    0 NMatD0=    1 NMtDS0=    0 NMtDT0=    0
 Symmetry not used in FoFCou.
 Harris En= -76.4162525822385    
 JPrj=0 DoOrth=F DoCkMO=F.
 Leave Link  401 at Sun Feb 19 22:44:37 2023, MaxMem=  6710886400 cpu:               2.9 elap:               0.1
 (Enter /data0/home/software/g16/l502.exe)
 Keep R1 ints in memory in canonical form, NReq=21043821.
 FoFCou: FMM=F IPFlag=           0 FMFlag=           0 FMFlg1=           0
         NFxFlg=           0 DoJE=F BraDBF=F KetDBF=F FulRan=T
         wScrn=  0.000000 ICntrl=       600 IOpCl=  0 I1Cent=           0 NGrid=           0
         NMat0=    1 NMatS0=    780 NMatT0=    0 NMatD0=    1 NMtDS0=    0 NMtDT0=    0
 Symmetry not used in FoFCou.
 Two-electron integral symmetry not used.
 Closed shell SCF:
 Using DIIS extrapolation, IDIIS=  1040.
 NGot=  6710886400 LenX=  6710575971 LenY=  6710573849
 Requested convergence on RMS density matrix=1.00D-08 within 128 cycles.
 Requested convergence on MAX density matrix=1.00D-06.
 Requested convergence on             energy=1.00D-06.
 No special actions if energy rises.
 Integral accuracy reduced to 1.0D-05 until final iterations.

 Cycle   1  Pass 0  IDiag  1:
 E= -76.3466045586819    
 DIIS: error= 6.99D-02 at cycle   1 NSaved=   1.
 NSaved= 1 IEnMin= 1 EnMin= -76.3466045586819     IErMin= 1 ErrMin= 6.99D-02
 ErrMax= 6.99D-02  0.00D+00 EMaxC= 1.00D-01 BMatC= 1.20D-01 BMatP= 1.20D-01
 IDIUse=3 WtCom= 3.01D-01 WtEn= 6.99D-01
 Coeff-Com:  0.100D+01
 Coeff-En:   0.100D+01
 Coeff:      0.100D+01
 Gap=     0.325 Goal=   None    Shift=    0.000
 GapD=    0.325 DampG=1.000 DampE=0.500 DampFc=0.5000 IDamp=-1.
 Damping current iteration by 5.00D-01
 RMSDP=7.96D-03 MaxDP=1.01D-01              OVMax= 1.68D-01

 Cycle   2  Pass 0  IDiag  1:
 E= -76.3778512567936     Delta-E=       -0.031246698112 Rises=F Damp=T
 DIIS: error= 1.13D-02 at cycle   2 NSaved=   2.
 NSaved= 2 IEnMin= 2 EnMin= -76.3778512567936     IErMin= 2 ErrMin= 1.13D-02
 ErrMax= 1.13D-02  0.00D+00 EMaxC= 1.00D-01 BMatC= 4.85D-03 BMatP= 1.20D-01
 IDIUse=3 WtCom= 8.87D-01 WtEn= 1.13D-01
 Coeff-Com:  0.832D-01 0.917D+00
 Coeff-En:   0.189D+00 0.811D+00
 Coeff:      0.951D-01 0.905D+00
 Gap=     0.457 Goal=   None    Shift=    0.000
 RMSDP=9.49D-04 MaxDP=1.41D-02 DE=-3.12D-02 OVMax= 1.00D-01

 Cycle   3  Pass 0  IDiag  1:
 E= -76.4216392707155     Delta-E=       -0.043788013922 Rises=F Damp=F
 DIIS: error= 2.16D-03 at cycle   3 NSaved=   3.
 NSaved= 3 IEnMin= 3 EnMin= -76.4216392707155     IErMin= 3 ErrMin= 2.16D-03
 ErrMax= 2.16D-03  0.00D+00 EMaxC= 1.00D-01 BMatC= 9.07D-05 BMatP= 4.85D-03
 IDIUse=3 WtCom= 9.78D-01 WtEn= 2.16D-02
 Coeff-Com: -0.199D-01 0.394D-01 0.981D+00
 Coeff-En:   0.000D+00 0.000D+00 0.100D+01
 Coeff:     -0.195D-01 0.385D-01 0.981D+00
 Gap=     0.461 Goal=   None    Shift=    0.000
 RMSDP=1.14D-04 MaxDP=9.48D-04 DE=-4.38D-02 OVMax= 3.32D-03

 Cycle   4  Pass 0  IDiag  1:
 E= -76.4217167203445     Delta-E=       -0.000077449629 Rises=F Damp=F
 DIIS: error= 4.14D-04 at cycle   4 NSaved=   4.
 NSaved= 4 IEnMin= 4 EnMin= -76.4217167203445     IErMin= 4 ErrMin= 4.14D-04
 ErrMax= 4.14D-04  0.00D+00 EMaxC= 1.00D-01 BMatC= 3.28D-06 BMatP= 9.07D-05
 IDIUse=3 WtCom= 9.96D-01 WtEn= 4.14D-03
 Coeff-Com: -0.189D-02-0.225D-02 0.162D+00 0.842D+00
 Coeff-En:   0.000D+00 0.000D+00 0.000D+00 0.100D+01
 Coeff:     -0.188D-02-0.225D-02 0.161D+00 0.843D+00
 Gap=     0.462 Goal=   None    Shift=    0.000
 RMSDP=2.22D-05 MaxDP=3.55D-04 DE=-7.74D-05 OVMax= 5.38D-04

 Cycle   5  Pass 0  IDiag  1:
 E= -76.4217187494659     Delta-E=       -0.000002029121 Rises=F Damp=F
 DIIS: error= 8.89D-05 at cycle   5 NSaved=   5.
 NSaved= 5 IEnMin= 5 EnMin= -76.4217187494659     IErMin= 5 ErrMin= 8.89D-05
 ErrMax= 8.89D-05  0.00D+00 EMaxC= 1.00D-01 BMatC= 8.25D-08 BMatP= 3.28D-06
 IDIUse=1 WtCom= 1.00D+00 WtEn= 0.00D+00
 Coeff-Com:  0.118D-02-0.180D-02-0.368D-01-0.640D-01 0.110D+01
 Coeff:      0.118D-02-0.180D-02-0.368D-01-0.640D-01 0.110D+01
 Gap=     0.462 Goal=   None    Shift=    0.000
 RMSDP=8.99D-06 MaxDP=1.02D-04 DE=-2.03D-06 OVMax= 2.03D-04

 Initial convergence to 1.0D-05 achieved.  Increase integral accuracy.
 Cycle   6  Pass 1  IDiag  1:
 E= -76.4217075773936     Delta-E=        0.000011172072 Rises=F Damp=F
 DIIS: error= 3.51D-05 at cycle   1 NSaved=   1.
 NSaved= 1 IEnMin= 1 EnMin= -76.4217075773936     IErMin= 1 ErrMin= 3.51D-05
 ErrMax= 3.51D-05  0.00D+00 EMaxC= 1.00D-01 BMatC= 1.98D-08 BMatP= 1.98D-08
 IDIUse=1 WtCom= 1.00D+00 WtEn= 0.00D+00
 Coeff-Com:  0.100D+01
 Coeff:      0.100D+01
 Gap=     0.462 Goal=   None    Shift=    0.000
 RMSDP=8.99D-06 MaxDP=1.02D-04 DE= 1.12D-05 OVMax= 5.29D-05

 Cycle   7  Pass 1  IDiag  1:
 E= -76.4217075942134     Delta-E=       -0.000000016820 Rises=F Damp=F
 DIIS: error= 1.00D-05 at cycle   2 NSaved=   2.
 NSaved= 2 IEnMin= 2 EnMin= -76.4217075942134     IErMin= 2 ErrMin= 1.00D-05
 ErrMax= 1.00D-05  0.00D+00 EMaxC= 1.00D-01 BMatC= 1.60D-09 BMatP= 1.98D-08
 IDIUse=1 WtCom= 1.00D+00 WtEn= 0.00D+00
 Coeff-Com:  0.384D-01 0.962D+00
 Coeff:      0.384D-01 0.962D+00
 Gap=     0.462 Goal=   None    Shift=    0.000
 RMSDP=8.98D-07 MaxDP=1.54D-05 DE=-1.68D-08 OVMax= 2.34D-05

 Cycle   8  Pass 1  IDiag  1:
 E= -76.4217075944803     Delta-E=       -0.000000000267 Rises=F Damp=F
 DIIS: error= 8.09D-06 at cycle   3 NSaved=   3.
 NSaved= 3 IEnMin= 3 EnMin= -76.4217075944803     IErMin= 3 ErrMin= 8.09D-06
 ErrMax= 8.09D-06  0.00D+00 EMaxC= 1.00D-01 BMatC= 1.65D-09 BMatP= 1.60D-09
 IDIUse=1 WtCom= 1.00D+00 WtEn= 0.00D+00
 Coeff-Com: -0.509D-01 0.527D+00 0.524D+00
 Coeff:     -0.509D-01 0.527D+00 0.524D+00
 Gap=     0.462 Goal=   None    Shift=    0.000
 RMSDP=4.46D-07 MaxDP=5.77D-06 DE=-2.67D-10 OVMax= 1.06D-05

 Cycle   9  Pass 1  IDiag  1:
 E= -76.4217075955688     Delta-E=       -0.000000001089 Rises=F Damp=F
 DIIS: error= 5.86D-07 at cycle   4 NSaved=   4.
 NSaved= 4 IEnMin= 4 EnMin= -76.4217075955688     IErMin= 4 ErrMin= 5.86D-07
 ErrMax= 5.86D-07  0.00D+00 EMaxC= 1.00D-01 BMatC= 4.70D-12 BMatP= 1.60D-09
 IDIUse=1 WtCom= 1.00D+00 WtEn= 0.00D+00
 Coeff-Com:  0.298D-03-0.448D-01-0.234D-01 0.107D+01
 Coeff:      0.298D-03-0.448D-01-0.234D-01 0.107D+01
 Gap=     0.462 Goal=   None    Shift=    0.000
 RMSDP=8.98D-08 MaxDP=7.30D-07 DE=-1.09D-09 OVMax= 1.85D-06

 Cycle  10  Pass 1  IDiag  1:
 E= -76.4217075955794     Delta-E=       -0.000000000011 Rises=F Damp=F
 DIIS: error= 1.22D-07 at cycle   5 NSaved=   5.
 NSaved= 5 IEnMin= 5 EnMin= -76.4217075955794     IErMin= 5 ErrMin= 1.22D-07
 ErrMax= 1.22D-07  0.00D+00 EMaxC= 1.00D-01 BMatC= 3.33D-13 BMatP= 4.70D-12
 IDIUse=1 WtCom= 1.00D+00 WtEn= 0.00D+00
 Coeff-Com:  0.336D-02-0.403D-01-0.344D-01 0.995D-01 0.972D+00
 Coeff:      0.336D-02-0.403D-01-0.344D-01 0.995D-01 0.972D+00
 Gap=     0.462 Goal=   None    Shift=    0.000
 RMSDP=2.44D-08 MaxDP=1.87D-07 DE=-1.05D-11 OVMax= 5.17D-07

 Cycle  11  Pass 1  IDiag  1:
 E= -76.4217075955798     Delta-E=       -0.000000000000 Rises=F Damp=F
 DIIS: error= 1.86D-08 at cycle   6 NSaved=   6.
 NSaved= 6 IEnMin= 6 EnMin= -76.4217075955798     IErMin= 6 ErrMin= 1.86D-08
 ErrMax= 1.86D-08  0.00D+00 EMaxC= 1.00D-01 BMatC= 5.47D-15 BMatP= 3.33D-13
 IDIUse=1 WtCom= 1.00D+00 WtEn= 0.00D+00
 Coeff-Com: -0.162D-03 0.265D-02 0.303D-02-0.297D-01-0.712D-01 0.110D+01
 Coeff:     -0.162D-03 0.265D-02 0.303D-02-0.297D-01-0.712D-01 0.110D+01
 Gap=     0.462 Goal=   None    Shift=    0.000
 RMSDP=4.08D-09 MaxDP=3.51D-08 DE=-3.84D-13 OVMax= 8.20D-08

 SCF Done:  E(RM062X) =  -76.4217075956     A.U. after   11 cycles
            NFock= 11  Conv=0.41D-08     -V/T= 2.0030
 KE= 7.619149095485D+01 PE=-1.990272528097D+02 EE= 3.732418190886D+01
 Leave Link  502 at Sun Feb 19 22:44:38 2023, MaxMem=  6710886400 cpu:               8.9 elap:               0.4
 (Enter /data0/home/software/g16/l601.exe)
 Copying SCF densities to generalized density rwf, IOpCl= 0 IROHF=0.

 **********************************************************************

            Population analysis using the SCF density.

 **********************************************************************

 Alpha  occ. eigenvalues --  -19.62676  -1.13350  -0.60470  -0.47700  -0.39997
 Alpha virt. eigenvalues --    0.06214   0.13304   0.17420   0.17943   0.18903
 Alpha virt. eigenvalues --    0.23400   0.50882   0.53411   0.98107   1.00261
 Alpha virt. eigenvalues --    1.06008   1.17577   1.20133   1.31958   1.34007
 Alpha virt. eigenvalues --    1.70428   1.74271   1.75304   2.07369   2.09563
 Alpha virt. eigenvalues --    2.36316   2.39638   2.54857   2.87779   3.01222
 Alpha virt. eigenvalues --    5.05626   5.48722   5.90803   6.78477   6.80051
 Alpha virt. eigenvalues --    6.87330   6.91614   7.09519  49.95529
          Condensed to atoms (all electrons):
              34         35         36
    34  O    7.918189   0.318885   0.316291
    35  H    0.318885   0.429402  -0.023820
    36  H    0.316291  -0.023820   0.429699
 Mulliken charges:
               1
     1  C    0.000000
     2  C    0.000000
     3  C    0.000000
     4  C    0.000000
     5  C    0.000000
     6  H    0.000000
     7  H    0.000000
     8  H    0.000000
     9  H    0.000000
    10  C    0.000000
    11  H    0.000000
    12  H    0.000000
    13  H    0.000000
    14  N    0.000000
    15  C    0.000000
    16  H    0.000000
    17  H    0.000000
    18  C    0.000000
    19  H    0.000000
    20  H    0.000000
    21  C    0.000000
    22  H    0.000000
    23  H    0.000000
    24  S    0.000000
    25  O    0.000000
    26  O    0.000000
    27  O    0.000000
    28  O    0.000000
    29  H    0.000000
    30  H    0.000000
    31  O    0.000000
    32  H    0.000000
    33  H    0.000000
    34  O   -0.553364
    35  H    0.275533
    36  H    0.277831
 Sum of Mulliken charges =  -0.00000
 Mulliken charges with hydrogens summed into heavy atoms:
               1
     1  C    0.000000
     2  C    0.000000
     3  C    0.000000
     4  C    0.000000
     5  C    0.000000
    10  C    0.000000
    14  N    0.000000
    15  C    0.000000
    18  C    0.000000
    21  C    0.000000
    24  S    0.000000
    25  O    0.000000
    26  O    0.000000
    27  O    0.000000
    28  O    0.000000
    31  O    0.000000
    34  O   -0.000000
         Mulliken charges condensed to fragments:
      1      0.000000
      2      0.000000
      3      0.000000
      4     -0.000000
 Electronic spatial extent (au):  <R**2>=          14537.8593
 Charge=             -0.0000 electrons
 Dipole moment (field-independent basis, Debye):
    X=             -0.0967    Y=             -1.9522    Z=             -0.8609  Tot=              2.1358
 Quadrupole moment (field-independent basis, Debye-Ang):
   XX=             -8.6238   YY=            -54.5639   ZZ=            -25.7365
   XY=            -22.9661   XZ=             -8.9781   YZ=            -33.5683
 Traceless Quadrupole moment (field-independent basis, Debye-Ang):
   XX=             21.0176   YY=            -24.9225   ZZ=              3.9050
   XY=            -22.9661   XZ=             -8.9781   YZ=            -33.5683
 Octapole moment (field-independent basis, Debye-Ang**2):
  XXX=           -246.3590  YYY=          -1130.7186  ZZZ=           -548.9503  XYY=           -620.9736
  XXY=           -350.0757  XXZ=           -169.4684  XZZ=           -258.1753  YZZ=           -588.1900
  YYZ=           -771.2048  XYZ=           -366.8344
 Hexadecapole moment (field-independent basis, Debye-Ang**3):
 XXXX=          -5101.9357 YYYY=         -20640.5579 ZZZZ=         -10074.9250 XXXY=          -5775.0377
 XXXZ=          -3442.6064 YYYX=         -12706.6162 YYYZ=         -14862.8506 ZZZX=          -5520.0461
 ZZZY=          -9975.8272 XXYY=          -8072.4362 XXZZ=          -3459.6987 YYZZ=         -11453.9234
 XXYZ=          -4957.9020 YYXZ=          -8482.9150 ZZXY=          -6206.8166
 N-N= 9.089872350431D+00 E-N=-1.990272531267D+02  KE= 7.619149095485D+01
 No NMR shielding tensors so no spin-rotation constants.
 Leave Link  601 at Sun Feb 19 22:44:38 2023, MaxMem=  6710886400 cpu:               1.8 elap:               0.1
 (Enter /data0/home/software/g16/l122.exe)
 CPIOFr:  IOpCl= 0 IRwI=-1 IRwCP=  731 ICalc=  8 LCPTot=      519026 Len1MO=     1362453 IndFrg=    12781103
 Restoring MOs from calculation   1 to rwf.
 CPIOFr:  IOpCl= 0 IRwI=-2 IRwCP=  731 ICalc=  0 LCPTot=      519026 Len1MO=     1362453 IndFrg=     1881479
 Counterpoise corrected energy =   -1258.585178426632
                   BSSE energy =       0.004655779598
              sum of fragments =   -1258.534118163953
           complexation energy =     -34.96 kcal/mole (raw)
           complexation energy =     -32.04 kcal/mole (corrected)
 Leave Link  122 at Sun Feb 19 22:44:38 2023, MaxMem=  6710886400 cpu:               0.5 elap:               0.0
 (Enter /data0/home/software/g16/l9999.exe)
 1\1\GINC-LOCALHOST\SP\RM062X\6-311+G(2d,p)\C9H19N1O6S1\WUHANYU\19-Feb-
 2023\0\\#p M062X/6-311+G(2d,p) nosymm em=GD3 counterpoise=4\\Title Car
 d Required\\0,1\C,0,8.224521,10.238203,10.972404\C,0,9.025047,9.936438
 ,12.075114\C,0,9.651635,8.698713,12.168146\C,0,9.494654,7.776267,11.12
 2039\C,0,8.718524,8.126306,10.017284\H,0,10.270542,8.450397,13.038618\
 H,0,7.71029,11.213005,10.885908\H,0,9.190877,10.704981,12.837472\H,0,8
 .640189,7.461325,9.149226\C,0,10.177895,6.458854,11.138091\H,0,9.48555
 7,5.616869,11.027034\H,0,10.917704,6.394718,10.312138\H,0,10.76245,6.2
 94375,12.057492\N,0,8.06685,9.327097,9.970187\C,0,7.218458,9.663707,8.
 801203\H,0,6.309994,9.02039,8.841723\H,0,6.859191,10.725268,8.897001\C
 ,0,7.919124,9.493889,7.437824\H,0,8.442376,8.514144,7.380978\H,0,7.126
 526,9.441867,6.658738\C,0,8.880656,10.624054,7.084845\H,0,8.357492,11.
 601144,7.085889\H,0,9.264771,10.497684,6.056237\S,0,10.265817,10.69742
 9,8.238213\O,0,11.380242,11.421741,7.634001\O,0,10.515107,9.273832,8.5
 92287\O,0,9.656751,11.446768,9.39728\O,0,13.072938,12.522995,9.70175\H
 ,0,12.603292,12.273286,8.883009\H,0,12.367824,12.704391,10.342057\O,0,
 7.365961,12.839897,9.363178\H,0,7.505833,13.75408,9.579144\H,0,8.26696
 5,12.434474,9.362144\O,0,10.840604,12.49929,11.632993\H,0,11.270291,11
 .694976,11.935899\H,0,10.35307,12.203576,10.840249\\Version=ES64L-G16R
 evA.03\HF=-76.4217076\RMSD=4.081e-09\Dipole=-3.7388733,-3.239992,0.989
 0707\Quadrupole=-75.2337659,-46.1781533,121.4119192,-140.2822416,-42.6
 522878,-44.1948083\PG=C01 [X(C9H19N1O6S1)]\\@


 JUST WHEN YOU THINK YOU'VE GOT THE WORLD ON A STRING,
 YOU FIND OUT IT'S YOUR LEASH.
 Job cpu time:       0 days  4 hours 26 minutes  3.6 seconds.
 Elapsed time:       0 days  0 hours 11 minutes  8.8 seconds.
 File lengths (MBytes):  RWF=    306 Int=      0 D2E=      0 Chk=    117 Scr=      1
 Normal termination of Gaussian 16 at Sun Feb 19 22:44:38 2023.
