          28
 G =       -0.559067 Gcorr = 0.137591 a.u. Nimag =   0 Frame:     1 Step:     3 Geom:     3
C          14.63256800      7.38295000      7.28981800
C          14.84595600      6.87479700      8.57626300
C          14.09649300      7.39363400      9.63223600
C          13.15933700      8.39085500      9.37745200
C          13.01412000      8.85636600      8.06283600
N          13.74268900      8.36471200      7.04307800
H          14.24144600      7.02074700     10.64558400
H          15.16997200      6.99553600      6.41475400
H          15.58343500      6.09604800      8.74359600
H          12.52862300      8.79240000     10.16816900
H          12.28674500      9.63777400      7.80486700
P          11.59450900      7.04144500      4.81297700
O          10.47233200      7.43871900      5.66952500
O          11.09214500      6.53041000      3.39652300
H          11.93139300      6.28926500      2.84019300
O          12.65354600      8.15042100      4.42408900
H          13.12943400      8.48114300      5.31197900
O          12.49627900      5.83997900      5.35410300
H          12.26345000      5.63983100      6.33931200
O           8.99082200      5.83204400      7.77906200
H           9.03594100      6.18558400      6.88227800
H           9.79370600      5.30592300      7.85920300
O          10.60605500      7.80966000      8.64833600
H           9.75764800      7.39644500      8.88869800
H          10.52433400      7.92315000      7.68674100
O          11.95227200      5.44761900      8.16573700
H          12.75483400      5.37302200      8.67624400
H          11.55993400      6.30952500      8.42635200
          28
 G =       -0.559601 Gcorr = 0.137944 a.u. Nimag =   0 Frame:     2 Step:     4 Geom:     4
C          13.63516200      8.97160900      7.38638500
C          12.84045200      9.21913600      8.51119000
C          12.67462800      8.20000600      9.44775600
C          13.31045800      6.97710200      9.24460300
C          14.07655300      6.80302800      8.08603600
N          14.23834600      7.78289200      7.17391700
H          12.03771600      8.35130900     10.31981700
H          13.78314800      9.72863000      6.60717100
H          12.34099600     10.17455800      8.63656200
H          13.19598400      6.16357800      9.95699000
H          14.56335500      5.84730600      7.85469700
P          11.82901700      6.97233100      4.97473400
O          11.50229100      8.14972100      5.78373100
O          11.19837800      7.08377300      3.51965700
H          11.46580100      6.23022000      2.99986000
O          13.36590800      6.68151500      4.70298000
H          13.95104900      7.18098000      5.42483000
O          11.24034900      5.58066400      5.46743700
H          11.75764600      5.25632400      6.30835600
O          10.11643800      8.28071300      8.35497700
H          10.69217500      8.26933500      7.56697000
H           9.23616500      8.36654300      7.98955800
O          10.65704700      5.89768100      9.64135500
H           9.78379800      5.57760400      9.84226700
H          10.51694000      6.76807300      9.21179800
O          12.37131900      4.59272800      7.86700900
H          12.14437200      3.67113100      7.95880300
H          11.80452800      5.06151600      8.51055800
          28
 G =       -0.558394 Gcorr = 0.136210 a.u. Nimag =   0 Frame:     3 Step:     5 Geom:     5
C          12.87279200      9.21245600      7.64420900
C          11.94906700      9.22052800      8.69604100
C          12.11825500      8.31461000      9.74173900
C          13.21116300      7.44736800      9.72305500
C          14.09011900      7.50415300      8.63637600
N          13.92251500      8.36641800      7.61416100
H          11.39016300      8.27180100     10.55287500
H          12.77076400      9.87997200      6.77864600
H          11.09972100      9.89857800      8.68203100
H          13.37639000      6.74583500     10.53413200
H          14.95672900      6.83763700      8.55514700
P          12.46802700      6.52645100      5.08877600
O          11.55588900      7.53748500      5.64517600
O          12.35749400      6.46347600      3.50536400
H          13.03778500      5.75752700      3.17422600
O          14.01645100      6.70661200      5.37253500
H          14.17186000      7.57712600      5.94662900
O          12.18852800      5.01873700      5.49484700
H          12.06653900      4.96135200      6.53382600
O           8.63598200      6.91593300      6.04504700
H           9.45512500      7.29326100      5.69360200
H           8.59430000      6.04409500      5.65066500
O          10.12280500      7.18480000      8.34252800
H          10.61599400      7.49823300      7.56856100
H           9.24893900      6.98479000      7.96492000
O          11.74444100      4.95468900      8.29647100
H          12.51561300      5.26380700      8.76940400
H          11.08656400      5.67227800      8.40902000
          28
 G =       -0.559204 Gcorr = 0.132090 a.u. Nimag =   0 Frame:     4 Step:     6 Geom:     6
C          12.29067600      9.20028800      9.50011500
C          12.88302100     10.37909100      9.96622700
C          13.93882100     10.92690700      9.23854400
C          14.36965000     10.29002500      8.07742600
C          13.72393100      9.11258600      7.67665900
N          12.70363800      8.58223800      8.37673500
H          14.42142600     11.84390700      9.57638500
H          11.45897700      8.72195700     10.03033500
H          12.52634300     10.85391400     10.87539300
H          15.19125800     10.69165100      7.49106100
H          14.02704100      8.56760900      6.76899700
P          12.63864200      5.44280000      6.38167600
O          13.07041300      6.40100000      5.36270700
O          13.91517000      4.81637800      7.09593800
H          13.60053500      4.05584200      7.71206500
O          11.70490000      6.02040900      7.53165700
H          12.06035500      6.96362600      7.83744300
O          11.83260800      4.16794100      5.89883800
H          10.80012100      4.37738300      5.93347500
O          11.30381000      7.65713400      3.37871700
H          11.93085200      7.13310100      3.90848400
H          11.33163900      8.52447400      3.78122300
O           8.83683600      6.50880000      3.81853700
H           9.70720200      6.93504900      3.68269100
H           8.65938600      6.05874100      2.99630400
O           9.09672400      4.75610000      5.95446700
H           9.01343400      5.33755400      6.71323800
H           8.96260600      5.34350400      5.18467000
          28
 G =       -0.558391 Gcorr = 0.138214 a.u. Nimag =   0 Frame:     5 Step:     8 Geom:     8
C          13.86158700      8.46504900      8.39797500
C          14.32830900      9.61212500      7.74576900
C          13.39817300     10.50046800      7.20906500
C          12.03867500     10.23021500      7.34810900
C          11.65247600      9.06718000      8.02508400
N          12.54712700      8.19902800      8.53762600
H          13.73028300     11.39221200      6.67952700
H          14.54937900      7.71953700      8.81478900
H          15.39425100      9.79159600      7.64698000
H          11.28572700     10.88357800      6.91560400
H          10.59495800      8.80647000      8.15852500
P          12.72622500      5.29103400      6.64443900
O          13.05144400      6.45175500      5.81853200
O          14.04003800      4.63646900      7.25322000
H          13.78062900      3.73850200      7.68711400
O          11.75761100      5.59975100      7.87842200
H          12.12746900      6.41385500      8.43126600
O          11.99207700      4.05682800      5.97512800
H          11.01824000      4.34616600      5.70725300
O          10.94042000      8.54845300      5.47325500
H          11.72679300      7.98926000      5.59520700
H          10.70517200      8.42816100      4.55249900
O           9.21875000      6.94449100      7.01670900
H           9.70560200      7.59012400      6.47152900
H           9.91222400      6.53177600      7.54808700
O           9.29332300      4.75177200      5.36973900
H           8.70398800      4.11870000      5.77168400
H           9.15906900      5.57545100      5.88687000
          28
 G =       -0.559806 Gcorr = 0.131127 a.u. Nimag =   0 Frame:     6 Step:     9 Geom:     9
C          14.38172400      8.62428000      9.43001900
C          14.79914800      9.92146300      9.74746100
C          14.48971900     10.95564000      8.86458600
C          13.77901600     10.67001000      7.70171300
C          13.39603200      9.34431100      7.45564500
N          13.69460300      8.34448300      8.30580600
H          14.80138500     11.97649400      9.08384700
H          14.59464600      7.77085100     10.08434300
H          15.35125000     10.11529800     10.66187500
H          13.52321500     11.45420200      6.99517700
H          12.83222600      9.06217800      6.55231600
P          12.26723600      5.63502100      6.15079100
O          11.75319700      6.89697500      5.60622800
O          13.42291300      5.06560500      5.21358100
H          13.75999900      4.18334100      5.62157600
O          12.87166000      5.67399400      7.61140900
H          13.15056900      6.67182000      7.84129100
O          11.27706800      4.39665300      6.20116500
H          10.47865400      4.61468300      6.84318300
O           9.39588500      7.01760500      3.92103800
H          10.21136200      7.09043400      4.45179400
H           9.54303900      6.23895900      3.38310500
O           7.60293800      6.57211800      5.95345200
H           8.19979500      6.69685300      5.18519800
H           7.50607100      7.44644500      6.32291700
O           8.90307000      4.81224000      7.63368500
H           8.36104700      4.03218100      7.54171000
H           8.45254900      5.48586500      7.08509800
          28
 G =       -0.559700 Gcorr = 0.131232 a.u. Nimag =   0 Frame:     7 Step:    10 Geom:    10
C          15.23510200      8.74524400      8.19636200
C          15.60569100      9.99203700      8.71208300
C          14.70491700     11.05126500      8.60594400
C          13.47165200     10.83927200      7.99505900
C          13.17493800      9.56043500      7.50401800
N          14.04329700      8.53694300      7.60443000
H          14.96462200     12.03434300      8.99768700
H          15.89993400      7.87525400      8.25048900
H          16.57375400     10.12832000      9.18413700
H          12.74943900     11.64459100      7.89783500
H          12.21477000      9.33676900      7.01255200
P          11.92393700      6.11083800      5.69476700
O          11.04294400      7.23207100      6.04127700
O          12.32188900      6.18361900      4.15387300
H          12.93708700      5.38575600      3.94457500
O          13.28564700      5.99242100      6.48979100
H          13.52789400      6.94104300      6.89952400
O          11.32209900      4.64588900      5.78581400
H          11.06513700      4.43565600      6.77935800
O           8.15301900      6.98239400      6.07390400
H           9.10690400      7.18720200      6.06662700
H           8.03008000      6.44178400      5.29290700
O           8.04673700      5.51820600      8.39455900
H           8.02808700      6.00604900      7.54372800
H           8.09726300      6.20167800      9.05853300
O          10.29327000      3.92143200      8.29094400
H           9.90216200      3.05446900      8.21196800
H           9.52773900      4.52502600      8.37726100
          28
 G =       -0.559186 Gcorr = 0.132106 a.u. Nimag =   0 Frame:     8 Step:    11 Geom:    11
C          14.53301500      8.37735000      8.89114900
C          15.11400100      9.59576800      9.25931500
C          14.80752300     10.73263000      8.51227900
C          13.93815300     10.62349100      7.42988100
C          13.39716200      9.36704900      7.12553700
N          13.69070300      8.26817100      7.84565100
H          15.24496000     11.69609000      8.77366600
H          14.73743400      7.44996700      9.43872300
H          15.78880100      9.65126200     10.10832900
H          13.68248700     11.49096000      6.82798300
H          12.70746300      9.22454500      6.27892200
P          11.96827400      5.95232600      5.49006100
O          11.15034400      7.15697100      5.33908800
O          13.13274200      5.96212000      4.40570700
H          13.61391700      5.05411100      4.43966900
O          12.66092800      5.75188300      6.90702000
H          13.03815800      6.67365400      7.25086100
O          11.26642300      4.55236900      5.25424400
H          10.90113400      4.18876500      6.17369300
O           8.56843700      7.62603100      6.66787600
H           9.32684800      7.42165000      6.09213200
H           8.89833000      8.31086400      7.24838800
O           8.10328000      5.32177800      8.10799100
H           8.28530500      6.14927300      7.61808800
H           7.29900300      4.98588600      7.71977900
O          10.26011100      3.62440400      7.69646100
H          10.90414200      3.94136600      8.33312400
H           9.47094200      4.17927400      7.85438500
          28
 G =       -0.561083 Gcorr = 0.139608 a.u. Nimag =   0 Frame:     9 Step:    13 Geom:    13
C          12.46639500      7.92475600      9.18884200
C          12.72972800      9.20162300      8.67970300
C          13.90515500      9.40191800      7.95680400
C          14.79617800      8.34205300      7.79385500
C          14.45949300      7.09742600      8.33752000
N          13.31611800      6.89205500      9.02339500
H          14.11417600     10.37045900      7.50598600
H          11.53884800      7.70114000      9.72814600
H          12.01663000     10.00844600      8.82516600
H          15.70849700      8.46261900      7.21925400
H          15.09957200      6.21846000      8.20487300
P          12.11773500      7.00364600      5.46785100
O          12.13908900      8.27902500      6.18723500
O          12.49660100      7.19652600      3.93890400
H          12.53775300      6.25353800      3.50969000
O          13.13387500      5.89145200      5.95505900
H          12.75025000      5.39476300      6.80722200
O          10.69078700      6.28317500      5.38586500
H          10.29047700      6.20157800      6.32833300
O           9.84305800      8.98556100      7.85066400
H          10.67341500      8.86979600      7.34514400
H           9.22780800      9.33939100      7.20850600
O           9.63523100      6.26124000      8.18581000
H           9.66636000      7.23798900      8.18448100
H           8.75168600      6.02723100      8.44949800
O          12.11048700      4.66178100      8.23315400
H          12.65995300      5.15510300      8.89008900
H          11.24466400      5.07725900      8.30895600
          28
 G =       -0.558293 Gcorr = 0.137801 a.u. Nimag =   0 Frame:    10 Step:    14 Geom:    14
C          12.85910400      8.48691200      9.67108600
C          13.98507400      7.68580300      9.88973900
C          14.90150000      7.52758000      8.84961500
C          14.68225800      8.18143700      7.64044800
C          13.54111100      8.98702500      7.51058200
N          12.64325600      9.12919900      8.50550200
H          15.77748700      6.89390700      8.98086400
H          12.08722300      8.62290500     10.43701600
H          14.14038900      7.20145900     10.84731900
H          15.35706300      8.05203400      6.79931000
H          13.31737700      9.53120100      6.58390600
P          11.83889900      6.67571800      5.14774700
O          10.97436100      5.49973000      5.18046800
O          12.78330400      6.66952600      3.87085100
H          13.26363400      7.58397200      3.83100300
O          11.15793100      8.10544500      5.07843600
H          10.68533900      8.31416600      5.99782100
O          12.88678000      6.82425900      6.35133300
H          12.43789600      6.58397300      7.24443400
O          10.38896200      4.01787900      7.67035700
H          10.31958800      4.47185600      6.81202000
H          11.02119100      3.31776200      7.50310600
O          11.48626200      6.24372500      8.86027700
H          11.00026600      5.45651500      8.53456600
H          12.02352800      5.92855500      9.58097200
O          10.17955400      8.68750800      7.63659600
H          10.83189000      9.36803000      7.91502500
H          10.45878800      7.91192900      8.13960600
          28
 G =       -0.561079 Gcorr = 0.139611 a.u. Nimag =   0 Frame:    11 Step:    16 Geom:    16
C          14.07872500      8.78364700      7.59834400
C          13.33067700      9.20095800      8.70479800
C          12.90103000      8.23913400      9.61810500
C          13.25461900      6.90461800      9.42234600
C          14.00306200      6.56997600      8.28795500
N          14.41000800      7.49203100      7.39352000
H          12.27756100      8.52355700     10.46391000
H          14.40711400      9.48763600      6.82606500
H          13.05388000     10.24361300      8.81999700
H          12.93623000      6.13251600     10.11738700
H          14.27259500      5.53174000      8.06297000
P          10.78343400      7.56040400      6.42598800
O          11.07888800      7.25187200      7.82677200
O           9.45675600      8.42059900      6.29138400
H           9.34801500      8.66571900      5.28970800
O          11.85519100      8.42358000      5.64297300
H          12.65438900      7.80904100      5.32134300
O          10.47688700      6.29660700      5.49275100
H          11.23342900      5.60789300      5.58486700
O          11.68143400      4.48704800      8.55383100
H          11.51071600      5.44518100      8.44805700
H          10.80849400      4.10312500      8.63471100
O          12.70283900      4.36197500      6.00056900
H          12.43097500      4.32558800      6.93860200
H          12.74400500      3.45880200      5.70438000
O          13.96388500      6.77577800      4.87575400
H          14.58699900      7.03745700      5.59670500
H          13.64818000      5.90991400      5.15621200
          28
 G =       -0.561074 Gcorr = 0.139616 a.u. Nimag =   0 Frame:    12 Step:    17 Geom:    17
C          12.90627100      6.56605400      9.12811500
C          12.28663800      7.74359800      9.56217900
C          12.89176900      8.96415600      9.26491000
C          14.10652000      8.97594800      8.58076500
C          14.66147200      7.75394400      8.18487100
N          14.07315000      6.57017600      8.45415100
H          12.40939800      9.89885400      9.54536700
H          12.45369700      5.58239100      9.29761900
H          11.34082200      7.70192700     10.09535600
H          14.59040500      9.91068000      8.31783300
H          15.59117300      7.70322000      7.60785300
P          11.97114300      7.89380500      5.64042100
O          11.53966400      8.24249000      6.99570900
O          11.69956300      9.08180500      4.62390900
H          12.09378900      8.80015700      3.70730000
O          13.51156600      7.58883900      5.43776800
H          13.73064900      6.59929000      5.74224900
O          11.19267900      6.66999800      4.96348300
H          11.20800900      5.85961800      5.59461100
O           9.85307900      6.35294700      8.45481700
H          10.41813900      7.06385900      8.08929600
H           8.98277500      6.54580700      8.10621700
O          11.22791700      4.46955600      6.99184300
H          10.73705500      5.05360100      7.60265700
H          10.73494700      3.65677500      6.95342700
O          14.04650600      5.00034800      6.31306400
H          14.42671000      5.24847800      7.19078800
H          13.16451000      4.68168300      6.53343000
          28
 G =       -0.560958 Gcorr = 0.139864 a.u. Nimag =   0 Frame:    13 Step:    20 Geom:    20
C          14.40138400      8.60078900      7.61470200
C          13.63025900      9.75973700      7.76595200
C          12.57228700      9.74278200      8.67236100
C          12.32021600      8.58379500      9.40638000
C          13.14316000      7.47025900      9.20168800
N          14.16970500      7.48025400      8.32699200
H          11.93272900     10.61584200      8.78764800
H          15.21793600      8.54417500      6.88711700
H          13.83100200     10.63547400      7.15677300
H          11.48003300      8.52738200     10.09039300
H          12.97514500      6.52581100      9.72940000
P          11.25779900      7.51440900      5.93348100
O          12.60841000      7.26954800      5.43421100
O          10.83373400      9.04027200      5.79942500
H           9.83757200      9.10985100      6.07392200
O          10.05806000      6.75664400      5.21826300
H          10.19613600      5.72766800      5.32126100
O          11.03886700      7.24839900      7.49688300
H          11.36055500      6.30244800      7.73659600
O          14.43706300      5.24942100      6.93998700
H          14.03288500      5.85633500      6.30250500
H          14.77444400      5.87281700      7.63561900
O          12.14335900      4.50632600      8.02012000
H          13.03812300      4.72317900      7.63217400
H          12.30265500      3.85711300      8.69298700
O          10.65375900      3.97845100      5.67686400
H          11.36328800      3.76016400      5.07181600
H          11.08945100      4.05066600      6.54449100
          28
 G =       -0.561087 Gcorr = 0.139603 a.u. Nimag =   0 Frame:    14 Step:    21 Geom:    21
C          13.73731900      6.59047000      8.97464900
C          14.34425800      7.79731500      8.60969500
C          13.53637600      8.91805500      8.42243400
C          12.16229300      8.81327200      8.63505100
C          11.63388100      7.56860700      8.99637100
N          12.40662800      6.47769500      9.16566600
H          13.97064500      9.86017700      8.09255300
H          14.31538000      5.66773300      9.09420800
H          15.41349800      7.84350400      8.43187000
H          11.50698300      9.66917800      8.49863000
H          10.55695600      7.41985300      9.13514000
P          12.68164200      6.58973200      5.42413500
O          12.51455000      7.87760900      6.10085600
O          13.63279100      6.72020600      4.16053900
H          13.76794100      5.76677400      3.77607500
O          13.35035900      5.42439600      6.26186700
H          12.63349900      4.97284300      6.89593300
O          11.34924100      5.96428100      4.79527000
H          10.61219000      5.93189600      5.50993400
O           9.81073500      8.77497100      6.75408000
H          10.76112300      8.59200600      6.60731100
H           9.51682800      9.15518900      5.92640900
O           9.29853200      6.07857500      6.97084800
H           9.39744800      7.05075000      6.98567500
H           8.36695900      5.91131800      6.87410400
O          11.44317100      4.31619000      7.96058400
H          11.73155400      4.78568500      8.78100000
H          10.64723900      4.79172800      7.69911900
