          28
 Energy =    -1121.74264180 a.u.  Frame:     1 Step:     1 Geom:     1
C          13.73731900      6.59047000      8.97464900
C          14.34425800      7.79731500      8.60969500
C          13.53637600      8.91805500      8.42243400
C          12.16229300      8.81327200      8.63505100
C          11.63388100      7.56860700      8.99637100
N          12.40662800      6.47769500      9.16566600
H          13.97064500      9.86017700      8.09255300
H          14.31538000      5.66773300      9.09420800
H          15.41349800      7.84350400      8.43187000
H          11.50698300      9.66917800      8.49863000
H          10.55695600      7.41985300      9.13514000
P          12.68164200      6.58973200      5.42413500
O          12.51455000      7.87760900      6.10085600
O          13.63279100      6.72020600      4.16053900
H          13.76794100      5.76677400      3.77607500
O          13.35035900      5.42439600      6.26186700
H          12.63349900      4.97284300      6.89593300
O          11.34924100      5.96428100      4.79527000
H          10.61219000      5.93189600      5.50993400
O           9.81073500      8.77497100      6.75408000
H          10.76112300      8.59200600      6.60731100
H           9.51682800      9.15518900      5.92640900
O           9.29853200      6.07857500      6.97084800
H           9.39744800      7.05075000      6.98567500
H           8.36695900      5.91131800      6.87410400
O          11.44317100      4.31619000      7.96058400
H          11.73155400      4.78568500      8.78100000
H          10.64723900      4.79172800      7.69911900
          28
 Energy =    -1121.73768800 a.u.  Frame:     2 Step:     2 Geom:     2
C          14.40138400      8.60078900      7.61470200
C          13.63025900      9.75973700      7.76595200
C          12.57228700      9.74278200      8.67236100
C          12.32021600      8.58379500      9.40638000
C          13.14316000      7.47025900      9.20168800
N          14.16970500      7.48025400      8.32699200
H          11.93272900     10.61584200      8.78764800
H          15.21793600      8.54417500      6.88711700
H          13.83100200     10.63547400      7.15677300
H          11.48003300      8.52738200     10.09039300
H          12.97514500      6.52581100      9.72940000
P          11.25779900      7.51440900      5.93348100
O          12.60841000      7.26954800      5.43421100
O          10.83373400      9.04027200      5.79942500
H           9.83757200      9.10985100      6.07392200
O          10.05806000      6.75664400      5.21826300
H          10.19613600      5.72766800      5.32126100
O          11.03886700      7.24839900      7.49688300
H          11.36055500      6.30244800      7.73659600
O          14.43706300      5.24942100      6.93998700
H          14.03288500      5.85633500      6.30250500
H          14.77444400      5.87281700      7.63561900
O          12.14335900      4.50632600      8.02012000
H          13.03812300      4.72317900      7.63217400
H          12.30265500      3.85711300      8.69298700
O          10.65375900      3.97845100      5.67686400
H          11.36328800      3.76016400      5.07181600
H          11.08945100      4.05066600      6.54449100
          28
 Energy =    -1121.75051990 a.u.  Frame:     3 Step:     3 Geom:     3
C          14.38172400      8.62428000      9.43001900
C          14.79914800      9.92146300      9.74746100
C          14.48971900     10.95564000      8.86458600
C          13.77901600     10.67001000      7.70171300
C          13.39603200      9.34431100      7.45564500
N          13.69460300      8.34448300      8.30580600
H          14.80138500     11.97649400      9.08384700
H          14.59464600      7.77085100     10.08434300
H          15.35125000     10.11529800     10.66187500
H          13.52321500     11.45420200      6.99517700
H          12.83222600      9.06217800      6.55231600
P          12.26723600      5.63502100      6.15079100
O          11.75319700      6.89697500      5.60622800
O          13.42291300      5.06560500      5.21358100
H          13.75999900      4.18334100      5.62157600
O          12.87166000      5.67399400      7.61140900
H          13.15056900      6.67182000      7.84129100
O          11.27706800      4.39665300      6.20116500
H          10.47865400      4.61468300      6.84318300
O           9.39588500      7.01760500      3.92103800
H          10.21136200      7.09043400      4.45179400
H           9.54303900      6.23895900      3.38310500
O           7.60293800      6.57211800      5.95345200
H           8.19979500      6.69685300      5.18519800
H           7.50607100      7.44644500      6.32291700
O           8.90307000      4.81224000      7.63368500
H           8.36104700      4.03218100      7.54171000
H           8.45254900      5.48586500      7.08509800
          28
 Energy =    -1121.74383330 a.u.  Frame:     4 Step:     4 Geom:     4
C          13.63516200      8.97160900      7.38638500
C          12.84045200      9.21913600      8.51119000
C          12.67462800      8.20000600      9.44775600
C          13.31045800      6.97710200      9.24460300
C          14.07655300      6.80302800      8.08603600
N          14.23834600      7.78289200      7.17391700
H          12.03771600      8.35130900     10.31981700
H          13.78314800      9.72863000      6.60717100
H          12.34099600     10.17455800      8.63656200
H          13.19598400      6.16357800      9.95699000
H          14.56335500      5.84730600      7.85469700
P          11.82901700      6.97233100      4.97473400
O          11.50229100      8.14972100      5.78373100
O          11.19837800      7.08377300      3.51965700
H          11.46580100      6.23022000      2.99986000
O          13.36590800      6.68151500      4.70298000
H          13.95104900      7.18098000      5.42483000
O          11.24034900      5.58066400      5.46743700
H          11.75764600      5.25632400      6.30835600
O          10.11643800      8.28071300      8.35497700
H          10.69217500      8.26933500      7.56697000
H           9.23616500      8.36654300      7.98955800
O          10.65704700      5.89768100      9.64135500
H           9.78379800      5.57760400      9.84226700
H          10.51694000      6.76807300      9.21179800
O          12.37131900      4.59272800      7.86700900
H          12.14437200      3.67113100      7.95880300
H          11.80452800      5.06151600      8.51055800
          28
 Energy =    -1121.75098290 a.u.  Frame:     5 Step:     5 Geom:     5
C          12.29067600      9.20028800      9.50011500
C          12.88302100     10.37909100      9.96622700
C          13.93882100     10.92690700      9.23854400
C          14.36965000     10.29002500      8.07742600
C          13.72393100      9.11258600      7.67665900
N          12.70363800      8.58223800      8.37673500
H          14.42142600     11.84390700      9.57638500
H          11.45897700      8.72195700     10.03033500
H          12.52634300     10.85391400     10.87539300
H          15.19125800     10.69165100      7.49106100
H          14.02704100      8.56760900      6.76899700
P          12.63864200      5.44280000      6.38167600
O          13.07041300      6.40100000      5.36270700
O          13.91517000      4.81637800      7.09593800
H          13.60053500      4.05584200      7.71206500
O          11.70490000      6.02040900      7.53165700
H          12.06035500      6.96362600      7.83744300
O          11.83260800      4.16794100      5.89883800
H          10.80012100      4.37738300      5.93347500
O          11.30381000      7.65713400      3.37871700
H          11.93085200      7.13310100      3.90848400
H          11.33163900      8.52447400      3.78122300
O           8.83683600      6.50880000      3.81853700
H           9.70720200      6.93504900      3.68269100
H           8.65938600      6.05874100      2.99630400
O           9.09672400      4.75610000      5.95446700
H           9.01343400      5.33755400      6.71323800
H           8.96260600      5.34350400      5.18467000
          28
 Energy =    -1121.74759330 a.u.  Frame:     6 Step:     6 Geom:     6
C          14.63256800      7.38295000      7.28981800
C          14.84595600      6.87479700      8.57626300
C          14.09649300      7.39363400      9.63223600
C          13.15933700      8.39085500      9.37745200
C          13.01412000      8.85636600      8.06283600
N          13.74268900      8.36471200      7.04307800
H          14.24144600      7.02074700     10.64558400
H          15.16997200      6.99553600      6.41475400
H          15.58343500      6.09604800      8.74359600
H          12.52862300      8.79240000     10.16816900
H          12.28674500      9.63777400      7.80486700
P          11.59450900      7.04144500      4.81297700
O          10.47233200      7.43871900      5.66952500
O          11.09214500      6.53041000      3.39652300
H          11.93139300      6.28926500      2.84019300
O          12.65354600      8.15042100      4.42408900
H          13.12943400      8.48114300      5.31197900
O          12.49627900      5.83997900      5.35410300
H          12.26345000      5.63983100      6.33931200
O           8.99082200      5.83204400      7.77906200
H           9.03594100      6.18558400      6.88227800
H           9.79370600      5.30592300      7.85920300
O          10.60605500      7.80966000      8.64833600
H           9.75764800      7.39644500      8.88869800
H          10.52433400      7.92315000      7.68674100
O          11.95227200      5.44761900      8.16573700
H          12.75483400      5.37302200      8.67624400
H          11.55993400      6.30952500      8.42635200
          28
 Energy =    -1121.74285860 a.u.  Frame:     7 Step:     7 Geom:     7
C          12.87279200      9.21245600      7.64420900
C          11.94906700      9.22052800      8.69604100
C          12.11825500      8.31461000      9.74173900
C          13.21116300      7.44736800      9.72305500
C          14.09011900      7.50415300      8.63637600
N          13.92251500      8.36641800      7.61416100
H          11.39016300      8.27180100     10.55287500
H          12.77076400      9.87997200      6.77864600
H          11.09972100      9.89857800      8.68203100
H          13.37639000      6.74583500     10.53413200
H          14.95672900      6.83763700      8.55514700
P          12.46802700      6.52645100      5.08877600
O          11.55588900      7.53748500      5.64517600
O          12.35749400      6.46347600      3.50536400
H          13.03778500      5.75752700      3.17422600
O          14.01645100      6.70661200      5.37253500
H          14.17186000      7.57712600      5.94662900
O          12.18852800      5.01873700      5.49484700
H          12.06653900      4.96135200      6.53382600
O           8.63598200      6.91593300      6.04504700
H           9.45512500      7.29326100      5.69360200
H           8.59430000      6.04409500      5.65066500
O          10.12280500      7.18480000      8.34252800
H          10.61599400      7.49823300      7.56856100
H           9.24893900      6.98479000      7.96492000
O          11.74444100      4.95468900      8.29647100
H          12.51561300      5.26380700      8.76940400
H          11.08656400      5.67227800      8.40902000
          28
 Energy =    -1121.74613090 a.u.  Frame:     8 Step:     8 Geom:     8
C          13.86158700      8.46504900      8.39797500
C          14.32830900      9.61212500      7.74576900
C          13.39817300     10.50046800      7.20906500
C          12.03867500     10.23021500      7.34810900
C          11.65247600      9.06718000      8.02508400
N          12.54712700      8.19902800      8.53762600
H          13.73028300     11.39221200      6.67952700
H          14.54937900      7.71953700      8.81478900
H          15.39425100      9.79159600      7.64698000
H          11.28572700     10.88357800      6.91560400
H          10.59495800      8.80647000      8.15852500
P          12.72622500      5.29103400      6.64443900
O          13.05144400      6.45175500      5.81853200
O          14.04003800      4.63646900      7.25322000
H          13.78062900      3.73850200      7.68711400
O          11.75761100      5.59975100      7.87842200
H          12.12746900      6.41385500      8.43126600
O          11.99207700      4.05682800      5.97512800
H          11.01824000      4.34616600      5.70725300
O          10.94042000      8.54845300      5.47325500
H          11.72679300      7.98926000      5.59520700
H          10.70517200      8.42816100      4.55249900
O           9.21875000      6.94449100      7.01670900
H           9.70560200      7.59012400      6.47152900
H           9.91222400      6.53177600      7.54808700
O           9.29332300      4.75177200      5.36973900
H           8.70398800      4.11870000      5.77168400
H           9.15906900      5.57545100      5.88687000
          28
 Energy =    -1121.73142190 a.u.  Frame:     9 Step:     9 Geom:     9
C          12.85910400      8.48691200      9.67108600
C          13.98507400      7.68580300      9.88973900
C          14.90150000      7.52758000      8.84961500
C          14.68225800      8.18143700      7.64044800
C          13.54111100      8.98702500      7.51058200
N          12.64325600      9.12919900      8.50550200
H          15.77748700      6.89390700      8.98086400
H          12.08722300      8.62290500     10.43701600
H          14.14038900      7.20145900     10.84731900
H          15.35706300      8.05203400      6.79931000
H          13.31737700      9.53120100      6.58390600
P          11.83889900      6.67571800      5.14774700
O          10.97436100      5.49973000      5.18046800
O          12.78330400      6.66952600      3.87085100
H          13.26363400      7.58397200      3.83100300
O          11.15793100      8.10544500      5.07843600
H          10.68533900      8.31416600      5.99782100
O          12.88678000      6.82425900      6.35133300
H          12.43789600      6.58397300      7.24443400
O          10.38896200      4.01787900      7.67035700
H          10.31958800      4.47185600      6.81202000
H          11.02119100      3.31776200      7.50310600
O          11.48626200      6.24372500      8.86027700
H          11.00026600      5.45651500      8.53456600
H          12.02352800      5.92855500      9.58097200
O          10.17955400      8.68750800      7.63659600
H          10.83189000      9.36803000      7.91502500
H          10.45878800      7.91192900      8.13960600
