          44
 G =       -0.655350 Gcorr = 0.235726 a.u. Nimag =   0 Frame:     1 Step:     1 Geom:     1
C           7.74807200     11.52844500      9.25761400
C           8.69739700     11.68889400      8.25064900
C           9.34098700     10.57267200      7.70257100
C           8.99889300      9.28459000      8.14983400
C           8.06621900      9.16014200      9.19941200
H          10.13240800     10.70326500      6.95487100
H           7.25207800     12.39146000      9.71725500
H           8.96676300     12.69618500      7.91957600
H           7.86647700      8.17465700      9.66010300
C           9.63149100      8.06890400      7.58320800
H          10.41357200      8.29843400      6.84055600
H          10.17344600      7.49735000      8.37475100
H           8.91182800      7.38509100      7.11874200
N           7.45119100     10.26788500      9.72986900
C           6.46701500     10.10465900     10.84949100
H           5.46848000     10.43887700     10.48242900
H           6.37014200      9.01537100     11.08841300
C           6.84807700     10.88128900     12.12453200
H           7.37634400     11.83157900     11.86934000
H           5.90734800     11.19546100     12.62776300
C           7.69632900     10.08879100     13.10882100
H           7.21500300      9.12948200     13.38400000
H           7.76055000     10.63348700     14.07526400
S           9.32204600      9.80674900     12.45241200
O           9.12842200      8.69979800     11.42757200
O          10.23774400      9.43178900     13.51364400
O           9.66500500     11.06198100     11.69709600
P          12.15648200      9.56611500      9.82249400
O          13.10580800      9.79571900     10.94297900
O          12.79543400      9.23706700      8.38739000
H          13.62759100      8.48258700      8.45068200
O          11.27838800      8.18688400     10.05660700
H          10.40230300      8.23012400     10.65554800
O          11.05846500     10.72447400      9.55249300
H          10.61619200     11.15184700     10.45002600
O          13.10596500      6.41709100     10.92447000
H          12.20553900      6.62893700     10.60777100
H          13.19433100      6.95995700     11.77286600
O          14.59574900      7.58124700      9.13215500
H          15.08253900      8.15961000      9.73600000
H          14.04946300      6.96542800      9.77484300
O          12.99213400      8.13113600     13.00649200
H          13.31705400      8.95111800     12.56525400
H          12.09325300      8.35338900     13.30216800
          44
 G =       -0.673035 Gcorr = 0.252093 a.u. Nimag =   0 Frame:     2 Step:     2 Geom:     2
C           8.16743000     11.14404100      9.33946000
C           9.14171700     11.29121100      8.35457000
C           9.73196000     10.16707600      7.78025400
C           9.36600800      8.89439800      8.23688200
C           8.38098900      8.78687400      9.22503900
H          10.51425700     10.27696100      7.02109600
H           7.73426400     12.01444000      9.84868600
H           9.48701500     12.29342400      8.08406700
H           8.11381600      7.80865800      9.65035500
C          10.05030700      7.67180800      7.75460100
H          10.97016300      7.89989700      7.18371400
H          10.41754300      7.05494800      8.60366600
H           9.41333600      7.03581100      7.13111000
N           7.76799300      9.89969600      9.72505900
C           6.67350500      9.72346900     10.71042700
H           5.71394400      9.95438800     10.19147400
H           6.63051200      8.64639000     11.01231400
C           6.80039000     10.58540000     11.98092300
H           7.08423700     11.63214500     11.73047200
H           5.79003100     10.66943800     12.43795700
C           7.76583600     10.01023500     13.00729400
H           7.49748000      8.97720100     13.28790400
H           7.72013600     10.58978300     13.94871900
S           9.47163300     10.02893400     12.40386700
O           9.51220200      8.87182900     11.43341800
O          10.34453400      9.84098400     13.55725300
O           9.57650900     11.30079500     11.63982100
P          12.50041600     10.51416600      9.85902900
O          13.31770700     10.39360400     11.05920000
O          13.29497800     10.47568700      8.47176800
H          13.32983600      9.44707100      8.24256400
O          11.48550900      9.31368600      9.55282100
H          10.82294600      9.10790500     10.31727500
O          11.62900900     11.83384500      9.71349700
H          10.91784000     11.79258800     10.50186600
O          11.45182000      6.82512000     10.88449000
H          12.01289300      7.09253300     11.63833500
H          10.67597600      7.39351100     11.02604300
O          13.08461300      7.35533500      8.43012400
H          13.91709700      7.03535700      8.77073500
H          12.47540700      7.26137400      9.19485600
O          12.68652300      8.14651900     13.08904500
H          13.13926600      8.82010200     12.57088600
H          11.91044200      8.63137800     13.42708500
          44
 G =       -0.668977 Gcorr = 0.247688 a.u. Nimag =   0 Frame:     3 Step:     3 Geom:     3
C           7.86066300     11.36319100      9.42425400
C           8.77558200     11.61817700      8.40568100
C           9.33130300     10.56232200      7.68260100
C           8.96611700      9.24843000      8.00509300
C           8.05059800      9.03229900      9.03891000
H          10.07187300     10.75635700      6.89856100
H           7.45911500     12.17352200     10.04652000
H           9.10312700     12.64341600      8.22042100
H           7.79983500      8.01266600      9.36964000
C           9.57346100      8.08208900      7.31717900
H           9.90642800      7.31271400      8.04344300
H           8.88702000      7.60469500      6.60891800
H          10.49425700      8.35290100      6.76984600
N           7.47724800     10.08359500      9.69625600
C           6.44814400      9.80053400     10.72735300
H           5.45419700     10.03701600     10.28257000
H           6.45790700      8.70222600     10.95078600
C           6.62894600     10.57065200     12.04992400
H           6.91850200     11.62858400     11.86437800
H           5.63835600     10.63009600     12.55069200
C           7.62846200      9.91700800     12.99261300
H           7.31876400      8.89628500     13.27359700
H           7.69128100     10.47813900     13.94316900
S           9.28522800      9.83905000     12.25859400
O           9.17719900      8.71785900     11.26789600
O          10.21663200      9.60284100     13.35720500
O           9.40642500     11.12460200     11.50424700
P          12.19121900      9.92847000      9.62441600
O          13.03888700     10.19712500     10.78539300
O          12.95350700      9.80732600      8.22706400
H          13.58334800      8.96618000      8.35432000
O          11.41324100      8.53887700      9.61734700
H          10.60085200      8.54261600     10.27438200
O          11.10707300     11.04458500      9.28611000
H          10.57259900     11.23992000     10.18805200
O          13.84753700      6.46927000     11.44152000
H          13.36402100      7.13939300     11.96962300
H          14.41363600      6.04586200     12.07758000
O          14.74471600      7.57246000      8.88478200
H          14.33590600      7.12721600      9.65429300
H          15.46482300      8.06746400      9.27668400
O          12.86716800      8.45265600     13.20716100
H          13.10248900      9.12206900     12.55306700
H          11.94232400      8.69726900     13.40787800
          44
 G =       -0.669346 Gcorr = 0.246730 a.u. Nimag =   0 Frame:     4 Step:     4 Geom:     4
C           7.97070200     11.58407200      9.44399900
C           8.91722800     11.80288600      8.44474500
C           9.39647000     10.73396300      7.68866300
C           8.92898200      9.44067200      7.96220400
C           7.99289500      9.25984700      8.98337600
H          10.15912200     10.89666100      6.91895400
H           7.62208000     12.40281200     10.08763100
H           9.32564800     12.80571700      8.30119300
H           7.67112200      8.25176100      9.28626500
C           9.44985200      8.25731900      7.23375800
H          10.39359600      8.47583800      6.70220700
H           9.71426100      7.43675600      7.93083400
H           8.73417300      7.86317000      6.50308100
N           7.48991900     10.32938500      9.66855600
C           6.41773700     10.08942400     10.66628000
H           5.45179800     10.38653300     10.19644400
H           6.36057300      8.98863500     10.87215800
C           6.60115900     10.82879700     12.00514900
H           6.96704000     11.86733100     11.84760000
H           5.59952900     10.94837400     12.47244300
C           7.52011700     10.09540400     12.97014400
H           7.12717200      9.09775100     13.23038300
H           7.59252600     10.64144400     13.92935200
S           9.19011100      9.90109100     12.29190300
O           9.03924900      8.79785700     11.28772400
O          10.05986800      9.61327800     13.42509900
O           9.43051300     11.17777400     11.54366600
P          12.12295200      9.79542400      9.66161700
O          13.02270000      9.93213600     10.81254000
O          12.84072000      9.69541900      8.23977700
H          13.53335000      8.90565700      8.34040500
O          11.24924300      8.46713200      9.62869700
H          10.44127000      8.52498800     10.29536100
O          11.13475400     11.00845100      9.39603800
H          10.60028500     11.19732200     10.30764700
O          14.75268000      7.60349100     11.52748800
H          14.33604100      8.46196700     11.36070500
H          14.20505300      7.24696300     12.24019400
O          14.84249000      7.59915300      8.65625800
H          14.74044400      7.39317800      9.60670700
H          15.70900700      8.00046500      8.60829300
O          12.72394400      8.52423400     13.51488300
H          12.91790600      9.09520300     12.76869400
H          11.79373600      8.75428500     13.69090200
          44
 G =       -0.673054 Gcorr = 0.252073 a.u. Nimag =   0 Frame:     5 Step:     5 Geom:     5
C           8.29027500     11.16179700      9.21867100
C           9.30669900     11.28257900      8.27359900
C           9.91384400     10.14319300      7.74912000
C           9.52033400      8.88259200      8.21622500
C           8.49344900      8.80154000      9.16336000
H          10.72862600     10.23247300      7.02207800
H           7.84118700     12.04530700      9.69014100
H           9.66965900     12.27688100      7.99714800
H           8.20202000      7.83419600      9.59747600
C          10.21670900      7.64620800      7.78945200
H          10.54321400      7.04533900      8.66606900
H           9.60284500      7.00097900      7.15240200
H          11.16177400      7.85695500      7.25423200
N           7.86680500      9.92820300      9.61309800
C           6.73047600      9.77937900     10.55466600
H           5.79526300     10.00463200      9.99078000
H           6.66760400      8.70925900     10.87709200
C           6.80944400     10.66746600     11.81091700
H           7.11008800     11.70709200     11.55054300
H           5.78130100     10.76649000     12.22320200
C           7.72729900     10.10944700     12.88911000
H           7.44009800      9.08469300     13.18102100
H           7.64647500     10.71027800     13.81480600
S           9.45683500     10.10441000     12.35754200
O           9.53009700      8.92607100     11.41499900
O          10.27958700      9.93624600     13.55027500
O           9.60239600     11.35862500     11.57134700
P          12.59550500     10.51786900      9.93496200
O          13.36099500     10.41653800     11.17057200
O          13.44737200     10.44551900      8.58349600
H          13.48603700      9.41216000      8.37770600
O          11.58477500      9.31884500      9.61012200
H          10.89128000      9.13087300     10.35124900
O          11.74192500     11.84073500      9.72626600
H          10.99633400     11.81951900     10.48283200
O          11.47705200      6.85798800     10.99273700
H          10.69933900      7.43314100     11.08954000
H          12.00746800      7.13796500     11.76389600
O          13.21682300      7.32650400      8.60197500
H          12.57514500      7.25040300      9.34170400
H          14.03229900      7.00960200      8.98397800
O          12.62648600      8.21779300     13.21909400
H          13.10637000      8.87723200     12.70724300
H          11.84041300      8.71500900     13.51327400
          44
 G =       -0.669166 Gcorr = 0.248614 a.u. Nimag =   0 Frame:     6 Step:     6 Geom:     6
C           7.93152100     11.36125500      9.41883600
C           8.89234600     11.64484900      8.45163500
C           9.49532900     10.60840300      7.73753700
C           9.12739200      9.28554300      8.01666600
C           8.16363700      9.03974400      8.99815600
H          10.26932000     10.82535300      6.99254600
H           7.49036200     12.15495900     10.03609700
H           9.21678500     12.67687000      8.30118800
H           7.90425500      8.01158200      9.29388200
C           9.78037500      8.13698900      7.33921500
H           9.11438100      7.63277400      6.62879900
H          10.69150600      8.43634500      6.79267500
H          10.12539700      7.38404100      8.07544000
N           7.54670000     10.07264900      9.64544600
C           6.47163700      9.76160300     10.61966400
H           5.49903300     10.01996200     10.14066600
H           6.46451400      8.65687100     10.80600700
C           6.59993600     10.48640800     11.97353300
H           6.88572500     11.55254900     11.83400000
H           5.59180800     10.52060000     12.44097000
C           7.57165100      9.80822500     12.92752300
H           7.26688300      8.77228400     13.15392200
H           7.58664900     10.32974200     13.90277400
S           9.25773600      9.78397400     12.26172200
O           9.21960300      8.67930900     11.24474200
O          10.14950500      9.54908600     13.39180500
O           9.38039900     11.08475800     11.53370100
P          12.30032900      9.97276300      9.79687000
O          13.08410200     10.29057000     10.98511800
O          13.12541900      9.83293300      8.43912000
H          13.45081600      8.82398200      8.44215800
O          11.56609000      8.55147300      9.79162000
H          10.69459500      8.54103300     10.36362900
O          11.18987900     11.03883800      9.39627600
H          10.61238500     11.23276400     10.27068100
O          13.98347300      6.56368100     11.59954500
H          14.87062800      6.77666100     11.87808000
H          13.42553800      7.14049500     12.16411300
O          13.64472200      6.94984800      8.76305900
H          13.85754900      6.84240900      9.71425300
H          12.70179000      6.76287700      8.74940400
O          12.84093100      8.47064300     13.36715900
H          13.08656700      9.16211100     12.74169200
H          11.90082200      8.68020900     13.52808900
          44
 G =       -0.669197 Gcorr = 0.248583 a.u. Nimag =   0 Frame:     7 Step:     7 Geom:     7
C           7.81909500     11.27772800      9.36710000
C           8.74461900     11.55974800      8.36558800
C           9.41002800     10.52081000      7.71327900
C           9.14048200      9.19808400      8.08886700
C           8.20990100      8.95453500      9.10237300
H          10.15679000     10.73891400      6.94135000
H           7.33085500     12.07974000      9.93632500
H           8.99301700     12.59894300      8.13903100
H           8.02839900      7.93390400      9.47280900
C           9.86384800      8.05355300      7.47950600
H          10.27141000      7.37949300      8.25893300
H           9.22553100      7.45597600      6.81773800
H          10.74388200      8.37698400      6.89693700
N           7.52978400      9.98433400      9.68840900
C           6.49215100      9.66723700     10.70054600
H           5.49762100      9.82117600     10.22169700
H           6.56725700      8.58071200     10.96346300
C           6.58442700     10.49316200     11.99823800
H           6.79140500     11.56428900     11.78006500
H           5.58213100     10.48903500     12.47924300
C           7.61364300      9.95433900     12.98043300
H           7.38626200      8.91828800     13.28406700
H           7.60358900     10.54365200     13.91631200
S           9.28882300     10.00120600     12.28875300
O           9.31641700      8.82775900     11.35160900
O          10.20880400      9.90910600     13.41694300
O           9.31010000     11.25294700     11.47055500
P          12.27875800     10.22484800      9.76192100
O          13.05401200     10.67862900     10.91096400
O          13.09348700     10.04671500      8.40246100
H          13.48722500      9.06444300      8.46887500
O          11.64537600      8.75971000      9.86839300
H          10.78527800      8.72920800     10.45671900
O          11.09149500     11.18144500      9.30847900
H          10.51317300     11.39589200     10.17721900
O          14.22423700      7.08177900     11.76231800
H          13.63104100      7.65257700     12.29616900
H          15.09572300      7.38610600     12.00310200
O          13.81453200      7.23686600      8.91342100
H          14.04931800      7.21192500      9.86522600
H          12.88711100      6.98434900      8.93208800
O          12.96684000      9.01737600     13.41786700
H          13.15537200      9.67963300     12.74306100
H          12.01676700      9.17286100     13.58157100
          44
 G =       -0.655020 Gcorr = 0.236014 a.u. Nimag =   0 Frame:     8 Step:     8 Geom:     8
C           7.71387000     11.40446600      9.08730500
C           8.66526800     11.63805500      8.09617200
C           9.40250800     10.57513600      7.56126400
C           9.15978200      9.26585100      8.01162800
C           8.22781100      9.07078500      9.05066300
H          10.19055700     10.76511000      6.82288400
H           7.14041900     12.22608900      9.53278700
H           8.85912000     12.66310400      7.76653100
H           8.11071100      8.07680000      9.52241900
C           9.88639500      8.10044000      7.44962900
H          10.30700600      7.46099600      8.25595300
H           9.25001400      7.46906400      6.81778400
H          10.76787000      8.39793400      6.85359100
N           7.51192600     10.12595000      9.56048000
C           6.51021500      9.88425500     10.64978500
H           5.49979100     10.13556900     10.25030100
H           6.49424100      8.79060200     10.88875500
C           6.78666600     10.68983600     11.93329500
H           7.26249100     11.67162300     11.69384900
H           5.80833400     10.94399800     12.39686600
C           7.64473300      9.95637300     12.95341300
H           7.21746900      8.96825900     13.21432000
H           7.63524000     10.50602300     13.91941000
S           9.31176000      9.78298500     12.36472700
O           9.25465600      8.65681300     11.35614800
O          10.20119900      9.50234700     13.48036300
O           9.59470500     11.05911900     11.61488700
P          12.19789200      9.73374500      9.76030000
O          13.12222500      9.99896200     10.89588600
O          12.82535200      9.41935800      8.31569400
H          13.29843600      8.38929400      8.29195200
O          11.41927100      8.28186000      9.95030100
H          10.63563100      8.20441700     10.63952800
O          11.04888100     10.83851600      9.50800800
H          10.56282500     11.21621100     10.41159000
O          14.46344100      7.68758000     11.24377900
H          14.50284700      8.67418300     11.23002800
H          13.77385500      7.50598400     11.93187500
O          13.48506500      7.05408600      8.90861500
H          14.07465600      7.19932800      9.74844600
H          12.60273500      6.86010900      9.29318800
O          12.92240500      8.60415300     13.14662500
H          13.06810200      9.48562300     12.75318300
H          12.00164800      8.61902800     13.45580600
          44
 G =       -0.669189 Gcorr = 0.248591 a.u. Nimag =   0 Frame:     9 Step:     9 Geom:     9
C           7.77662500     11.17594600      9.33983100
C           8.67497000     11.39723800      8.29911100
C           9.33225800     10.32179300      7.69985100
C           9.08242900      9.02499600      8.16801800
C           8.17899900      8.84282000      9.21833000
H          10.05799800     10.49332300      6.89674600
H           7.29614300     12.01055000      9.86725200
H           8.90962300     12.42079100      7.99874300
H           8.01465300      7.84762900      9.65928500
C           9.79954200      7.84740700      7.61705000
H          10.23077800      7.22813600      8.42850900
H           9.15004400      7.20419600      7.01134300
H          10.66290600      8.13736400      6.99332000
N           7.50544200      9.90467100      9.75240700
C           6.49581400      9.64849800     10.80913500
H           5.48851700      9.76516800     10.34673400
H           6.58547500      8.58197100     11.14034100
C           6.61451900     10.55804000     12.04741100
H           6.80774300     11.61382300     11.75456800
H           5.62472700     10.57941000     12.55323900
C           7.67226900     10.09072900     13.03587400
H           7.46079700      9.07522400     13.41175300
H           7.68104500     10.73956000     13.93152600
S           9.32913400     10.10308900     12.29992800
O           9.34262500      8.87099400     11.44094600
O          10.27789300     10.09083400     13.40779900
O           9.31954100     11.29867600     11.40150800
P          12.25370500     10.17961000      9.68994100
O          13.05225700     10.71272100     10.78782500
O          13.03751000      9.91814800      8.32581600
H          13.43939500      8.94434200      8.44613600
O          11.63431000      8.72073000      9.90681800
H          10.78893800      8.72347700     10.51697800
O          11.04841800     11.09695400      9.20390600
H          10.49028500     11.36531700     10.07067400
O          14.26561800      7.17983100     11.84269200
H          15.14218200      7.49598800     12.04672200
H          13.68408500      7.78395300     12.35219700
O          13.79099300      7.15164500      9.00000100
H          14.04748400      7.18952300      9.94573800
H          12.86607000      6.89551900      9.05643500
O          13.04202100      9.21694900     13.39723100
H          12.09516800      9.37757000     13.57421900
H          13.20907100      9.83487000     12.67613000
          44
 G =       -0.671089 Gcorr = 0.250713 a.u. Nimag =   0 Frame:    10 Step:    10 Geom:    10
C           7.77363600     11.12864300      9.35010100
C           8.69917300     11.42602700      8.35265700
C           9.37335900     10.39772100      7.69348500
C           9.11547000      9.06956200      8.05868100
C           8.18536700      8.81156900      9.06961800
H          10.12190100     10.62749400      6.92675500
H           7.27766100     11.92295800      9.92328000
H           8.93877300     12.46905000      8.13419700
H           8.01373800      7.78675600      9.43366100
C           9.85016700      7.93760600      7.44117100
H           9.22834100      7.35725600      6.74966700
H          10.74811300      8.27159800      6.89114100
H          10.24355700      7.24376700      8.21142300
N           7.49745600      9.83116800      9.66378500
C           6.46170200      9.49627100     10.67249900
H           5.46682300      9.62523200     10.18701200
H           6.56040400      8.41238600     10.94076300
C           6.52698700     10.32924700     11.96725800
H           6.72637300     11.40142600     11.74771500
H           5.51794200     10.31748700     12.43406500
C           7.54703100      9.80531900     12.96753900
H           7.32054600      8.77063600     13.27785000
H           7.52100900     10.40283200     13.89798300
S           9.22794900      9.85493400     12.29545000
O           9.26013300      8.69113800     11.34334200
O          10.14067600      9.74493500     13.42665000
O           9.26197100     11.11346300     11.48765600
P          12.20122800     10.09756300      9.76432800
O          12.99116200     10.48016700     10.93098800
O          12.99666200      9.95248500      8.39057700
H          13.66328000      9.14810000      8.56397500
O          11.54763300      8.63747800      9.84553000
H          10.67157300      8.62126500     10.41750000
O          11.02861000     11.08154500      9.34093800
H          10.44609100     11.26761300     10.21948600
O          13.23103100      6.71078500     11.34898800
H          12.50148000      7.07507500     10.83503500
H          13.19936700      7.25935000     12.15878900
O          14.80465500      7.75469800      9.17839600
H          14.30278000      7.30352700      9.88896900
H          15.51941700      8.18522700      9.64675500
O          12.86044600      8.67828200     13.40642700
H          11.93088100      8.92104900     13.57801100
H          13.12747300      9.35933700     12.77992200
          44
 G =       -0.671076 Gcorr = 0.250726 a.u. Nimag =   0 Frame:    11 Step:    11 Geom:    11
C           7.95853900     11.39893500      9.27094000
C           8.96189500     11.72859300      8.36278000
C           9.65943000     10.72245600      7.69388500
C           9.34503200      9.38275700      7.95911400
C           8.33705300      9.09174800      8.88255000
H          10.46741400     10.97600000      6.99826900
H           7.43968900     12.17185700      9.85312000
H           9.24059900     12.77569100      8.22521700
H           8.11544100      8.05260000      9.17090700
C          10.09724400      8.26910000      7.32956400
H          10.42190400      7.52435600      8.08439600
H           9.51273000      7.74266100      6.56613500
H          11.03765500      8.61066400      6.86157000
N           7.63036000     10.09343100      9.48531200
C           6.51541200      9.72863500     10.39434600
H           5.56235600      9.91291800      9.84671500
H           6.56904000      8.62870200     10.60345200
C           6.50375100     10.48270400     11.73814700
H           6.74261300     11.56018400     11.59831100
H           5.46302600     10.47067800     12.12926800
C           7.43536300      9.87439600     12.77619700
H           7.16361700      8.82980600     13.00662200
H           7.35415100     10.41704800     13.73664600
S           9.16190600      9.91849800     12.23153800
O           9.23873400      8.81078400     11.21741100
O           9.98609400      9.72058900     13.41740300
O           9.28273000     11.21996800     11.50377000
P          12.31947100     10.22618400      9.94417900
O          13.02718200     10.52005000     11.18691900
O          13.21315300     10.13971100      8.62715500
H          13.84642300      9.30892000      8.80193200
O          11.63061600      8.78099400      9.89062700
H          10.71403800      8.75476500     10.39448400
O          11.20353800     11.26293300      9.49468100
H          10.56138300     11.41410800     10.33780400
O          13.15721600      6.72941200     11.39698600
H          12.47493900      7.14019500     10.85374300
H          13.07776300      7.23205400     12.23280500
O          14.90982900      7.85574100      9.41419300
H          14.34735300      7.37675800     10.05825200
H          15.59574300      8.24167700      9.95837100
O          12.67554500      8.58564900     13.53393100
H          11.74102600      8.84109400     13.65211300
H          13.00102000      9.29401900     12.96826000
          44
 G =       -0.654267 Gcorr = 0.236207 a.u. Nimag =   0 Frame:    12 Step:    12 Geom:    12
C           7.76550400     11.29315700      8.99565800
C           8.80156600     11.66539500      8.14329900
C           9.70753600     10.70621900      7.67093000
C           9.54162800      9.35891300      8.03349500
C           8.51168100      9.02204400      8.93409100
H          10.55935400     11.01004800      7.05024300
H           7.06266600     12.03226600      9.39808900
H           8.93158800     12.71922500      7.87967800
H           8.43094300      7.99643800      9.33931200
C          10.44987000      8.29690900      7.53148400
H          11.32213800      8.70400800      6.99119800
H          10.88746800      7.71608400      8.37163100
H           9.94506500      7.58757400      6.86380200
N           7.63625700      9.97763400      9.38996200
C           6.54790700      9.59054700     10.34561200
H           5.56779300      9.78999900      9.85247600
H           6.59668900      8.48667000     10.52100300
C           6.62102100     10.33169400     11.69406400
H           6.99240000     11.37588900     11.55461100
H           5.58407600     10.43915600     12.08152800
C           7.47380800      9.63408600     12.74307500
H           7.16679900      8.57958600     12.88660600
H           7.29745400     10.09363200     13.73927500
S           9.19844600      9.73027400     12.32306400
O           9.38614600      8.67043300     11.24802900
O          10.00627600      9.48044900     13.50472000
O           9.37376000     11.07112300     11.67160800
P          12.34999700     10.22267500     10.10299600
O          13.05986400     10.60456600     11.34141000
O          13.13982500     10.05379700      8.71039600
H          13.55162700      9.02611700      8.57975600
O          11.75791600      8.67165600     10.17657200
H          10.83102900      8.49663000     10.66351400
O          11.07092500     11.14891700      9.72054600
H          10.45983500     11.44752600     10.55663300
O          13.63184400      7.08698200     11.32348700
H          12.79349900      7.57141200     11.56026300
H          14.19776600      7.25510500     12.08563200