 Entering Gaussian System, Link 0=g16
 Initial command:
 /data0/home/software/g16/l1.exe "/data0/home/software/g16/scratch/Gau-278558.inp" -scrdir="/data0/home/software/g16/scratch/"
 Default is to use a total of  22 processors:
                               22 via shared-memory
                                1 via Linda
 Entering Link 1 = /data0/home/software/g16/l1.exe PID=    278559.
  
 Copyright (c) 1988,1990,1992,1993,1995,1998,2003,2009,2016,
            Gaussian, Inc.  All Rights Reserved.
  
 This is part of the Gaussian(R) 16 program.  It is based on
 the Gaussian(R) 09 system (copyright 2009, Gaussian, Inc.),
 the Gaussian(R) 03 system (copyright 2003, Gaussian, Inc.),
 the Gaussian(R) 98 system (copyright 1998, Gaussian, Inc.),
 the Gaussian(R) 94 system (copyright 1995, Gaussian, Inc.),
 the Gaussian 92(TM) system (copyright 1992, Gaussian, Inc.),
 the Gaussian 90(TM) system (copyright 1990, Gaussian, Inc.),
 the Gaussian 88(TM) system (copyright 1988, Gaussian, Inc.),
 the Gaussian 86(TM) system (copyright 1986, Carnegie Mellon
 University), and the Gaussian 82(TM) system (copyright 1983,
 Carnegie Mellon University). Gaussian is a federally registered
 trademark of Gaussian, Inc.
  
 This software contains proprietary and confidential information,
 including trade secrets, belonging to Gaussian, Inc.
  
 This software is provided under written license and may be
 used, copied, transmitted, or stored only in accord with that
 written license.
  
 The following legend is applicable only to US Government
 contracts under FAR:
  
                    RESTRICTED RIGHTS LEGEND
  
 Use, reproduction and disclosure by the US Government is
 subject to restrictions as set forth in subparagraphs (a)
 and (c) of the Commercial Computer Software - Restricted
 Rights clause in FAR 52.227-19.
  
 Gaussian, Inc.
 340 Quinnipiac St., Bldg. 40, Wallingford CT 06492
  
  
 ---------------------------------------------------------------
 Warning -- This program may not be used in any manner that
 competes with the business of Gaussian, Inc. or will provide
 assistance to any competitor of Gaussian, Inc.  The licensee
 of this program is prohibited from giving any competitor of
 Gaussian, Inc. access to this program.  By using this program,
 the user acknowledges that Gaussian, Inc. is engaged in the
 business of creating and licensing software in the field of
 computational chemistry and represents and warrants to the
 licensee that it is not a competitor of Gaussian, Inc. and that
 it will not use this program in any manner prohibited above.
 ---------------------------------------------------------------
  

 Cite this work as:
 Gaussian 16, Revision A.03,
 M. J. Frisch, G. W. Trucks, H. B. Schlegel, G. E. Scuseria, 
 M. A. Robb, J. R. Cheeseman, G. Scalmani, V. Barone, 
 G. A. Petersson, H. Nakatsuji, X. Li, M. Caricato, A. V. Marenich, 
 J. Bloino, B. G. Janesko, R. Gomperts, B. Mennucci, H. P. Hratchian, 
 J. V. Ortiz, A. F. Izmaylov, J. L. Sonnenberg, D. Williams-Young, 
 F. Ding, F. Lipparini, F. Egidi, J. Goings, B. Peng, A. Petrone, 
 T. Henderson, D. Ranasinghe, V. G. Zakrzewski, J. Gao, N. Rega, 
 G. Zheng, W. Liang, M. Hada, M. Ehara, K. Toyota, R. Fukuda, 
 J. Hasegawa, M. Ishida, T. Nakajima, Y. Honda, O. Kitao, H. Nakai, 
 T. Vreven, K. Throssell, J. A. Montgomery, Jr., J. E. Peralta, 
 F. Ogliaro, M. J. Bearpark, J. J. Heyd, E. N. Brothers, K. N. Kudin, 
 V. N. Staroverov, T. A. Keith, R. Kobayashi, J. Normand, 
 K. Raghavachari, A. P. Rendell, J. C. Burant, S. S. Iyengar, 
 J. Tomasi, M. Cossi, J. M. Millam, M. Klene, C. Adamo, R. Cammi, 
 J. W. Ochterski, R. L. Martin, K. Morokuma, O. Farkas, 
 J. B. Foresman, and D. J. Fox, Gaussian, Inc., Wallingford CT, 2016.
 
 ******************************************
 Gaussian 16:  ES64L-G16RevA.03 25-Dec-2016
                19-Feb-2023 
 ******************************************
 %nproc=24
 Will use up to   24 processors via shared memory.
 %mem=50GB
 ---------------------------------------------------
 #p M062X/6-311+G(2d,p) nosymm em=GD3 counterpoise=3
 ---------------------------------------------------
 1/38=1,62=3,172=1/1;
 2/12=2,15=1,17=6,18=5,40=1/2;
 1/38=1,53=2,62=3,63=1/22;
 3/5=4,6=6,7=112,11=2,25=1,30=1,74=-55,124=31/1,2,3;
 4//1;
 5/5=2,38=5/2;
 6/7=2,8=2,9=2,10=2,28=1/1;
 1/53=2,62=3,63=1/22;
 3/5=7,6=11,7=112,11=2,25=1,30=1,74=-55,82=7,124=31/1,2,3;
 4//1;
 5/5=2,38=5/2;
 6/7=2,8=2,9=2,10=2,28=1/1;
 1/53=2,62=3,63=1/22(-4);
 99/5=1,9=1/99;
 Leave Link    1 at Sun Feb 19 12:03:23 2023, MaxMem=  6710886400 cpu:               0.8 elap:               0.0
 (Enter /data0/home/software/g16/l101.exe)
 -------------------
 Title Card Required
 -------------------
 Symbolic Z-matrix:
 Charge =  0 Multiplicity = 1 in supermolecule
 Charge =  0 Multiplicity = 1 in fragment      1.
 Charge =  0 Multiplicity = 1 in fragment      2.
 Charge =  0 Multiplicity = 1 in fragment      3.
 O                     11.30381   7.65713   3.37872    
 H                     11.93085   7.1331    3.90848    
 H                     11.33164   8.52447   3.78122    
 O                     8.83684   6.5088    3.81854    
 H                     9.7072    6.93505   3.68269    
 H                     8.65939   6.05874   2.9963     
 O                     9.09672   4.7561    5.95447    
 H                     9.01343   5.33755   6.71324    
 H                     8.96261   5.3435    5.18467    
 
 ITRead=  0  0  0  0  0  0  0  0  0
 MicOpt= -1 -1 -1 -1 -1 -1 -1 -1 -1
 NAtoms=      9 NQM=        9 NQMF=       0 NMMI=      0 NMMIF=      0
                NMic=       0 NMicF=      0.
                    Isotopes and Nuclear Properties:
 (Nuclear quadrupole moments (NQMom) in fm**2, nuclear magnetic moments (NMagM)
  in nuclear magnetons)

  Atom         1           2           3           4           5           6           7           8           9
 IAtWgt=          16           1           1          16           1           1          16           1           1
 AtmWgt=  15.9949146   1.0078250   1.0078250  15.9949146   1.0078250   1.0078250  15.9949146   1.0078250   1.0078250
 NucSpn=           0           1           1           0           1           1           0           1           1
 AtZEff=  -0.0000000  -0.0000000  -0.0000000  -0.0000000  -0.0000000  -0.0000000  -0.0000000  -0.0000000  -0.0000000
 NQMom=    0.0000000   0.0000000   0.0000000   0.0000000   0.0000000   0.0000000   0.0000000   0.0000000   0.0000000
 NMagM=    0.0000000   2.7928460   2.7928460   0.0000000   2.7928460   2.7928460   0.0000000   2.7928460   2.7928460
 AtZNuc=   8.0000000   1.0000000   1.0000000   8.0000000   1.0000000   1.0000000   8.0000000   1.0000000   1.0000000
 Leave Link  101 at Sun Feb 19 12:03:23 2023, MaxMem=  6710886400 cpu:               2.0 elap:               0.1
 (Enter /data0/home/software/g16/l202.exe)
                          Input orientation:                          
 ---------------------------------------------------------------------
 Center     Atomic      Atomic             Coordinates (Angstroms)
 Number     Number       Type             X           Y           Z
 ---------------------------------------------------------------------
      1          8           0       11.303810    7.657134    3.378717
      2          1           0       11.930852    7.133101    3.908484
      3          1           0       11.331639    8.524474    3.781223
      4          8           0        8.836836    6.508800    3.818537
      5          1           0        9.707202    6.935049    3.682691
      6          1           0        8.659386    6.058741    2.996304
      7          8           0        9.096724    4.756100    5.954467
      8          1           0        9.013434    5.337554    6.713238
      9          1           0        8.962606    5.343504    5.184670
 ---------------------------------------------------------------------
                    Distance matrix (angstroms):
                    1          2          3          4          5
     1  O    0.000000
     2  H    0.973882   0.000000
     3  H    0.956590   1.520253   0.000000
     4  O    2.756460   3.157654   3.207550   0.000000
     5  H    1.778472   2.243842   2.274813   0.978611   0.000000
     6  H    3.113531   3.562136   3.719795   0.953996   1.528712
     7  O    4.463375   4.227110   4.890652   2.775193   3.206473
     8  H    4.663186   4.427410   4.911949   3.127667   3.495357
     9  H    3.754409   3.693480   4.207202   1.800015   2.311575
                    6          7          8          9
     6  H    0.000000
     7  O    3.261728   0.000000
     8  H    3.802770   0.959562   0.000000
     9  H    2.322165   0.977557   1.529424   0.000000
 Symmetry turned off by external request.
 Stoichiometry    H6O3
 Framework group  C1[X(H6O3)]
 Deg. of freedom    21
 Full point group                 C1      NOp   1
 Rotational constants (GHZ):          13.7997990           2.8056946           2.3799619
 Leave Link  202 at Sun Feb 19 12:03:23 2023, MaxMem=  6710886400 cpu:               0.1 elap:               0.0
 (Enter /data0/home/software/g16/l122.exe)
 Counterpoise: doing full-system calculation.
 Leave Link  122 at Sun Feb 19 12:03:23 2023, MaxMem=  6710886400 cpu:               0.0 elap:               0.0
 (Enter /data0/home/software/g16/l301.exe)
 Standard basis: 6-311+G(2d,p) (5D, 7F)
 Ernie: Thresh=  0.10000D-02 Tol=  0.10000D-05 Strict=F.
   117 basis functions,   174 primitive gaussians,   123 cartesian basis functions
    15 alpha electrons       15 beta electrons
       nuclear repulsion energy        78.0262600402 Hartrees.
 IExCor= 4336 DFT=T Ex+Corr=M062X ExCW=0 ScaHFX=  0.540000
 ScaDFX=  1.000000  1.000000  1.000000  1.000000 ScalE2=  1.000000  1.000000
 IRadAn=      5 IRanWt=     -1 IRanGd=            0 ICorTp=0 IEmpDi=131
 NAtoms=    9 NActive=    9 NUniq=    9 SFac= 1.00D+00 NAtFMM=   60 NAOKFM=F Big=F
 Integral buffers will be    131072 words long.
 Raffenetti 2 integral format.
 Two-electron integral symmetry is turned off.
 R6Disp:  Grimme-D3 Dispersion energy=       -0.0001351513 Hartrees.
 Nuclear repulsion after empirical dispersion term =       78.0261248889 Hartrees.
 Leave Link  301 at Sun Feb 19 12:03:23 2023, MaxMem=  6710886400 cpu:               1.1 elap:               0.1
 (Enter /data0/home/software/g16/l302.exe)
 NPDir=0 NMtPBC=     1 NCelOv=     1 NCel=       1 NClECP=     1 NCelD=      1
         NCelK=      1 NCelE2=     1 NClLst=     1 CellRange=     0.0.
 One-electron integrals computed using PRISM.
 NBasis=   117 RedAO= T EigKep=  9.14D-04  NBF=   117
 NBsUse=   117 1.00D-06 EigRej= -1.00D+00 NBFU=   117
 Precomputing XC quadrature grid using
 IXCGrd= 4 IRadAn=           5 IRanWt=          -1 IRanGd=           0 AccXCQ= 0.00D+00.
 Generated NRdTot=       0 NPtTot=           0 NUsed=           0 NTot=          32
 NSgBfM=   123   123   123   123   123 MxSgAt=     9 MxSgA2=     9.
 Leave Link  302 at Sun Feb 19 12:03:23 2023, MaxMem=  6710886400 cpu:               2.6 elap:               0.1
 (Enter /data0/home/software/g16/l303.exe)
 DipDrv:  MaxL=1.
 Leave Link  303 at Sun Feb 19 12:03:23 2023, MaxMem=  6710886400 cpu:               0.5 elap:               0.0
 (Enter /data0/home/software/g16/l401.exe)
 ExpMin= 8.45D-02 ExpMax= 8.59D+03 ExpMxC= 1.30D+03 IAcc=3 IRadAn=         5 AccDes= 0.00D+00
 Harris functional with IExCor= 1009 and IRadAn=       5 diagonalized for initial guess.
 HarFok:  IExCor= 1009 AccDes= 0.00D+00 IRadAn=         5 IDoV= 1 UseB2=F ITyADJ=14
 ICtDFT=  3500011 ScaDFX=  1.000000  1.000000  1.000000  1.000000
 FoFCou: FMM=F IPFlag=           0 FMFlag=      100000 FMFlg1=           0
         NFxFlg=           0 DoJE=T BraDBF=F KetDBF=T FulRan=T
         wScrn=  0.000000 ICntrl=       500 IOpCl=  0 I1Cent=   200000004 NGrid=           0
         NMat0=    1 NMatS0=      1 NMatT0=    0 NMatD0=    1 NMtDS0=    0 NMtDT0=    0
 Symmetry not used in FoFCou.
 Harris En= -229.257005968808    
 JPrj=0 DoOrth=F DoCkMO=F.
 Leave Link  401 at Sun Feb 19 12:03:23 2023, MaxMem=  6710886400 cpu:               4.9 elap:               0.2
 (Enter /data0/home/software/g16/l502.exe)
 Keep R1 ints in memory in canonical form, NReq=46556122.
 FoFCou: FMM=F IPFlag=           0 FMFlag=           0 FMFlg1=           0
         NFxFlg=           0 DoJE=F BraDBF=F KetDBF=F FulRan=T
         wScrn=  0.000000 ICntrl=       600 IOpCl=  0 I1Cent=           0 NGrid=           0
         NMat0=    1 NMatS0=   6903 NMatT0=    0 NMatD0=    1 NMtDS0=    0 NMtDT0=    0
 Symmetry not used in FoFCou.
 Two-electron integral symmetry not used.
 Closed shell SCF:
 Using DIIS extrapolation, IDIIS=  1040.
 NGot=  6710886400 LenX=  6687023004 LenY=  6687007434
 Requested convergence on RMS density matrix=1.00D-08 within 128 cycles.
 Requested convergence on MAX density matrix=1.00D-06.
 Requested convergence on             energy=1.00D-06.
 No special actions if energy rises.
 Integral accuracy reduced to 1.0D-05 until final iterations.

 Cycle   1  Pass 0  IDiag  1:
 E= -229.084156107616    
 DIIS: error= 4.88D-02 at cycle   1 NSaved=   1.
 NSaved= 1 IEnMin= 1 EnMin= -229.084156107616     IErMin= 1 ErrMin= 4.88D-02
 ErrMax= 4.88D-02  0.00D+00 EMaxC= 1.00D-01 BMatC= 3.33D-01 BMatP= 3.33D-01
 IDIUse=3 WtCom= 5.12D-01 WtEn= 4.88D-01
 Coeff-Com:  0.100D+01
 Coeff-En:   0.100D+01
 Coeff:      0.100D+01
 Gap=     0.249 Goal=   None    Shift=    0.000
 GapD=    0.249 DampG=1.000 DampE=0.500 DampFc=0.5000 IDamp=-1.
 Damping current iteration by 5.00D-01
 RMSDP=6.34D-03 MaxDP=1.11D-01              OVMax= 1.85D-01

 Cycle   2  Pass 0  IDiag  1:
 E= -229.172819227064     Delta-E=       -0.088663119448 Rises=F Damp=T
 DIIS: error= 1.07D-02 at cycle   2 NSaved=   2.
 NSaved= 2 IEnMin= 2 EnMin= -229.172819227064     IErMin= 2 ErrMin= 1.07D-02
 ErrMax= 1.07D-02  0.00D+00 EMaxC= 1.00D-01 BMatC= 1.21D-02 BMatP= 3.33D-01
 IDIUse=3 WtCom= 8.93D-01 WtEn= 1.07D-01
 Coeff-Com:  0.530D-01 0.947D+00
 Coeff-En:   0.142D+00 0.858D+00
 Coeff:      0.626D-01 0.937D+00
 Gap=     0.383 Goal=   None    Shift=    0.000
 RMSDP=8.69D-04 MaxDP=2.34D-02 DE=-8.87D-02 OVMax= 1.09D-01

 Cycle   3  Pass 0  IDiag  1:
 E= -229.285613613436     Delta-E=       -0.112794386372 Rises=F Damp=F
 DIIS: error= 2.60D-03 at cycle   3 NSaved=   3.
 NSaved= 3 IEnMin= 3 EnMin= -229.285613613436     IErMin= 3 ErrMin= 2.60D-03
 ErrMax= 2.60D-03  0.00D+00 EMaxC= 1.00D-01 BMatC= 4.71D-04 BMatP= 1.21D-02
 IDIUse=3 WtCom= 9.74D-01 WtEn= 2.60D-02
 Coeff-Com: -0.252D-01 0.627D-01 0.962D+00
 Coeff-En:   0.000D+00 0.000D+00 0.100D+01
 Coeff:     -0.246D-01 0.611D-01 0.963D+00
 Gap=     0.381 Goal=   None    Shift=    0.000
 RMSDP=1.35D-04 MaxDP=3.57D-03 DE=-1.13D-01 OVMax= 6.26D-03

 Cycle   4  Pass 0  IDiag  1:
 E= -229.285862089580     Delta-E=       -0.000248476144 Rises=F Damp=F
 DIIS: error= 1.36D-03 at cycle   4 NSaved=   4.
 NSaved= 4 IEnMin= 4 EnMin= -229.285862089580     IErMin= 4 ErrMin= 1.36D-03
 ErrMax= 1.36D-03  0.00D+00 EMaxC= 1.00D-01 BMatC= 1.82D-04 BMatP= 4.71D-04
 IDIUse=3 WtCom= 9.86D-01 WtEn= 1.36D-02
 Coeff-Com: -0.130D-01 0.180D-01 0.499D+00 0.496D+00
 Coeff-En:   0.000D+00 0.000D+00 0.139D+00 0.861D+00
 Coeff:     -0.129D-01 0.178D-01 0.494D+00 0.501D+00
 Gap=     0.386 Goal=   None    Shift=    0.000
 RMSDP=6.37D-05 MaxDP=1.81D-03 DE=-2.48D-04 OVMax= 2.54D-03

 Cycle   5  Pass 0  IDiag  1:
 E= -229.285977785561     Delta-E=       -0.000115695982 Rises=F Damp=F
 DIIS: error= 1.54D-04 at cycle   5 NSaved=   5.
 NSaved= 5 IEnMin= 5 EnMin= -229.285977785561     IErMin= 5 ErrMin= 1.54D-04
 ErrMax= 1.54D-04  0.00D+00 EMaxC= 1.00D-01 BMatC= 2.57D-06 BMatP= 1.82D-04
 IDIUse=3 WtCom= 9.98D-01 WtEn= 1.54D-03
 Coeff-Com:  0.719D-03-0.313D-02-0.344D-02 0.745D-01 0.931D+00
 Coeff-En:   0.000D+00 0.000D+00 0.000D+00 0.000D+00 0.100D+01
 Coeff:      0.718D-03-0.313D-02-0.343D-02 0.744D-01 0.931D+00
 Gap=     0.386 Goal=   None    Shift=    0.000
 RMSDP=1.22D-05 MaxDP=2.82D-04 DE=-1.16D-04 OVMax= 5.97D-04

 Cycle   6  Pass 0  IDiag  1:
 E= -229.285980109903     Delta-E=       -0.000002324342 Rises=F Damp=F
 DIIS: error= 3.49D-05 at cycle   6 NSaved=   6.
 NSaved= 6 IEnMin= 6 EnMin= -229.285980109903     IErMin= 6 ErrMin= 3.49D-05
 ErrMax= 3.49D-05  0.00D+00 EMaxC= 1.00D-01 BMatC= 9.94D-08 BMatP= 2.57D-06
 IDIUse=1 WtCom= 1.00D+00 WtEn= 0.00D+00
 Coeff-Com:  0.769D-03-0.119D-02-0.257D-01-0.212D-01 0.102D+00 0.945D+00
 Coeff:      0.769D-03-0.119D-02-0.257D-01-0.212D-01 0.102D+00 0.945D+00
 Gap=     0.386 Goal=   None    Shift=    0.000
 RMSDP=4.68D-06 MaxDP=1.03D-04 DE=-2.32D-06 OVMax= 1.42D-04

 Initial convergence to 1.0D-05 achieved.  Increase integral accuracy.
 Cycle   7  Pass 1  IDiag  1:
 E= -229.285963859755     Delta-E=        0.000016250149 Rises=F Damp=F
 DIIS: error= 1.73D-05 at cycle   1 NSaved=   1.
 NSaved= 1 IEnMin= 1 EnMin= -229.285963859755     IErMin= 1 ErrMin= 1.73D-05
 ErrMax= 1.73D-05  0.00D+00 EMaxC= 1.00D-01 BMatC= 6.72D-08 BMatP= 6.72D-08
 IDIUse=1 WtCom= 1.00D+00 WtEn= 0.00D+00
 Coeff-Com:  0.100D+01
 Coeff:      0.100D+01
 Gap=     0.386 Goal=   None    Shift=    0.000
 RMSDP=4.68D-06 MaxDP=1.03D-04 DE= 1.63D-05 OVMax= 7.66D-05

 Cycle   8  Pass 1  IDiag  1:
 E= -229.285963892046     Delta-E=       -0.000000032292 Rises=F Damp=F
 DIIS: error= 1.91D-05 at cycle   2 NSaved=   2.
 NSaved= 2 IEnMin= 2 EnMin= -229.285963892046     IErMin= 1 ErrMin= 1.73D-05
 ErrMax= 1.91D-05  0.00D+00 EMaxC= 1.00D-01 BMatC= 3.30D-08 BMatP= 6.72D-08
 IDIUse=1 WtCom= 1.00D+00 WtEn= 0.00D+00
 Coeff-Com:  0.382D+00 0.618D+00
 Coeff:      0.382D+00 0.618D+00
 Gap=     0.386 Goal=   None    Shift=    0.000
 RMSDP=1.06D-06 MaxDP=3.70D-05 DE=-3.23D-08 OVMax= 4.40D-05

 Cycle   9  Pass 1  IDiag  1:
 E= -229.285963910676     Delta-E=       -0.000000018629 Rises=F Damp=F
 DIIS: error= 6.13D-06 at cycle   3 NSaved=   3.
 NSaved= 3 IEnMin= 3 EnMin= -229.285963910676     IErMin= 3 ErrMin= 6.13D-06
 ErrMax= 6.13D-06  0.00D+00 EMaxC= 1.00D-01 BMatC= 4.33D-09 BMatP= 3.30D-08
 IDIUse=1 WtCom= 1.00D+00 WtEn= 0.00D+00
 Coeff-Com: -0.518D-01 0.245D+00 0.807D+00
 Coeff:     -0.518D-01 0.245D+00 0.807D+00
 Gap=     0.386 Goal=   None    Shift=    0.000
 RMSDP=4.97D-07 MaxDP=1.26D-05 DE=-1.86D-08 OVMax= 1.39D-05

 Cycle  10  Pass 1  IDiag  1:
 E= -229.285963913651     Delta-E=       -0.000000002975 Rises=F Damp=F
 DIIS: error= 3.01D-07 at cycle   4 NSaved=   4.
 NSaved= 4 IEnMin= 4 EnMin= -229.285963913651     IErMin= 4 ErrMin= 3.01D-07
 ErrMax= 3.01D-07  0.00D+00 EMaxC= 1.00D-01 BMatC= 1.79D-11 BMatP= 4.33D-09
 IDIUse=1 WtCom= 1.00D+00 WtEn= 0.00D+00
 Coeff-Com: -0.387D-02-0.237D-02 0.156D-01 0.991D+00
 Coeff:     -0.387D-02-0.237D-02 0.156D-01 0.991D+00
 Gap=     0.386 Goal=   None    Shift=    0.000
 RMSDP=5.77D-08 MaxDP=1.37D-06 DE=-2.98D-09 OVMax= 1.85D-06

 Cycle  11  Pass 1  IDiag  1:
 E= -229.285963913670     Delta-E=       -0.000000000019 Rises=F Damp=F
 DIIS: error= 4.30D-07 at cycle   5 NSaved=   5.
 NSaved= 5 IEnMin= 5 EnMin= -229.285963913670     IErMin= 4 ErrMin= 3.01D-07
 ErrMax= 4.30D-07  0.00D+00 EMaxC= 1.00D-01 BMatC= 1.29D-11 BMatP= 1.79D-11
 IDIUse=1 WtCom= 1.00D+00 WtEn= 0.00D+00
 Coeff-Com:  0.358D-02-0.287D-01-0.816D-01 0.512D+00 0.595D+00
 Coeff:      0.358D-02-0.287D-01-0.816D-01 0.512D+00 0.595D+00
 Gap=     0.386 Goal=   None    Shift=    0.000
 RMSDP=2.89D-08 MaxDP=6.95D-07 DE=-1.92D-11 OVMax= 1.20D-06

 Cycle  12  Pass 1  IDiag  1:
 E= -229.285963913681     Delta-E=       -0.000000000011 Rises=F Damp=F
 DIIS: error= 5.30D-08 at cycle   6 NSaved=   6.
 NSaved= 6 IEnMin= 6 EnMin= -229.285963913681     IErMin= 6 ErrMin= 5.30D-08
 ErrMax= 5.30D-08  0.00D+00 EMaxC= 1.00D-01 BMatC= 2.69D-13 BMatP= 1.29D-11
 IDIUse=1 WtCom= 1.00D+00 WtEn= 0.00D+00
 Coeff-Com:  0.114D-02-0.616D-02-0.198D-01 0.101D-01 0.119D+00 0.895D+00
 Coeff:      0.114D-02-0.616D-02-0.198D-01 0.101D-01 0.119D+00 0.895D+00
 Gap=     0.386 Goal=   None    Shift=    0.000
 RMSDP=6.25D-09 MaxDP=1.18D-07 DE=-1.07D-11 OVMax= 1.80D-07

 SCF Done:  E(RM062X) =  -229.285963914     A.U. after   12 cycles
            NFock= 12  Conv=0.62D-08     -V/T= 2.0028
 KE= 2.286561474157D+02 PE=-6.986121554572D+02 EE= 1.626439192390D+02
 Leave Link  502 at Sun Feb 19 12:03:26 2023, MaxMem=  6710886400 cpu:              46.3 elap:               2.3
 (Enter /data0/home/software/g16/l601.exe)
 Copying SCF densities to generalized density rwf, IOpCl= 0 IROHF=0.

 **********************************************************************

            Population analysis using the SCF density.

 **********************************************************************

 Alpha  occ. eigenvalues --  -19.67046 -19.62105 -19.58133  -1.18167  -1.13454
 Alpha  occ. eigenvalues --   -1.09059  -0.65087  -0.61555  -0.57425  -0.52841
 Alpha  occ. eigenvalues --   -0.48404  -0.44527  -0.43156  -0.39696  -0.36065
 Alpha virt. eigenvalues --    0.02528   0.07708   0.10184   0.10831   0.14172
 Alpha virt. eigenvalues --    0.14783   0.15317   0.17905   0.18578   0.20256
 Alpha virt. eigenvalues --    0.21289   0.23191   0.24037   0.25580   0.28598
 Alpha virt. eigenvalues --    0.31670   0.35098   0.37416   0.48620   0.50580
 Alpha virt. eigenvalues --    0.53563   0.56202   0.63279   0.65676   0.92364
 Alpha virt. eigenvalues --    0.94485   1.00083   1.02909   1.05369   1.05972
 Alpha virt. eigenvalues --    1.09375   1.10397   1.10487   1.15318   1.16282
 Alpha virt. eigenvalues --    1.20447   1.21583   1.25490   1.27653   1.32646
 Alpha virt. eigenvalues --    1.35203   1.37106   1.38276   1.45374   1.50677
 Alpha virt. eigenvalues --    1.65973   1.69620   1.70292   1.72498   1.76594
 Alpha virt. eigenvalues --    1.77204   1.81438   1.95179   2.05567   2.08171
 Alpha virt. eigenvalues --    2.09168   2.12390   2.14874   2.17948   2.26439
 Alpha virt. eigenvalues --    2.37116   2.40964   2.45278   2.47706   2.52645
 Alpha virt. eigenvalues --    2.53827   2.56076   2.63129   2.65043   2.83629
 Alpha virt. eigenvalues --    2.92258   2.99031   3.01790   3.10223   3.14230
 Alpha virt. eigenvalues --    5.08037   5.10530   5.13030   5.48323   5.52362
 Alpha virt. eigenvalues --    5.55250   5.88785   5.95948   5.98284   6.75608
 Alpha virt. eigenvalues --    6.77393   6.80840   6.82383   6.83358   6.86094
 Alpha virt. eigenvalues --    6.86809   6.89890   6.92447   6.95151   6.96838
 Alpha virt. eigenvalues --    7.02332   7.05123   7.16871   7.22125  49.94183
 Alpha virt. eigenvalues --   50.01261  50.04871
          Condensed to atoms (all electrons):
               1          2          3          4          5          6
     1  O    8.028799   0.321255   0.317575   0.002200  -0.058821   0.003345
     2  H    0.321255   0.389185  -0.021228  -0.000567   0.002524   0.000189
     3  H    0.317575  -0.021228   0.397157  -0.000170   0.004945   0.000475
     4  O    0.002200  -0.000567  -0.000170   8.250949   0.253723   0.282485
     5  H   -0.058821   0.002524   0.004945   0.253723   0.370618  -0.011559
     6  H    0.003345   0.000189   0.000475   0.282485  -0.011559   0.427098
     7  O   -0.000874   0.000175  -0.000021   0.002285  -0.002265   0.000463
     8  H   -0.000042  -0.000034   0.000022   0.001642   0.000510   0.000866
     9  H   -0.000186   0.000021   0.000001  -0.065367   0.007556   0.008363
               7          8          9
     1  O   -0.000874  -0.000042  -0.000186
     2  H    0.000175  -0.000034   0.000021
     3  H   -0.000021   0.000022   0.000001
     4  O    0.002285   0.001642  -0.065367
     5  H   -0.002265   0.000510   0.007556
     6  H    0.000463   0.000866   0.008363
     7  O    8.101718   0.294034   0.275075
     8  H    0.294034   0.459450  -0.017527
     9  H    0.275075  -0.017527   0.372886
 Mulliken charges:
               1
     1  O   -0.613251
     2  H    0.308478
     3  H    0.301243
     4  O   -0.727181
     5  H    0.432769
     6  H    0.288274
     7  O   -0.670590
     8  H    0.261078
     9  H    0.419179
 Sum of Mulliken charges =  -0.00000
 Mulliken charges with hydrogens summed into heavy atoms:
               1
     1  O   -0.003530
     4  O   -0.006138
     7  O    0.009667
         Mulliken charges condensed to fragments:
      1     -0.003530
      2     -0.006138
      3      0.009667
 Electronic spatial extent (au):  <R**2>=          17050.9598
 Charge=             -0.0000 electrons
 Dipole moment (field-independent basis, Debye):
    X=              2.5665    Y=              3.3809    Z=             -0.7669  Tot=              4.3134
 Quadrupole moment (field-independent basis, Debye-Ang):
   XX=             32.6948   YY=             20.3819   ZZ=            -25.5980
   XY=             51.6757   XZ=              6.4805   YZ=             16.0731
 Traceless Quadrupole moment (field-independent basis, Debye-Ang):
   XX=             23.5352   YY=             11.2224   ZZ=            -34.7576
   XY=             51.6757   XZ=              6.4805   YZ=             16.0731
 Octapole moment (field-independent basis, Debye-Ang**2):
  XXX=            237.9950  YYY=              8.2980  ZZZ=           -284.6803  XYY=            343.9406
  XXY=            581.2445  XXZ=            123.4489  XZZ=           -186.0830  YZZ=            -43.5089
  YYZ=            125.1165  XYZ=            254.5097
 Hexadecapole moment (field-independent basis, Debye-Ang**3):
 XXXX=             -0.5146 YYYY=          -1440.7234 ZZZZ=          -2443.3283 XXXY=           5431.4883
 XXXZ=           1159.7110 YYYX=           1191.4438 YYYZ=            464.8294 ZZZX=          -2484.1841
 ZZZY=          -1080.6316 XXYY=           4079.0939 XXZZ=          -1590.3449 YYZZ=           -130.1134
 XXYZ=           3011.2908 YYXZ=           1968.6380 ZZXY=            -13.7111
 N-N= 7.802612488885D+01 E-N=-6.986121558935D+02  KE= 2.286561474157D+02
 No NMR shielding tensors so no spin-rotation constants.
 Leave Link  601 at Sun Feb 19 12:03:26 2023, MaxMem=  6710886400 cpu:               1.8 elap:               0.1
 (Enter /data0/home/software/g16/l122.exe)
 CPIOFr:  IOpCl= 0 IRwI=-1 IRwCP=  731 ICalc= -1 LCPTot=       22668 Len1MO=       57607 IndFrg=       22668
 CPIOFr:  IOpCl= 0 IRwI=-1 IRwCP=  731 ICalc=  0 LCPTot=       22668 Len1MO=       57607 IndFrg=       80275
 Counterpoise: doing calculation for fragment   1 using the basis set of the full-system, NewBq=T
 Leave Link  122 at Sun Feb 19 12:03:26 2023, MaxMem=  6710886400 cpu:               0.1 elap:               0.0
 (Enter /data0/home/software/g16/l301.exe)
 Basis read from rwf:  (5D, 7F)
 No pseudopotential information found on rwf file.
   117 basis functions,   174 primitive gaussians,   123 cartesian basis functions
     5 alpha electrons        5 beta electrons
       nuclear repulsion energy         9.1205685883 Hartrees.
 IExCor= 4336 DFT=T Ex+Corr=M062X ExCW=0 ScaHFX=  0.540000
 ScaDFX=  1.000000  1.000000  1.000000  1.000000 ScalE2=  1.000000  1.000000
 IRadAn=      5 IRanWt=     -1 IRanGd=            0 ICorTp=0 IEmpDi=131
 NAtoms=    9 NActive=    9 NUniq=    9 SFac= 1.00D+00 NAtFMM=   60 NAOKFM=F Big=F
 Integral buffers will be    131072 words long.
 Raffenetti 2 integral format.
 Two-electron integral symmetry is turned off.
 R6Disp:  Grimme-D3 Dispersion energy=       -0.0000000075 Hartrees.
 Nuclear repulsion after empirical dispersion term =        9.1205685808 Hartrees.
 No density basis found on file   718.
 Leave Link  301 at Sun Feb 19 12:03:26 2023, MaxMem=  6710886400 cpu:               1.3 elap:               0.1
 (Enter /data0/home/software/g16/l302.exe)
 NPDir=0 NMtPBC=     1 NCelOv=     1 NCel=       1 NClECP=     1 NCelD=      1
         NCelK=      1 NCelE2=     1 NClLst=     1 CellRange=     0.0.
 One-electron integrals computed using PRISM.
 NBasis=   117 RedAO= T EigKep=  9.14D-04  NBF=   117
 NBsUse=   117 1.00D-06 EigRej= -1.00D+00 NBFU=   117
 Precomputing XC quadrature grid using
 IXCGrd= 4 IRadAn=           5 IRanWt=          -1 IRanGd=           0 AccXCQ= 0.00D+00.
 Generated NRdTot=       0 NPtTot=           0 NUsed=           0 NTot=          32
 NSgBfM=   123   123   123   123   123 MxSgAt=     9 MxSgA2=     9.
 Leave Link  302 at Sun Feb 19 12:03:26 2023, MaxMem=  6710886400 cpu:               2.7 elap:               0.1
 (Enter /data0/home/software/g16/l303.exe)
 DipDrv:  MaxL=1.
 Leave Link  303 at Sun Feb 19 12:03:26 2023, MaxMem=  6710886400 cpu:               0.5 elap:               0.0
 (Enter /data0/home/software/g16/l401.exe)
 ExpMin= 8.45D-02 ExpMax= 8.59D+03 ExpMxC= 1.30D+03 IAcc=3 IRadAn=         5 AccDes= 0.00D+00
 Harris functional with IExCor= 1009 and IRadAn=       5 diagonalized for initial guess.
 HarFok:  IExCor= 1009 AccDes= 0.00D+00 IRadAn=         5 IDoV= 1 UseB2=F ITyADJ=14
 ICtDFT=  3500011 ScaDFX=  1.000000  1.000000  1.000000  1.000000
 FoFCou: FMM=F IPFlag=           0 FMFlag=      100000 FMFlg1=           0
         NFxFlg=           0 DoJE=T BraDBF=F KetDBF=T FulRan=T
         wScrn=  0.000000 ICntrl=       500 IOpCl=  0 I1Cent=   200000004 NGrid=           0
         NMat0=    1 NMatS0=      1 NMatT0=    0 NMatD0=    1 NMtDS0=    0 NMtDT0=    0
 Symmetry not used in FoFCou.
 Harris En= -76.4172564164065    
 JPrj=0 DoOrth=F DoCkMO=F.
 Leave Link  401 at Sun Feb 19 12:03:26 2023, MaxMem=  6710886400 cpu:               4.7 elap:               0.2
 (Enter /data0/home/software/g16/l502.exe)
 Keep R1 ints in memory in canonical form, NReq=46556122.
 FoFCou: FMM=F IPFlag=           0 FMFlag=           0 FMFlg1=           0
         NFxFlg=           0 DoJE=F BraDBF=F KetDBF=F FulRan=T
         wScrn=  0.000000 ICntrl=       600 IOpCl=  0 I1Cent=           0 NGrid=           0
         NMat0=    1 NMatS0=   6903 NMatT0=    0 NMatD0=    1 NMtDS0=    0 NMtDT0=    0
 Symmetry not used in FoFCou.
 Two-electron integral symmetry not used.
 Closed shell SCF:
 Using DIIS extrapolation, IDIIS=  1040.
 NGot=  6710886400 LenX=  6687023004 LenY=  6687007434
 Requested convergence on RMS density matrix=1.00D-08 within 128 cycles.
 Requested convergence on MAX density matrix=1.00D-06.
 Requested convergence on             energy=1.00D-06.
 No special actions if energy rises.
 Integral accuracy reduced to 1.0D-05 until final iterations.

 Cycle   1  Pass 0  IDiag  1:
 E= -76.3473296356061    
 DIIS: error= 3.59D-02 at cycle   1 NSaved=   1.
 NSaved= 1 IEnMin= 1 EnMin= -76.3473296356061     IErMin= 1 ErrMin= 3.59D-02
 ErrMax= 3.59D-02  0.00D+00 EMaxC= 1.00D-01 BMatC= 1.21D-01 BMatP= 1.21D-01
 IDIUse=3 WtCom= 6.41D-01 WtEn= 3.59D-01
 Coeff-Com:  0.100D+01
 Coeff-En:   0.100D+01
 Coeff:      0.100D+01
 Gap=     0.311 Goal=   None    Shift=    0.000
 GapD=    0.311 DampG=1.000 DampE=0.500 DampFc=0.5000 IDamp=-1.
 Damping current iteration by 5.00D-01
 RMSDP=4.47D-03 MaxDP=1.00D-01              OVMax= 1.72D-01

 Cycle   2  Pass 0  IDiag  1:
 E= -76.3785249012572     Delta-E=       -0.031195265651 Rises=F Damp=T
 DIIS: error= 8.31D-03 at cycle   2 NSaved=   2.
 NSaved= 2 IEnMin= 2 EnMin= -76.3785249012572     IErMin= 2 ErrMin= 8.31D-03
 ErrMax= 8.31D-03  0.00D+00 EMaxC= 1.00D-01 BMatC= 4.92D-03 BMatP= 1.21D-01
 IDIUse=3 WtCom= 9.17D-01 WtEn= 8.31D-02
 Coeff-Com:  0.849D-01 0.915D+00
 Coeff-En:   0.193D+00 0.807D+00
 Coeff:      0.938D-01 0.906D+00
 Gap=     0.439 Goal=   None    Shift=    0.000
 RMSDP=6.99D-04 MaxDP=2.10D-02 DE=-3.12D-02 OVMax= 1.03D-01

 Cycle   3  Pass 0  IDiag  1:
 E= -76.4226997244397     Delta-E=       -0.044174823182 Rises=F Damp=F
 DIIS: error= 1.14D-03 at cycle   3 NSaved=   3.
 NSaved= 3 IEnMin= 3 EnMin= -76.4226997244397     IErMin= 3 ErrMin= 1.14D-03
 ErrMax= 1.14D-03  0.00D+00 EMaxC= 1.00D-01 BMatC= 1.19D-04 BMatP= 4.92D-03
 IDIUse=3 WtCom= 9.89D-01 WtEn= 1.14D-02
 Coeff-Com: -0.242D-01 0.444D-01 0.980D+00
 Coeff-En:   0.000D+00 0.000D+00 0.100D+01
 Coeff:     -0.239D-01 0.439D-01 0.980D+00
 Gap=     0.442 Goal=   None    Shift=    0.000
 RMSDP=5.71D-05 MaxDP=1.13D-03 DE=-4.42D-02 OVMax= 3.60D-03

 Cycle   4  Pass 0  IDiag  1:
 E= -76.4227974955664     Delta-E=       -0.000097771127 Rises=F Damp=F
 DIIS: error= 1.65D-04 at cycle   4 NSaved=   4.
 NSaved= 4 IEnMin= 4 EnMin= -76.4227974955664     IErMin= 4 ErrMin= 1.65D-04
 ErrMax= 1.65D-04  0.00D+00 EMaxC= 1.00D-01 BMatC= 2.73D-06 BMatP= 1.19D-04
 IDIUse=3 WtCom= 9.98D-01 WtEn= 1.65D-03
 Coeff-Com: -0.236D-02-0.791D-03 0.146D+00 0.857D+00
 Coeff-En:   0.000D+00 0.000D+00 0.000D+00 0.100D+01
 Coeff:     -0.236D-02-0.789D-03 0.146D+00 0.857D+00
 Gap=     0.442 Goal=   None    Shift=    0.000
 RMSDP=1.43D-05 MaxDP=3.25D-04 DE=-9.78D-05 OVMax= 5.20D-04

 Cycle   5  Pass 0  IDiag  1:
 E= -76.4227992463188     Delta-E=       -0.000001750752 Rises=F Damp=F
 DIIS: error= 3.18D-05 at cycle   5 NSaved=   5.
 NSaved= 5 IEnMin= 5 EnMin= -76.4227992463188     IErMin= 5 ErrMin= 3.18D-05
 ErrMax= 3.18D-05  0.00D+00 EMaxC= 1.00D-01 BMatC= 7.34D-08 BMatP= 2.73D-06
 IDIUse=1 WtCom= 1.00D+00 WtEn= 0.00D+00
 Coeff-Com:  0.130D-02-0.201D-02-0.362D-01-0.473D-01 0.108D+01
 Coeff:      0.130D-02-0.201D-02-0.362D-01-0.473D-01 0.108D+01
 Gap=     0.442 Goal=   None    Shift=    0.000
 RMSDP=9.60D-06 MaxDP=2.38D-04 DE=-1.75D-06 OVMax= 2.09D-04

 Initial convergence to 1.0D-05 achieved.  Increase integral accuracy.
 Cycle   6  Pass 1  IDiag  1:
 E= -76.4227927010852     Delta-E=        0.000006545234 Rises=F Damp=F
 DIIS: error= 5.29D-06 at cycle   1 NSaved=   1.
 NSaved= 1 IEnMin= 1 EnMin= -76.4227927010852     IErMin= 1 ErrMin= 5.29D-06
 ErrMax= 5.29D-06  0.00D+00 EMaxC= 1.00D-01 BMatC= 5.60D-09 BMatP= 5.60D-09
 IDIUse=1 WtCom= 1.00D+00 WtEn= 0.00D+00
 Coeff-Com:  0.100D+01
 Coeff:      0.100D+01
 Gap=     0.442 Goal=   None    Shift=    0.000
 RMSDP=9.60D-06 MaxDP=2.38D-04 DE= 6.55D-06 OVMax= 3.87D-05

 Cycle   7  Pass 1  IDiag  1:
 E= -76.4227927061037     Delta-E=       -0.000000005018 Rises=F Damp=F
 DIIS: error= 3.32D-06 at cycle   2 NSaved=   2.
 NSaved= 2 IEnMin= 2 EnMin= -76.4227927061037     IErMin= 2 ErrMin= 3.32D-06
 ErrMax= 3.32D-06  0.00D+00 EMaxC= 1.00D-01 BMatC= 8.84D-10 BMatP= 5.60D-09
 IDIUse=1 WtCom= 1.00D+00 WtEn= 0.00D+00
 Coeff-Com:  0.144D+00 0.856D+00
 Coeff:      0.144D+00 0.856D+00
 Gap=     0.442 Goal=   None    Shift=    0.000
 RMSDP=3.77D-07 MaxDP=9.45D-06 DE=-5.02D-09 OVMax= 1.68D-05

 Cycle   8  Pass 1  IDiag  1:
 E= -76.4227927064667     Delta-E=       -0.000000000363 Rises=F Damp=F
 DIIS: error= 2.44D-06 at cycle   3 NSaved=   3.
 NSaved= 3 IEnMin= 3 EnMin= -76.4227927064667     IErMin= 3 ErrMin= 2.44D-06
 ErrMax= 2.44D-06  0.00D+00 EMaxC= 1.00D-01 BMatC= 5.75D-10 BMatP= 8.84D-10
 IDIUse=1 WtCom= 1.00D+00 WtEn= 0.00D+00
 Coeff-Com: -0.473D-01 0.452D+00 0.596D+00
 Coeff:     -0.473D-01 0.452D+00 0.596D+00
 Gap=     0.442 Goal=   None    Shift=    0.000
 RMSDP=1.06D-07 MaxDP=4.16D-06 DE=-3.63D-10 OVMax= 7.82D-06

 Cycle   9  Pass 1  IDiag  1:
 E= -76.4227927068652     Delta-E=       -0.000000000399 Rises=F Damp=F
 DIIS: error= 2.73D-07 at cycle   4 NSaved=   4.
 NSaved= 4 IEnMin= 4 EnMin= -76.4227927068652     IErMin= 4 ErrMin= 2.73D-07
 ErrMax= 2.73D-07  0.00D+00 EMaxC= 1.00D-01 BMatC= 4.38D-12 BMatP= 5.75D-10
 IDIUse=1 WtCom= 1.00D+00 WtEn= 0.00D+00
 Coeff-Com: -0.941D-02-0.183D-01 0.319D-01 0.996D+00
 Coeff:     -0.941D-02-0.183D-01 0.319D-01 0.996D+00
 Gap=     0.442 Goal=   None    Shift=    0.000
 RMSDP=4.30D-08 MaxDP=9.06D-07 DE=-3.99D-10 OVMax= 1.58D-06

 Cycle  10  Pass 1  IDiag  1:
 E= -76.4227927068734     Delta-E=       -0.000000000008 Rises=F Damp=F
 DIIS: error= 4.09D-08 at cycle   5 NSaved=   5.
 NSaved= 5 IEnMin= 5 EnMin= -76.4227927068734     IErMin= 5 ErrMin= 4.09D-08
 ErrMax= 4.09D-08  0.00D+00 EMaxC= 1.00D-01 BMatC= 1.90D-13 BMatP= 4.38D-12
 IDIUse=1 WtCom= 1.00D+00 WtEn= 0.00D+00
 Coeff-Com:  0.257D-02-0.288D-01-0.365D-01 0.285D-02 0.106D+01
 Coeff:      0.257D-02-0.288D-01-0.365D-01 0.285D-02 0.106D+01
 Gap=     0.442 Goal=   None    Shift=    0.000
 RMSDP=1.56D-08 MaxDP=3.70D-07 DE=-8.14D-12 OVMax= 5.05D-07

 Cycle  11  Pass 1  IDiag  1:
 E= -76.4227927068733     Delta-E=        0.000000000000 Rises=F Damp=F
 DIIS: error= 4.53D-09 at cycle   6 NSaved=   6.
 NSaved= 6 IEnMin= 5 EnMin= -76.4227927068734     IErMin= 6 ErrMin= 4.53D-09
 ErrMax= 4.53D-09  0.00D+00 EMaxC= 1.00D-01 BMatC= 2.25D-15 BMatP= 1.90D-13
 IDIUse=1 WtCom= 1.00D+00 WtEn= 0.00D+00
 Coeff-Com:  0.590D-05 0.178D-02 0.133D-02-0.258D-01-0.813D-02 0.103D+01
 Coeff:      0.590D-05 0.178D-02 0.133D-02-0.258D-01-0.813D-02 0.103D+01
 Gap=     0.442 Goal=   None    Shift=    0.000
 RMSDP=1.24D-09 MaxDP=3.08D-08 DE= 4.26D-14 OVMax= 3.49D-08

 SCF Done:  E(RM062X) =  -76.4227927069     A.U. after   11 cycles
            NFock= 11  Conv=0.12D-08     -V/T= 2.0030
 KE= 7.619650435939D+01 PE=-1.990876127193D+02 EE= 3.734774707226D+01
 Leave Link  502 at Sun Feb 19 12:03:28 2023, MaxMem=  6710886400 cpu:              41.3 elap:               2.1
 (Enter /data0/home/software/g16/l601.exe)
 Copying SCF densities to generalized density rwf, IOpCl= 0 IROHF=0.

 **********************************************************************

            Population analysis using the SCF density.

 **********************************************************************

 Alpha  occ. eigenvalues --  -19.62653  -1.13442  -0.60771  -0.47636  -0.40051
 Alpha virt. eigenvalues --    0.04182   0.08029   0.11257   0.13023   0.14422
 Alpha virt. eigenvalues --    0.16156   0.17076   0.19374   0.20768   0.21379
 Alpha virt. eigenvalues --    0.22972   0.24289   0.28967   0.29654   0.30989
 Alpha virt. eigenvalues --    0.34552   0.38732   0.41524   0.51847   0.54808
 Alpha virt. eigenvalues --    0.62174   0.64482   0.75032   0.79081   0.79819
 Alpha virt. eigenvalues --    0.80717   0.89736   0.92171   0.97240   0.98611
 Alpha virt. eigenvalues --    1.00196   1.05433   1.07439   1.10254   1.19189
 Alpha virt. eigenvalues --    1.19736   1.22597   1.42211   1.63635   1.68058
 Alpha virt. eigenvalues --    1.75372   1.76163   1.76517   1.81310   1.86130
 Alpha virt. eigenvalues --    1.89678   1.96446   2.03024   2.07810   2.09783
 Alpha virt. eigenvalues --    2.13084   2.22511   2.26397   2.31498   2.36840
 Alpha virt. eigenvalues --    2.41794   2.46792   2.51998   2.53419   2.57787
 Alpha virt. eigenvalues --    2.58762   2.60651   2.65457   2.68474   2.69367
 Alpha virt. eigenvalues --    2.76530   2.79562   2.83885   2.86933   2.89005
 Alpha virt. eigenvalues --    2.99547   3.01855   3.04462   3.09204   3.15501
 Alpha virt. eigenvalues --    3.49724   3.59251   3.69387   3.74916   4.56103
 Alpha virt. eigenvalues --    4.70950   5.09320   5.15836   5.26657   5.53963
 Alpha virt. eigenvalues --    5.93117   6.81835   6.82937   6.91774   7.00843
 Alpha virt. eigenvalues --    7.09754   9.67512   9.78213   9.78702   9.85505
 Alpha virt. eigenvalues --    9.96871  10.17057  10.20813  10.29234  10.34526
 Alpha virt. eigenvalues --   10.55564  12.83699  13.18759  13.31840  13.66029
 Alpha virt. eigenvalues --   13.71370  14.24538  17.67225  18.34560  49.99172
 Alpha virt. eigenvalues --  135.11631 139.59762
          Condensed to atoms (all electrons):
               1          2          3          4          5          6
     1  O    8.039544   0.317322   0.315785   0.060676  -0.131581   0.001119
     2  H    0.317322   0.423552  -0.023389  -0.002292   0.006449  -0.000179
     3  H    0.315785  -0.023389   0.425955  -0.002874   0.007476  -0.000025
     4  O    0.060676  -0.002292  -0.002874   0.033317  -0.046575  -0.001906
     5  H   -0.131581   0.006449   0.007476  -0.046575   0.075197   0.001916
     6  H    0.001119  -0.000179  -0.000025  -0.001906   0.001916   0.000543
     7  O   -0.000319   0.000117   0.000003  -0.000253   0.000615   0.000071
     8  H   -0.000185   0.000000   0.000010  -0.000210   0.000182   0.000005
     9  H   -0.000626   0.000037   0.000039  -0.000289  -0.000149  -0.000163
               7          8          9
     1  O   -0.000319  -0.000185  -0.000626
     2  H    0.000117   0.000000   0.000037
     3  H    0.000003   0.000010   0.000039
     4  O   -0.000253  -0.000210  -0.000289
     5  H    0.000615   0.000182  -0.000149
     6  H    0.000071   0.000005  -0.000163
     7  O    0.000564  -0.000142  -0.000577
     8  H   -0.000142   0.000100   0.000094
     9  H   -0.000577   0.000094   0.000869
 Mulliken charges:
               1
     1  O   -0.601734
     2  H    0.278383
     3  H    0.277021
     4  O   -0.039594
     5  H    0.086470
     6  H   -0.001382
     7  O   -0.000077
     8  H    0.000146
     9  H    0.000765
 Sum of Mulliken charges =  -0.00000
 Mulliken charges with hydrogens summed into heavy atoms:
               1
     1  O   -0.046329
     4  O    0.045495
     7  O    0.000834
         Mulliken charges condensed to fragments:
      1     -0.046329
      2      0.045495
      3      0.000834
 Electronic spatial extent (au):  <R**2>=           7145.2660
 Charge=             -0.0000 electrons
 Dipole moment (field-independent basis, Debye):
    X=              1.1047    Y=              0.5890    Z=              1.6065  Tot=              2.0367
 Quadrupole moment (field-independent basis, Debye-Ang):
   XX=             18.3380   YY=              4.2342   ZZ=              4.2445
   XY=             14.2313   XZ=             22.8202   YZ=             14.4727
 Traceless Quadrupole moment (field-independent basis, Debye-Ang):
   XX=              9.3991   YY=             -4.7047   ZZ=             -4.6944
   XY=             14.2313   XZ=             22.8202   YZ=             14.4727
 Octapole moment (field-independent basis, Debye-Ang**2):
  XXX=            197.9178  YYY=             -5.7435  ZZZ=            -12.9831  XYY=             99.1550
  XXY=            195.0474  XXZ=            288.2057  XZZ=             66.9470  YZZ=             40.2817
  YYZ=            111.7616  XYZ=            195.9587
 Hexadecapole moment (field-independent basis, Debye-Ang**3):
 XXXX=           1264.8578 YYYY=           -614.1435 ZZZZ=           -226.1025 XXXY=           2005.8354
 XXXZ=           3344.7434 YYYX=            277.0556 YYYZ=            745.3290 ZZZX=            -71.4078
 ZZZY=            -72.2733 XXYY=           1299.8039 XXZZ=            893.0285 YYZZ=            314.5016
 XXYZ=           2406.8034 YYXZ=           1486.1648 ZZXY=            588.0533
 N-N= 9.120568580772D+00 E-N=-1.990876128185D+02  KE= 7.619650435939D+01
 No NMR shielding tensors so no spin-rotation constants.
 Leave Link  601 at Sun Feb 19 12:03:28 2023, MaxMem=  6710886400 cpu:               1.9 elap:               0.1
 (Enter /data0/home/software/g16/l122.exe)
 CPIOFr:  IOpCl= 0 IRwI=-1 IRwCP=  731 ICalc=  1 LCPTot=       22668 Len1MO=       57607 IndFrg=      137882
 Counterpoise: doing calculation for fragment   2 using the basis set of the full-system, NewBq=T
 Leave Link  122 at Sun Feb 19 12:03:28 2023, MaxMem=  6710886400 cpu:               0.1 elap:               0.0
 (Enter /data0/home/software/g16/l301.exe)
 Basis read from rwf:  (5D, 7F)
 No pseudopotential information found on rwf file.
   117 basis functions,   174 primitive gaussians,   123 cartesian basis functions
     5 alpha electrons        5 beta electrons
       nuclear repulsion energy         9.1096670324 Hartrees.
 IExCor= 4336 DFT=T Ex+Corr=M062X ExCW=0 ScaHFX=  0.540000
 ScaDFX=  1.000000  1.000000  1.000000  1.000000 ScalE2=  1.000000  1.000000
 IRadAn=      5 IRanWt=     -1 IRanGd=            0 ICorTp=0 IEmpDi=131
 NAtoms=    9 NActive=    9 NUniq=    9 SFac= 1.00D+00 NAtFMM=   60 NAOKFM=F Big=F
 Integral buffers will be    131072 words long.
 Raffenetti 2 integral format.
 Two-electron integral symmetry is turned off.
 R6Disp:  Grimme-D3 Dispersion energy=       -0.0000000078 Hartrees.
 Nuclear repulsion after empirical dispersion term =        9.1096670246 Hartrees.
 No density basis found on file   718.
 Leave Link  301 at Sun Feb 19 12:03:28 2023, MaxMem=  6710886400 cpu:               1.2 elap:               0.1
 (Enter /data0/home/software/g16/l302.exe)
 NPDir=0 NMtPBC=     1 NCelOv=     1 NCel=       1 NClECP=     1 NCelD=      1
         NCelK=      1 NCelE2=     1 NClLst=     1 CellRange=     0.0.
 One-electron integrals computed using PRISM.
 NBasis=   117 RedAO= T EigKep=  9.14D-04  NBF=   117
 NBsUse=   117 1.00D-06 EigRej= -1.00D+00 NBFU=   117
 Precomputing XC quadrature grid using
 IXCGrd= 4 IRadAn=           5 IRanWt=          -1 IRanGd=           0 AccXCQ= 0.00D+00.
 Generated NRdTot=       0 NPtTot=           0 NUsed=           0 NTot=          32
 NSgBfM=   123   123   123   123   123 MxSgAt=     9 MxSgA2=     9.
 Leave Link  302 at Sun Feb 19 12:03:29 2023, MaxMem=  6710886400 cpu:               2.7 elap:               0.1
 (Enter /data0/home/software/g16/l303.exe)
 DipDrv:  MaxL=1.
 Leave Link  303 at Sun Feb 19 12:03:29 2023, MaxMem=  6710886400 cpu:               0.5 elap:               0.0
 (Enter /data0/home/software/g16/l401.exe)
 ExpMin= 8.45D-02 ExpMax= 8.59D+03 ExpMxC= 1.30D+03 IAcc=3 IRadAn=         5 AccDes= 0.00D+00
 Harris functional with IExCor= 1009 and IRadAn=       5 diagonalized for initial guess.
 HarFok:  IExCor= 1009 AccDes= 0.00D+00 IRadAn=         5 IDoV= 1 UseB2=F ITyADJ=14
 ICtDFT=  3500011 ScaDFX=  1.000000  1.000000  1.000000  1.000000
 FoFCou: FMM=F IPFlag=           0 FMFlag=      100000 FMFlg1=           0
         NFxFlg=           0 DoJE=T BraDBF=F KetDBF=T FulRan=T
         wScrn=  0.000000 ICntrl=       500 IOpCl=  0 I1Cent=   200000004 NGrid=           0
         NMat0=    1 NMatS0=      1 NMatT0=    0 NMatD0=    1 NMtDS0=    0 NMtDT0=    0
 Symmetry not used in FoFCou.
 Harris En= -76.4173354231280    
 JPrj=0 DoOrth=F DoCkMO=F.
 Leave Link  401 at Sun Feb 19 12:03:29 2023, MaxMem=  6710886400 cpu:               4.7 elap:               0.2
 (Enter /data0/home/software/g16/l502.exe)
 Keep R1 ints in memory in canonical form, NReq=46556122.
 FoFCou: FMM=F IPFlag=           0 FMFlag=           0 FMFlg1=           0
         NFxFlg=           0 DoJE=F BraDBF=F KetDBF=F FulRan=T
         wScrn=  0.000000 ICntrl=       600 IOpCl=  0 I1Cent=           0 NGrid=           0
         NMat0=    1 NMatS0=   6903 NMatT0=    0 NMatD0=    1 NMtDS0=    0 NMtDT0=    0
 Symmetry not used in FoFCou.
 Two-electron integral symmetry not used.
 Closed shell SCF:
 Using DIIS extrapolation, IDIIS=  1040.
 NGot=  6710886400 LenX=  6687023004 LenY=  6687007434
 Requested convergence on RMS density matrix=1.00D-08 within 128 cycles.
 Requested convergence on MAX density matrix=1.00D-06.
 Requested convergence on             energy=1.00D-06.
 No special actions if energy rises.
 Integral accuracy reduced to 1.0D-05 until final iterations.

 Cycle   1  Pass 0  IDiag  1:
 E= -76.3473555749907    
 DIIS: error= 2.64D-02 at cycle   1 NSaved=   1.
 NSaved= 1 IEnMin= 1 EnMin= -76.3473555749907     IErMin= 1 ErrMin= 2.64D-02
 ErrMax= 2.64D-02  0.00D+00 EMaxC= 1.00D-01 BMatC= 1.21D-01 BMatP= 1.21D-01
 IDIUse=3 WtCom= 7.36D-01 WtEn= 2.64D-01
 Coeff-Com:  0.100D+01
 Coeff-En:   0.100D+01
 Coeff:      0.100D+01
 Gap=     0.290 Goal=   None    Shift=    0.000
 GapD=    0.290 DampG=1.000 DampE=0.500 DampFc=0.5000 IDamp=-1.
 Damping current iteration by 5.00D-01
 RMSDP=4.69D-03 MaxDP=1.12D-01              OVMax= 1.73D-01

 Cycle   2  Pass 0  IDiag  1:
 E= -76.3784081345047     Delta-E=       -0.031052559514 Rises=F Damp=T
 DIIS: error= 6.40D-03 at cycle   2 NSaved=   2.
 NSaved= 2 IEnMin= 2 EnMin= -76.3784081345047     IErMin= 2 ErrMin= 6.40D-03
 ErrMax= 6.40D-03  0.00D+00 EMaxC= 1.00D-01 BMatC= 4.99D-03 BMatP= 1.21D-01
 IDIUse=3 WtCom= 9.36D-01 WtEn= 6.40D-02
 Coeff-Com:  0.864D-01 0.914D+00
 Coeff-En:   0.196D+00 0.804D+00
 Coeff:      0.934D-01 0.907D+00
 Gap=     0.420 Goal=   None    Shift=    0.000
 RMSDP=7.06D-04 MaxDP=2.54D-02 DE=-3.11D-02 OVMax= 1.04D-01

 Cycle   3  Pass 0  IDiag  1:
 E= -76.4227343925182     Delta-E=       -0.044326258013 Rises=F Damp=F
 DIIS: error= 8.57D-04 at cycle   3 NSaved=   3.
 NSaved= 3 IEnMin= 3 EnMin= -76.4227343925182     IErMin= 3 ErrMin= 8.57D-04
 ErrMax= 8.57D-04  0.00D+00 EMaxC= 1.00D-01 BMatC= 1.43D-04 BMatP= 4.99D-03
 IDIUse=3 WtCom= 9.91D-01 WtEn= 8.57D-03
 Coeff-Com: -0.268D-01 0.489D-01 0.978D+00
 Coeff-En:   0.000D+00 0.000D+00 0.100D+01
 Coeff:     -0.266D-01 0.485D-01 0.978D+00
 Gap=     0.421 Goal=   None    Shift=    0.000
 RMSDP=6.27D-05 MaxDP=1.46D-03 DE=-4.43D-02 OVMax= 3.82D-03

 Cycle   4  Pass 0  IDiag  1:
 E= -76.4228489945438     Delta-E=       -0.000114602026 Rises=F Damp=F
 DIIS: error= 1.39D-04 at cycle   4 NSaved=   4.
 NSaved= 4 IEnMin= 4 EnMin= -76.4228489945438     IErMin= 4 ErrMin= 1.39D-04
 ErrMax= 1.39D-04  0.00D+00 EMaxC= 1.00D-01 BMatC= 2.64D-06 BMatP= 1.43D-04
 IDIUse=3 WtCom= 9.99D-01 WtEn= 1.39D-03
 Coeff-Com: -0.276D-02 0.266D-04 0.143D+00 0.860D+00
 Coeff-En:   0.000D+00 0.000D+00 0.000D+00 0.100D+01
 Coeff:     -0.275D-02 0.265D-04 0.143D+00 0.860D+00
 Gap=     0.422 Goal=   None    Shift=    0.000
 RMSDP=1.42D-05 MaxDP=3.32D-04 DE=-1.15D-04 OVMax= 5.13D-04

 Cycle   5  Pass 0  IDiag  1:
 E= -76.4228506984777     Delta-E=       -0.000001703934 Rises=F Damp=F
 DIIS: error= 2.90D-05 at cycle   5 NSaved=   5.
 NSaved= 5 IEnMin= 5 EnMin= -76.4228506984777     IErMin= 5 ErrMin= 2.90D-05
 ErrMax= 2.90D-05  0.00D+00 EMaxC= 1.00D-01 BMatC= 7.34D-08 BMatP= 2.64D-06
 IDIUse=1 WtCom= 1.00D+00 WtEn= 0.00D+00
 Coeff-Com:  0.140D-02-0.217D-02-0.360D-01-0.453D-01 0.108D+01
 Coeff:      0.140D-02-0.217D-02-0.360D-01-0.453D-01 0.108D+01
 Gap=     0.422 Goal=   None    Shift=    0.000
 RMSDP=9.90D-06 MaxDP=2.70D-04 DE=-1.70D-06 OVMax= 2.11D-04

 Initial convergence to 1.0D-05 achieved.  Increase integral accuracy.
 Cycle   6  Pass 1  IDiag  1:
 E= -76.4228430497922     Delta-E=        0.000007648685 Rises=F Damp=F
 DIIS: error= 1.56D-05 at cycle   1 NSaved=   1.
 NSaved= 1 IEnMin= 1 EnMin= -76.4228430497922     IErMin= 1 ErrMin= 1.56D-05
 ErrMax= 1.56D-05  0.00D+00 EMaxC= 1.00D-01 BMatC= 1.68D-08 BMatP= 1.68D-08
 IDIUse=1 WtCom= 1.00D+00 WtEn= 0.00D+00
 Coeff-Com:  0.100D+01
 Coeff:      0.100D+01
 Gap=     0.422 Goal=   None    Shift=    0.000
 RMSDP=9.90D-06 MaxDP=2.70D-04 DE= 7.65D-06 OVMax= 5.11D-05

 Cycle   7  Pass 1  IDiag  1:
 E= -76.4228430655161     Delta-E=       -0.000000015724 Rises=F Damp=F
 DIIS: error= 5.23D-06 at cycle   2 NSaved=   2.
 NSaved= 2 IEnMin= 2 EnMin= -76.4228430655161     IErMin= 2 ErrMin= 5.23D-06
 ErrMax= 5.23D-06  0.00D+00 EMaxC= 1.00D-01 BMatC= 2.50D-09 BMatP= 1.68D-08
 IDIUse=1 WtCom= 1.00D+00 WtEn= 0.00D+00
 Coeff-Com:  0.142D+00 0.858D+00
 Coeff:      0.142D+00 0.858D+00
 Gap=     0.422 Goal=   None    Shift=    0.000
 RMSDP=9.54D-07 MaxDP=2.60D-05 DE=-1.57D-08 OVMax= 2.96D-05

 Cycle   8  Pass 1  IDiag  1:
 E= -76.4228430663978     Delta-E=       -0.000000000882 Rises=F Damp=F
 DIIS: error= 2.82D-06 at cycle   3 NSaved=   3.
 NSaved= 3 IEnMin= 3 EnMin= -76.4228430663978     IErMin= 3 ErrMin= 2.82D-06
 ErrMax= 2.82D-06  0.00D+00 EMaxC= 1.00D-01 BMatC= 1.81D-09 BMatP= 2.50D-09
 IDIUse=1 WtCom= 1.00D+00 WtEn= 0.00D+00
 Coeff-Com: -0.584D-01 0.468D+00 0.591D+00
 Coeff:     -0.584D-01 0.468D+00 0.591D+00
 Gap=     0.422 Goal=   None    Shift=    0.000
 RMSDP=1.80D-07 MaxDP=6.49D-06 DE=-8.82D-10 OVMax= 1.19D-05

 Cycle   9  Pass 1  IDiag  1:
 E= -76.4228430676199     Delta-E=       -0.000000001222 Rises=F Damp=F
 DIIS: error= 2.45D-07 at cycle   4 NSaved=   4.
 NSaved= 4 IEnMin= 4 EnMin= -76.4228430676199     IErMin= 4 ErrMin= 2.45D-07
 ErrMax= 2.45D-07  0.00D+00 EMaxC= 1.00D-01 BMatC= 5.31D-12 BMatP= 1.81D-09
 IDIUse=1 WtCom= 1.00D+00 WtEn= 0.00D+00
 Coeff-Com:  0.255D-02-0.742D-01-0.716D-01 0.114D+01
 Coeff:      0.255D-02-0.742D-01-0.716D-01 0.114D+01
 Gap=     0.422 Goal=   None    Shift=    0.000
 RMSDP=8.56D-08 MaxDP=2.16D-06 DE=-1.22D-09 OVMax= 2.35D-06

 Cycle  10  Pass 1  IDiag  1:
 E= -76.4228430676334     Delta-E=       -0.000000000014 Rises=F Damp=F
 DIIS: error= 5.11D-08 at cycle   5 NSaved=   5.
 NSaved= 5 IEnMin= 5 EnMin= -76.4228430676334     IErMin= 5 ErrMin= 5.11D-08
 ErrMax= 5.11D-08  0.00D+00 EMaxC= 1.00D-01 BMatC= 3.31D-13 BMatP= 5.31D-12
 IDIUse=1 WtCom= 1.00D+00 WtEn= 0.00D+00
 Coeff-Com:  0.356D-02-0.364D-01-0.400D-01 0.164D+00 0.909D+00
 Coeff:      0.356D-02-0.364D-01-0.400D-01 0.164D+00 0.909D+00
 Gap=     0.422 Goal=   None    Shift=    0.000
 RMSDP=1.45D-08 MaxDP=3.28D-07 DE=-1.35D-11 OVMax= 4.21D-07

 Cycle  11  Pass 1  IDiag  1:
 E= -76.4228430676343     Delta-E=       -0.000000000001 Rises=F Damp=F
 DIIS: error= 5.08D-09 at cycle   6 NSaved=   6.
 NSaved= 6 IEnMin= 6 EnMin= -76.4228430676343     IErMin= 6 ErrMin= 5.08D-09
 ErrMax= 5.08D-09  0.00D+00 EMaxC= 1.00D-01 BMatC= 4.22D-15 BMatP= 3.31D-13
 IDIUse=1 WtCom= 1.00D+00 WtEn= 0.00D+00
 Coeff-Com: -0.107D-03 0.179D-02 0.252D-02-0.265D-01-0.262D-01 0.105D+01
 Coeff:     -0.107D-03 0.179D-02 0.252D-02-0.265D-01-0.262D-01 0.105D+01
 Gap=     0.422 Goal=   None    Shift=    0.000
 RMSDP=1.22D-09 MaxDP=3.48D-08 DE=-9.09D-13 OVMax= 5.68D-08

 SCF Done:  E(RM062X) =  -76.4228430676     A.U. after   11 cycles
            NFock= 11  Conv=0.12D-08     -V/T= 2.0031
 KE= 7.618966256131D+01 PE=-1.990623023281D+02 EE= 3.734012967459D+01
 Leave Link  502 at Sun Feb 19 12:03:31 2023, MaxMem=  6710886400 cpu:              40.5 elap:               2.0
 (Enter /data0/home/software/g16/l601.exe)
 Copying SCF densities to generalized density rwf, IOpCl= 0 IROHF=0.

 **********************************************************************

            Population analysis using the SCF density.

 **********************************************************************

 Alpha  occ. eigenvalues --  -19.62662  -1.13358  -0.60845  -0.47516  -0.40032
 Alpha virt. eigenvalues --    0.02174   0.07972   0.09898   0.12138   0.12948
 Alpha virt. eigenvalues --    0.15220   0.16485   0.17561   0.20435   0.20670
 Alpha virt. eigenvalues --    0.22746   0.24814   0.26931   0.28941   0.30196
 Alpha virt. eigenvalues --    0.33744   0.35996   0.39638   0.51464   0.56154
 Alpha virt. eigenvalues --    0.59550   0.64124   0.69884   0.71010   0.74947
 Alpha virt. eigenvalues --    0.77110   0.83716   0.88919   0.93857   0.96757
 Alpha virt. eigenvalues --    0.98218   1.04334   1.07148   1.09000   1.14413
 Alpha virt. eigenvalues --    1.22005   1.22687   1.44096   1.62847   1.65803
 Alpha virt. eigenvalues --    1.71859   1.75235   1.76378   1.79160   1.81022
 Alpha virt. eigenvalues --    1.83267   1.89952   2.02201   2.06472   2.06822
 Alpha virt. eigenvalues --    2.13722   2.23642   2.28272   2.32469   2.36431
 Alpha virt. eigenvalues --    2.39902   2.41102   2.46817   2.49984   2.53488
 Alpha virt. eigenvalues --    2.57898   2.58169   2.59295   2.61400   2.64030
 Alpha virt. eigenvalues --    2.64121   2.68190   2.70118   2.81674   2.87992
 Alpha virt. eigenvalues --    2.89910   2.94295   2.99760   3.06108   3.15450
 Alpha virt. eigenvalues --    3.45580   3.47030   3.51206   3.64518   4.48023
 Alpha virt. eigenvalues --    4.55222   5.03939   5.08528   5.13871   5.55641
 Alpha virt. eigenvalues --    5.98503   6.81773   6.84828   6.91902   7.00705
 Alpha virt. eigenvalues --    7.14496   9.63601   9.75941   9.76415   9.76905
 Alpha virt. eigenvalues --    9.77288   9.78285   9.87084   9.93656   9.95248
 Alpha virt. eigenvalues --   10.03529  12.79008  12.83213  13.13619  13.19106
 Alpha virt. eigenvalues --   13.62761  13.66025  17.59076  17.66358  50.01422
 Alpha virt. eigenvalues --  135.33023 135.34730
          Condensed to atoms (all electrons):
               1          2          3          4          5          6
     1  O    0.010422  -0.003205  -0.004630   0.020509   0.001087  -0.002434
     2  H   -0.003205   0.001479   0.001175  -0.002682   0.001483   0.000595
     3  H   -0.004630   0.001175   0.003176  -0.000652   0.001416   0.000557
     4  O    0.020509  -0.002682  -0.000652   8.158851   0.262082   0.284932
     5  H    0.001087   0.001483   0.001416   0.262082   0.378560  -0.010272
     6  H   -0.002434   0.000595   0.000557   0.284932  -0.010272   0.445078
     7  O    0.000318  -0.000117   0.000046   0.048907  -0.004077  -0.002352
     8  H    0.000040  -0.000013  -0.000016   0.001026  -0.000138  -0.000036
     9  H   -0.000730   0.000255  -0.000080  -0.116208   0.010866   0.007149
               7          8          9
     1  O    0.000318   0.000040  -0.000730
     2  H   -0.000117  -0.000013   0.000255
     3  H    0.000046  -0.000016  -0.000080
     4  O    0.048907   0.001026  -0.116208
     5  H   -0.004077  -0.000138   0.010866
     6  H   -0.002352  -0.000036   0.007149
     7  O    0.024419  -0.001680  -0.035261
     8  H   -0.001680   0.000564   0.001591
     9  H   -0.035261   0.001591   0.058543
 Mulliken charges:
               1
     1  O   -0.021378
     2  H    0.001028
     3  H   -0.000993
     4  O   -0.656765
     5  H    0.358993
     6  H    0.276782
     7  O   -0.030204
     8  H   -0.001339
     9  H    0.073876
 Sum of Mulliken charges =  -0.00000
 Mulliken charges with hydrogens summed into heavy atoms:
               1
     1  O   -0.021343
     4  O   -0.020990
     7  O    0.042333
         Mulliken charges condensed to fragments:
      1     -0.021343
      2     -0.020990
      3      0.042333
 Electronic spatial extent (au):  <R**2>=           4853.2967
 Charge=             -0.0000 electrons
 Dipole moment (field-independent basis, Debye):
    X=              1.1661    Y=             -0.0595    Z=             -1.6292  Tot=              2.0044
 Quadrupole moment (field-independent basis, Debye-Ang):
   XX=             15.0174   YY=             -7.4268   ZZ=            -18.2559
   XY=              8.3654   XZ=             -9.7704   YZ=             -9.9399
 Traceless Quadrupole moment (field-independent basis, Debye-Ang):
   XX=             18.5725   YY=             -3.8717   ZZ=            -14.7008
   XY=              8.3654   XZ=             -9.7704   YZ=             -9.9399
 Octapole moment (field-independent basis, Debye-Ang**2):
  XXX=            125.1371  YYY=           -137.4624  ZZZ=           -137.6162  XYY=              0.5687
  XXY=            116.7725  XXZ=            -66.5965  XZZ=           -143.5790  YZZ=           -113.5268
  YYZ=            -85.6656  XYZ=            -53.0026
 Hexadecapole moment (field-independent basis, Debye-Ang**3):
 XXXX=            598.9723 YYYY=          -1764.2248 ZZZZ=           -874.5143 XXXY=           1096.7987
 XXXZ=           -600.1403 YYYX=           -730.5495 YYYZ=           -858.6497 ZZZX=          -1149.9247
 ZZZY=           -866.8950 XXYY=            359.6204 XXZZ=          -1194.5308 YYZZ=           -802.8544
 XXYZ=           -295.6618 YYXZ=           -500.0196 ZZXY=           -870.5527
 N-N= 9.109667024597D+00 E-N=-1.990623025307D+02  KE= 7.618966256131D+01
 No NMR shielding tensors so no spin-rotation constants.
 Leave Link  601 at Sun Feb 19 12:03:31 2023, MaxMem=  6710886400 cpu:               1.8 elap:               0.1
 (Enter /data0/home/software/g16/l122.exe)
 CPIOFr:  IOpCl= 0 IRwI=-1 IRwCP=  731 ICalc=  2 LCPTot=       22668 Len1MO=       57607 IndFrg=      195489
 Counterpoise: doing calculation for fragment   3 using the basis set of the full-system, NewBq=T
 Leave Link  122 at Sun Feb 19 12:03:31 2023, MaxMem=  6710886400 cpu:               0.1 elap:               0.0
 (Enter /data0/home/software/g16/l301.exe)
 Basis read from rwf:  (5D, 7F)
 No pseudopotential information found on rwf file.
   117 basis functions,   174 primitive gaussians,   123 cartesian basis functions
     5 alpha electrons        5 beta electrons
       nuclear repulsion energy         9.0884278623 Hartrees.
 IExCor= 4336 DFT=T Ex+Corr=M062X ExCW=0 ScaHFX=  0.540000
 ScaDFX=  1.000000  1.000000  1.000000  1.000000 ScalE2=  1.000000  1.000000
 IRadAn=      5 IRanWt=     -1 IRanGd=            0 ICorTp=0 IEmpDi=131
 NAtoms=    9 NActive=    9 NUniq=    9 SFac= 1.00D+00 NAtFMM=   60 NAOKFM=F Big=F
 Integral buffers will be    131072 words long.
 Raffenetti 2 integral format.
 Two-electron integral symmetry is turned off.
 R6Disp:  Grimme-D3 Dispersion energy=       -0.0000000079 Hartrees.
 Nuclear repulsion after empirical dispersion term =        9.0884278544 Hartrees.
 No density basis found on file   718.
 Leave Link  301 at Sun Feb 19 12:03:31 2023, MaxMem=  6710886400 cpu:               1.2 elap:               0.1
 (Enter /data0/home/software/g16/l302.exe)
 NPDir=0 NMtPBC=     1 NCelOv=     1 NCel=       1 NClECP=     1 NCelD=      1
         NCelK=      1 NCelE2=     1 NClLst=     1 CellRange=     0.0.
 One-electron integrals computed using PRISM.
 NBasis=   117 RedAO= T EigKep=  9.14D-04  NBF=   117
 NBsUse=   117 1.00D-06 EigRej= -1.00D+00 NBFU=   117
 Precomputing XC quadrature grid using
 IXCGrd= 4 IRadAn=           5 IRanWt=          -1 IRanGd=           0 AccXCQ= 0.00D+00.
 Generated NRdTot=       0 NPtTot=           0 NUsed=           0 NTot=          32
 NSgBfM=   123   123   123   123   123 MxSgAt=     9 MxSgA2=     9.
 Leave Link  302 at Sun Feb 19 12:03:31 2023, MaxMem=  6710886400 cpu:               2.6 elap:               0.1
 (Enter /data0/home/software/g16/l303.exe)
 DipDrv:  MaxL=1.
 Leave Link  303 at Sun Feb 19 12:03:31 2023, MaxMem=  6710886400 cpu:               0.4 elap:               0.0
 (Enter /data0/home/software/g16/l401.exe)
 ExpMin= 8.45D-02 ExpMax= 8.59D+03 ExpMxC= 1.30D+03 IAcc=3 IRadAn=         5 AccDes= 0.00D+00
 Harris functional with IExCor= 1009 and IRadAn=       5 diagonalized for initial guess.
 HarFok:  IExCor= 1009 AccDes= 0.00D+00 IRadAn=         5 IDoV= 1 UseB2=F ITyADJ=14
 ICtDFT=  3500011 ScaDFX=  1.000000  1.000000  1.000000  1.000000
 FoFCou: FMM=F IPFlag=           0 FMFlag=      100000 FMFlg1=           0
         NFxFlg=           0 DoJE=T BraDBF=F KetDBF=T FulRan=T
         wScrn=  0.000000 ICntrl=       500 IOpCl=  0 I1Cent=   200000004 NGrid=           0
         NMat0=    1 NMatS0=      1 NMatT0=    0 NMatD0=    1 NMtDS0=    0 NMtDT0=    0
 Symmetry not used in FoFCou.
 Harris En= -76.4167157932301    
 JPrj=0 DoOrth=F DoCkMO=F.
 Leave Link  401 at Sun Feb 19 12:03:31 2023, MaxMem=  6710886400 cpu:               4.7 elap:               0.2
 (Enter /data0/home/software/g16/l502.exe)
 Keep R1 ints in memory in canonical form, NReq=46556122.
 FoFCou: FMM=F IPFlag=           0 FMFlag=           0 FMFlg1=           0
         NFxFlg=           0 DoJE=F BraDBF=F KetDBF=F FulRan=T
         wScrn=  0.000000 ICntrl=       600 IOpCl=  0 I1Cent=           0 NGrid=           0
         NMat0=    1 NMatS0=   6903 NMatT0=    0 NMatD0=    1 NMtDS0=    0 NMtDT0=    0
 Symmetry not used in FoFCou.
 Two-electron integral symmetry not used.
 Closed shell SCF:
 Using DIIS extrapolation, IDIIS=  1040.
 NGot=  6710886400 LenX=  6687023004 LenY=  6687007434
 Requested convergence on RMS density matrix=1.00D-08 within 128 cycles.
 Requested convergence on MAX density matrix=1.00D-06.
 Requested convergence on             energy=1.00D-06.
 No special actions if energy rises.
 Integral accuracy reduced to 1.0D-05 until final iterations.

 Cycle   1  Pass 0  IDiag  1:
 E= -76.3468275125334    
 DIIS: error= 4.21D-02 at cycle   1 NSaved=   1.
 NSaved= 1 IEnMin= 1 EnMin= -76.3468275125334     IErMin= 1 ErrMin= 4.21D-02
 ErrMax= 4.21D-02  0.00D+00 EMaxC= 1.00D-01 BMatC= 1.20D-01 BMatP= 1.20D-01
 IDIUse=3 WtCom= 5.79D-01 WtEn= 4.21D-01
 Coeff-Com:  0.100D+01
 Coeff-En:   0.100D+01
 Coeff:      0.100D+01
 Gap=     0.290 Goal=   None    Shift=    0.000
 GapD=    0.290 DampG=1.000 DampE=0.500 DampFc=0.5000 IDamp=-1.
 Damping current iteration by 5.00D-01
 RMSDP=3.07D-03 MaxDP=9.99D-02              OVMax= 1.69D-01

 Cycle   2  Pass 0  IDiag  1:
 E= -76.3779532136654     Delta-E=       -0.031125701132 Rises=F Damp=T
 DIIS: error= 6.35D-03 at cycle   2 NSaved=   2.
 NSaved= 2 IEnMin= 2 EnMin= -76.3779532136654     IErMin= 2 ErrMin= 6.35D-03
 ErrMax= 6.35D-03  0.00D+00 EMaxC= 1.00D-01 BMatC= 4.93D-03 BMatP= 1.20D-01
 IDIUse=3 WtCom= 9.36D-01 WtEn= 6.35D-02
 Coeff-Com:  0.848D-01 0.915D+00
 Coeff-En:   0.192D+00 0.808D+00
 Coeff:      0.916D-01 0.908D+00
 Gap=     0.416 Goal=   None    Shift=    0.000
 RMSDP=4.02D-04 MaxDP=1.45D-02 DE=-3.11D-02 OVMax= 1.02D-01

 Cycle   3  Pass 0  IDiag  1:
 E= -76.4219863098237     Delta-E=       -0.044033096158 Rises=F Damp=F
 DIIS: error= 1.42D-03 at cycle   3 NSaved=   3.
 NSaved= 3 IEnMin= 3 EnMin= -76.4219863098237     IErMin= 3 ErrMin= 1.42D-03
 ErrMax= 1.42D-03  0.00D+00 EMaxC= 1.00D-01 BMatC= 1.41D-04 BMatP= 4.93D-03
 IDIUse=3 WtCom= 9.86D-01 WtEn= 1.42D-02
 Coeff-Com: -0.262D-01 0.505D-01 0.976D+00
 Coeff-En:   0.000D+00 0.000D+00 0.100D+01
 Coeff:     -0.259D-01 0.497D-01 0.976D+00
 Gap=     0.418 Goal=   None    Shift=    0.000
 RMSDP=5.52D-05 MaxDP=1.24D-03 DE=-4.40D-02 OVMax= 3.82D-03

 Cycle   4  Pass 0  IDiag  1:
 E= -76.4220998762127     Delta-E=       -0.000113566389 Rises=F Damp=F
 DIIS: error= 2.33D-04 at cycle   4 NSaved=   4.
 NSaved= 4 IEnMin= 4 EnMin= -76.4220998762127     IErMin= 4 ErrMin= 2.33D-04
 ErrMax= 2.33D-04  0.00D+00 EMaxC= 1.00D-01 BMatC= 3.04D-06 BMatP= 1.41D-04
 IDIUse=3 WtCom= 9.98D-01 WtEn= 2.33D-03
 Coeff-Com: -0.297D-02 0.101D-04 0.156D+00 0.847D+00
 Coeff-En:   0.000D+00 0.000D+00 0.000D+00 0.100D+01
 Coeff:     -0.296D-02 0.101D-04 0.155D+00 0.847D+00
 Gap=     0.418 Goal=   None    Shift=    0.000
 RMSDP=8.66D-06 MaxDP=3.34D-04 DE=-1.14D-04 OVMax= 5.26D-04

 Initial convergence to 1.0D-05 achieved.  Increase integral accuracy.
 Cycle   5  Pass 1  IDiag  1:
 E= -76.4220988737573     Delta-E=        0.000001002455 Rises=F Damp=F
 DIIS: error= 4.97D-05 at cycle   1 NSaved=   1.
 NSaved= 1 IEnMin= 1 EnMin= -76.4220988737573     IErMin= 1 ErrMin= 4.97D-05
 ErrMax= 4.97D-05  0.00D+00 EMaxC= 1.00D-01 BMatC= 9.91D-08 BMatP= 9.91D-08
 IDIUse=1 WtCom= 1.00D+00 WtEn= 0.00D+00
 Coeff-Com:  0.100D+01
 Coeff:      0.100D+01
 Gap=     0.418 Goal=   None    Shift=    0.000
 RMSDP=8.66D-06 MaxDP=3.34D-04 DE= 1.00D-06 OVMax= 2.21D-04

 Cycle   6  Pass 1  IDiag  1:
 E= -76.4220989659379     Delta-E=       -0.000000092181 Rises=F Damp=F
 DIIS: error= 2.40D-05 at cycle   2 NSaved=   2.
 NSaved= 2 IEnMin= 2 EnMin= -76.4220989659379     IErMin= 2 ErrMin= 2.40D-05
 ErrMax= 2.40D-05  0.00D+00 EMaxC= 1.00D-01 BMatC= 6.39D-08 BMatP= 9.91D-08
 IDIUse=1 WtCom= 1.00D+00 WtEn= 0.00D+00
 Coeff-Com:  0.429D+00 0.571D+00
 Coeff:      0.429D+00 0.571D+00
 Gap=     0.418 Goal=   None    Shift=    0.000
 RMSDP=1.17D-06 MaxDP=4.47D-05 DE=-9.22D-08 OVMax= 8.10D-05

 Cycle   7  Pass 1  IDiag  1:
 E= -76.4220990078396     Delta-E=       -0.000000041902 Rises=F Damp=F
 DIIS: error= 1.34D-05 at cycle   3 NSaved=   3.
 NSaved= 3 IEnMin= 3 EnMin= -76.4220990078396     IErMin= 3 ErrMin= 1.34D-05
 ErrMax= 1.34D-05  0.00D+00 EMaxC= 1.00D-01 BMatC= 5.08D-09 BMatP= 6.39D-08
 IDIUse=1 WtCom= 1.00D+00 WtEn= 0.00D+00
 Coeff-Com: -0.928D-01 0.157D+00 0.936D+00
 Coeff:     -0.928D-01 0.157D+00 0.936D+00
 Gap=     0.418 Goal=   None    Shift=    0.000
 RMSDP=6.51D-07 MaxDP=1.91D-05 DE=-4.19D-08 OVMax= 3.90D-05

 Cycle   8  Pass 1  IDiag  1:
 E= -76.4220990127878     Delta-E=       -0.000000004948 Rises=F Damp=F
 DIIS: error= 1.26D-06 at cycle   4 NSaved=   4.
 NSaved= 4 IEnMin= 4 EnMin= -76.4220990127878     IErMin= 4 ErrMin= 1.26D-06
 ErrMax= 1.26D-06  0.00D+00 EMaxC= 1.00D-01 BMatC= 7.71D-11 BMatP= 5.08D-09
 IDIUse=1 WtCom= 1.00D+00 WtEn= 0.00D+00
 Coeff-Com: -0.302D-01 0.657D-02 0.139D+00 0.885D+00
 Coeff:     -0.302D-01 0.657D-02 0.139D+00 0.885D+00
 Gap=     0.418 Goal=   None    Shift=    0.000
 RMSDP=1.09D-07 MaxDP=2.39D-06 DE=-4.95D-09 OVMax= 6.03D-06

 Cycle   9  Pass 1  IDiag  1:
 E= -76.4220990129020     Delta-E=       -0.000000000114 Rises=F Damp=F
 DIIS: error= 2.59D-07 at cycle   5 NSaved=   5.
 NSaved= 5 IEnMin= 5 EnMin= -76.4220990129020     IErMin= 5 ErrMin= 2.59D-07
 ErrMax= 2.59D-07  0.00D+00 EMaxC= 1.00D-01 BMatC= 1.95D-12 BMatP= 7.71D-11
 IDIUse=1 WtCom= 1.00D+00 WtEn= 0.00D+00
 Coeff-Com:  0.438D-02-0.651D-02-0.459D-01-0.783D-01 0.113D+01
 Coeff:      0.438D-02-0.651D-02-0.459D-01-0.783D-01 0.113D+01
 Gap=     0.418 Goal=   None    Shift=    0.000
 RMSDP=2.55D-08 MaxDP=7.02D-07 DE=-1.14D-10 OVMax= 1.66D-06

 Cycle  10  Pass 1  IDiag  1:
 E= -76.4220990129068     Delta-E=       -0.000000000005 Rises=F Damp=F
 DIIS: error= 1.88D-08 at cycle   6 NSaved=   6.
 NSaved= 6 IEnMin= 6 EnMin= -76.4220990129068     IErMin= 6 ErrMin= 1.88D-08
 ErrMax= 1.88D-08  0.00D+00 EMaxC= 1.00D-01 BMatC= 2.37D-14 BMatP= 1.95D-12
 IDIUse=1 WtCom= 1.00D+00 WtEn= 0.00D+00
 Coeff-Com: -0.305D-03 0.101D-02 0.664D-02 0.103D-02-0.175D+00 0.117D+01
 Coeff:     -0.305D-03 0.101D-02 0.664D-02 0.103D-02-0.175D+00 0.117D+01
 Gap=     0.418 Goal=   None    Shift=    0.000
 RMSDP=2.67D-09 MaxDP=5.18D-08 DE=-4.85D-12 OVMax= 1.57D-07

 SCF Done:  E(RM062X) =  -76.4220990129     A.U. after   10 cycles
            NFock= 10  Conv=0.27D-08     -V/T= 2.0031
 KE= 7.618602747406D+01 PE=-1.990211884000D+02 EE= 3.732463405857D+01
 Leave Link  502 at Sun Feb 19 12:03:33 2023, MaxMem=  6710886400 cpu:              39.7 elap:               2.0
 (Enter /data0/home/software/g16/l601.exe)
 Copying SCF densities to generalized density rwf, IOpCl= 0 IROHF=0.

 **********************************************************************

            Population analysis using the SCF density.

 **********************************************************************

 Alpha  occ. eigenvalues --  -19.62661  -1.13278  -0.60706  -0.47494  -0.39985
 Alpha virt. eigenvalues --    0.01850   0.08101   0.09834   0.11742   0.14403
 Alpha virt. eigenvalues --    0.15382   0.17957   0.18784   0.19653   0.21566
 Alpha virt. eigenvalues --    0.22335   0.24186   0.27363   0.28296   0.30977
 Alpha virt. eigenvalues --    0.31555   0.37128   0.38417   0.52631   0.57748
 Alpha virt. eigenvalues --    0.61083   0.63222   0.71046   0.77226   0.78443
 Alpha virt. eigenvalues --    0.79406   0.82374   0.89508   0.96962   1.00928
 Alpha virt. eigenvalues --    1.01568   1.04575   1.07000   1.09153   1.18668
 Alpha virt. eigenvalues --    1.21452   1.22900   1.33672   1.41241   1.67355
 Alpha virt. eigenvalues --    1.70835   1.75166   1.76038   1.80117   1.84046
 Alpha virt. eigenvalues --    1.88127   2.02788   2.05407   2.09154   2.11312
 Alpha virt. eigenvalues --    2.17483   2.24178   2.30648   2.35036   2.37442
 Alpha virt. eigenvalues --    2.43476   2.47177   2.48468   2.52789   2.54725
 Alpha virt. eigenvalues --    2.57725   2.60362   2.64260   2.67213   2.69047
 Alpha virt. eigenvalues --    2.72625   2.74569   2.83238   2.86456   2.89740
 Alpha virt. eigenvalues --    3.00830   3.01756   3.08458   3.13978   3.15215
 Alpha virt. eigenvalues --    3.49013   3.59032   3.62843   3.69977   4.55128
 Alpha virt. eigenvalues --    4.66730   5.06889   5.13613   5.23625   5.49316
 Alpha virt. eigenvalues --    5.96559   6.78458   6.80701   6.90223   6.92014
 Alpha virt. eigenvalues --    7.13569   9.77285   9.78786   9.86644   9.94856
 Alpha virt. eigenvalues --   10.06040  10.21101  10.21642  10.32693  10.40954
 Alpha virt. eigenvalues --   10.49597  12.83151  13.21767  13.38060  13.68035
 Alpha virt. eigenvalues --   13.76745  14.21545  17.63838  18.34765  49.99022
 Alpha virt. eigenvalues --  135.37275 139.53836
          Condensed to atoms (all electrons):
               1          2          3          4          5          6
     1  O    0.002911  -0.000780  -0.001622   0.002132  -0.001973  -0.000527
     2  H   -0.000780   0.000322   0.000352  -0.000576   0.000502   0.000122
     3  H   -0.001622   0.000352   0.001036  -0.000947   0.000922   0.000205
     4  O    0.002132  -0.000576  -0.000947   0.023699  -0.009639  -0.010824
     5  H   -0.001973   0.000502   0.000922  -0.009639   0.006181   0.002855
     6  H   -0.000527   0.000122   0.000205  -0.010824   0.002855   0.007548
     7  O    0.000378  -0.000218  -0.000076   0.022652  -0.003245  -0.001189
     8  H   -0.000151   0.000028   0.000028  -0.001798   0.000634   0.000814
     9  H   -0.000572   0.000137   0.000102  -0.002072   0.002456   0.004192
               7          8          9
     1  O    0.000378  -0.000151  -0.000572
     2  H   -0.000218   0.000028   0.000137
     3  H   -0.000076   0.000028   0.000102
     4  O    0.022652  -0.001798  -0.002072
     5  H   -0.003245   0.000634   0.002456
     6  H   -0.001189   0.000814   0.004192
     7  O    8.011677   0.300645   0.278446
     8  H    0.300645   0.439653  -0.016664
     9  H    0.278446  -0.016664   0.377518
 Mulliken charges:
               1
     1  O    0.000204
     2  H    0.000110
     3  H    0.000001
     4  O   -0.022626
     5  H    0.001308
     6  H   -0.003196
     7  O   -0.609070
     8  H    0.276811
     9  H    0.356458
 Sum of Mulliken charges =   0.00000
 Mulliken charges with hydrogens summed into heavy atoms:
               1
     1  O    0.000316
     4  O   -0.024514
     7  O    0.024198
         Mulliken charges condensed to fragments:
      1      0.000316
      2     -0.024514
      3      0.024198
 Electronic spatial extent (au):  <R**2>=           5064.8556
 Charge=             -0.0000 electrons
 Dipole moment (field-independent basis, Debye):
    X=             -0.3815    Y=              2.0414    Z=              0.0109  Tot=              2.0768
 Quadrupole moment (field-independent basis, Debye-Ang):
   XX=            -14.6140   YY=             13.4517   ZZ=             -4.2674
   XY=             16.4251   XZ=             -2.0660   YZ=             12.2209
 Traceless Quadrupole moment (field-independent basis, Debye-Ang):
   XX=            -12.8042   YY=             15.2616   ZZ=             -2.4575
   XY=             16.4251   XZ=             -2.0660   YZ=             12.2209
 Octapole moment (field-independent basis, Debye-Ang**2):
  XXX=           -303.8112  YYY=             52.4933  ZZZ=            -77.3089  XYY=            110.5509
  XXY=             92.8845  XXZ=            -84.1385  XZZ=            -51.2408  YZZ=             53.0935
  YYZ=             80.5122  XYZ=             98.9522
 Hexadecapole moment (field-independent basis, Debye-Ang**3):
 XXXX=          -4954.8663 YYYY=             43.6165 ZZZZ=           -930.8416 XXXY=             -4.5359
 XXXZ=          -1773.3291 YYYX=            413.4299 YYYZ=            315.3470 ZZZX=           -775.3577
 ZZZY=             79.9824 XXYY=            717.0285 XXZZ=           -853.2693 YYZZ=            388.6715
 XXYZ=            568.8046 YYXZ=            664.9176 ZZXY=            412.6018
 N-N= 9.088427854409D+00 E-N=-1.990211879425D+02  KE= 7.618602747406D+01
 No NMR shielding tensors so no spin-rotation constants.
 Leave Link  601 at Sun Feb 19 12:03:33 2023, MaxMem=  6710886400 cpu:               1.8 elap:               0.1
 (Enter /data0/home/software/g16/l122.exe)
 CPIOFr:  IOpCl= 0 IRwI=-1 IRwCP=  731 ICalc=  3 LCPTot=       22668 Len1MO=       57607 IndFrg=      253096
 Counterpoise: doing calculation for fragment   1 using the basis set of the fragment.
 Leave Link  122 at Sun Feb 19 12:03:33 2023, MaxMem=  6710886400 cpu:               0.1 elap:               0.0
 (Enter /data0/home/software/g16/l301.exe)
 Basis read from rwf:  (5D, 7F)
 No pseudopotential information found on rwf file.
    39 basis functions,    58 primitive gaussians,    41 cartesian basis functions
     5 alpha electrons        5 beta electrons
       nuclear repulsion energy         9.1205685883 Hartrees.
 IExCor= 4336 DFT=T Ex+Corr=M062X ExCW=0 ScaHFX=  0.540000
 ScaDFX=  1.000000  1.000000  1.000000  1.000000 ScalE2=  1.000000  1.000000
 IRadAn=      5 IRanWt=     -1 IRanGd=            0 ICorTp=0 IEmpDi=131
 NAtoms=    9 NActive=    3 NUniq=    3 SFac= 1.00D+00 NAtFMM=   60 NAOKFM=F Big=F
 Integral buffers will be    131072 words long.
 Raffenetti 2 integral format.
 Two-electron integral symmetry is turned off.
 R6Disp:  Grimme-D3 Dispersion energy=       -0.0000000075 Hartrees.
 Nuclear repulsion after empirical dispersion term =        9.1205685808 Hartrees.
 No density basis found on file   718.
 Leave Link  301 at Sun Feb 19 12:03:34 2023, MaxMem=  6710886400 cpu:               1.2 elap:               0.1
 (Enter /data0/home/software/g16/l302.exe)
 NPDir=0 NMtPBC=     1 NCelOv=     1 NCel=       1 NClECP=     1 NCelD=      1
         NCelK=      1 NCelE2=     1 NClLst=     1 CellRange=     0.0.
 One-electron integrals computed using PRISM.
 NBasis=    39 RedAO= T EigKep=  3.01D-03  NBF=    39
 NBsUse=    39 1.00D-06 EigRej= -1.00D+00 NBFU=    39
 Precomputing XC quadrature grid using
 IXCGrd= 4 IRadAn=           5 IRanWt=          -1 IRanGd=           0 AccXCQ= 0.00D+00.
 Generated NRdTot=       0 NPtTot=           0 NUsed=           0 NTot=          32
 NSgBfM=    41    41    41    41    41 MxSgAt=     3 MxSgA2=     3.
 Leave Link  302 at Sun Feb 19 12:03:34 2023, MaxMem=  6710886400 cpu:               2.2 elap:               0.1
 (Enter /data0/home/software/g16/l303.exe)
 DipDrv:  MaxL=1.
 Leave Link  303 at Sun Feb 19 12:03:34 2023, MaxMem=  6710886400 cpu:               0.4 elap:               0.0
 (Enter /data0/home/software/g16/l401.exe)
 ExpMin= 8.45D-02 ExpMax= 8.59D+03 ExpMxC= 1.30D+03 IAcc=3 IRadAn=         5 AccDes= 0.00D+00
 Harris functional with IExCor= 1009 and IRadAn=       5 diagonalized for initial guess.
 HarFok:  IExCor= 1009 AccDes= 0.00D+00 IRadAn=         5 IDoV= 1 UseB2=F ITyADJ=14
 ICtDFT=  3500011 ScaDFX=  1.000000  1.000000  1.000000  1.000000
 FoFCou: FMM=F IPFlag=           0 FMFlag=      100000 FMFlg1=           0
         NFxFlg=           0 DoJE=T BraDBF=F KetDBF=T FulRan=T
         wScrn=  0.000000 ICntrl=       500 IOpCl=  0 I1Cent=   200000004 NGrid=           0
         NMat0=    1 NMatS0=      1 NMatT0=    0 NMatD0=    1 NMtDS0=    0 NMtDT0=    0
 Symmetry not used in FoFCou.
 Harris En= -76.4166684879491    
 JPrj=0 DoOrth=F DoCkMO=F.
 Leave Link  401 at Sun Feb 19 12:03:34 2023, MaxMem=  6710886400 cpu:               2.8 elap:               0.1
 (Enter /data0/home/software/g16/l502.exe)
 Keep R1 ints in memory in canonical form, NReq=21036630.
 FoFCou: FMM=F IPFlag=           0 FMFlag=           0 FMFlg1=           0
         NFxFlg=           0 DoJE=F BraDBF=F KetDBF=F FulRan=T
         wScrn=  0.000000 ICntrl=       600 IOpCl=  0 I1Cent=           0 NGrid=           0
         NMat0=    1 NMatS0=    780 NMatT0=    0 NMatD0=    1 NMtDS0=    0 NMtDT0=    0
 Symmetry not used in FoFCou.
 Two-electron integral symmetry not used.
 Closed shell SCF:
 Using DIIS extrapolation, IDIIS=  1040.
 NGot=  6710886400 LenX=  6710576844 LenY=  6710574722
 Requested convergence on RMS density matrix=1.00D-08 within 128 cycles.
 Requested convergence on MAX density matrix=1.00D-06.
 Requested convergence on             energy=1.00D-06.
 No special actions if energy rises.
 Integral accuracy reduced to 1.0D-05 until final iterations.

 Cycle   1  Pass 0  IDiag  1:
 E= -76.3462345646515    
 DIIS: error= 7.03D-02 at cycle   1 NSaved=   1.
 NSaved= 1 IEnMin= 1 EnMin= -76.3462345646515     IErMin= 1 ErrMin= 7.03D-02
 ErrMax= 7.03D-02  0.00D+00 EMaxC= 1.00D-01 BMatC= 1.21D-01 BMatP= 1.21D-01
 IDIUse=3 WtCom= 2.97D-01 WtEn= 7.03D-01
 Coeff-Com:  0.100D+01
 Coeff-En:   0.100D+01
 Coeff:      0.100D+01
 Gap=     0.325 Goal=   None    Shift=    0.000
 GapD=    0.325 DampG=1.000 DampE=0.500 DampFc=0.5000 IDamp=-1.
 Damping current iteration by 5.00D-01
 RMSDP=7.93D-03 MaxDP=1.01D-01              OVMax= 1.68D-01

 Cycle   2  Pass 0  IDiag  1:
 E= -76.3777920036952     Delta-E=       -0.031557439044 Rises=F Damp=T
 DIIS: error= 1.15D-02 at cycle   2 NSaved=   2.
 NSaved= 2 IEnMin= 2 EnMin= -76.3777920036952     IErMin= 2 ErrMin= 1.15D-02
 ErrMax= 1.15D-02  0.00D+00 EMaxC= 1.00D-01 BMatC= 4.80D-03 BMatP= 1.21D-01
 IDIUse=3 WtCom= 8.85D-01 WtEn= 1.15D-01
 Coeff-Com:  0.814D-01 0.919D+00
 Coeff-En:   0.186D+00 0.814D+00
 Coeff:      0.934D-01 0.907D+00
 Gap=     0.458 Goal=   None    Shift=    0.000
 RMSDP=9.39D-04 MaxDP=1.39D-02 DE=-3.16D-02 OVMax= 1.00D-01

 Cycle   3  Pass 0  IDiag  1:
 E= -76.4217458751058     Delta-E=       -0.043953871411 Rises=F Damp=F
 DIIS: error= 2.16D-03 at cycle   3 NSaved=   3.
[...]
 Coeff:     -0.760D-04 0.138D-02 0.281D-02-0.321D-01-0.288D-01 0.106D+01
 Gap=     0.463 Goal=   None    Shift=    0.000
 RMSDP=3.46D-09 MaxDP=2.97D-08 DE=-3.84D-13 OVMax= 6.74D-08

 SCF Done:  E(RM062X) =  -76.4216793392     A.U. after   11 cycles
            NFock= 11  Conv=0.35D-08     -V/T= 2.0029
 KE= 7.619793202953D+01 PE=-1.990721263871D+02 EE= 3.734284799383D+01
 Leave Link  502 at Sun Feb 19 12:03:35 2023, MaxMem=  6710886400 cpu:               8.8 elap:               0.4
 (Enter /data0/home/software/g16/l601.exe)
 Copying SCF densities to generalized density rwf, IOpCl= 0 IROHF=0.

 **********************************************************************

            Population analysis using the SCF density.

 **********************************************************************

 Alpha  occ. eigenvalues --  -19.62576  -1.13358  -0.60847  -0.47448  -0.39982
 Alpha virt. eigenvalues --    0.06283   0.13333   0.17390   0.17948   0.18944
 Alpha virt. eigenvalues --    0.23254   0.51029   0.53635   0.97847   1.00241
 Alpha virt. eigenvalues --    1.06039   1.18727   1.19872   1.32517   1.33840
 Alpha virt. eigenvalues --    1.69536   1.74071   1.75851   2.07484   2.09605
 Alpha virt. eigenvalues --    2.35301   2.42231   2.54369   2.88459   3.01361
 Alpha virt. eigenvalues --    5.05692   5.47735   5.93042   6.78243   6.80284
 Alpha virt. eigenvalues --    6.87058   6.91475   7.09532  49.95944
          Condensed to atoms (all electrons):
               4          5          6
     4  O    7.915205   0.319076   0.323233
     5  H    0.319076   0.424814  -0.024516
     6  H    0.323233  -0.024516   0.424396
 Mulliken charges:
               1
     1  O    0.000000
     2  H    0.000000
     3  H    0.000000
     4  O   -0.557514
     5  H    0.280626
     6  H    0.276887
     7  O    0.000000
     8  H    0.000000
     9  H    0.000000
 Sum of Mulliken charges =  -0.00000
 Mulliken charges with hydrogens summed into heavy atoms:
               1
     1  O    0.000000
     4  O   -0.000000
     7  O    0.000000
         Mulliken charges condensed to fragments:
      1      0.000000
      2     -0.000000
      3      0.000000
 Electronic spatial extent (au):  <R**2>=           4852.8644
 Charge=             -0.0000 electrons
 Dipole moment (field-independent basis, Debye):
    X=              1.2268    Y=             -0.0509    Z=             -1.7168  Tot=              2.1107
 Quadrupole moment (field-independent basis, Debye-Ang):
   XX=             16.1453   YY=             -7.2930   ZZ=            -18.9362
   XY=              8.8305   XZ=            -10.3231   YZ=            -10.4598
 Traceless Quadrupole moment (field-independent basis, Debye-Ang):
   XX=             19.5066   YY=             -3.9317   ZZ=            -15.5749
   XY=              8.8305   XZ=            -10.3231   YZ=            -10.4598
 Octapole moment (field-independent basis, Debye-Ang**2):
  XXX=            141.0272  YYY=           -135.9590  ZZZ=           -141.7320  XYY=              4.3293
  XXY=            124.6460  XXZ=            -69.3728  XZZ=           -148.7353  YZZ=           -117.6610
  YYZ=            -88.7306  XYZ=            -56.1690
 Hexadecapole moment (field-independent basis, Debye-Ang**3):
 XXXX=            799.8728 YYYY=          -1749.4193 ZZZZ=           -897.3081 XXXY=           1203.7375
 XXXZ=           -603.9793 YYYX=           -699.6634 YYYZ=           -876.6289 ZZZX=          -1182.8062
 ZZZY=           -892.0268 XXYY=            417.5702 XXZZ=          -1232.0976 YYZZ=           -828.1965
 XXYZ=           -310.1732 YYXZ=           -517.5850 ZZXY=           -901.5074
 N-N= 9.109667024597D+00 E-N=-1.990721267161D+02  KE= 7.619793202953D+01
 No NMR shielding tensors so no spin-rotation constants.
 Leave Link  601 at Sun Feb 19 12:03:35 2023, MaxMem=  6710886400 cpu:               1.8 elap:               0.1
 (Enter /data0/home/software/g16/l122.exe)
 CPIOFr:  IOpCl= 0 IRwI=-1 IRwCP=  731 ICalc=  5 LCPTot=       22668 Len1MO=       57607 IndFrg=      368310
 Counterpoise: doing calculation for fragment   3 using the basis set of the fragment.
 Leave Link  122 at Sun Feb 19 12:03:35 2023, MaxMem=  6710886400 cpu:               0.1 elap:               0.0
 (Enter /data0/home/software/g16/l301.exe)
 Basis read from rwf:  (5D, 7F)
 No pseudopotential information found on rwf file.
    39 basis functions,    58 primitive gaussians,    41 cartesian basis functions
     5 alpha electrons        5 beta electrons
       nuclear repulsion energy         9.0884278623 Hartrees.
 IExCor= 4336 DFT=T Ex+Corr=M062X ExCW=0 ScaHFX=  0.540000
 ScaDFX=  1.000000  1.000000  1.000000  1.000000 ScalE2=  1.000000  1.000000
 IRadAn=      5 IRanWt=     -1 IRanGd=            0 ICorTp=0 IEmpDi=131
 NAtoms=    9 NActive=    3 NUniq=    3 SFac= 1.00D+00 NAtFMM=   60 NAOKFM=F Big=F
 Integral buffers will be    131072 words long.
 Raffenetti 2 integral format.
 Two-electron integral symmetry is turned off.
 R6Disp:  Grimme-D3 Dispersion energy=       -0.0000000079 Hartrees.
 Nuclear repulsion after empirical dispersion term =        9.0884278544 Hartrees.
 No density basis found on file   718.
 Leave Link  301 at Sun Feb 19 12:03:35 2023, MaxMem=  6710886400 cpu:               1.3 elap:               0.1
 (Enter /data0/home/software/g16/l302.exe)
 NPDir=0 NMtPBC=     1 NCelOv=     1 NCel=       1 NClECP=     1 NCelD=      1
         NCelK=      1 NCelE2=     1 NClLst=     1 CellRange=     0.0.
 One-electron integrals computed using PRISM.
 NBasis=    39 RedAO= T EigKep=  3.07D-03  NBF=    39
 NBsUse=    39 1.00D-06 EigRej= -1.00D+00 NBFU=    39
 Precomputing XC quadrature grid using
 IXCGrd= 4 IRadAn=           5 IRanWt=          -1 IRanGd=           0 AccXCQ= 0.00D+00.
 Generated NRdTot=       0 NPtTot=           0 NUsed=           0 NTot=          32
 NSgBfM=    41    41    41    41    41 MxSgAt=     3 MxSgA2=     3.
 Leave Link  302 at Sun Feb 19 12:03:35 2023, MaxMem=  6710886400 cpu:               2.2 elap:               0.1
 (Enter /data0/home/software/g16/l303.exe)
 DipDrv:  MaxL=1.
 Leave Link  303 at Sun Feb 19 12:03:35 2023, MaxMem=  6710886400 cpu:               0.4 elap:               0.0
 (Enter /data0/home/software/g16/l401.exe)
 ExpMin= 8.45D-02 ExpMax= 8.59D+03 ExpMxC= 1.30D+03 IAcc=3 IRadAn=         5 AccDes= 0.00D+00
 Harris functional with IExCor= 1009 and IRadAn=       5 diagonalized for initial guess.
 HarFok:  IExCor= 1009 AccDes= 0.00D+00 IRadAn=         5 IDoV= 1 UseB2=F ITyADJ=14
 ICtDFT=  3500011 ScaDFX=  1.000000  1.000000  1.000000  1.000000
 FoFCou: FMM=F IPFlag=           0 FMFlag=      100000 FMFlg1=           0
         NFxFlg=           0 DoJE=T BraDBF=F KetDBF=T FulRan=T
         wScrn=  0.000000 ICntrl=       500 IOpCl=  0 I1Cent=   200000004 NGrid=           0
         NMat0=    1 NMatS0=      1 NMatT0=    0 NMatD0=    1 NMtDS0=    0 NMtDT0=    0
 Symmetry not used in FoFCou.
 Harris En= -76.4164245850556    
 JPrj=0 DoOrth=F DoCkMO=F.
 Leave Link  401 at Sun Feb 19 12:03:36 2023, MaxMem=  6710886400 cpu:               2.9 elap:               0.1
 (Enter /data0/home/software/g16/l502.exe)
 Keep R1 ints in memory in canonical form, NReq=21036630.
 FoFCou: FMM=F IPFlag=           0 FMFlag=           0 FMFlg1=           0
         NFxFlg=           0 DoJE=F BraDBF=F KetDBF=F FulRan=T
         wScrn=  0.000000 ICntrl=       600 IOpCl=  0 I1Cent=           0 NGrid=           0
         NMat0=    1 NMatS0=    780 NMatT0=    0 NMatD0=    1 NMtDS0=    0 NMtDT0=    0
 Symmetry not used in FoFCou.
 Two-electron integral symmetry not used.
 Closed shell SCF:
 Using DIIS extrapolation, IDIIS=  1040.
 NGot=  6710886400 LenX=  6710576844 LenY=  6710574722
 Requested convergence on RMS density matrix=1.00D-08 within 128 cycles.
 Requested convergence on MAX density matrix=1.00D-06.
 Requested convergence on             energy=1.00D-06.
 No special actions if energy rises.
 Integral accuracy reduced to 1.0D-05 until final iterations.

 Cycle   1  Pass 0  IDiag  1:
 E= -76.3464619163072    
 DIIS: error= 7.00D-02 at cycle   1 NSaved=   1.
 NSaved= 1 IEnMin= 1 EnMin= -76.3464619163072     IErMin= 1 ErrMin= 7.00D-02
 ErrMax= 7.00D-02  0.00D+00 EMaxC= 1.00D-01 BMatC= 1.20D-01 BMatP= 1.20D-01
 IDIUse=3 WtCom= 3.00D-01 WtEn= 7.00D-01
 Coeff-Com:  0.100D+01
 Coeff-En:   0.100D+01
 Coeff:      0.100D+01
 Gap=     0.325 Goal=   None    Shift=    0.000
 GapD=    0.325 DampG=1.000 DampE=0.500 DampFc=0.5000 IDamp=-1.
 Damping current iteration by 5.00D-01
 RMSDP=7.90D-03 MaxDP=1.01D-01              OVMax= 1.68D-01

 Cycle   2  Pass 0  IDiag  1:
 E= -76.3777916393248     Delta-E=       -0.031329723018 Rises=F Damp=T
 DIIS: error= 1.14D-02 at cycle   2 NSaved=   2.
 NSaved= 2 IEnMin= 2 EnMin= -76.3777916393248     IErMin= 2 ErrMin= 1.14D-02
 ErrMax= 1.14D-02  0.00D+00 EMaxC= 1.00D-01 BMatC= 4.85D-03 BMatP= 1.20D-01
 IDIUse=3 WtCom= 8.86D-01 WtEn= 1.14D-01
 Coeff-Com:  0.829D-01 0.917D+00
 Coeff-En:   0.188D+00 0.812D+00
 Coeff:      0.949D-01 0.905D+00
 Gap=     0.457 Goal=   None    Shift=    0.000
 RMSDP=9.43D-04 MaxDP=1.40D-02 DE=-3.13D-02 OVMax= 1.00D-01

 Cycle   3  Pass 0  IDiag  1:
 E= -76.4216718896395     Delta-E=       -0.043880250315 Rises=F Damp=F
 DIIS: error= 2.18D-03 at cycle   3 NSaved=   3.
 NSaved= 3 IEnMin= 3 EnMin= -76.4216718896395     IErMin= 3 ErrMin= 2.18D-03
 ErrMax= 2.18D-03  0.00D+00 EMaxC= 1.00D-01 BMatC= 9.18D-05 BMatP= 4.85D-03
 IDIUse=3 WtCom= 9.78D-01 WtEn= 2.18D-02
 Coeff-Com: -0.200D-01 0.401D-01 0.980D+00
 Coeff-En:   0.000D+00 0.000D+00 0.100D+01
 Coeff:     -0.195D-01 0.392D-01 0.980D+00
 Gap=     0.461 Goal=   None    Shift=    0.000
 RMSDP=1.15D-04 MaxDP=1.06D-03 DE=-4.39D-02 OVMax= 3.32D-03

 Cycle   4  Pass 0  IDiag  1:
 E= -76.4217501360772     Delta-E=       -0.000078246438 Rises=F Damp=F
 DIIS: error= 4.15D-04 at cycle   4 NSaved=   4.
 NSaved= 4 IEnMin= 4 EnMin= -76.4217501360772     IErMin= 4 ErrMin= 4.15D-04
 ErrMax= 4.15D-04  0.00D+00 EMaxC= 1.00D-01 BMatC= 3.34D-06 BMatP= 9.18D-05
 IDIUse=3 WtCom= 9.96D-01 WtEn= 4.15D-03
 Coeff-Com: -0.195D-02-0.217D-02 0.164D+00 0.840D+00
 Coeff-En:   0.000D+00 0.000D+00 0.000D+00 0.100D+01
 Coeff:     -0.194D-02-0.216D-02 0.163D+00 0.841D+00
 Gap=     0.462 Goal=   None    Shift=    0.000
 RMSDP=2.22D-05 MaxDP=3.54D-04 DE=-7.82D-05 OVMax= 5.37D-04

 Cycle   5  Pass 0  IDiag  1:
 E= -76.4217521929046     Delta-E=       -0.000002056827 Rises=F Damp=F
 DIIS: error= 8.99D-05 at cycle   5 NSaved=   5.
 NSaved= 5 IEnMin= 5 EnMin= -76.4217521929046     IErMin= 5 ErrMin= 8.99D-05
 ErrMax= 8.99D-05  0.00D+00 EMaxC= 1.00D-01 BMatC= 8.38D-08 BMatP= 3.34D-06
 IDIUse=1 WtCom= 1.00D+00 WtEn= 0.00D+00
 Coeff-Com:  0.118D-02-0.180D-02-0.367D-01-0.682D-01 0.111D+01
 Coeff:      0.118D-02-0.180D-02-0.367D-01-0.682D-01 0.111D+01
 Gap=     0.462 Goal=   None    Shift=    0.000
 RMSDP=9.04D-06 MaxDP=1.03D-04 DE=-2.06D-06 OVMax= 2.04D-04

 Initial convergence to 1.0D-05 achieved.  Increase integral accuracy.
 Cycle   6  Pass 1  IDiag  1:
 E= -76.4217496991704     Delta-E=        0.000002493734 Rises=F Damp=F
 DIIS: error= 2.19D-05 at cycle   1 NSaved=   1.
 NSaved= 1 IEnMin= 1 EnMin= -76.4217496991704     IErMin= 1 ErrMin= 2.19D-05
 ErrMax= 2.19D-05  0.00D+00 EMaxC= 1.00D-01 BMatC= 1.72D-08 BMatP= 1.72D-08
 IDIUse=1 WtCom= 1.00D+00 WtEn= 0.00D+00
 Coeff-Com:  0.100D+01
 Coeff:      0.100D+01
 Gap=     0.462 Goal=   None    Shift=    0.000
 RMSDP=9.04D-06 MaxDP=1.03D-04 DE= 2.49D-06 OVMax= 3.99D-05

 Cycle   7  Pass 1  IDiag  1:
 E= -76.4217497115595     Delta-E=       -0.000000012389 Rises=F Damp=F
 DIIS: error= 5.24D-06 at cycle   2 NSaved=   2.
 NSaved= 2 IEnMin= 2 EnMin= -76.4217497115595     IErMin= 2 ErrMin= 5.24D-06
 ErrMax= 5.24D-06  0.00D+00 EMaxC= 1.00D-01 BMatC= 5.05D-10 BMatP= 1.72D-08
 IDIUse=1 WtCom= 1.00D+00 WtEn= 0.00D+00
 Coeff-Com: -0.203D-01 0.102D+01
 Coeff:     -0.203D-01 0.102D+01
 Gap=     0.462 Goal=   None    Shift=    0.000
 RMSDP=5.39D-07 MaxDP=8.39D-06 DE=-1.24D-08 OVMax= 1.29D-05

 Cycle   8  Pass 1  IDiag  1:
 E= -76.4217497116344     Delta-E=       -0.000000000075 Rises=F Damp=F
 DIIS: error= 4.88D-06 at cycle   3 NSaved=   3.
 NSaved= 3 IEnMin= 3 EnMin= -76.4217497116344     IErMin= 3 ErrMin= 4.88D-06
 ErrMax= 4.88D-06  0.00D+00 EMaxC= 1.00D-01 BMatC= 5.41D-10 BMatP= 5.05D-10
 IDIUse=1 WtCom= 1.00D+00 WtEn= 0.00D+00
 Coeff-Com: -0.376D-01 0.536D+00 0.502D+00
 Coeff:     -0.376D-01 0.536D+00 0.502D+00
 Gap=     0.462 Goal=   None    Shift=    0.000
 RMSDP=2.62D-07 MaxDP=3.67D-06 DE=-7.49D-11 OVMax= 6.05D-06

 Cycle   9  Pass 1  IDiag  1:
 E= -76.4217497119861     Delta-E=       -0.000000000352 Rises=F Damp=F
 DIIS: error= 4.29D-07 at cycle   4 NSaved=   4.
 NSaved= 4 IEnMin= 4 EnMin= -76.4217497119861     IErMin= 4 ErrMin= 4.29D-07
 ErrMax= 4.29D-07  0.00D+00 EMaxC= 1.00D-01 BMatC= 2.89D-12 BMatP= 5.05D-10
 IDIUse=1 WtCom= 1.00D+00 WtEn= 0.00D+00
 Coeff-Com:  0.170D-02-0.554D-01 0.650D-02 0.105D+01
 Coeff:      0.170D-02-0.554D-01 0.650D-02 0.105D+01
 Gap=     0.462 Goal=   None    Shift=    0.000
 RMSDP=5.76D-08 MaxDP=4.43D-07 DE=-3.52D-10 OVMax= 1.10D-06

 Cycle  10  Pass 1  IDiag  1:
 E= -76.4217497119908     Delta-E=       -0.000000000005 Rises=F Damp=F
 DIIS: error= 5.19D-08 at cycle   5 NSaved=   5.
 NSaved= 5 IEnMin= 5 EnMin= -76.4217497119908     IErMin= 5 ErrMin= 5.19D-08
 ErrMax= 5.19D-08  0.00D+00 EMaxC= 1.00D-01 BMatC= 1.16D-13 BMatP= 2.89D-12
 IDIUse=1 WtCom= 1.00D+00 WtEn= 0.00D+00
 Coeff-Com:  0.145D-02-0.241D-01-0.188D-01 0.761D-01 0.965D+00
 Coeff:      0.145D-02-0.241D-01-0.188D-01 0.761D-01 0.965D+00
 Gap=     0.462 Goal=   None    Shift=    0.000
 RMSDP=1.64D-08 MaxDP=1.53D-07 DE=-4.66D-12 OVMax= 3.13D-07

 Cycle  11  Pass 1  IDiag  1:
 E= -76.4217497119913     Delta-E=       -0.000000000000 Rises=F Damp=F
 DIIS: error= 9.57D-09 at cycle   6 NSaved=   6.
 NSaved= 6 IEnMin= 6 EnMin= -76.4217497119913     IErMin= 6 ErrMin= 9.57D-09
 ErrMax= 9.57D-09  0.00D+00 EMaxC= 1.00D-01 BMatC= 5.32D-15 BMatP= 1.16D-13
 IDIUse=1 WtCom= 1.00D+00 WtEn= 0.00D+00
 Coeff-Com:  0.600D-04 0.715D-03-0.229D-02-0.579D-01 0.258D-01 0.103D+01
 Coeff:      0.600D-04 0.715D-03-0.229D-02-0.579D-01 0.258D-01 0.103D+01
 Gap=     0.462 Goal=   None    Shift=    0.000
 RMSDP=4.19D-09 MaxDP=4.54D-08 DE=-4.83D-13 OVMax= 7.88D-08

 SCF Done:  E(RM062X) =  -76.4217497120     A.U. after   11 cycles
            NFock= 11  Conv=0.42D-08     -V/T= 2.0030
 KE= 7.618986542496D+01 PE=-1.990260716404D+02 EE= 3.732602864908D+01
 Leave Link  502 at Sun Feb 19 12:03:36 2023, MaxMem=  6710886400 cpu:               7.5 elap:               0.3
 (Enter /data0/home/software/g16/l601.exe)
 Copying SCF densities to generalized density rwf, IOpCl= 0 IROHF=0.

 **********************************************************************

            Population analysis using the SCF density.

 **********************************************************************

 Alpha  occ. eigenvalues --  -19.62623  -1.13270  -0.60700  -0.47471  -0.39969
 Alpha virt. eigenvalues --    0.06239   0.13297   0.17402   0.17949   0.18930
 Alpha virt. eigenvalues --    0.23292   0.51020   0.53297   0.97956   1.00258
 Alpha virt. eigenvalues --    1.06033   1.18519   1.19865   1.32382   1.33968
 Alpha virt. eigenvalues --    1.69576   1.74058   1.75626   2.07581   2.09195
 Alpha virt. eigenvalues --    2.35453   2.41553   2.54365   2.88158   3.00883
 Alpha virt. eigenvalues --    5.05660   5.47690   5.91857   6.78297   6.80262
 Alpha virt. eigenvalues --    6.87153   6.91454   7.09691  49.95636
          Condensed to atoms (all electrons):
               7          8          9
     7  O    7.917405   0.321466   0.318440
     8  H    0.321466   0.425502  -0.024271
     9  H    0.318440  -0.024271   0.425824
 Mulliken charges:
               1
     1  O    0.000000
     2  H    0.000000
     3  H    0.000000
     4  O    0.000000
     5  H    0.000000
     6  H    0.000000
     7  O   -0.557310
     8  H    0.277303
     9  H    0.280007
 Sum of Mulliken charges =  -0.00000
 Mulliken charges with hydrogens summed into heavy atoms:
               1
     1  O    0.000000
     4  O    0.000000
     7  O   -0.000000
         Mulliken charges condensed to fragments:
      1      0.000000
      2      0.000000
      3     -0.000000
 Electronic spatial extent (au):  <R**2>=           5064.7882
 Charge=             -0.0000 electrons
 Dipole moment (field-independent basis, Debye):
    X=             -0.3867    Y=              2.0810    Z=             -0.0088  Tot=              2.1167
 Quadrupole moment (field-independent basis, Debye-Ang):
   XX=            -14.7141   YY=             13.8598   ZZ=             -4.4846
   XY=             16.7546   XZ=             -2.2709   YZ=             12.3355
 Traceless Quadrupole moment (field-independent basis, Debye-Ang):
   XX=            -12.9345   YY=             15.6394   ZZ=             -2.7050
   XY=             16.7546   XZ=             -2.2709   YZ=             12.3355
 Octapole moment (field-independent basis, Debye-Ang**2):
  XXX=           -305.2635  YYY=             55.7967  ZZZ=            -79.1673  XYY=            114.0775
  XXY=             95.6188  XXZ=            -86.3069  XZZ=            -53.3389  YZZ=             53.1787
  YYZ=             82.1943  XYZ=             99.8393
 Hexadecapole moment (field-independent basis, Debye-Ang**3):
 XXXX=          -4973.7131 YYYY=             68.4157 ZZZZ=           -945.3782 XXXY=             18.0048
 XXXZ=          -1796.5480 YYYX=            442.3487 YYYZ=            330.3437 ZZZX=           -792.8157
 ZZZY=             77.2312 XXYY=            747.7375 XXZZ=           -874.0983 YYZZ=            395.0933
 XXYZ=            575.3264 YYXZ=            679.2671 ZZXY=            412.5958
 N-N= 9.088427854409D+00 E-N=-1.990260716458D+02  KE= 7.618986542496D+01
 No NMR shielding tensors so no spin-rotation constants.
 Leave Link  601 at Sun Feb 19 12:03:36 2023, MaxMem=  6710886400 cpu:               1.8 elap:               0.1
 (Enter /data0/home/software/g16/l122.exe)
 CPIOFr:  IOpCl= 0 IRwI=-1 IRwCP=  731 ICalc=  6 LCPTot=       22668 Len1MO=       57607 IndFrg=      425917
 Restoring MOs from calculation   1 to rwf.
 CPIOFr:  IOpCl= 0 IRwI=-2 IRwCP=  731 ICalc=  0 LCPTot=       22668 Len1MO=       57607 IndFrg=       80275
 Counterpoise corrected energy =    -229.283478912340
                   BSSE energy =       0.002485001341
              sum of fragments =    -229.265249786074
           complexation energy =     -13.00 kcal/mole (raw)
           complexation energy =     -11.44 kcal/mole (corrected)
 Leave Link  122 at Sun Feb 19 12:03:36 2023, MaxMem=  6710886400 cpu:               0.1 elap:               0.0
 (Enter /data0/home/software/g16/l9999.exe)
 1\1\GINC-LOCALHOST\SP\RM062X\6-311+G(2d,p)\H6O3\WUHANYU\19-Feb-2023\0\
 \#p M062X/6-311+G(2d,p) nosymm em=GD3 counterpoise=3\\Title Card Requi
 red\\0,1\O,0,11.30381,7.657134,3.378717\H,0,11.930852,7.133101,3.90848
 4\H,0,11.331639,8.524474,3.781223\O,0,8.836836,6.5088,3.818537\H,0,9.7
 07202,6.935049,3.682691\H,0,8.659386,6.058741,2.996304\O,0,9.096724,4.
 7561,5.954467\H,0,9.013434,5.337554,6.713238\H,0,8.962606,5.343504,5.1
 8467\\Version=ES64L-G16RevA.03\HF=-76.4217497\RMSD=4.193e-09\Dipole=1.
 0543594,1.3617779,-0.3228622\Quadrupole=18.5088392,8.406731,-26.915570
 2,39.6011557,4.8406679,12.0337166\PG=C01 [X(H6O3)]\\@


 THE TRULY SUCCESSFUL PERFORMANCE OF RESEARCHES IN
 INORGANIC CHEMISTRY IS POSSIBLE ONLY TO ONE WHO IS NOT
 ONLY A THEORETICAL CHEMIST, BUT ALSO AN ACCOMPLISHED
 ANALYST AND, MOREOVER, NOT MERELY A PRACTICALLY TRAINED,
 MECHANICAL WORKER, BUT A THINKING CREATIVE ARTIST.
   --  CLEMENS WINKLER, BER. 33, 1697(1900)
 Job cpu time:       0 days  0 hours  4 minutes 26.1 seconds.
 Elapsed time:       0 days  0 hours  0 minutes 13.3 seconds.
 File lengths (MBytes):  RWF=     15 Int=      0 D2E=      0 Chk=      5 Scr=      1
 Normal termination of Gaussian 16 at Sun Feb 19 12:03:36 2023.
