 Entering Gaussian System, Link 0=g16
 Initial command:
 /data0/home/software/g16/l1.exe "/data0/home/software/g16/scratch/Gau-2487942.inp" -scrdir="/data0/home/software/g16/scratch/"
 Default is to use a total of  22 processors:
                               22 via shared-memory
                                1 via Linda
 Entering Link 1 = /data0/home/software/g16/l1.exe PID=   2487943.
  
 Copyright (c) 1988,1990,1992,1993,1995,1998,2003,2009,2016,
            Gaussian, Inc.  All Rights Reserved.
  
 This is part of the Gaussian(R) 16 program.  It is based on
 the Gaussian(R) 09 system (copyright 2009, Gaussian, Inc.),
 the Gaussian(R) 03 system (copyright 2003, Gaussian, Inc.),
 the Gaussian(R) 98 system (copyright 1998, Gaussian, Inc.),
 the Gaussian(R) 94 system (copyright 1995, Gaussian, Inc.),
 the Gaussian 92(TM) system (copyright 1992, Gaussian, Inc.),
 the Gaussian 90(TM) system (copyright 1990, Gaussian, Inc.),
 the Gaussian 88(TM) system (copyright 1988, Gaussian, Inc.),
 the Gaussian 86(TM) system (copyright 1986, Carnegie Mellon
 University), and the Gaussian 82(TM) system (copyright 1983,
 Carnegie Mellon University). Gaussian is a federally registered
 trademark of Gaussian, Inc.
  
 This software contains proprietary and confidential information,
 including trade secrets, belonging to Gaussian, Inc.
  
 This software is provided under written license and may be
 used, copied, transmitted, or stored only in accord with that
 written license.
  
 The following legend is applicable only to US Government
 contracts under FAR:
  
                    RESTRICTED RIGHTS LEGEND
  
 Use, reproduction and disclosure by the US Government is
 subject to restrictions as set forth in subparagraphs (a)
 and (c) of the Commercial Computer Software - Restricted
 Rights clause in FAR 52.227-19.
  
 Gaussian, Inc.
 340 Quinnipiac St., Bldg. 40, Wallingford CT 06492
  
  
 ---------------------------------------------------------------
 Warning -- This program may not be used in any manner that
 competes with the business of Gaussian, Inc. or will provide
 assistance to any competitor of Gaussian, Inc.  The licensee
 of this program is prohibited from giving any competitor of
 Gaussian, Inc. access to this program.  By using this program,
 the user acknowledges that Gaussian, Inc. is engaged in the
 business of creating and licensing software in the field of
 computational chemistry and represents and warrants to the
 licensee that it is not a competitor of Gaussian, Inc. and that
 it will not use this program in any manner prohibited above.
 ---------------------------------------------------------------
  

 Cite this work as:
 Gaussian 16, Revision A.03,
 M. J. Frisch, G. W. Trucks, H. B. Schlegel, G. E. Scuseria, 
 M. A. Robb, J. R. Cheeseman, G. Scalmani, V. Barone, 
 G. A. Petersson, H. Nakatsuji, X. Li, M. Caricato, A. V. Marenich, 
 J. Bloino, B. G. Janesko, R. Gomperts, B. Mennucci, H. P. Hratchian, 
 J. V. Ortiz, A. F. Izmaylov, J. L. Sonnenberg, D. Williams-Young, 
 F. Ding, F. Lipparini, F. Egidi, J. Goings, B. Peng, A. Petrone, 
 T. Henderson, D. Ranasinghe, V. G. Zakrzewski, J. Gao, N. Rega, 
 G. Zheng, W. Liang, M. Hada, M. Ehara, K. Toyota, R. Fukuda, 
 J. Hasegawa, M. Ishida, T. Nakajima, Y. Honda, O. Kitao, H. Nakai, 
 T. Vreven, K. Throssell, J. A. Montgomery, Jr., J. E. Peralta, 
 F. Ogliaro, M. J. Bearpark, J. J. Heyd, E. N. Brothers, K. N. Kudin, 
 V. N. Staroverov, T. A. Keith, R. Kobayashi, J. Normand, 
 K. Raghavachari, A. P. Rendell, J. C. Burant, S. S. Iyengar, 
 J. Tomasi, M. Cossi, J. M. Millam, M. Klene, C. Adamo, R. Cammi, 
 J. W. Ochterski, R. L. Martin, K. Morokuma, O. Farkas, 
 J. B. Foresman, and D. J. Fox, Gaussian, Inc., Wallingford CT, 2016.
 
 ******************************************
 Gaussian 16:  ES64L-G16RevA.03 25-Dec-2016
                11-Oct-2023 
 ******************************************
 %nprocshared=24
 Will use up to   24 processors via shared memory.
 %mem=50GB
 -----------------------------------------------------------------
 #p opt freq b3lyp/6-311+g(2d,p) scrf=(smd,solvent=water) em=gd3bj
 -----------------------------------------------------------------
 1/18=20,19=15,26=3,38=1/1,3;
 2/9=110,12=2,17=6,18=5,40=1/2;
 3/5=4,6=6,7=112,11=2,25=1,30=1,70=32201,71=1,72=1,74=-5,124=41/1,2,3;
 4//1;
 5/5=2,38=5,53=1/2;
 6/7=2,8=2,9=2,10=2,28=1/1;
 7//1,2,3,16;
 1/18=20,19=15,26=3/3(2);
 2/9=110/2;
 99//99;
 2/9=110/2;
 3/5=4,6=6,7=112,11=2,25=1,30=1,70=32205,71=1,72=1,74=-5,124=41/1,2,3;
 4/5=5,16=3,69=1/1;
 5/5=2,38=5,53=1/2;
 7//1,2,3,16;
 1/18=20,19=15,26=3/3(-5);
 2/9=110/2;
 6/7=2,8=2,9=2,10=2,19=2,28=1/1;
 99/9=1/99;
 Leave Link    1 at Wed Oct 11 11:58:17 2023, MaxMem=  6710886400 cpu:               0.9 elap:               0.0
 (Enter /data0/home/software/g16/l101.exe)
 -------------------
 Title Card Required
 -------------------
 Symbolic Z-matrix:
 Charge =  0 Multiplicity = 1
 C                    -1.14335  -0.71859  -0.0002 
 C                    -1.1947    0.67015  -0.00012 
 C                     0.00002   1.38059   0.00009 
 C                     1.19471   0.67013   0.00021 
 C                     1.14333  -0.71861   0.0001 
 N                    -0.00002  -1.41806  -0.00009 
 H                     0.00002   2.46401   0.00017 
 H                    -2.06068  -1.29718  -0.00037 
 H                    -2.1512    1.17745  -0.00023 
 H                     2.15124   1.17739   0.00038 
 H                     2.06065  -1.29722   0.0002 
 
 ITRead=  0  0  0  0  0  0  0  0  0  0  0
 MicOpt= -1 -1 -1 -1 -1 -1 -1 -1 -1 -1 -1
 NAtoms=     11 NQM=       11 NQMF=       0 NMMI=      0 NMMIF=      0
                NMic=       0 NMicF=      0.
                    Isotopes and Nuclear Properties:
 (Nuclear quadrupole moments (NQMom) in fm**2, nuclear magnetic moments (NMagM)
  in nuclear magnetons)

  Atom         1           2           3           4           5           6           7           8           9          10
 IAtWgt=          12          12          12          12          12          14           1           1           1           1
 AtmWgt=  12.0000000  12.0000000  12.0000000  12.0000000  12.0000000  14.0030740   1.0078250   1.0078250   1.0078250   1.0078250
 NucSpn=           0           0           0           0           0           2           1           1           1           1
 AtZEff=  -0.0000000  -0.0000000  -0.0000000  -0.0000000  -0.0000000  -0.0000000  -0.0000000  -0.0000000  -0.0000000  -0.0000000
 NQMom=    0.0000000   0.0000000   0.0000000   0.0000000   0.0000000   2.0440000   0.0000000   0.0000000   0.0000000   0.0000000
 NMagM=    0.0000000   0.0000000   0.0000000   0.0000000   0.0000000   0.4037610   2.7928460   2.7928460   2.7928460   2.7928460
 AtZNuc=   6.0000000   6.0000000   6.0000000   6.0000000   6.0000000   7.0000000   1.0000000   1.0000000   1.0000000   1.0000000

  Atom        11
 IAtWgt=           1
 AtmWgt=   1.0078250
 NucSpn=           1
 AtZEff=  -0.0000000
 NQMom=    0.0000000
 NMagM=    2.7928460
 AtZNuc=   1.0000000
 Leave Link  101 at Wed Oct 11 11:58:18 2023, MaxMem=  6710886400 cpu:               7.7 elap:               0.3
 (Enter /data0/home/software/g16/l103.exe)

 GradGradGradGradGradGradGradGradGradGradGradGradGradGradGradGradGradGrad
 Berny optimization.
 Initialization pass.
                           ----------------------------
                           !    Initial Parameters    !
                           ! (Angstroms and Degrees)  !
 --------------------------                            --------------------------
 ! Name  Definition              Value          Derivative Info.                !
 --------------------------------------------------------------------------------
 ! R1    R(1,2)                  1.3897         estimate D2E/DX2                !
 ! R2    R(1,6)                  1.3403         estimate D2E/DX2                !
 ! R3    R(1,8)                  1.0846         estimate D2E/DX2                !
 ! R4    R(2,3)                  1.39           estimate D2E/DX2                !
 ! R5    R(2,9)                  1.0827         estimate D2E/DX2                !
 ! R6    R(3,4)                  1.39           estimate D2E/DX2                !
 ! R7    R(3,7)                  1.0834         estimate D2E/DX2                !
 ! R8    R(4,5)                  1.3897         estimate D2E/DX2                !
 ! R9    R(4,10)                 1.0827         estimate D2E/DX2                !
 ! R10   R(5,6)                  1.3403         estimate D2E/DX2                !
 ! R11   R(5,11)                 1.0846         estimate D2E/DX2                !
 ! A1    A(2,1,6)              123.5753         estimate D2E/DX2                !
 ! A2    A(2,1,8)              120.1229         estimate D2E/DX2                !
 ! A3    A(6,1,8)              116.3018         estimate D2E/DX2                !
 ! A4    A(1,2,3)              118.6204         estimate D2E/DX2                !
 ! A5    A(1,2,9)              120.058          estimate D2E/DX2                !
 ! A6    A(3,2,9)              121.3216         estimate D2E/DX2                !
 ! A7    A(2,3,4)              118.5227         estimate D2E/DX2                !
 ! A8    A(2,3,7)              120.7381         estimate D2E/DX2                !
 ! A9    A(4,3,7)              120.7392         estimate D2E/DX2                !
 ! A10   A(3,4,5)              118.6202         estimate D2E/DX2                !
 ! A11   A(3,4,10)             121.3229         estimate D2E/DX2                !
 ! A12   A(5,4,10)             120.057          estimate D2E/DX2                !
 ! A13   A(4,5,6)              123.5754         estimate D2E/DX2                !
 ! A14   A(4,5,11)             120.1228         estimate D2E/DX2                !
 ! A15   A(6,5,11)             116.3017         estimate D2E/DX2                !
 ! A16   A(1,6,5)              117.086          estimate D2E/DX2                !
 ! D1    D(6,1,2,3)             -0.0007         estimate D2E/DX2                !
 ! D2    D(6,1,2,9)            179.9994         estimate D2E/DX2                !
 ! D3    D(8,1,2,3)           -179.9999         estimate D2E/DX2                !
 ! D4    D(8,1,2,9)              0.0002         estimate D2E/DX2                !
 ! D5    D(2,1,6,5)              0.0            estimate D2E/DX2                !
 ! D6    D(8,1,6,5)            179.9993         estimate D2E/DX2                !
 ! D7    D(1,2,3,4)              0.0003         estimate D2E/DX2                !
 ! D8    D(1,2,3,7)           -179.9992         estimate D2E/DX2                !
 ! D9    D(9,2,3,4)           -179.9997         estimate D2E/DX2                !
 ! D10   D(9,2,3,7)              0.0007         estimate D2E/DX2                !
 ! D11   D(2,3,4,5)              0.0006         estimate D2E/DX2                !
 ! D12   D(2,3,4,10)          -179.9996         estimate D2E/DX2                !
 ! D13   D(7,3,4,5)           -179.9998         estimate D2E/DX2                !
 ! D14   D(7,3,4,10)             0.0            estimate D2E/DX2                !
 ! D15   D(3,4,5,6)             -0.0013         estimate D2E/DX2                !
 ! D16   D(3,4,5,11)          -179.9991         estimate D2E/DX2                !
 ! D17   D(10,4,5,6)           179.9989         estimate D2E/DX2                !
 ! D18   D(10,4,5,11)            0.0011         estimate D2E/DX2                !
 ! D19   D(4,5,6,1)              0.001          estimate D2E/DX2                !
 ! D20   D(11,5,6,1)           179.9988         estimate D2E/DX2                !
 --------------------------------------------------------------------------------
 Trust Radius=3.00D-01 FncErr=1.00D-07 GrdErr=1.00D-06 EigMax=2.50D+02 EigMin=1.00D-04
 Number of steps in this run=     57 maximum allowed number of steps=    100.
 GradGradGradGradGradGradGradGradGradGradGradGradGradGradGradGradGradGrad

 Leave Link  103 at Wed Oct 11 11:58:18 2023, MaxMem=  6710886400 cpu:               0.2 elap:               0.0
 (Enter /data0/home/software/g16/l202.exe)
                          Input orientation:                          
 ---------------------------------------------------------------------
 Center     Atomic      Atomic             Coordinates (Angstroms)
 Number     Number       Type             X           Y           Z
 ---------------------------------------------------------------------
      1          6           0       -1.143345   -0.718590   -0.000198
      2          6           0       -1.194697    0.670149   -0.000121
      3          6           0        0.000016    1.380592    0.000091
      4          6           0        1.194713    0.670126    0.000210
      5          6           0        1.143328   -0.718614    0.000099
      6          7           0       -0.000016   -1.418060   -0.000092
      7          1           0        0.000016    2.464005    0.000169
      8          1           0       -2.060684   -1.297178   -0.000365
      9          1           0       -2.151198    1.177453   -0.000225
     10          1           0        2.151235    1.177389    0.000382
     11          1           0        2.060654   -1.297222    0.000203
 ---------------------------------------------------------------------
                    Distance matrix (angstroms):
                    1          2          3          4          5
     1  C    0.000000
     2  C    1.389688   0.000000
     3  C    2.390364   1.389989   0.000000
     4  C    2.719384   2.389410   1.389987   0.000000
     5  C    2.286673   2.719379   2.390362   1.389690   0.000000
     6  N    1.340321   2.405801   2.798652   2.405805   1.340321
     7  H    3.381743   2.155286   1.083413   2.155296   3.381749
     8  H    1.084562   2.149490   3.378896   3.803669   3.255830
     9  H    2.147265   1.082706   2.160784   3.384154   3.801180
    10  H    3.801183   3.384162   2.160795   1.082705   2.147255
    11  H    3.255829   3.803664   3.378893   2.149491   1.084562
                    6          7          8          9         10
     6  N    0.000000
     7  H    3.882065   0.000000
     8  H    2.064211   4.288704   0.000000
     9  H    3.371094   2.506579   2.476286   0.000000
    10  H    3.371088   2.506616   4.885053   4.302433   0.000000
    11  H    2.064210   4.288713   4.121338   4.885050   2.476268
                   11
    11  H    0.000000
 Stoichiometry    C5H5N
 Framework group  C1[X(C5H5N)]
 Deg. of freedom    27
 Full point group                 C1      NOp   1
 Largest Abelian subgroup         C1      NOp   1
 Largest concise Abelian subgroup C1      NOp   1
                         Standard orientation:                         
 ---------------------------------------------------------------------
 Center     Atomic      Atomic             Coordinates (Angstroms)
 Number     Number       Type             X           Y           Z
 ---------------------------------------------------------------------
      1          6           0        1.143341    0.718596   -0.000198
      2          6           0        1.194700   -0.670143   -0.000121
      3          6           0       -0.000009   -1.380592    0.000091
      4          6           0       -1.194710   -0.670132    0.000210
      5          6           0       -1.143332    0.718608    0.000099
      6          7           0        0.000009    1.418060   -0.000092
      7          1           0       -0.000003   -2.464005    0.000169
      8          1           0        2.060677    1.297189   -0.000365
      9          1           0        2.151204   -1.177442   -0.000225
     10          1           0       -2.151229   -1.177400    0.000382
     11          1           0       -2.060661    1.297211    0.000203
 ---------------------------------------------------------------------
 Rotational constants (GHZ):           6.0512850           5.8462118           2.9734905
 Leave Link  202 at Wed Oct 11 11:58:18 2023, MaxMem=  6710886400 cpu:               0.1 elap:               0.0
 (Enter /data0/home/software/g16/l301.exe)
 Standard basis: 6-311+G(2d,p) (5D, 7F)
 Ernie: Thresh=  0.10000D-02 Tol=  0.10000D-05 Strict=F.
 There are   204 symmetry adapted cartesian basis functions of A   symmetry.
 There are   192 symmetry adapted basis functions of A   symmetry.
   192 basis functions,   292 primitive gaussians,   204 cartesian basis functions
    21 alpha electrons       21 beta electrons
       nuclear repulsion energy       206.3406239436 Hartrees.
 IExCor=  402 DFT=T Ex+Corr=B3LYP ExCW=0 ScaHFX=  0.200000
 ScaDFX=  0.800000  0.720000  1.000000  0.810000 ScalE2=  1.000000  1.000000
 IRadAn=      5 IRanWt=     -1 IRanGd=            0 ICorTp=0 IEmpDi=141
 NAtoms=   11 NActive=   11 NUniq=   11 SFac= 1.00D+00 NAtFMM=   60 NAOKFM=F Big=F
 Integral buffers will be    131072 words long.
 Raffenetti 2 integral format.
 Two-electron integral symmetry is turned on.
 R6Disp:  Grimme-D3(BJ) Dispersion energy=       -0.0171682880 Hartrees.
 Nuclear repulsion after empirical dispersion term =      206.3234556556 Hartrees.
 ------------------------------------------------------------------------------
 Polarizable Continuum Model (PCM)
 =================================
 Model                : PCM.
 Atomic radii         : SMD-Coulomb.
 Polarization charges : Total charges.
 Charge compensation  : None.
 Solution method      : On-the-fly selection.
 Cavity type          : VdW (van der Waals Surface) (Alpha=1.000).
 Cavity algorithm     : GePol (No added spheres)
                        Default sphere list used, NSphG=   11.
                        Lebedev-Laikov grids with approx.  5.0 points / Ang**2.
                        Smoothing algorithm: York/Karplus (Gamma=1.0000).
                        Polarization charges: spherical gaussians, with
                                              point-specific exponents (IZeta= 3).
                        Self-potential: point-specific (ISelfS= 7).
                        Self-field    : sphere-specific E.n sum rule (ISelfD= 2).
 1st derivatives      : Analytical E(r).r(x)/FMM algorithm (CHGder, D1EAlg=3).
                        Cavity 1st derivative terms included.
 Solvent              : Water, Eps=  78.355300 Eps(inf)=   1.777849
 ------------------------------------------------------------------------------
 Spheres list:
 ISph  on   Nord     Re0    Alpha      Xe            Ye            Ze
    1   C      1    1.8500  1.000      1.143341      0.718596     -0.000198
    2   C      2    1.8500  1.000      1.194700     -0.670143     -0.000121
    3   C      3    1.8500  1.000     -0.000009     -1.380592      0.000091
    4   C      4    1.8500  1.000     -1.194710     -0.670132      0.000210
    5   C      5    1.8500  1.000     -1.143332      0.718608      0.000099
    6   N      6    1.8900  1.000      0.000009      1.418060     -0.000092
    7   H      7    1.2000  1.000     -0.000003     -2.464005      0.000169
    8   H      8    1.2000  1.000      2.060677      1.297189     -0.000365
    9   H      9    1.2000  1.000      2.151204     -1.177442     -0.000225
   10   H     10    1.2000  1.000     -2.151229     -1.177400      0.000382
   11   H     11    1.2000  1.000     -2.060661      1.297211      0.000203
 ------------------------------------------------------------------------------
 GePol: Number of generator spheres                  =      11
 GePol: Total number of spheres                      =      11
 GePol: Number of exposed spheres                    =      11 (100.00%)
 GePol: Number of points                             =     972
 GePol: Average weight of points                     =       0.11
 GePol: Minimum weight of points                     =   0.22D-09
 GePol: Maximum weight of points                     =    0.17992
 GePol: Number of points with low weight             =      44
 GePol: Fraction of low-weight points (<1% of avg)   =       4.53%
 GePol: Cavity surface area                          =    110.271 Ang**2
 GePol: Cavity volume                                =     91.857 Ang**3
 ------------------------------------------------------------------------------
 Atomic radii for non-electrostatic terms: SMD-CDS.
 ------------------------------------------------------------------------------
 PCM non-electrostatic energy =         0.0020812191 Hartrees.
 Nuclear repulsion after PCM non-electrostatic terms =      206.3255368747 Hartrees.
 Leave Link  301 at Wed Oct 11 11:58:18 2023, MaxMem=  6710886400 cpu:               1.5 elap:               0.1
 (Enter /data0/home/software/g16/l302.exe)
 NPDir=0 NMtPBC=     1 NCelOv=     1 NCel=       1 NClECP=     1 NCelD=      1
         NCelK=      1 NCelE2=     1 NClLst=     1 CellRange=     0.0.
 One-electron integrals computed using PRISM.
 One-electron integral symmetry used in STVInt
 NBasis=   192 RedAO= T EigKep=  1.90D-05  NBF=   192
 NBsUse=   192 1.00D-06 EigRej= -1.00D+00 NBFU=   192
 Precomputing XC quadrature grid using
 IXCGrd= 4 IRadAn=           5 IRanWt=          -1 IRanGd=           0 AccXCQ= 0.00D+00.
 Generated NRdTot=       0 NPtTot=           0 NUsed=           0 NTot=          32
 NSgBfM=   204   204   204   204   204 MxSgAt=    11 MxSgA2=    11.
 Leave Link  302 at Wed Oct 11 11:58:18 2023, MaxMem=  6710886400 cpu:               3.2 elap:               0.1
 (Enter /data0/home/software/g16/l303.exe)
 DipDrv:  MaxL=1.
 Leave Link  303 at Wed Oct 11 11:58:18 2023, MaxMem=  6710886400 cpu:               0.5 elap:               0.0
 (Enter /data0/home/software/g16/l401.exe)
 ExpMin= 4.38D-02 ExpMax= 6.29D+03 ExpMxC= 9.49D+02 IAcc=3 IRadAn=         5 AccDes= 0.00D+00
 Harris functional with IExCor=  402 and IRadAn=       5 diagonalized for initial guess.
 HarFok:  IExCor=  402 AccDes= 0.00D+00 IRadAn=         5 IDoV= 1 UseB2=F ITyADJ=14
 ICtDFT=  3500011 ScaDFX=  1.000000  1.000000  1.000000  1.000000
 FoFCou: FMM=F IPFlag=           0 FMFlag=      100000 FMFlg1=           0
         NFxFlg=           0 DoJE=T BraDBF=F KetDBF=T FulRan=T
         wScrn=  0.000000 ICntrl=       500 IOpCl=  0 I1Cent=   200000004 NGrid=           0
         NMat0=    1 NMatS0=      1 NMatT0=    0 NMatD0=    1 NMtDS0=    0 NMtDT0=    0
 Petite list used in FoFCou.
 Harris En= -248.381049996217    
 JPrj=0 DoOrth=F DoCkMO=F.
 Leave Link  401 at Wed Oct 11 11:58:18 2023, MaxMem=  6710886400 cpu:               8.2 elap:               0.4
 (Enter /data0/home/software/g16/l502.exe)
 Keep R1 ints in memory in canonical form, NReq=196445503.
 FoFCou: FMM=F IPFlag=           0 FMFlag=           0 FMFlg1=           0
         NFxFlg=           0 DoJE=F BraDBF=F KetDBF=F FulRan=T
         wScrn=  0.000000 ICntrl=       600 IOpCl=  0 I1Cent=           0 NGrid=           0
         NMat0=    1 NMatS0=  18528 NMatT0=    0 NMatD0=    1 NMtDS0=    0 NMtDT0=    0
 Symmetry not used in FoFCou.
 Two-electron integral symmetry not used.
 Closed shell SCF:
 Using DIIS extrapolation, IDIIS=  1040.
 NGot=  6710886400 LenX=  6539143647 LenY=  6539101590
 Requested convergence on RMS density matrix=1.00D-08 within 128 cycles.
 Requested convergence on MAX density matrix=1.00D-06.
 Requested convergence on             energy=1.00D-06.
 No special actions if energy rises.

 Cycle   1  Pass 1  IDiag  1:
 Inv3:  Mode=1 IEnd=     2834352.
 Iteration    1 A*A^-1 deviation from unit magnitude is 3.55D-15 for    225.
 Iteration    1 A*A^-1 deviation from orthogonality  is 4.05D-15 for    473    144.
 Iteration    1 A^-1*A deviation from unit magnitude is 3.77D-15 for    970.
 Iteration    1 A^-1*A deviation from orthogonality  is 1.00D-14 for    383    356.
 E= -248.258169812764    
 DIIS: error= 3.94D-02 at cycle   1 NSaved=   1.
 NSaved= 1 IEnMin= 1 EnMin= -248.258169812764     IErMin= 1 ErrMin= 3.94D-02
 ErrMax= 3.94D-02  0.00D+00 EMaxC= 1.00D-01 BMatC= 1.31D-01 BMatP= 1.31D-01
 IDIUse=3 WtCom= 6.06D-01 WtEn= 3.94D-01
 Coeff-Com:  0.100D+01
 Coeff-En:   0.100D+01
 Coeff:      0.100D+01
 Gap=     0.236 Goal=   None    Shift=    0.000
 GapD=    0.236 DampG=1.000 DampE=0.500 DampFc=0.5000 IDamp=-1.
 Damping current iteration by 5.00D-01
 RMSDP=4.14D-03 MaxDP=9.49D-02              OVMax= 1.76D-01

 Cycle   2  Pass 1  IDiag  1:
 E= -248.317126266111     Delta-E=       -0.058956453346 Rises=F Damp=T
 DIIS: error= 5.88D-03 at cycle   2 NSaved=   2.
 NSaved= 2 IEnMin= 2 EnMin= -248.317126266111     IErMin= 2 ErrMin= 5.88D-03
 ErrMax= 5.88D-03  0.00D+00 EMaxC= 1.00D-01 BMatC= 7.81D-03 BMatP= 1.31D-01
 IDIUse=3 WtCom= 9.41D-01 WtEn= 5.88D-02
 Coeff-Com: -0.492D-01 0.105D+01
 Coeff-En:   0.000D+00 0.100D+01
 Coeff:     -0.463D-01 0.105D+01
 Gap=     0.285 Goal=   None    Shift=    0.000
 RMSDP=1.24D-03 MaxDP=2.25D-02 DE=-5.90D-02 OVMax= 1.09D-01

 Cycle   3  Pass 1  IDiag  1:
 E= -248.378968399624     Delta-E=       -0.061842133513 Rises=F Damp=F
 DIIS: error= 5.44D-03 at cycle   3 NSaved=   3.
 NSaved= 3 IEnMin= 3 EnMin= -248.378968399624     IErMin= 3 ErrMin= 5.44D-03
 ErrMax= 5.44D-03  0.00D+00 EMaxC= 1.00D-01 BMatC= 3.54D-03 BMatP= 7.81D-03
 IDIUse=3 WtCom= 9.46D-01 WtEn= 5.44D-02
 Coeff-Com: -0.885D-01 0.417D+00 0.672D+00
 Coeff-En:   0.000D+00 0.000D+00 0.100D+01
 Coeff:     -0.837D-01 0.394D+00 0.690D+00
 Gap=     0.233 Goal=   None    Shift=    0.000
 RMSDP=3.76D-04 MaxDP=1.06D-02 DE=-6.18D-02 OVMax= 3.01D-02

 Cycle   4  Pass 1  IDiag  1:
 E= -248.381887676171     Delta-E=       -0.002919276548 Rises=F Damp=F
 DIIS: error= 2.42D-03 at cycle   4 NSaved=   4.
 NSaved= 4 IEnMin= 4 EnMin= -248.381887676171     IErMin= 4 ErrMin= 2.42D-03
 ErrMax= 2.42D-03  0.00D+00 EMaxC= 1.00D-01 BMatC= 5.42D-04 BMatP= 3.54D-03
 IDIUse=3 WtCom= 9.76D-01 WtEn= 2.42D-02
 Coeff-Com: -0.415D-01 0.135D+00 0.354D+00 0.553D+00
 Coeff-En:   0.000D+00 0.000D+00 0.302D-01 0.970D+00
 Coeff:     -0.405D-01 0.132D+00 0.346D+00 0.563D+00
 Gap=     0.231 Goal=   None    Shift=    0.000
 RMSDP=9.41D-05 MaxDP=4.32D-03 DE=-2.92D-03 OVMax= 1.16D-02

 Cycle   5  Pass 1  IDiag  1:
 E= -248.382360556896     Delta-E=       -0.000472880725 Rises=F Damp=F
 DIIS: error= 5.51D-04 at cycle   5 NSaved=   5.
 NSaved= 5 IEnMin= 5 EnMin= -248.382360556896     IErMin= 5 ErrMin= 5.51D-04
 ErrMax= 5.51D-04  0.00D+00 EMaxC= 1.00D-01 BMatC= 4.03D-05 BMatP= 5.42D-04
 IDIUse=3 WtCom= 9.94D-01 WtEn= 5.51D-03
 Coeff-Com: -0.116D-01 0.232D-01 0.950D-01 0.269D+00 0.625D+00
 Coeff-En:   0.000D+00 0.000D+00 0.000D+00 0.000D+00 0.100D+01
 Coeff:     -0.115D-01 0.231D-01 0.945D-01 0.267D+00 0.627D+00
 Gap=     0.231 Goal=   None    Shift=    0.000
 RMSDP=3.30D-05 MaxDP=7.65D-04 DE=-4.73D-04 OVMax= 2.20D-03

 Cycle   6  Pass 1  IDiag  1:
 E= -248.382396430110     Delta-E=       -0.000035873214 Rises=F Damp=F
 DIIS: error= 4.11D-05 at cycle   6 NSaved=   6.
 NSaved= 6 IEnMin= 6 EnMin= -248.382396430110     IErMin= 6 ErrMin= 4.11D-05
 ErrMax= 4.11D-05  0.00D+00 EMaxC= 1.00D-01 BMatC= 2.30D-07 BMatP= 4.03D-05
 IDIUse=1 WtCom= 1.00D+00 WtEn= 0.00D+00
 Coeff-Com: -0.195D-02 0.341D-02 0.173D-01 0.493D-01 0.145D+00 0.787D+00
 Coeff:     -0.195D-02 0.341D-02 0.173D-01 0.493D-01 0.145D+00 0.787D+00
 Gap=     0.231 Goal=   None    Shift=    0.000
 RMSDP=5.61D-06 MaxDP=1.47D-04 DE=-3.59D-05 OVMax= 2.13D-04

 Cycle   7  Pass 1  IDiag  1:
 E= -248.382396472048     Delta-E=       -0.000000041939 Rises=F Damp=F
 DIIS: error= 3.97D-05 at cycle   7 NSaved=   7.
 NSaved= 7 IEnMin= 7 EnMin= -248.382396472048     IErMin= 7 ErrMin= 3.97D-05
 ErrMax= 3.97D-05  0.00D+00 EMaxC= 1.00D-01 BMatC= 1.80D-07 BMatP= 2.30D-07
 IDIUse=1 WtCom= 1.00D+00 WtEn= 0.00D+00
 Coeff-Com:  0.682D-04-0.557D-03 0.488D-03 0.155D-02 0.239D-01 0.509D+00
 Coeff-Com:  0.465D+00
 Coeff:      0.682D-04-0.557D-03 0.488D-03 0.155D-02 0.239D-01 0.509D+00
 Coeff:      0.465D+00
 Gap=     0.231 Goal=   None    Shift=    0.000
 RMSDP=1.72D-06 MaxDP=5.33D-05 DE=-4.19D-08 OVMax= 1.39D-04

 Cycle   8  Pass 1  IDiag  1:
 E= -248.382396634335     Delta-E=       -0.000000162287 Rises=F Damp=F
 DIIS: error= 7.29D-06 at cycle   8 NSaved=   8.
 NSaved= 8 IEnMin= 8 EnMin= -248.382396634335     IErMin= 8 ErrMin= 7.29D-06
 ErrMax= 7.29D-06  0.00D+00 EMaxC= 1.00D-01 BMatC= 4.01D-09 BMatP= 1.80D-07
 IDIUse=1 WtCom= 1.00D+00 WtEn= 0.00D+00
 Coeff-Com:  0.131D-03-0.436D-03-0.583D-03-0.164D-02 0.543D-02 0.217D+00
 Coeff-Com:  0.220D+00 0.560D+00
 Coeff:      0.131D-03-0.436D-03-0.583D-03-0.164D-02 0.543D-02 0.217D+00
 Coeff:      0.220D+00 0.560D+00
 Gap=     0.231 Goal=   None    Shift=    0.000
 RMSDP=5.20D-07 MaxDP=1.41D-05 DE=-1.62D-07 OVMax= 4.41D-05

 Cycle   9  Pass 1  IDiag  1:
 E= -248.382396637225     Delta-E=       -0.000000002890 Rises=F Damp=F
 DIIS: error= 3.59D-06 at cycle   9 NSaved=   9.
 NSaved= 9 IEnMin= 9 EnMin= -248.382396637225     IErMin= 9 ErrMin= 3.59D-06
 ErrMax= 3.59D-06  0.00D+00 EMaxC= 1.00D-01 BMatC= 8.26D-10 BMatP= 4.01D-09
 IDIUse=1 WtCom= 1.00D+00 WtEn= 0.00D+00
 Coeff-Com:  0.398D-04-0.803D-04-0.296D-03-0.914D-03-0.151D-02 0.339D-02
 Coeff-Com:  0.906D-02 0.320D+00 0.670D+00
 Coeff:      0.398D-04-0.803D-04-0.296D-03-0.914D-03-0.151D-02 0.339D-02
 Coeff:      0.906D-02 0.320D+00 0.670D+00
 Gap=     0.231 Goal=   None    Shift=    0.000
 RMSDP=1.71D-07 MaxDP=4.54D-06 DE=-2.89D-09 OVMax= 1.56D-05

 Cycle  10  Pass 1  IDiag  1:
 E= -248.382396638071     Delta-E=       -0.000000000846 Rises=F Damp=F
 DIIS: error= 2.00D-07 at cycle  10 NSaved=  10.
 NSaved=10 IEnMin=10 EnMin= -248.382396638071     IErMin=10 ErrMin= 2.00D-07
 ErrMax= 2.00D-07  0.00D+00 EMaxC= 1.00D-01 BMatC= 4.05D-12 BMatP= 8.26D-10
 IDIUse=1 WtCom= 1.00D+00 WtEn= 0.00D+00
 Coeff-Com:  0.536D-06 0.114D-05-0.536D-05-0.639D-04-0.114D-03-0.322D-02
 Coeff-Com: -0.347D-02-0.108D-02 0.455D-01 0.962D+00
 Coeff:      0.536D-06 0.114D-05-0.536D-05-0.639D-04-0.114D-03-0.322D-02
 Coeff:     -0.347D-02-0.108D-02 0.455D-01 0.962D+00
 Gap=     0.231 Goal=   None    Shift=    0.000
 RMSDP=2.21D-08 MaxDP=3.89D-07 DE=-8.46D-10 OVMax= 4.76D-07

 Cycle  11  Pass 1  IDiag  1:
 E= -248.382396638074     Delta-E=       -0.000000000003 Rises=F Damp=F
 DIIS: error= 2.58D-08 at cycle  11 NSaved=  11.
 NSaved=11 IEnMin=11 EnMin= -248.382396638074     IErMin=11 ErrMin= 2.58D-08
 ErrMax= 2.58D-08  0.00D+00 EMaxC= 1.00D-01 BMatC= 7.48D-14 BMatP= 4.05D-12
 IDIUse=1 WtCom= 1.00D+00 WtEn= 0.00D+00
 Coeff-Com: -0.483D-06 0.115D-05 0.559D-05 0.701D-05 0.201D-04-0.205D-03
 Coeff-Com: -0.504D-03-0.666D-02-0.761D-02 0.377D-01 0.977D+00
 Coeff:     -0.483D-06 0.115D-05 0.559D-05 0.701D-05 0.201D-04-0.205D-03
 Coeff:     -0.504D-03-0.666D-02-0.761D-02 0.377D-01 0.977D+00
 Gap=     0.231 Goal=   None    Shift=    0.000
 RMSDP=2.45D-09 MaxDP=5.51D-08 DE=-3.13D-12 OVMax= 9.91D-08

 Error on total polarization charges =  0.03924
 SCF Done:  E(RB3LYP) =  -248.382396638     A.U. after   11 cycles
            NFock= 11  Conv=0.25D-08     -V/T= 2.0044
 KE= 2.473060513159D+02 PE=-9.897665277239D+02 EE= 2.877525428952D+02
 SMD-CDS (non-electrostatic) energy       (kcal/mol) =       1.31
 (included in total energy above)
 Leave Link  502 at Wed Oct 11 11:58:27 2023, MaxMem=  6710886400 cpu:             144.1 elap:               8.4
 (Enter /data0/home/software/g16/l601.exe)
 Copying SCF densities to generalized density rwf, IOpCl= 0 IROHF=0.

 **********************************************************************

            Population analysis using the SCF density.

 **********************************************************************

 Orbital symmetries:
       Occupied  (A) (A) (A) (A) (A) (A) (A) (A) (A) (A) (A) (A)
                 (A) (A) (A) (A) (A) (A) (A) (A) (A)
       Virtual   (A) (A) (A) (A) (A) (A) (A) (A) (A) (A) (A) (A)
                 (A) (A) (A) (A) (A) (A) (A) (A) (A) (A) (A) (A)
                 (A) (A) (A) (A) (A) (A) (A) (A) (A) (A) (A) (A)
                 (A) (A) (A) (A) (A) (A) (A) (A) (A) (A) (A) (A)
                 (A) (A) (A) (A) (A) (A) (A) (A) (A) (A) (A) (A)
                 (A) (A) (A) (A) (A) (A) (A) (A) (A) (A) (A) (A)
                 (A) (A) (A) (A) (A) (A) (A) (A) (A) (A) (A) (A)
                 (A) (A) (A) (A) (A) (A) (A) (A) (A) (A) (A) (A)
                 (A) (A) (A) (A) (A) (A) (A) (A) (A) (A) (A) (A)
                 (A) (A) (A) (A) (A) (A) (A) (A) (A) (A) (A) (A)
                 (A) (A) (A) (A) (A) (A) (A) (A) (A) (A) (A) (A)
                 (A) (A) (A) (A) (A) (A) (A) (A) (A) (A) (A) (A)
                 (A) (A) (A) (A) (A) (A) (A) (A) (A) (A) (A) (A)
                 (A) (A) (A) (A) (A) (A) (A) (A) (A) (A) (A) (A)
                 (A) (A) (A)
 The electronic state is 1-A.
 Alpha  occ. eigenvalues --  -14.31758 -10.20703 -10.20702 -10.18932 -10.17975
 Alpha  occ. eigenvalues --  -10.17972  -0.94856  -0.80767  -0.76526  -0.63249
 Alpha  occ. eigenvalues --   -0.63020  -0.52987  -0.48552  -0.46742  -0.42969
 Alpha  occ. eigenvalues --   -0.40607  -0.40512  -0.36476  -0.29536  -0.27124
 Alpha  occ. eigenvalues --   -0.26967
 Alpha virt. eigenvalues --   -0.03844  -0.02253   0.00916   0.03191   0.03413
 Alpha virt. eigenvalues --    0.05446   0.05624   0.05690   0.06363   0.08723
 Alpha virt. eigenvalues --    0.08985   0.10082   0.10558   0.12382   0.13924
 Alpha virt. eigenvalues --    0.14125   0.14287   0.15328   0.15796   0.16034
 Alpha virt. eigenvalues --    0.17439   0.20524   0.20698   0.20896   0.21194
 Alpha virt. eigenvalues --    0.21985   0.23167   0.23386   0.24251   0.24392
 Alpha virt. eigenvalues --    0.27198   0.29407   0.30538   0.32169   0.32490
 Alpha virt. eigenvalues --    0.33228   0.43453   0.45824   0.48267   0.48554
 Alpha virt. eigenvalues --    0.51305   0.51870   0.52525   0.53009   0.54886
 Alpha virt. eigenvalues --    0.55960   0.56435   0.60346   0.61978   0.62112
 Alpha virt. eigenvalues --    0.62620   0.63103   0.64602   0.65426   0.69194
 Alpha virt. eigenvalues --    0.73013   0.73690   0.76507   0.77228   0.78181
 Alpha virt. eigenvalues --    0.78507   0.81182   0.81207   0.81427   0.82793
 Alpha virt. eigenvalues --    0.84612   0.85649   0.87508   0.90345   0.91800
 Alpha virt. eigenvalues --    0.91845   0.99336   1.04619   1.13363   1.14126
 Alpha virt. eigenvalues --    1.16221   1.18243   1.25327   1.28610   1.31711
 Alpha virt. eigenvalues --    1.32181   1.32523   1.34639   1.36814   1.40729
 Alpha virt. eigenvalues --    1.41024   1.46835   1.47246   1.50082   1.50336
 Alpha virt. eigenvalues --    1.53625   1.59546   1.62093   1.65549   1.71942
 Alpha virt. eigenvalues --    1.81666   1.83845   1.88890   1.92652   1.97144
 Alpha virt. eigenvalues --    2.01758   2.14903   2.16621   2.23144   2.37351
 Alpha virt. eigenvalues --    2.39095   2.48940   2.49572   2.65927   2.66704
 Alpha virt. eigenvalues --    2.69444   2.70310   2.75238   2.75879   2.79825
 Alpha virt. eigenvalues --    2.81194   2.81479   2.81972   2.83632   2.99925
 Alpha virt. eigenvalues --    3.01101   3.06443   3.09446   3.09924   3.11732
 Alpha virt. eigenvalues --    3.18860   3.20806   3.26386   3.26520   3.27328
 Alpha virt. eigenvalues --    3.27818   3.33640   3.40441   3.41240   3.42195
 Alpha virt. eigenvalues --    3.51643   3.54210   3.56577   3.56708   3.56887
 Alpha virt. eigenvalues --    3.58439   3.59379   3.67087   3.68121   3.68964
 Alpha virt. eigenvalues --    3.75278   3.78778   3.79629   3.85366   3.89325
 Alpha virt. eigenvalues --    3.94870   3.95850   3.97687   4.00533   4.42474
 Alpha virt. eigenvalues --    4.54308   4.56346   4.83752   4.97169   5.00278
 Alpha virt. eigenvalues --    5.06023   5.13459   5.23411   5.61003   5.62791
 Alpha virt. eigenvalues --   23.74276  24.00817  24.01059  24.03796  24.09386
 Alpha virt. eigenvalues --   35.65183
          Condensed to atoms (all electrons):
               1          2          3          4          5          6
     1  C    5.006671   0.396178   0.038272  -0.160421   0.067535   0.277074
     2  C    0.396178   4.904228   0.440818   0.039656  -0.160421   0.087247
     3  C    0.038272   0.440818   4.885890   0.440821   0.038271  -0.091166
     4  C   -0.160421   0.039656   0.440821   4.904229   0.396176   0.087247
     5  C    0.067535  -0.160421   0.038271   0.396176   5.006669   0.277076
     6  N    0.277074   0.087247  -0.091166   0.087247   0.277076   6.913144
     7  H    0.006808  -0.048382   0.430805  -0.048381   0.006808   0.000067
     8  H    0.437998  -0.062386   0.010215  -0.001880   0.013146  -0.069883
     9  H   -0.059189   0.437776  -0.052648   0.017631   0.000230   0.004141
    10  H    0.000230   0.017631  -0.052647   0.437776  -0.059190   0.004141
    11  H    0.013145  -0.001879   0.010215  -0.062386   0.437997  -0.069883
               7          8          9         10         11
     1  C    0.006808   0.437998  -0.059189   0.000230   0.013145
     2  C   -0.048382  -0.062386   0.437776   0.017631  -0.001879
     3  C    0.430805   0.010215  -0.052648  -0.052647   0.010215
     4  C   -0.048381  -0.001880   0.017631   0.437776  -0.062386
     5  C    0.006808   0.013146   0.000230  -0.059190   0.437997
     6  N    0.000067  -0.069883   0.004141   0.004141  -0.069883
     7  H    0.527935  -0.000310  -0.005268  -0.005268  -0.000310
     8  H   -0.000310   0.543481  -0.003076   0.000114  -0.000076
     9  H   -0.005268  -0.003076   0.527128  -0.000226   0.000114
    10  H   -0.005268   0.000114  -0.000226   0.527128  -0.003076
    11  H   -0.000310  -0.000076   0.000114  -0.003076   0.543481
 Mulliken charges:
               1
     1  C   -0.024301
     2  C   -0.050466
     3  C   -0.098846
     4  C   -0.050470
     5  C   -0.024297
     6  N   -0.419206
     7  H    0.135495
     8  H    0.132658
     9  H    0.133387
    10  H    0.133387
    11  H    0.132658
 Sum of Mulliken charges =  -0.00000
 Mulliken charges with hydrogens summed into heavy atoms:
               1
     1  C    0.108357
     2  C    0.082921
     3  C    0.036649
     4  C    0.082918
     5  C    0.108361
     6  N   -0.419206
 Electronic spatial extent (au):  <R**2>=            433.4607
 Charge=             -0.0000 electrons
 Dipole moment (field-independent basis, Debye):
    X=             -0.0000    Y=             -3.4001    Z=              0.0002  Tot=              3.4001
 Quadrupole moment (field-independent basis, Debye-Ang):
   XX=            -27.9530   YY=            -36.9856   ZZ=            -38.3840
   XY=             -0.0001   XZ=             -0.0015   YZ=             -0.0001
 Traceless Quadrupole moment (field-independent basis, Debye-Ang):
   XX=              6.4879   YY=             -2.5447   ZZ=             -3.9431
   XY=             -0.0001   XZ=             -0.0015   YZ=             -0.0001
 Octapole moment (field-independent basis, Debye-Ang**2):
  XXX=             -0.0002  YYY=            -22.6231  ZZZ=             -0.0001  XYY=              0.0000
  XXY=              0.9760  XXZ=             -0.0000  XZZ=              0.0000  YZZ=              0.5088
  YYZ=              0.0016  XYZ=             -0.0000
 Hexadecapole moment (field-independent basis, Debye-Ang**3):
 XXXX=           -242.2751 YYYY=           -292.3118 ZZZZ=            -45.2294 XXXY=              0.0000
 XXXZ=              0.0082 YYYX=             -0.0007 YYYZ=              0.0075 ZZZX=              0.0181
 ZZZY=              0.0087 XXYY=            -78.8226 XXZZ=            -59.5163 YYZZ=            -58.9701
 XXYZ=              0.0013 YYXZ=              0.0026 ZZXY=             -0.0000
 N-N= 2.063255368747D+02 E-N=-9.897665283571D+02  KE= 2.473060513159D+02
 No NMR shielding tensors so no spin-rotation constants.
 Leave Link  601 at Wed Oct 11 11:58:27 2023, MaxMem=  6710886400 cpu:               2.1 elap:               0.1
 (Enter /data0/home/software/g16/l701.exe)
 ... and contract with generalized density number  0.
 Compute integral first derivatives.
 R6Disp: Adding Grimme-D3(BJ) dispersion energy 1st derivatives to the gradient.
 D1PCM: PCM CHGder 1st derivatives, ID1Alg=3 FixD1E=F DoIter=F DoCFld=F I1PDM=0.
 GePol: Maximum number of non-zero 1st derivatives   =     191
 Leave Link  701 at Wed Oct 11 11:58:27 2023, MaxMem=  6710886400 cpu:              10.5 elap:               0.5
 (Enter /data0/home/software/g16/l702.exe)
 L702 exits ... SP integral derivatives will be done elsewhere.
 Leave Link  702 at Wed Oct 11 11:58:28 2023, MaxMem=  6710886400 cpu:               0.4 elap:               0.0
 (Enter /data0/home/software/g16/l703.exe)
 Integral derivatives from FoFJK, PRISM(SPDF).
 Compute integral first derivatives, UseDBF=F ICtDFT=           0.
 Calling FoFJK, ICntrl=      2127 FMM=F ISym2X=0 I1Cent= 0 IOpClX= 0 NMat=1 NMatS=1 NMatT=0.
 FoFJK:  IHMeth= 1 ICntrl=    2127 DoSepK=F KAlg= 0 I1Cent=           0 FoldK=F
 IRaf=         0 NMat=       1 IRICut=       1 DoRegI=T DoRafI=F ISym2E= 0 IDoP0=0 IntGTp=1.
 FoFCou: FMM=F IPFlag=           0 FMFlag=      100000 FMFlg1=         800
         NFxFlg=           0 DoJE=F BraDBF=F KetDBF=F FulRan=T
         wScrn=  0.000000 ICntrl=      2127 IOpCl=  0 I1Cent=           0 NGrid=           0
         NMat0=    1 NMatS0=      1 NMatT0=    0 NMatD0=    1 NMtDS0=    0 NMtDT0=    0
 Symmetry not used in FoFCou.
 Leave Link  703 at Wed Oct 11 11:58:29 2023, MaxMem=  6710886400 cpu:              31.7 elap:               1.3
 (Enter /data0/home/software/g16/l716.exe)
 Dipole        =-8.80626250D-06-1.33772131D+00 9.23635814D-05
 ***** Axes restored to original set *****
 -------------------------------------------------------------------
 Center     Atomic                   Forces (Hartrees/Bohr)
 Number     Number              X              Y              Z
 -------------------------------------------------------------------
      1        6           0.000014414    0.000366371   -0.000001794
      2        6           0.000481397   -0.000423570    0.000000212
      3        6          -0.000001222   -0.000507827    0.000000517
      4        6          -0.000480231   -0.000427058   -0.000001285
      5        6          -0.000015604    0.000366832    0.000003855
      6        7           0.000000611    0.000887973   -0.000000707
      7        1           0.000001029   -0.000268554   -0.000000252
      8        1           0.000166501    0.000167320    0.000000673
      9        1           0.000220943   -0.000165414    0.000000291
     10        1          -0.000221539   -0.000163337   -0.000000207
     11        1          -0.000166298    0.000167265   -0.000001301
 -------------------------------------------------------------------
 Cartesian Forces:  Max     0.000887973 RMS     0.000273873
 Leave Link  716 at Wed Oct 11 11:58:29 2023, MaxMem=  6710886400 cpu:               0.5 elap:               0.0
 (Enter /data0/home/software/g16/l103.exe)

 GradGradGradGradGradGradGradGradGradGradGradGradGradGradGradGradGradGrad
 Berny optimization.
 FormGI is forming the generalized inverse of G from B-inverse, IUseBI=4.
 Internal  Forces:  Max     0.000983102 RMS     0.000286637
 Search for a local minimum.
 Step number   1 out of a maximum of   57
 All quantities printed in internal units (Hartrees-Bohrs-Radians)
 RMS Force = .28664D-03 SwitMx=.10000D-02 MixMth= 2
 Mixed Optimization -- En-DIIS/RFO-DIIS
 Second derivative matrix not updated -- first step.
 ITU=  0
     Eigenvalues ---    0.02221   0.02222   0.02223   0.02223   0.02255
     Eigenvalues ---    0.02298   0.02317   0.02424   0.16000   0.16000
     Eigenvalues ---    0.16000   0.16000   0.16000   0.22000   0.22000
     Eigenvalues ---    0.23192   0.35449   0.35449   0.35585   0.35669
     Eigenvalues ---    0.35669   0.43023   0.44928   0.47332   0.47373
     Eigenvalues ---    0.55040   0.56309
 RFO step:  Lambda=-8.60586540D-06 EMin= 2.22120002D-02
 Linear search not attempted -- first point.
 Iteration  1 RMS(Cart)=  0.00094100 RMS(Int)=  0.00000014
 Iteration  2 RMS(Cart)=  0.00000018 RMS(Int)=  0.00000002
 ITry= 1 IFail=0 DXMaxC= 2.75D-03 DCOld= 1.00D+10 DXMaxT= 3.00D-01 DXLimC= 3.00D+00 Rises=F
 Variable       Old X    -DE/DX   Delta X   Delta X   Delta X     New X
                                 (Linear)    (Quad)   (Total)
    R1        2.62613  -0.00098   0.00000  -0.00207  -0.00207   2.62406
    R2        2.53284  -0.00051   0.00000  -0.00089  -0.00089   2.53195
    R3        2.04953  -0.00023   0.00000  -0.00065  -0.00065   2.04888
    R4        2.62670  -0.00068   0.00000  -0.00144  -0.00144   2.62526
    R5        2.04602  -0.00027   0.00000  -0.00076  -0.00076   2.04525
    R6        2.62669  -0.00067   0.00000  -0.00144  -0.00144   2.62526
    R7        2.04735  -0.00027   0.00000  -0.00075  -0.00075   2.04660
    R8        2.62613  -0.00098   0.00000  -0.00207  -0.00207   2.62406
    R9        2.04602  -0.00027   0.00000  -0.00076  -0.00076   2.04525
   R10        2.53284  -0.00051   0.00000  -0.00089  -0.00089   2.53195
   R11        2.04952  -0.00023   0.00000  -0.00065  -0.00065   2.04888
    A1        2.15680  -0.00017   0.00000  -0.00075  -0.00075   2.15604
    A2        2.09654   0.00003   0.00000   0.00004   0.00004   2.09658
    A3        2.02985   0.00014   0.00000   0.00071   0.00071   2.03056
    A4        2.07032   0.00003   0.00000   0.00011   0.00011   2.07043
    A5        2.09541  -0.00006   0.00000  -0.00033  -0.00033   2.09508
    A6        2.11746   0.00003   0.00000   0.00022   0.00022   2.11768
    A7        2.06861   0.00009   0.00000   0.00036   0.00036   2.06897
    A8        2.10728  -0.00004   0.00000  -0.00017  -0.00017   2.10710
    A9        2.10730  -0.00004   0.00000  -0.00019  -0.00019   2.10711
   A10        2.07031   0.00003   0.00000   0.00012   0.00012   2.07043
   A11        2.11748   0.00003   0.00000   0.00020   0.00020   2.11768
   A12        2.09539  -0.00006   0.00000  -0.00032  -0.00032   2.09507
   A13        2.15680  -0.00018   0.00000  -0.00075  -0.00075   2.15604
   A14        2.09654   0.00003   0.00000   0.00004   0.00004   2.09658
   A15        2.02985   0.00014   0.00000   0.00072   0.00072   2.03056
   A16        2.04354   0.00021   0.00000   0.00092   0.00092   2.04446
    D1       -0.00001   0.00000   0.00000   0.00002   0.00002   0.00001
    D2        3.14158   0.00000   0.00000   0.00002   0.00002  -3.14159
    D3       -3.14159  -0.00000   0.00000  -0.00001  -0.00001   3.14159
    D4        0.00000  -0.00000   0.00000  -0.00001  -0.00001  -0.00001
    D5        0.00000  -0.00000   0.00000  -0.00000  -0.00000  -0.00000
    D6        3.14158   0.00000   0.00000   0.00003   0.00003  -3.14158
    D7        0.00001  -0.00000   0.00000  -0.00001  -0.00001  -0.00000
    D8       -3.14158  -0.00000   0.00000  -0.00002  -0.00002   3.14159
    D9       -3.14159  -0.00000   0.00000  -0.00000  -0.00000  -3.14159
   D10        0.00001  -0.00000   0.00000  -0.00001  -0.00001  -0.00000
   D11        0.00001  -0.00000   0.00000  -0.00002  -0.00002  -0.00001
   D12       -3.14159  -0.00000   0.00000  -0.00001  -0.00001   3.14159
   D13       -3.14159  -0.00000   0.00000  -0.00001  -0.00001   3.14159
   D14       -0.00000  -0.00000   0.00000  -0.00000  -0.00000  -0.00000
   D15       -0.00002   0.00000   0.00000   0.00004   0.00004   0.00001
   D16       -3.14158  -0.00000   0.00000  -0.00003  -0.00003   3.14158
   D17        3.14157   0.00000   0.00000   0.00003   0.00003  -3.14158
   D18        0.00002  -0.00000   0.00000  -0.00003  -0.00003  -0.00001
   D19        0.00002  -0.00000   0.00000  -0.00003  -0.00003  -0.00001
   D20        3.14157   0.00000   0.00000   0.00004   0.00004  -3.14158
         Item               Value     Threshold  Converged?
 Maximum Force            0.000983     0.000450     NO 
 RMS     Force            0.000287     0.000300     YES
 Maximum Displacement     0.002749     0.001800     NO 
 RMS     Displacement     0.000941     0.001200     YES
 Predicted change in Energy=-4.302937D-06
 Lowest energy point so far.  Saving SCF results.
 GradGradGradGradGradGradGradGradGradGradGradGradGradGradGradGradGradGrad

 Leave Link  103 at Wed Oct 11 11:58:29 2023, MaxMem=  6710886400 cpu:               0.4 elap:               0.0
 (Enter /data0/home/software/g16/l202.exe)
                          Input orientation:                          
 ---------------------------------------------------------------------
 Center     Atomic      Atomic             Coordinates (Angstroms)
 Number     Number       Type             X           Y           Z
 ---------------------------------------------------------------------
      1          6           0       -1.143267   -0.717960   -0.000209
      2          6           0       -1.194171    0.669698   -0.000119
      3          6           0        0.000016    1.379537    0.000094
      4          6           0        1.194186    0.669673    0.000212
      5          6           0        1.143249   -0.717985    0.000120
      6          7           0       -0.000016   -1.416659   -0.000092
      7          1           0        0.000024    2.462550    0.000165
      8          1           0       -2.060462   -1.296131   -0.000369
      9          1           0       -2.150332    1.176779   -0.000218
     10          1           0        2.150363    1.176725    0.000373
     11          1           0        2.060432   -1.296177    0.000197
 ---------------------------------------------------------------------
                    Distance matrix (angstroms):
                    1          2          3          4          5
     1  C    0.000000
     2  C    1.388591   0.000000
     3  C    2.388846   1.389227   0.000000
     4  C    2.718310   2.388356   1.389226   0.000000
     5  C    2.286516   2.718308   2.388845   1.388592   0.000000
     6  N    1.339852   2.403933   2.796196   2.403934   1.339851
     7  H    3.379757   2.154163   1.083014   2.154166   3.379759
     8  H    1.084219   2.148243   3.377095   3.802252   3.255460
     9  H    2.145743   1.082301   2.159886   3.382744   3.799712
    10  H    3.799713   3.382747   2.159889   1.082301   2.145741
    11  H    3.255460   3.802250   3.377093   2.148243   1.084219
                    6          7          8          9         10
     6  N    0.000000
     7  H    3.879210   0.000000
     8  H    2.063968   4.286408   0.000000
     9  H    3.368943   2.505442   2.474542   0.000000
    10  H    3.368942   2.505455   4.883243   4.300695   0.000000
    11  H    2.063968   4.286410   4.120894   4.883241   2.474536
                   11
    11  H    0.000000
 Stoichiometry    C5H5N
 Framework group  C1[X(C5H5N)]
 Deg. of freedom    27
 Full point group                 C1      NOp   1
 RotChk:  IX=3 Diff= 4.58D-06
 Largest Abelian subgroup         C1      NOp   1
 Largest concise Abelian subgroup C1      NOp   1
                         Standard orientation:                         
 ---------------------------------------------------------------------
 Center     Atomic      Atomic             Coordinates (Angstroms)
 Number     Number       Type             X           Y           Z
 ---------------------------------------------------------------------
      1          6           0        1.143265    0.718079   -0.000211
      2          6           0        1.194172   -0.669579   -0.000121
      3          6           0       -0.000014   -1.379420    0.000092
      4          6           0       -1.194185   -0.669558    0.000210
      5          6           0       -1.143251    0.718100    0.000118
      6          7           0        0.000013    1.416776   -0.000094
      7          1           0       -0.000020   -2.462434    0.000163
      8          1           0        2.060460    1.296252   -0.000370
      9          1           0        2.150334   -1.176658   -0.000220
     10          1           0       -2.150360   -1.176612    0.000371
     11          1           0       -2.060435    1.296290    0.000195
 ---------------------------------------------------------------------
 Rotational constants (GHZ):           6.0544673           5.8558361           2.9767477
 Leave Link  202 at Wed Oct 11 11:58:29 2023, MaxMem=  6710886400 cpu:               0.1 elap:               0.0
 (Enter /data0/home/software/g16/l301.exe)
 Standard basis: 6-311+G(2d,p) (5D, 7F)
 Ernie: Thresh=  0.10000D-02 Tol=  0.10000D-05 Strict=F.
 There are   204 symmetry adapted cartesian basis functions of A   symmetry.
 There are   192 symmetry adapted basis functions of A   symmetry.
   192 basis functions,   292 primitive gaussians,   204 cartesian basis functions
    21 alpha electrons       21 beta electrons
       nuclear repulsion energy       206.4493899106 Hartrees.
 IExCor=  402 DFT=T Ex+Corr=B3LYP ExCW=0 ScaHFX=  0.200000
 ScaDFX=  0.800000  0.720000  1.000000  0.810000 ScalE2=  1.000000  1.000000
 IRadAn=      5 IRanWt=     -1 IRanGd=            0 ICorTp=0 IEmpDi=141
 NAtoms=   11 NActive=   11 NUniq=   11 SFac= 1.00D+00 NAtFMM=   60 NAOKFM=F Big=F
 Integral buffers will be    131072 words long.
 Raffenetti 2 integral format.
 Two-electron integral symmetry is turned on.
 R6Disp:  Grimme-D3(BJ) Dispersion energy=       -0.0171729393 Hartrees.
 Nuclear repulsion after empirical dispersion term =      206.4322169713 Hartrees.
 ------------------------------------------------------------------------------
 Polarizable Continuum Model (PCM)
 =================================
 Model                : PCM.
 Atomic radii         : SMD-Coulomb.
 Polarization charges : Total charges.
 Charge compensation  : None.
 Solution method      : On-the-fly selection.
 Cavity type          : VdW (van der Waals Surface) (Alpha=1.000).
 Cavity algorithm     : GePol (No added spheres)
                        Default sphere list used, NSphG=   11.
                        Lebedev-Laikov grids with approx.  5.0 points / Ang**2.
                        Smoothing algorithm: York/Karplus (Gamma=1.0000).
                        Polarization charges: spherical gaussians, with
                                              point-specific exponents (IZeta= 3).
                        Self-potential: point-specific (ISelfS= 7).
                        Self-field    : sphere-specific E.n sum rule (ISelfD= 2).
 1st derivatives      : Analytical E(r).r(x)/FMM algorithm (CHGder, D1EAlg=3).
                        Cavity 1st derivative terms included.
 Solvent              : Water, Eps=  78.355300 Eps(inf)=   1.777849
 ------------------------------------------------------------------------------
 Spheres list:
 ISph  on   Nord     Re0    Alpha      Xe            Ye            Ze
    1   C      1    1.8500  1.000      1.143265      0.718079     -0.000211
    2   C      2    1.8500  1.000      1.194172     -0.669579     -0.000121
    3   C      3    1.8500  1.000     -0.000014     -1.379420      0.000092
    4   C      4    1.8500  1.000     -1.194185     -0.669558      0.000210
    5   C      5    1.8500  1.000     -1.143251      0.718100      0.000118
    6   N      6    1.8900  1.000      0.000013      1.416776     -0.000094
    7   H      7    1.2000  1.000     -0.000020     -2.462434      0.000163
    8   H      8    1.2000  1.000      2.060460      1.296252     -0.000370
    9   H      9    1.2000  1.000      2.150334     -1.176658     -0.000220
   10   H     10    1.2000  1.000     -2.150360     -1.176612      0.000371
   11   H     11    1.2000  1.000     -2.060435      1.296290      0.000195
 ------------------------------------------------------------------------------
 GePol: Number of generator spheres                  =      11
 GePol: Total number of spheres                      =      11
 GePol: Number of exposed spheres                    =      11 (100.00%)
 GePol: Number of points                             =     972
 GePol: Average weight of points                     =       0.11
 GePol: Minimum weight of points                     =   0.16D-08
 GePol: Maximum weight of points                     =    0.17992
 GePol: Number of points with low weight             =      42
 GePol: Fraction of low-weight points (<1% of avg)   =       4.32%
 GePol: Cavity surface area                          =    110.217 Ang**2
 GePol: Cavity volume                                =     91.807 Ang**3
 ------------------------------------------------------------------------------
 Atomic radii for non-electrostatic terms: SMD-CDS.
 ------------------------------------------------------------------------------
 PCM non-electrostatic energy =         0.0020731268 Hartrees.
 Nuclear repulsion after PCM non-electrostatic terms =      206.4342900980 Hartrees.
 Leave Link  301 at Wed Oct 11 11:58:29 2023, MaxMem=  6710886400 cpu:               1.5 elap:               0.1
 (Enter /data0/home/software/g16/l302.exe)
 NPDir=0 NMtPBC=     1 NCelOv=     1 NCel=       1 NClECP=     1 NCelD=      1
         NCelK=      1 NCelE2=     1 NClLst=     1 CellRange=     0.0.
 One-electron integrals computed using PRISM.
 One-electron integral symmetry used in STVInt
 NBasis=   192 RedAO= T EigKep=  1.89D-05  NBF=   192
 NBsUse=   192 1.00D-06 EigRej= -1.00D+00 NBFU=   192
 Precomputing XC quadrature grid using
 IXCGrd= 4 IRadAn=           5 IRanWt=          -1 IRanGd=           0 AccXCQ= 0.00D+00.
 Generated NRdTot=       0 NPtTot=           0 NUsed=           0 NTot=          32
 NSgBfM=   204   204   204   204   204 MxSgAt=    11 MxSgA2=    11.
 Leave Link  302 at Wed Oct 11 11:58:29 2023, MaxMem=  6710886400 cpu:               3.2 elap:               0.2
 (Enter /data0/home/software/g16/l303.exe)
 DipDrv:  MaxL=1.
 Leave Link  303 at Wed Oct 11 11:58:29 2023, MaxMem=  6710886400 cpu:               0.5 elap:               0.0
 (Enter /data0/home/software/g16/l401.exe)
 Initial guess from the checkpoint file:  "/data0/home/software/g16/scratch/Gau-2487943.chk"
 B after Tr=    -0.000000    0.000000    0.000000
         Rot=    1.000000   -0.000000   -0.000002    0.000002 Ang=  -0.00 deg.
 Guess basis will be translated and rotated to current coordinates.
 JPrj=2 DoOrth=T DoCkMO=T.
 Leave Link  401 at Wed Oct 11 11:58:29 2023, MaxMem=  6710886400 cpu:               2.5 elap:               0.1
 (Enter /data0/home/software/g16/l502.exe)
 Keep R1 ints in memory in canonical form, NReq=196445503.
 FoFCou: FMM=F IPFlag=           0 FMFlag=           0 FMFlg1=           0
         NFxFlg=           0 DoJE=F BraDBF=F KetDBF=F FulRan=T
         wScrn=  0.000000 ICntrl=       600 IOpCl=  0 I1Cent=           0 NGrid=           0
         NMat0=    1 NMatS0=  18528 NMatT0=    0 NMatD0=    1 NMtDS0=    0 NMtDT0=    0
 Symmetry not used in FoFCou.
 Two-electron integral symmetry not used.
 Closed shell SCF:
 Using DIIS extrapolation, IDIIS=  1040.
 NGot=  6710886400 LenX=  6539143647 LenY=  6539101590
 Requested convergence on RMS density matrix=1.00D-08 within 128 cycles.
 Requested convergence on MAX density matrix=1.00D-06.
 Requested convergence on             energy=1.00D-06.
 No special actions if energy rises.

 Cycle   1  Pass 1  IDiag  1:
 Inv3:  Mode=1 IEnd=     2834352.
 Iteration    1 A*A^-1 deviation from unit magnitude is 4.44D-15 for    236.
 Iteration    1 A*A^-1 deviation from orthogonality  is 2.85D-15 for    448    206.
 Iteration    1 A^-1*A deviation from unit magnitude is 3.77D-15 for    477.
 Iteration    1 A^-1*A deviation from orthogonality  is 1.30D-14 for    510    473.
 E= -248.382399364595    
 DIIS: error= 8.54D-05 at cycle   1 NSaved=   1.
 NSaved= 1 IEnMin= 1 EnMin= -248.382399364595     IErMin= 1 ErrMin= 8.54D-05
 ErrMax= 8.54D-05  0.00D+00 EMaxC= 1.00D-01 BMatC= 1.62D-06 BMatP= 1.62D-06
 IDIUse=1 WtCom= 1.00D+00 WtEn= 0.00D+00
 Coeff-Com:  0.100D+01
 Coeff:      0.100D+01
 Gap=     0.487 Goal=   None    Shift=    0.000
 RMSDP=1.48D-05 MaxDP=3.41D-04              OVMax= 2.94D-04

 Cycle   2  Pass 1  IDiag  1:
 E= -248.382400482931     Delta-E=       -0.000001118336 Rises=F Damp=F
 DIIS: error= 4.75D-05 at cycle   2 NSaved=   2.
 NSaved= 2 IEnMin= 2 EnMin= -248.382400482931     IErMin= 2 ErrMin= 4.75D-05
 ErrMax= 4.75D-05  0.00D+00 EMaxC= 1.00D-01 BMatC= 2.03D-07 BMatP= 1.62D-06
 IDIUse=1 WtCom= 1.00D+00 WtEn= 0.00D+00
 Coeff-Com:  0.180D+00 0.820D+00
 Coeff:      0.180D+00 0.820D+00
 Gap=     0.231 Goal=   None    Shift=    0.000
 RMSDP=3.97D-06 MaxDP=1.07D-04 DE=-1.12D-06 OVMax= 1.83D-04

 Cycle   3  Pass 1  IDiag  1:
 E= -248.382400580764     Delta-E=       -0.000000097833 Rises=F Damp=F
 DIIS: error= 3.34D-05 at cycle   3 NSaved=   3.
 NSaved= 3 IEnMin= 3 EnMin= -248.382400580764     IErMin= 3 ErrMin= 3.34D-05
 ErrMax= 3.34D-05  0.00D+00 EMaxC= 1.00D-01 BMatC= 1.08D-07 BMatP= 2.03D-07
 IDIUse=1 WtCom= 1.00D+00 WtEn= 0.00D+00
 Coeff-Com:  0.357D-02 0.419D+00 0.577D+00
 Coeff:      0.357D-02 0.419D+00 0.577D+00
 Gap=     0.232 Goal=   None    Shift=    0.000
 RMSDP=1.59D-06 MaxDP=4.24D-05 DE=-9.78D-08 OVMax= 9.80D-05

 Cycle   4  Pass 1  IDiag  1:
 E= -248.382400684859     Delta-E=       -0.000000104095 Rises=F Damp=F
 DIIS: error= 1.04D-05 at cycle   4 NSaved=   4.
 NSaved= 4 IEnMin= 4 EnMin= -248.382400684859     IErMin= 4 ErrMin= 1.04D-05
 ErrMax= 1.04D-05  0.00D+00 EMaxC= 1.00D-01 BMatC= 7.64D-09 BMatP= 1.08D-07
 IDIUse=1 WtCom= 1.00D+00 WtEn= 0.00D+00
 Coeff-Com: -0.371D-02 0.220D+00 0.342D+00 0.442D+00
 Coeff:     -0.371D-02 0.220D+00 0.342D+00 0.442D+00
 Gap=     0.232 Goal=   None    Shift=    0.000
 RMSDP=5.02D-07 MaxDP=1.61D-05 DE=-1.04D-07 OVMax= 3.60D-05

 Cycle   5  Pass 1  IDiag  1:
 E= -248.382400691335     Delta-E=       -0.000000006476 Rises=F Damp=F
 DIIS: error= 2.18D-06 at cycle   5 NSaved=   5.
 NSaved= 5 IEnMin= 5 EnMin= -248.382400691335     IErMin= 5 ErrMin= 2.18D-06
 ErrMax= 2.18D-06  0.00D+00 EMaxC= 1.00D-01 BMatC= 3.73D-10 BMatP= 7.64D-09
 IDIUse=1 WtCom= 1.00D+00 WtEn= 0.00D+00
 Coeff-Com: -0.181D-02 0.310D-01 0.655D-01 0.203D+00 0.702D+00
 Coeff:     -0.181D-02 0.310D-01 0.655D-01 0.203D+00 0.702D+00
 Gap=     0.232 Goal=   None    Shift=    0.000
 RMSDP=1.53D-07 MaxDP=3.52D-06 DE=-6.48D-09 OVMax= 9.39D-06

 Cycle   6  Pass 1  IDiag  1:
 E= -248.382400691675     Delta-E=       -0.000000000340 Rises=F Damp=F
 DIIS: error= 4.89D-07 at cycle   6 NSaved=   6.
 NSaved= 6 IEnMin= 6 EnMin= -248.382400691675     IErMin= 6 ErrMin= 4.89D-07
 ErrMax= 4.89D-07  0.00D+00 EMaxC= 1.00D-01 BMatC= 2.42D-11 BMatP= 3.73D-10
 IDIUse=1 WtCom= 1.00D+00 WtEn= 0.00D+00
 Coeff-Com: -0.500D-03 0.613D-05 0.821D-02 0.541D-01 0.292D+00 0.646D+00
 Coeff:     -0.500D-03 0.613D-05 0.821D-02 0.541D-01 0.292D+00 0.646D+00
 Gap=     0.232 Goal=   None    Shift=    0.000
 RMSDP=3.06D-08 MaxDP=1.19D-06 DE=-3.40D-10 OVMax= 2.48D-06

 Cycle   7  Pass 1  IDiag  1:
 E= -248.382400691701     Delta-E=       -0.000000000026 Rises=F Damp=F
 DIIS: error= 1.80D-07 at cycle   7 NSaved=   7.
 NSaved= 7 IEnMin= 7 EnMin= -248.382400691701     IErMin= 7 ErrMin= 1.80D-07
 ErrMax= 1.80D-07  0.00D+00 EMaxC= 1.00D-01 BMatC= 3.95D-12 BMatP= 2.42D-11
 IDIUse=1 WtCom= 1.00D+00 WtEn= 0.00D+00
 Coeff-Com: -0.119D-03-0.184D-02 0.165D-03 0.127D-01 0.103D+00 0.342D+00
 Coeff-Com:  0.545D+00
 Coeff:     -0.119D-03-0.184D-02 0.165D-03 0.127D-01 0.103D+00 0.342D+00
 Coeff:      0.545D+00
 Gap=     0.232 Goal=   None    Shift=    0.000
 RMSDP=1.01D-08 MaxDP=2.64D-07 DE=-2.63D-11 OVMax= 7.44D-07

 Cycle   8  Pass 1  IDiag  1:
 E= -248.382400691700     Delta-E=        0.000000000001 Rises=F Damp=F
 DIIS: error= 1.48D-08 at cycle   8 NSaved=   8.
 NSaved= 8 IEnMin= 7 EnMin= -248.382400691701     IErMin= 8 ErrMin= 1.48D-08
 ErrMax= 1.48D-08  0.00D+00 EMaxC= 1.00D-01 BMatC= 3.45D-14 BMatP= 3.95D-12
 IDIUse=1 WtCom= 1.00D+00 WtEn= 0.00D+00
 Coeff-Com:  0.109D-04-0.435D-03-0.821D-03-0.201D-02-0.185D-02-0.158D-02
 Coeff-Com:  0.713D-01 0.935D+00
 Coeff:      0.109D-04-0.435D-03-0.821D-03-0.201D-02-0.185D-02-0.158D-02
 Coeff:      0.713D-01 0.935D+00
 Gap=     0.232 Goal=   None    Shift=    0.000
 RMSDP=4.15D-09 MaxDP=1.15D-07 DE= 6.82D-13 OVMax= 4.78D-08

 Error on total polarization charges =  0.03922
 SCF Done:  E(RB3LYP) =  -248.382400692     A.U. after    8 cycles
            NFock=  8  Conv=0.41D-08     -V/T= 2.0043
 KE= 2.473201970688D+02 PE=-9.899952552624D+02 EE= 2.878583674039D+02
 SMD-CDS (non-electrostatic) energy       (kcal/mol) =       1.30
 (included in total energy above)
 Leave Link  502 at Wed Oct 11 11:58:37 2023, MaxMem=  6710886400 cpu:             113.2 elap:               7.4
 (Enter /data0/home/software/g16/l701.exe)
 ... and contract with generalized density number  0.
 Compute integral first derivatives.
 R6Disp: Adding Grimme-D3(BJ) dispersion energy 1st derivatives to the gradient.
 D1PCM: PCM CHGder 1st derivatives, ID1Alg=3 FixD1E=F DoIter=F DoCFld=F I1PDM=0.
 GePol: Maximum number of non-zero 1st derivatives   =     191
 Leave Link  701 at Wed Oct 11 11:58:37 2023, MaxMem=  6710886400 cpu:              10.6 elap:               0.5
 (Enter /data0/home/software/g16/l702.exe)
 L702 exits ... SP integral derivatives will be done elsewhere.
 Leave Link  702 at Wed Oct 11 11:58:37 2023, MaxMem=  6710886400 cpu:               0.4 elap:               0.0
 (Enter /data0/home/software/g16/l703.exe)
 Integral derivatives from FoFJK, PRISM(SPDF).
 Compute integral first derivatives, UseDBF=F ICtDFT=           0.
 Calling FoFJK, ICntrl=      2127 FMM=F ISym2X=0 I1Cent= 0 IOpClX= 0 NMat=1 NMatS=1 NMatT=0.
 FoFJK:  IHMeth= 1 ICntrl=    2127 DoSepK=F KAlg= 0 I1Cent=           0 FoldK=F
 IRaf=         0 NMat=       1 IRICut=       1 DoRegI=T DoRafI=F ISym2E= 0 IDoP0=0 IntGTp=1.
 FoFCou: FMM=F IPFlag=           0 FMFlag=      100000 FMFlg1=         800
         NFxFlg=           0 DoJE=F BraDBF=F KetDBF=F FulRan=T
         wScrn=  0.000000 ICntrl=      2127 IOpCl=  0 I1Cent=           0 NGrid=           0
         NMat0=    1 NMatS0=      1 NMatT0=    0 NMatD0=    1 NMtDS0=    0 NMtDT0=    0
 Symmetry not used in FoFCou.
 Leave Link  703 at Wed Oct 11 11:58:39 2023, MaxMem=  6710886400 cpu:              32.1 elap:               1.4
 (Enter /data0/home/software/g16/l716.exe)
 Dipole        =-1.32111994D-05-1.33697741D+00 8.64364202D-05
 ***** Axes restored to original set *****
 -------------------------------------------------------------------
 Center     Atomic                   Forces (Hartrees/Bohr)
 Number     Number              X              Y              Z
 -------------------------------------------------------------------
      1        6           0.000029872   -0.000083818    0.000001485
      2        6           0.000005823    0.000034069   -0.000000375
      3        6          -0.000000855    0.000053446   -0.000000091
      4        6          -0.000004970    0.000032575    0.000000744
      5        6          -0.000029887   -0.000083496   -0.000002591
      6        7          -0.000000001    0.000029382    0.000000398
      7        1           0.000000330    0.000019259   -0.000000043
      8        1          -0.000001492   -0.000020815   -0.000000557
      9        1          -0.000016207    0.000019829    0.000000007
     10        1           0.000015877    0.000020435    0.000000191
     11        1           0.000001510   -0.000020865    0.000000832
 -------------------------------------------------------------------
 Cartesian Forces:  Max     0.000083818 RMS     0.000027172
 Leave Link  716 at Wed Oct 11 11:58:39 2023, MaxMem=  6710886400 cpu:               0.4 elap:               0.0
 (Enter /data0/home/software/g16/l103.exe)

 GradGradGradGradGradGradGradGradGradGradGradGradGradGradGradGradGradGrad
 Berny optimization.
 Using GEDIIS/GDIIS optimizer.
 FormGI is forming the generalized inverse of G from B-inverse, IUseBI=4.
 Internal  Forces:  Max     0.000089881 RMS     0.000023110
 Search for a local minimum.
 Step number   2 out of a maximum of   57
 All quantities printed in internal units (Hartrees-Bohrs-Radians)
 RMS Force = .23110D-04 SwitMx=.10000D-02 MixMth= 2
 Mixed Optimization -- En-DIIS/RFO-DIIS
 Swapping is turned off.
 Update second derivatives using D2CorX and points    1    2
 DE= -4.05D-06 DEPred=-4.30D-06 R= 9.42D-01
 TightC=F SS=  1.41D+00  RLast= 4.52D-03 DXNew= 5.0454D-01 1.3558D-02
 Trust test= 9.42D-01 RLast= 4.52D-03 DXMaxT set to 3.00D-01
 ITU=  1  0
     Eigenvalues ---    0.02221   0.02222   0.02223   0.02223   0.02255
     Eigenvalues ---    0.02298   0.02317   0.02424   0.15999   0.16000
     Eigenvalues ---    0.16000   0.16000   0.16099   0.21951   0.22000
     Eigenvalues ---    0.23156   0.35449   0.35464   0.35602   0.35669
     Eigenvalues ---    0.35890   0.43022   0.45127   0.47332   0.50632
     Eigenvalues ---    0.53764   0.56310
 En-DIIS/RFO-DIIS/Sim-DIIS IScMMF=       -3 using points:     2    1
 RFO step:  Lambda=-5.39667094D-08.
 NNeg= 0 NGDIIS= 2 SimSw=  2.50D-03 Rises=F DC= -4.05D-06 SmlDif=  1.00D-05
 NRisDI= 0 DoIntr=F SqrtH=F CThrHd= 10.0 CDAdj=  3.0
 RMS Error=  0.5931841915D-04 NUsed= 2 OKEnD=F EnDIS=F
 InvSVX:  RCond= 2.30D-05 Info=           0 Equed=N FErr=  9.54D-16 BErr=  1.02D-16
 DidBck=F Rises=F RFO-DIIS coefs:    0.94342    0.05658
 Iteration  1 RMS(Cart)=  0.00009483 RMS(Int)=  0.00000000
 Iteration  2 RMS(Cart)=  0.00000000 RMS(Int)=  0.00000000
 ITry= 1 IFail=0 DXMaxC= 3.13D-04 DCOld= 1.00D+10 DXMaxT= 3.00D-01 DXLimC= 3.00D+00 Rises=F
 Variable       Old X    -DE/DX   Delta X   Delta X   Delta X     New X
                                 (Linear)    (Quad)   (Total)
    R1        2.62406   0.00009   0.00012   0.00005   0.00017   2.62423
    R2        2.53195  -0.00003   0.00005  -0.00011  -0.00006   2.53189
    R3        2.04888   0.00001   0.00004  -0.00001   0.00003   2.04891
    R4        2.62526   0.00003   0.00008  -0.00002   0.00006   2.62532
    R5        2.04525   0.00002   0.00004   0.00002   0.00006   2.04531
    R6        2.62526   0.00003   0.00008  -0.00002   0.00006   2.62532
    R7        2.04660   0.00002   0.00004   0.00001   0.00005   2.04665
    R8        2.62406   0.00009   0.00012   0.00005   0.00017   2.62423
    R9        2.04525   0.00002   0.00004   0.00002   0.00006   2.04531
   R10        2.53195  -0.00003   0.00005  -0.00011  -0.00006   2.53189
   R11        2.04888   0.00001   0.00004  -0.00001   0.00003   2.04891
    A1        2.15604   0.00000   0.00004  -0.00005  -0.00000   2.15604
    A2        2.09658   0.00002  -0.00000   0.00010   0.00010   2.09668
    A3        2.03056  -0.00002  -0.00004  -0.00006  -0.00010   2.03046
    A4        2.07043   0.00001  -0.00001   0.00005   0.00004   2.07047
    A5        2.09508   0.00001   0.00002   0.00002   0.00004   2.09512
    A6        2.11768  -0.00001  -0.00001  -0.00007  -0.00008   2.11760
    A7        2.06897  -0.00003  -0.00002  -0.00008  -0.00010   2.06887
    A8        2.10710   0.00002   0.00001   0.00004   0.00005   2.10716
    A9        2.10711   0.00001   0.00001   0.00004   0.00005   2.10716
   A10        2.07043   0.00001  -0.00001   0.00005   0.00004   2.07047
   A11        2.11768  -0.00001  -0.00001  -0.00007  -0.00009   2.11760
   A12        2.09507   0.00001   0.00002   0.00002   0.00004   2.09511
   A13        2.15604   0.00000   0.00004  -0.00005  -0.00000   2.15604
   A14        2.09658   0.00002  -0.00000   0.00010   0.00010   2.09668
   A15        2.03056  -0.00002  -0.00004  -0.00006  -0.00010   2.03046
   A16        2.04446   0.00001  -0.00005   0.00007   0.00002   2.04448
    D1        0.00001  -0.00000  -0.00000  -0.00001  -0.00001  -0.00001
    D2       -3.14159  -0.00000  -0.00000  -0.00001  -0.00001   3.14159
    D3        3.14159   0.00000   0.00000   0.00001   0.00001  -3.14159
    D4       -0.00001   0.00000   0.00000   0.00001   0.00001   0.00000
    D5       -0.00000   0.00000   0.00000   0.00000   0.00000   0.00000
    D6       -3.14158  -0.00000  -0.00000  -0.00002  -0.00002   3.14159
    D7       -0.00000   0.00000   0.00000   0.00001   0.00001   0.00000
    D8        3.14159   0.00000   0.00000   0.00001   0.00001  -3.14159
    D9       -3.14159   0.00000   0.00000   0.00000   0.00000  -3.14159
   D10       -0.00000   0.00000   0.00000   0.00000   0.00000   0.00000
   D11       -0.00001   0.00000   0.00000   0.00001   0.00001   0.00001
   D12        3.14159   0.00000   0.00000   0.00001   0.00001  -3.14159
   D13        3.14159   0.00000   0.00000   0.00001   0.00001  -3.14159
   D14       -0.00000   0.00000   0.00000   0.00001   0.00001   0.00000
   D15        0.00001  -0.00000  -0.00000  -0.00002  -0.00002  -0.00001
   D16        3.14158   0.00000   0.00000   0.00002   0.00002  -3.14159
   D17       -3.14158  -0.00000  -0.00000  -0.00002  -0.00002   3.14158
   D18       -0.00001   0.00000   0.00000   0.00002   0.00002   0.00001
   D19       -0.00001   0.00000   0.00000   0.00001   0.00002   0.00001
   D20       -3.14158  -0.00000  -0.00000  -0.00002  -0.00002   3.14158
         Item               Value     Threshold  Converged?
 Maximum Force            0.000090     0.000450     YES
 RMS     Force            0.000023     0.000300     YES
 Maximum Displacement     0.000313     0.001800     YES
 RMS     Displacement     0.000095     0.001200     YES
 Predicted change in Energy=-2.905060D-08
 Optimization completed.
    -- Stationary point found.
                           ----------------------------
                           !   Optimized Parameters   !
                           ! (Angstroms and Degrees)  !
 --------------------------                            --------------------------
 ! Name  Definition              Value          Derivative Info.                !
 --------------------------------------------------------------------------------
 ! R1    R(1,2)                  1.3886         -DE/DX =    0.0001              !
 ! R2    R(1,6)                  1.3399         -DE/DX =    0.0                 !
 ! R3    R(1,8)                  1.0842         -DE/DX =    0.0                 !
 ! R4    R(2,3)                  1.3892         -DE/DX =    0.0                 !
 ! R5    R(2,9)                  1.0823         -DE/DX =    0.0                 !
 ! R6    R(3,4)                  1.3892         -DE/DX =    0.0                 !
 ! R7    R(3,7)                  1.083          -DE/DX =    0.0                 !
 ! R8    R(4,5)                  1.3886         -DE/DX =    0.0001              !
 ! R9    R(4,10)                 1.0823         -DE/DX =    0.0                 !
 ! R10   R(5,6)                  1.3399         -DE/DX =    0.0                 !
 ! R11   R(5,11)                 1.0842         -DE/DX =    0.0                 !
 ! A1    A(2,1,6)              123.5321         -DE/DX =    0.0                 !
 ! A2    A(2,1,8)              120.1252         -DE/DX =    0.0                 !
 ! A3    A(6,1,8)              116.3427         -DE/DX =    0.0                 !
 ! A4    A(1,2,3)              118.6269         -DE/DX =    0.0                 !
 ! A5    A(1,2,9)              120.0392         -DE/DX =    0.0                 !
 ! A6    A(3,2,9)              121.3339         -DE/DX =    0.0                 !
 ! A7    A(2,3,4)              118.5432         -DE/DX =    0.0                 !
 ! A8    A(2,3,7)              120.7282         -DE/DX =    0.0                 !
 ! A9    A(4,3,7)              120.7286         -DE/DX =    0.0                 !
 ! A10   A(3,4,5)              118.6268         -DE/DX =    0.0                 !
 ! A11   A(3,4,10)             121.3344         -DE/DX =    0.0                 !
 ! A12   A(5,4,10)             120.0388         -DE/DX =    0.0                 !
 ! A13   A(4,5,6)              123.5322         -DE/DX =    0.0                 !
 ! A14   A(4,5,11)             120.1251         -DE/DX =    0.0                 !
 ! A15   A(6,5,11)             116.3427         -DE/DX =    0.0                 !
 ! A16   A(1,6,5)              117.1387         -DE/DX =    0.0                 !
 ! D1    D(6,1,2,3)              0.0005         -DE/DX =    0.0                 !
 ! D2    D(6,1,2,9)            180.0003         -DE/DX =    0.0                 !
 ! D3    D(8,1,2,3)           -180.0004         -DE/DX =    0.0                 !
 ! D4    D(8,1,2,9)             -0.0006         -DE/DX =    0.0                 !
 ! D5    D(2,1,6,5)             -0.0001         -DE/DX =    0.0                 !
 ! D6    D(8,1,6,5)            180.0007         -DE/DX =    0.0                 !
 ! D7    D(1,2,3,4)             -0.0002         -DE/DX =    0.0                 !
 ! D8    D(1,2,3,7)           -180.0003         -DE/DX =    0.0                 !
 ! D9    D(9,2,3,4)           -180.0            -DE/DX =    0.0                 !
 ! D10   D(9,2,3,7)              0.0            -DE/DX =    0.0                 !
 ! D11   D(2,3,4,5)             -0.0004         -DE/DX =    0.0                 !
 ! D12   D(2,3,4,10)          -180.0003         -DE/DX =    0.0                 !
 ! D13   D(7,3,4,5)           -180.0003         -DE/DX =    0.0                 !
 ! D14   D(7,3,4,10)            -0.0002         -DE/DX =    0.0                 !
 ! D15   D(3,4,5,6)              0.0008         -DE/DX =    0.0                 !
 ! D16   D(3,4,5,11)          -180.0007         -DE/DX =    0.0                 !
 ! D17   D(10,4,5,6)           180.0007         -DE/DX =    0.0                 !
 ! D18   D(10,4,5,11)           -0.0008         -DE/DX =    0.0                 !
 ! D19   D(4,5,6,1)             -0.0005         -DE/DX =    0.0                 !
 ! D20   D(11,5,6,1)           180.0009         -DE/DX =    0.0                 !
 --------------------------------------------------------------------------------
 Lowest energy point so far.  Saving SCF results.
 Largest change from initial coordinates is atom    7       0.001 Angstoms.
 GradGradGradGradGradGradGradGradGradGradGradGradGradGradGradGradGradGrad

 Leave Link  103 at Wed Oct 11 11:58:39 2023, MaxMem=  6710886400 cpu:               0.4 elap:               0.0
 (Enter /data0/home/software/g16/l202.exe)
                          Input orientation:                          
 ---------------------------------------------------------------------
 Center     Atomic      Atomic             Coordinates (Angstroms)
 Number     Number       Type             X           Y           Z
 ---------------------------------------------------------------------
      1          6           0       -1.143267   -0.717960   -0.000209
      2          6           0       -1.194171    0.669698   -0.000119
      3          6           0        0.000016    1.379537    0.000094
      4          6           0        1.194186    0.669673    0.000212
      5          6           0        1.143249   -0.717985    0.000120
      6          7           0       -0.000016   -1.416659   -0.000092
      7          1           0        0.000024    2.462550    0.000165
      8          1           0       -2.060462   -1.296131   -0.000369
      9          1           0       -2.150332    1.176779   -0.000218
     10          1           0        2.150363    1.176725    0.000373
     11          1           0        2.060432   -1.296177    0.000197
 ---------------------------------------------------------------------
                    Distance matrix (angstroms):
                    1          2          3          4          5
     1  C    0.000000
     2  C    1.388591   0.000000
     3  C    2.388846   1.389227   0.000000
     4  C    2.718310   2.388356   1.389226   0.000000
     5  C    2.286516   2.718308   2.388845   1.388592   0.000000
     6  N    1.339852   2.403933   2.796196   2.403934   1.339851
     7  H    3.379757   2.154163   1.083014   2.154166   3.379759
     8  H    1.084219   2.148243   3.377095   3.802252   3.255460
     9  H    2.145743   1.082301   2.159886   3.382744   3.799712
    10  H    3.799713   3.382747   2.159889   1.082301   2.145741
    11  H    3.255460   3.802250   3.377093   2.148243   1.084219
                    6          7          8          9         10
     6  N    0.000000
     7  H    3.879210   0.000000
     8  H    2.063968   4.286408   0.000000
     9  H    3.368943   2.505442   2.474542   0.000000
    10  H    3.368942   2.505455   4.883243   4.300695   0.000000
    11  H    2.063968   4.286410   4.120894   4.883241   2.474536
                   11
    11  H    0.000000
 Stoichiometry    C5H5N
 Framework group  C1[X(C5H5N)]
 Deg. of freedom    27
 Full point group                 C1      NOp   1
 RotChk:  IX=3 Diff= 9.64D-16
[...]
    A4        2.07043   0.00001   0.00000   0.00003   0.00003   2.07046
    A5        2.09508   0.00001   0.00000   0.00005   0.00005   2.09513
    A6        2.11768  -0.00001   0.00000  -0.00009  -0.00009   2.11759
    A7        2.06897  -0.00003   0.00000  -0.00008  -0.00008   2.06889
    A8        2.10710   0.00002   0.00000   0.00005   0.00005   2.10715
    A9        2.10711   0.00001   0.00000   0.00004   0.00004   2.10715
   A10        2.07043   0.00001   0.00000   0.00003   0.00003   2.07046
   A11        2.11768  -0.00001   0.00000  -0.00009  -0.00009   2.11759
   A12        2.09507   0.00001   0.00000   0.00006   0.00006   2.09513
   A13        2.15604   0.00000   0.00000  -0.00002  -0.00002   2.15602
   A14        2.09658   0.00002   0.00000   0.00010   0.00010   2.09668
   A15        2.03056  -0.00002   0.00000  -0.00008  -0.00008   2.03049
   A16        2.04446   0.00001   0.00000   0.00006   0.00006   2.04452
    D1        0.00001  -0.00000   0.00000  -0.00001  -0.00001  -0.00000
    D2       -3.14159  -0.00000   0.00000  -0.00001  -0.00001   3.14159
    D3        3.14159   0.00000   0.00000   0.00001   0.00001   3.14159
    D4       -0.00001   0.00000   0.00000   0.00001   0.00001  -0.00000
    D5       -0.00000   0.00000   0.00000   0.00000   0.00000   0.00000
    D6       -3.14158  -0.00000   0.00000  -0.00001  -0.00001  -3.14159
    D7       -0.00000   0.00000   0.00000   0.00000   0.00000  -0.00000
    D8        3.14159   0.00000   0.00000   0.00000   0.00000   3.14159
    D9       -3.14159   0.00000   0.00000  -0.00000  -0.00000  -3.14159
   D10       -0.00000   0.00000   0.00000   0.00000   0.00000   0.00000
   D11       -0.00001   0.00000   0.00000   0.00001   0.00001   0.00000
   D12        3.14159   0.00000   0.00000   0.00001   0.00001  -3.14159
   D13        3.14159   0.00000   0.00000   0.00001   0.00001  -3.14159
   D14       -0.00000   0.00000   0.00000   0.00000   0.00000   0.00000
   D15        0.00001  -0.00000   0.00000  -0.00001  -0.00001  -0.00000
   D16        3.14158   0.00000   0.00000   0.00001   0.00001   3.14159
   D17       -3.14158  -0.00000   0.00000  -0.00001  -0.00001   3.14159
   D18       -0.00001   0.00000   0.00000   0.00001   0.00001  -0.00000
   D19       -0.00001   0.00000   0.00000   0.00001   0.00001   0.00000
   D20       -3.14158  -0.00000   0.00000  -0.00002  -0.00002  -3.14159
         Item               Value     Threshold  Converged?
 Maximum Force            0.000090     0.000450     YES
 RMS     Force            0.000023     0.000300     YES
 Maximum Displacement     0.000325     0.001800     YES
 RMS     Displacement     0.000096     0.001200     YES
 Predicted change in Energy=-3.044522D-08
 Optimization completed.
    -- Stationary point found.
                           ----------------------------
                           !   Optimized Parameters   !
                           ! (Angstroms and Degrees)  !
 --------------------------                            --------------------------
 ! Name  Definition              Value          Derivative Info.                !
 --------------------------------------------------------------------------------
 ! R1    R(1,2)                  1.3886         -DE/DX =    0.0001              !
 ! R2    R(1,6)                  1.3399         -DE/DX =    0.0                 !
 ! R3    R(1,8)                  1.0842         -DE/DX =    0.0                 !
 ! R4    R(2,3)                  1.3892         -DE/DX =    0.0                 !
 ! R5    R(2,9)                  1.0823         -DE/DX =    0.0                 !
 ! R6    R(3,4)                  1.3892         -DE/DX =    0.0                 !
 ! R7    R(3,7)                  1.083          -DE/DX =    0.0                 !
 ! R8    R(4,5)                  1.3886         -DE/DX =    0.0001              !
 ! R9    R(4,10)                 1.0823         -DE/DX =    0.0                 !
 ! R10   R(5,6)                  1.3399         -DE/DX =    0.0                 !
 ! R11   R(5,11)                 1.0842         -DE/DX =    0.0                 !
 ! A1    A(2,1,6)              123.5321         -DE/DX =    0.0                 !
 ! A2    A(2,1,8)              120.1252         -DE/DX =    0.0                 !
 ! A3    A(6,1,8)              116.3427         -DE/DX =    0.0                 !
 ! A4    A(1,2,3)              118.6269         -DE/DX =    0.0                 !
 ! A5    A(1,2,9)              120.0392         -DE/DX =    0.0                 !
 ! A6    A(3,2,9)              121.3339         -DE/DX =    0.0                 !
 ! A7    A(2,3,4)              118.5432         -DE/DX =    0.0                 !
 ! A8    A(2,3,7)              120.7282         -DE/DX =    0.0                 !
 ! A9    A(4,3,7)              120.7286         -DE/DX =    0.0                 !
 ! A10   A(3,4,5)              118.6268         -DE/DX =    0.0                 !
 ! A11   A(3,4,10)             121.3344         -DE/DX =    0.0                 !
 ! A12   A(5,4,10)             120.0388         -DE/DX =    0.0                 !
 ! A13   A(4,5,6)              123.5322         -DE/DX =    0.0                 !
 ! A14   A(4,5,11)             120.1251         -DE/DX =    0.0                 !
 ! A15   A(6,5,11)             116.3427         -DE/DX =    0.0                 !
 ! A16   A(1,6,5)              117.1387         -DE/DX =    0.0                 !
 ! D1    D(6,1,2,3)              0.0005         -DE/DX =    0.0                 !
 ! D2    D(6,1,2,9)            180.0003         -DE/DX =    0.0                 !
 ! D3    D(8,1,2,3)            179.9996         -DE/DX =    0.0                 !
 ! D4    D(8,1,2,9)             -0.0006         -DE/DX =    0.0                 !
 ! D5    D(2,1,6,5)             -0.0001         -DE/DX =    0.0                 !
 ! D6    D(8,1,6,5)           -179.9993         -DE/DX =    0.0                 !
 ! D7    D(1,2,3,4)             -0.0002         -DE/DX =    0.0                 !
 ! D8    D(1,2,3,7)            179.9997         -DE/DX =    0.0                 !
 ! D9    D(9,2,3,4)           -180.0            -DE/DX =    0.0                 !
 ! D10   D(9,2,3,7)              0.0            -DE/DX =    0.0                 !
 ! D11   D(2,3,4,5)             -0.0004         -DE/DX =    0.0                 !
 ! D12   D(2,3,4,10)          -180.0003         -DE/DX =    0.0                 !
 ! D13   D(7,3,4,5)           -180.0003         -DE/DX =    0.0                 !
 ! D14   D(7,3,4,10)            -0.0002         -DE/DX =    0.0                 !
 ! D15   D(3,4,5,6)              0.0008         -DE/DX =    0.0                 !
 ! D16   D(3,4,5,11)           179.9993         -DE/DX =    0.0                 !
 ! D17   D(10,4,5,6)           180.0007         -DE/DX =    0.0                 !
 ! D18   D(10,4,5,11)           -0.0008         -DE/DX =    0.0                 !
 ! D19   D(4,5,6,1)             -0.0005         -DE/DX =    0.0                 !
 ! D20   D(11,5,6,1)          -179.9991         -DE/DX =    0.0                 !
 --------------------------------------------------------------------------------
 GradGradGradGradGradGradGradGradGradGradGradGradGradGradGradGradGradGrad

 Leave Link  103 at Wed Oct 11 11:59:28 2023, MaxMem=  6710886400 cpu:               0.4 elap:               0.0
 (Enter /data0/home/software/g16/l9999.exe)

 ----------------------------------------------------------------------

 Electric dipole moment (input orientation):
 (Debye = 10**-18 statcoulomb cm , SI units = C m)
                  (au)            (Debye)         (10**-30 SI)
   Tot        0.133698D+01      0.339826D+01      0.113354D+02
   x          0.158369D-04      0.402534D-04      0.134271D-03
   y          0.133698D+01      0.339826D+01      0.113354D+02
   z          0.864364D-04      0.219699D-03      0.732839D-03

 Dipole polarizability, Alpha (input orientation).
 (esu units = cm**3 , SI units = C**2 m**2 J**-1)
 Alpha(0;0):
               (au)            (10**-24 esu)      (10**-40 SI)
   iso        0.909985D+02      0.134846D+02      0.150036D+02
   aniso      0.528975D+02      0.783861D+01      0.872163D+01
   xx         0.111124D+03      0.164668D+02      0.183218D+02
   yx        -0.710382D-04     -0.105268D-04     -0.117126D-04
   yy         0.106015D+03      0.157098D+02      0.174795D+02
   zx         0.782774D-02      0.115995D-02      0.129062D-02
   zy         0.329877D-02      0.488828D-03      0.543894D-03
   zz         0.558571D+02      0.827716D+01      0.920959D+01

 ----------------------------------------------------------------------

 Dipole orientation:
     6         -2.16044477          0.00033345         -1.35677270
     6         -2.25667033          0.00033389          1.26551956
     6         -0.00000049         -0.00000826          2.60694668
     6          2.25666904         -0.00034492          1.26552483
     6          2.16044391         -0.00034014         -1.35676960
     7          0.00000104          0.00000163         -2.67709789
     1         -0.00000930         -0.00001068          4.65354587
     1         -3.89368030          0.00058421         -2.44937899
     1         -4.06356516          0.00060421          2.22374159
     1          4.06356988         -0.00060990          2.22373560
     1          3.89368127         -0.00057727         -2.44937285

 Electric dipole moment (dipole orientation):
 (Debye = 10**-18 statcoulomb cm , SI units = C m)
                  (au)            (Debye)         (10**-30 SI)
   Tot        0.133698D+01      0.339826D+01      0.113354D+02
   x          0.000000D+00      0.000000D+00      0.000000D+00
   y          0.000000D+00      0.000000D+00      0.000000D+00
   z          0.133698D+01      0.339826D+01      0.113354D+02

 Dipole polarizability, Alpha (dipole orientation).
 (esu units = cm**3 , SI units = C**2 m**2 J**-1)
 Alpha(0;0):
               (au)            (10**-24 esu)      (10**-40 SI)
   iso        0.909985D+02      0.134846D+02      0.150036D+02
   aniso      0.528975D+02      0.783861D+01      0.872163D+01
   xx         0.111124D+03      0.164668D+02      0.183218D+02
   yx        -0.848235D-02     -0.125696D-02     -0.139855D-02
   yy         0.558571D+02      0.827716D+01      0.920959D+01
   zx        -0.100139D-04     -0.148391D-05     -0.165107D-05
   zy        -0.561466D-04     -0.832007D-05     -0.925733D-05
   zz         0.106015D+03      0.157098D+02      0.174795D+02

 ----------------------------------------------------------------------
 1\1\GINC-LOCALHOST\Freq\RB3LYP\6-311+G(2d,p)\C5H5N1\WUHANYU\11-Oct-202
 3\0\\#P Geom=AllCheck Guess=TCheck SCRF=Check GenChk RB3LYP/6-311+G(2d
 ,p) Freq\\Title Card Required\\0,1\C,-1.1432666442,-0.7179596413,-0.00
 02093319\C,-1.1941705787,0.6696982642,-0.0001192438\C,0.0000160814,1.3
 795367688,0.0000935602\C,1.1941857618,0.669672744,0.0002116738\C,1.143
 2491786,-0.7179851024,0.0001200337\N,-0.0000162297,-1.4166591898,-0.00
 00924479\H,0.0000242479,2.4625504181,0.0001648596\H,-2.0604622364,-1.2
 961311142,-0.0003685432\H,-2.1503321419,1.1767788579,-0.0002181871\H,2
 .150362517,1.17672471,0.0003733507\H,2.0604320442,-1.2961767153,0.0001
 972758\\Version=ES64L-G16RevA.03\State=1-A\HF=-248.3824007\RMSD=6.183e
 -10\RMSF=2.717e-05\ZeroPoint=0.0886867\Thermal=0.09296\Dipole=0.000015
 8,1.3369777,0.0000864\DipoleDeriv=0.305493,-0.0615825,0.0000374,0.3224
 237,0.4448819,0.0000787,0.000058,0.0000178,-0.0107822,-0.1245296,-0.10
 66294,-0.0000076,-0.3674431,-0.2737738,-0.0000626,-0.0000091,-0.000032
 6,-0.1423487,0.2984647,-0.0000015,0.0000627,-0.0000022,0.2346829,0.000
 0244,0.0000538,0.0000272,-0.1229252,-0.1245176,0.1066254,0.0000065,0.3
 674401,-0.2737851,0.0000449,0.0000299,0.0000104,-0.1423486,0.3054867,0
 .0615866,0.0000448,-0.3224187,0.4448878,-0.0000173,0.0000168,0.0000449
 ,-0.010782,-0.5200873,-0.0000029,-0.0000068,-0.0000046,-0.740488,-0.00
 0022,-0.0000162,-0.0000212,-0.409957,0.1266697,-0.0000011,-0.0000058,-
 0.0000022,-0.0766622,-0.0000169,-0.0000071,-0.0000149,0.1691527,-0.083
 5564,-0.0724317,-0.0000378,-0.112422,0.0426997,-0.000024,-0.0000371,-0
 .0000159,0.1480406,-0.0499334,0.0805602,-0.0000275,0.0847142,0.0774286
 ,0.0000045,-0.0000305,0.0000049,0.186955,-0.0499373,-0.0805575,-0.0000
 38,-0.0847097,0.0774331,-0.0000192,-0.0000417,-0.0000195,0.1869551,-0.
 0835526,0.0724345,-0.0000279,0.1124245,0.0426952,0.0000095,-0.000017,-
 0.0000011,0.1480403\Polar=111.1237706,-0.000071,106.0146693,0.0078277,
 0.0032988,55.8570622\Quadrupole=4.8218797,-1.8988833,-2.9229963,-0.000
 0853,0.0010449,0.0000637\PG=C01 [X(C5H5N1)]\NImag=0\\0.72276815,0.0593
 7701,0.68347732,0.00008071,0.00004309,0.16017845,-0.13736050,0.0335256
 0,-0.00000676,0.73802616,-0.03667440,-0.32272610,-0.00002235,-0.038144
 20,0.67410461,-0.00001162,-0.00001281,-0.07185641,0.00008133,0.0000314
 8,0.13288300,0.04243124,-0.08091506,-0.00000065,-0.28321112,-0.0584868
 5,-0.00003437,0.65673979,-0.03371056,-0.02802664,-0.00000693,-0.121091
 36,-0.18854967,-0.00002488,-0.00000158,0.75411906,0.00000233,-0.000014
 14,0.00899697,-0.00003838,-0.00001594,-0.06554706,0.00007112,0.0000406
 3,0.14504179,-0.01733802,0.02464679,0.00000068,-0.05749262,-0.01973660
 ,-0.00001025,-0.28320997,0.12109493,-0.00002204,0.73803223,0.04037765,
 -0.05669009,0.00000265,0.01973951,0.06989238,0.00000714,0.05849082,-0.
 18855454,-0.00000025,0.03814025,0.67409907,0.00000181,0.00000053,-0.01
 056492,-0.00000760,0.00000100,0.00714830,-0.00002604,0.00000856,-0.065
 54662,0.00008478,0.00003896,0.13288289,-0.09675597,0.02553925,-0.00001
 234,-0.01733958,-0.04037855,-0.00000351,0.04243381,0.03370906,0.000006
 77,-0.13736059,0.03667014,-0.00000691,0.72276689,-0.02553559,0.0640367
 4,0.00000035,-0.02464763,-0.05668866,-0.00000654,0.08091354,-0.0280293
 5,0.00000910,-0.03353014,-0.32272349,-0.00001947,-0.05937713,0.6834780
 0,-0.00001569,0.00000771,0.00404942,-0.00000258,-0.00000877,-0.0105649
 4,0.00000998,0.00000198,0.00899696,-0.00001119,-0.00001025,-0.07185672
 ,0.00007199,0.00002711,0.16017870,-0.26752089,0.07181215,-0.00002302,0
 .02817988,0.09855702,0.00000704,-0.08150508,0.00000094,-0.00000988,0.0
 2817693,-0.09855823,-0.00000597,-0.26752547,-0.07181082,-0.00003268,0.
 62107612,0.10175144,-0.18527056,0.00000636,0.03679660,-0.03055096,0.00
 000116,0.00000092,0.00454652,0.00000107,-0.03679779,-0.03054778,-0.000
 00846,-0.10175007,-0.18526715,-0.00002245,-0.00000187,0.41138677,-0.00
 002139,0.00000266,-0.06838147,0.00000311,0.00001021,0.02437782,-0.0000
 1015,0.00000105,-0.01095996,-0.00000175,-0.00001742,0.02437788,-0.0000
 3516,-0.00001888,-0.06838146,0.00007433,0.00002151,0.09465861,-0.00475
 277,-0.00217262,-0.00000201,0.00505039,-0.02825929,-0.00000196,-0.0602
 3564,-0.00000209,-0.00000248,0.00505106,0.02825880,0.00000173,-0.00475
 266,0.00217274,-0.00000170,-0.00033539,0.00000001,0.00000055,0.0571537
 5,-0.00313891,0.00101395,-0.00000092,0.00178964,-0.01085718,-0.0000008
 4,-0.00000227,-0.33912138,-0.00001993,-0.00178996,-0.01085752,-0.00000
 133,0.00313902,0.00101386,-0.00000010,0.,0.00026618,0.00000029,0.00000
 250,0.35799952,-0.00000214,-0.00000072,0.00878777,-0.00000010,-0.00000
 513,0.00566936,-0.00000230,-0.00001994,-0.04212836,-0.00000032,0.00000
 299,0.00566930,-0.00000173,-0.00000033,0.00878783,0.00000068,0.0000003
 1,-0.00417511,0.00000426,0.00002219,0.02660308,-0.24319305,-0.12776229
 ,-0.00003509,0.00470885,0.00226237,-0.00000015,0.00125484,0.00071065,-
 0.00000074,-0.00014307,0.00012049,0.00000008,-0.00166258,0.00294684,-0
 .00000140,-0.03202124,-0.00813719,-0.00000450,0.00009883,0.00023708,0.
 00000010,0.27135361,-0.12953248,-0.14726442,-0.00002464,-0.02729471,-0
 .01184232,-0.00000495,0.00173259,-0.00568181,-0.00000061,0.00085407,-0
 .00009932,0.00000016,0.00395821,0.00004632,-0.00000009,0.01991532,0.01
 436336,0.00000392,-0.00141666,-0.00063762,-0.00000021,0.13090694,0.149
 51918,-0.00003457,-0.00002409,-0.04262814,-0.00000234,-0.00000113,0.00
 721796,-0.00000072,-0.00000085,0.00725605,0.00000016,-0.00000003,-0.00
 058649,-0.00000141,-0.00000011,0.01050256,-0.00000298,0.00000009,-0.00
 378811,-0.00000003,0.00000001,-0.00051477,0.00004126,0.00002590,0.0271
 1450,0.00330562,-0.00197979,0.00000012,-0.27791346,0.11721049,-0.00002
 544,-0.01797651,0.01408466,-0.00000205,-0.00250513,-0.00377047,-0.0000
 0168,0.00007887,-0.00087577,0.00000002,0.00174835,-0.00034318,-0.00000
 090,0.00131180,-0.00000095,0.00000075,0.00046016,0.00041086,0.00000056
 ,0.29227360,0.02941680,-0.00769500,0.00000353,0.11691503,-0.12158321,0
 .00001044,-0.01617454,0.01248977,-0.00000162,-0.00326556,-0.00109943,-
 0.00000107,-0.00162724,-0.00090162,-0.00000027,0.00058900,-0.00664499,
 -0.00000093,0.00085461,0.00090892,0.00000045,-0.00042682,0.00112646,0.
 00000025,-0.12570470,0.12275726,0.00000236,-0.00000100,0.00136942,-0.0
 0002553,0.00001062,-0.03670933,-0.00000402,0.00000260,0.00331715,-0.00
 000166,-0.00000112,0.00796773,-0.00000005,-0.00000018,-0.00045370,-0.0
 0000086,-0.00000100,0.00802999,0.00000080,0.00000032,-0.00409216,0.000
 00046,0.00000033,-0.00327833,0.00002844,-0.00001086,0.02543796,0.00007
 893,0.00087574,0.00000013,-0.00250490,0.00377050,-0.00000115,-0.017976
 17,-0.01408385,-0.00000385,-0.27792022,-0.11720615,-0.00003977,0.00330
 483,0.00197949,0.00000038,0.00174833,0.00034295,-0.00000081,0.00131176
 ,0.00000095,0.00000073,0.00000289,-0.00013982,0.00000023,-0.00078619,-
 0.00082900,-0.00000020,0.29228056,0.00162722,-0.00090168,0.00000021,0.
 00326560,-0.00109960,-0.00000010,0.01617516,0.01248983,0.00000278,-0.1
 1691029,-0.12157639,-0.00002115,-0.02941729,-0.00769453,-0.00000467,-0
 .00058920,-0.00664501,-0.00000100,-0.00085465,0.00090891,0.00000019,-0
 .00025242,0.00019615,0.00000008,0.00082903,0.00044569,0.00000014,0.125
 70001,0.12275015,0.00000015,0.00000010,-0.00045370,-0.00000124,-0.0000
 0008,0.00796779,-0.00000190,-0.00000137,0.00331707,-0.00003969,-0.0000
 2133,-0.03670930,-0.00000150,-0.00000016,0.00136951,-0.00000095,-0.000
 00096,0.00802995,0.00000068,0.00000034,-0.00409218,0.00000023,0.000000
 10,-0.00179205,-0.00000009,-0.00000010,0.00020330,0.00004381,0.0000231
 9,0.02543793,-0.00166273,-0.00294679,-0.00000179,-0.00014309,-0.000120
 50,0.00000007,0.00125479,-0.00071080,-0.00000081,0.00470941,-0.0022628
 1,-0.00000043,-0.24318756,0.12776448,-0.00001713,-0.03202153,0.0081381
 7,-0.00000333,0.00009886,-0.00023710,0.00000007,-0.00085925,0.00060568
 ,-0.00000017,0.00000290,0.00025242,0.00000025,0.00046018,0.00042683,0.
 00000050,0.27134802,-0.00395818,0.00004648,-0.00000134,-0.00085408,-0.
 00009929,-0.00000010,-0.00173273,-0.00568179,-0.00000110,0.02729431,-0
 .01184291,0.00000227,0.12953459,-0.14727012,0.00000981,-0.01991431,0.0
 1436362,-0.00000141,0.00141664,-0.00063764,0.00000020,-0.00060565,0.00
 027401,-0.00000012,0.00013982,0.00019614,0.00000016,-0.00041082,0.0011
 2645,0.00000026,-0.13090961,0.14952504,-0.00000196,-0.00000132,0.01050
 259,0.00000007,0.00000009,-0.00058648,-0.00000095,-0.00000083,0.007256
 01,0.00000128,-0.00000136,0.00721796,-0.00001615,0.00000912,-0.0426281
 5,-0.00000571,0.00000238,-0.00378815,0.00000016,-0.00000003,-0.0005147
 7,-0.00000024,0.00000009,0.00049682,0.00000026,0.00000017,-0.00179204,
 0.00000048,0.00000032,-0.00327832,0.00002276,-0.00000863,0.02711453\\-
 0.00002987,0.00008382,-0.00000149,-0.00000584,-0.00003409,0.00000037,0
 .00000085,-0.00005344,0.00000009,0.00000499,-0.00003259,-0.00000074,0.
 00002989,0.00008350,0.00000259,0.,-0.00002937,-0.00000040,-0.00000033,
 -0.00001925,0.00000004,0.00000150,0.00002082,0.00000056,0.00001621,-0.
 00001983,0.,-0.00001588,-0.00002043,-0.00000019,-0.00000151,0.00002087
 ,-0.00000083\\\@


 MANHOOD BEGINS BY TRYING TO SHAVE FACE,
 AND ENDS BY TRYING TO SAVE FACE.
 Job cpu time:       0 days  0 hours 19 minutes  5.9 seconds.
 Elapsed time:       0 days  0 hours  0 minutes 49.0 seconds.
 File lengths (MBytes):  RWF=     58 Int=      0 D2E=      0 Chk=      7 Scr=      1
 Normal termination of Gaussian 16 at Wed Oct 11 11:59:28 2023.
