 Entering Gaussian System, Link 0=g16
 Initial command:
 /data0/home/software/g16/l1.exe "/data0/home/software/g16/scratch/Gau-2489145.inp" -scrdir="/data0/home/software/g16/scratch/"
 Default is to use a total of  22 processors:
                               22 via shared-memory
                                1 via Linda
 Entering Link 1 = /data0/home/software/g16/l1.exe PID=   2489146.
  
 Copyright (c) 1988,1990,1992,1993,1995,1998,2003,2009,2016,
            Gaussian, Inc.  All Rights Reserved.
  
 This is part of the Gaussian(R) 16 program.  It is based on
 the Gaussian(R) 09 system (copyright 2009, Gaussian, Inc.),
 the Gaussian(R) 03 system (copyright 2003, Gaussian, Inc.),
 the Gaussian(R) 98 system (copyright 1998, Gaussian, Inc.),
 the Gaussian(R) 94 system (copyright 1995, Gaussian, Inc.),
 the Gaussian 92(TM) system (copyright 1992, Gaussian, Inc.),
 the Gaussian 90(TM) system (copyright 1990, Gaussian, Inc.),
 the Gaussian 88(TM) system (copyright 1988, Gaussian, Inc.),
 the Gaussian 86(TM) system (copyright 1986, Carnegie Mellon
 University), and the Gaussian 82(TM) system (copyright 1983,
 Carnegie Mellon University). Gaussian is a federally registered
 trademark of Gaussian, Inc.
  
 This software contains proprietary and confidential information,
 including trade secrets, belonging to Gaussian, Inc.
  
 This software is provided under written license and may be
 used, copied, transmitted, or stored only in accord with that
 written license.
  
 The following legend is applicable only to US Government
 contracts under FAR:
  
                    RESTRICTED RIGHTS LEGEND
  
 Use, reproduction and disclosure by the US Government is
 subject to restrictions as set forth in subparagraphs (a)
 and (c) of the Commercial Computer Software - Restricted
 Rights clause in FAR 52.227-19.
  
 Gaussian, Inc.
 340 Quinnipiac St., Bldg. 40, Wallingford CT 06492
  
  
 ---------------------------------------------------------------
 Warning -- This program may not be used in any manner that
 competes with the business of Gaussian, Inc. or will provide
 assistance to any competitor of Gaussian, Inc.  The licensee
 of this program is prohibited from giving any competitor of
 Gaussian, Inc. access to this program.  By using this program,
 the user acknowledges that Gaussian, Inc. is engaged in the
 business of creating and licensing software in the field of
 computational chemistry and represents and warrants to the
 licensee that it is not a competitor of Gaussian, Inc. and that
 it will not use this program in any manner prohibited above.
 ---------------------------------------------------------------
  

 Cite this work as:
 Gaussian 16, Revision A.03,
 M. J. Frisch, G. W. Trucks, H. B. Schlegel, G. E. Scuseria, 
 M. A. Robb, J. R. Cheeseman, G. Scalmani, V. Barone, 
 G. A. Petersson, H. Nakatsuji, X. Li, M. Caricato, A. V. Marenich, 
 J. Bloino, B. G. Janesko, R. Gomperts, B. Mennucci, H. P. Hratchian, 
 J. V. Ortiz, A. F. Izmaylov, J. L. Sonnenberg, D. Williams-Young, 
 F. Ding, F. Lipparini, F. Egidi, J. Goings, B. Peng, A. Petrone, 
 T. Henderson, D. Ranasinghe, V. G. Zakrzewski, J. Gao, N. Rega, 
 G. Zheng, W. Liang, M. Hada, M. Ehara, K. Toyota, R. Fukuda, 
 J. Hasegawa, M. Ishida, T. Nakajima, Y. Honda, O. Kitao, H. Nakai, 
 T. Vreven, K. Throssell, J. A. Montgomery, Jr., J. E. Peralta, 
 F. Ogliaro, M. J. Bearpark, J. J. Heyd, E. N. Brothers, K. N. Kudin, 
 V. N. Staroverov, T. A. Keith, R. Kobayashi, J. Normand, 
 K. Raghavachari, A. P. Rendell, J. C. Burant, S. S. Iyengar, 
 J. Tomasi, M. Cossi, J. M. Millam, M. Klene, C. Adamo, R. Cammi, 
 J. W. Ochterski, R. L. Martin, K. Morokuma, O. Farkas, 
 J. B. Foresman, and D. J. Fox, Gaussian, Inc., Wallingford CT, 2016.
 
 ******************************************
 Gaussian 16:  ES64L-G16RevA.03 25-Dec-2016
                11-Oct-2023 
 ******************************************
 %nprocshared=24
 Will use up to   24 processors via shared memory.
 %mem=50GB
 ----------------------------------------
 #p M052X/6-31G* scrf=(smd,solvent=water)
 ----------------------------------------
 1/38=1,172=1/1;
 2/12=2,17=6,18=5,40=1/2;
 3/5=1,6=6,7=1,11=2,25=1,30=1,70=32201,72=1,74=-38/1,2,3;
 4//1;
 5/5=2,38=5,53=1/2;
 6/7=2,8=2,9=2,10=2,28=1/1;
 99/5=1,9=1/99;
 Leave Link    1 at Wed Oct 11 12:00:31 2023, MaxMem=  6710886400 cpu:               0.8 elap:               0.0
 (Enter /data0/home/software/g16/l101.exe)
 -------------------
 Title Card Required
 -------------------
 Symbolic Z-matrix:
 Charge =  0 Multiplicity = 1
 C                     1.14326   0.71808  -0.00021 
 C                     1.19417  -0.66958  -0.00012 
 C                    -0.00001  -1.37942   0.00009 
 C                    -1.19419  -0.66956   0.00021 
 C                    -1.14325   0.7181    0.00012 
 N                     0.00001   1.41678  -0.00009 
 H                    -0.00002  -2.46243   0.00016 
 H                     2.06046   1.29625  -0.00037 
 H                     2.15033  -1.17666  -0.00022 
 H                    -2.15036  -1.17661   0.00037 
 H                    -2.06044   1.29629   0.0002 
 
 ITRead=  0  0  0  0  0  0  0  0  0  0  0
 MicOpt= -1 -1 -1 -1 -1 -1 -1 -1 -1 -1 -1
 NAtoms=     11 NQM=       11 NQMF=       0 NMMI=      0 NMMIF=      0
                NMic=       0 NMicF=      0.
                    Isotopes and Nuclear Properties:
 (Nuclear quadrupole moments (NQMom) in fm**2, nuclear magnetic moments (NMagM)
  in nuclear magnetons)

  Atom         1           2           3           4           5           6           7           8           9          10
 IAtWgt=          12          12          12          12          12          14           1           1           1           1
 AtmWgt=  12.0000000  12.0000000  12.0000000  12.0000000  12.0000000  14.0030740   1.0078250   1.0078250   1.0078250   1.0078250
 NucSpn=           0           0           0           0           0           2           1           1           1           1
 AtZEff=  -0.0000000  -0.0000000  -0.0000000  -0.0000000  -0.0000000  -0.0000000  -0.0000000  -0.0000000  -0.0000000  -0.0000000
 NQMom=    0.0000000   0.0000000   0.0000000   0.0000000   0.0000000   2.0440000   0.0000000   0.0000000   0.0000000   0.0000000
 NMagM=    0.0000000   0.0000000   0.0000000   0.0000000   0.0000000   0.4037610   2.7928460   2.7928460   2.7928460   2.7928460
 AtZNuc=   6.0000000   6.0000000   6.0000000   6.0000000   6.0000000   7.0000000   1.0000000   1.0000000   1.0000000   1.0000000

  Atom        11
 IAtWgt=           1
 AtmWgt=   1.0078250
 NucSpn=           1
 AtZEff=  -0.0000000
 NQMom=    0.0000000
 NMagM=    2.7928460
 AtZNuc=   1.0000000
 Leave Link  101 at Wed Oct 11 12:00:31 2023, MaxMem=  6710886400 cpu:               1.9 elap:               0.1
 (Enter /data0/home/software/g16/l202.exe)
                          Input orientation:                          
 ---------------------------------------------------------------------
 Center     Atomic      Atomic             Coordinates (Angstroms)
 Number     Number       Type             X           Y           Z
 ---------------------------------------------------------------------
      1          6           0        1.143265    0.718079   -0.000211
      2          6           0        1.194172   -0.669579   -0.000121
      3          6           0       -0.000014   -1.379420    0.000092
      4          6           0       -1.194185   -0.669558    0.000210
      5          6           0       -1.143251    0.718100    0.000118
      6          7           0        0.000013    1.416776   -0.000094
      7          1           0       -0.000020   -2.462434    0.000163
      8          1           0        2.060460    1.296252   -0.000370
      9          1           0        2.150334   -1.176658   -0.000220
     10          1           0       -2.150360   -1.176612    0.000371
     11          1           0       -2.060435    1.296290    0.000195
 ---------------------------------------------------------------------
                    Distance matrix (angstroms):
                    1          2          3          4          5
     1  C    0.000000
     2  C    1.388591   0.000000
     3  C    2.388847   1.389228   0.000000
     4  C    2.718310   2.388357   1.389226   0.000000
     5  C    2.286516   2.718308   2.388845   1.388592   0.000000
     6  N    1.339852   2.403933   2.796196   2.403934   1.339851
     7  H    3.379758   2.154164   1.083014   2.154167   3.379759
     8  H    1.084219   2.148243   3.377095   3.802252   3.255461
     9  H    2.145744   1.082301   2.159886   3.382744   3.799712
    10  H    3.799713   3.382747   2.159889   1.082301   2.145740
    11  H    3.255460   3.802250   3.377093   2.148243   1.084219
                    6          7          8          9         10
     6  N    0.000000
     7  H    3.879210   0.000000
     8  H    2.063969   4.286409   0.000000
     9  H    3.368944   2.505443   2.474543   0.000000
    10  H    3.368941   2.505454   4.883243   4.300694   0.000000
    11  H    2.063968   4.286411   4.120895   4.883242   2.474536
                   11
    11  H    0.000000
 Stoichiometry    C5H5N
 Framework group  C1[X(C5H5N)]
 Deg. of freedom    27
 Full point group                 C1      NOp   1
 Largest Abelian subgroup         C1      NOp   1
 Largest concise Abelian subgroup C1      NOp   1
                         Standard orientation:                         
 ---------------------------------------------------------------------
 Center     Atomic      Atomic             Coordinates (Angstroms)
 Number     Number       Type             X           Y           Z
 ---------------------------------------------------------------------
      1          6           0        1.143264    0.718080   -0.000211
      2          6           0        1.194173   -0.669578   -0.000121
      3          6           0       -0.000012   -1.379420    0.000092
      4          6           0       -1.194184   -0.669560    0.000210
      5          6           0       -1.143252    0.718098    0.000118
      6          7           0        0.000011    1.416776   -0.000094
      7          1           0       -0.000017   -2.462434    0.000163
      8          1           0        2.060459    1.296255   -0.000370
      9          1           0        2.150336   -1.176655   -0.000220
     10          1           0       -2.150358   -1.176615    0.000371
     11          1           0       -2.060436    1.296287    0.000195
 ---------------------------------------------------------------------
 Rotational constants (GHZ):           6.0544656           5.8558355           2.9767471
 Leave Link  202 at Wed Oct 11 12:00:31 2023, MaxMem=  6710886400 cpu:               0.1 elap:               0.0
 (Enter /data0/home/software/g16/l301.exe)
 Standard basis: 6-31G(d) (6D, 7F)
 Ernie: Thresh=  0.10000D-02 Tol=  0.10000D-05 Strict=F.
 There are   100 symmetry adapted cartesian basis functions of A   symmetry.
 There are   100 symmetry adapted basis functions of A   symmetry.
   100 basis functions,   188 primitive gaussians,   100 cartesian basis functions
    21 alpha electrons       21 beta electrons
       nuclear repulsion energy       206.4493720021 Hartrees.
 IExCor= 3428 DFT=T Ex+Corr=M052X ExCW=0 ScaHFX=  0.560000
 ScaDFX=  0.440000  0.440000  1.000000  1.000000 ScalE2=  1.000000  1.000000
 IRadAn=      5 IRanWt=     -1 IRanGd=            0 ICorTp=0 IEmpDi=  4
 NAtoms=   11 NActive=   11 NUniq=   11 SFac= 1.00D+00 NAtFMM=   60 NAOKFM=F Big=F
 Integral buffers will be    131072 words long.
 Raffenetti 2 integral format.
 Two-electron integral symmetry is turned on.
 ------------------------------------------------------------------------------
 Polarizable Continuum Model (PCM)
 =================================
 Model                : PCM.
 Atomic radii         : SMD-Coulomb.
 Polarization charges : Total charges.
 Charge compensation  : None.
 Solution method      : On-the-fly selection.
 Cavity type          : VdW (van der Waals Surface) (Alpha=1.000).
 Cavity algorithm     : GePol (No added spheres)
                        Default sphere list used, NSphG=   11.
                        Lebedev-Laikov grids with approx.  5.0 points / Ang**2.
                        Smoothing algorithm: York/Karplus (Gamma=1.0000).
                        Polarization charges: spherical gaussians, with
                                              point-specific exponents (IZeta= 3).
                        Self-potential: point-specific (ISelfS= 7).
                        Self-field    : sphere-specific E.n sum rule (ISelfD= 2).
 Solvent              : Water, Eps=  78.355300 Eps(inf)=   1.777849
 ------------------------------------------------------------------------------
 Spheres list:
 ISph  on   Nord     Re0    Alpha      Xe            Ye            Ze
    1   C      1    1.8500  1.000      1.143264      0.718080     -0.000211
    2   C      2    1.8500  1.000      1.194173     -0.669578     -0.000121
    3   C      3    1.8500  1.000     -0.000012     -1.379420      0.000092
    4   C      4    1.8500  1.000     -1.194184     -0.669560      0.000210
    5   C      5    1.8500  1.000     -1.143252      0.718098      0.000118
    6   N      6    1.8900  1.000      0.000011      1.416776     -0.000094
    7   H      7    1.2000  1.000     -0.000017     -2.462434      0.000163
    8   H      8    1.2000  1.000      2.060459      1.296255     -0.000370
    9   H      9    1.2000  1.000      2.150336     -1.176655     -0.000220
   10   H     10    1.2000  1.000     -2.150358     -1.176615      0.000371
   11   H     11    1.2000  1.000     -2.060436      1.296287      0.000195
 ------------------------------------------------------------------------------
 GePol: Number of generator spheres                  =      11
 GePol: Total number of spheres                      =      11
 GePol: Number of exposed spheres                    =      11 (100.00%)
 GePol: Number of points                             =     972
 GePol: Average weight of points                     =       0.11
 GePol: Minimum weight of points                     =   0.16D-08
 GePol: Maximum weight of points                     =    0.17992
 GePol: Number of points with low weight             =      42
 GePol: Fraction of low-weight points (<1% of avg)   =       4.32%
 GePol: Cavity surface area                          =    110.217 Ang**2
 GePol: Cavity volume                                =     91.807 Ang**3
 ------------------------------------------------------------------------------
 Atomic radii for non-electrostatic terms: SMD-CDS.
 ------------------------------------------------------------------------------
 PCM non-electrostatic energy =         0.0020731300 Hartrees.
 Nuclear repulsion after PCM non-electrostatic terms =      206.4514451320 Hartrees.
 Leave Link  301 at Wed Oct 11 12:00:31 2023, MaxMem=  6710886400 cpu:               1.5 elap:               0.1
 (Enter /data0/home/software/g16/l302.exe)
 NPDir=0 NMtPBC=     1 NCelOv=     1 NCel=       1 NClECP=     1 NCelD=      1
         NCelK=      1 NCelE2=     1 NClLst=     1 CellRange=     0.0.
 One-electron integrals computed using PRISM.
 One-electron integral symmetry used in STVInt
 NBasis=   100 RedAO= T EigKep=  8.48D-04  NBF=   100
 NBsUse=   100 1.00D-06 EigRej= -1.00D+00 NBFU=   100
 Precomputing XC quadrature grid using
 IXCGrd= 4 IRadAn=           5 IRanWt=          -1 IRanGd=           0 AccXCQ= 0.00D+00.
 Generated NRdTot=       0 NPtTot=           0 NUsed=           0 NTot=          32
 NSgBfM=   100   100   100   100   100 MxSgAt=    11 MxSgA2=    11.
 Leave Link  302 at Wed Oct 11 12:00:31 2023, MaxMem=  6710886400 cpu:               2.6 elap:               0.1
 (Enter /data0/home/software/g16/l303.exe)
 DipDrv:  MaxL=1.
 Leave Link  303 at Wed Oct 11 12:00:31 2023, MaxMem=  6710886400 cpu:               0.4 elap:               0.0
 (Enter /data0/home/software/g16/l401.exe)
 ExpMin= 1.61D-01 ExpMax= 4.17D+03 ExpMxC= 6.27D+02 IAcc=3 IRadAn=         5 AccDes= 0.00D+00
 Harris functional with IExCor= 1009 and IRadAn=       5 diagonalized for initial guess.
 HarFok:  IExCor= 1009 AccDes= 0.00D+00 IRadAn=         5 IDoV= 1 UseB2=F ITyADJ=14
 ICtDFT=  3500011 ScaDFX=  1.000000  1.000000  1.000000  1.000000
 FoFCou: FMM=F IPFlag=           0 FMFlag=      100000 FMFlg1=           0
         NFxFlg=           0 DoJE=T BraDBF=F KetDBF=T FulRan=T
         wScrn=  0.000000 ICntrl=       500 IOpCl=  0 I1Cent=   200000004 NGrid=           0
         NMat0=    1 NMatS0=      1 NMatT0=    0 NMatD0=    1 NMtDS0=    0 NMtDT0=    0
 Petite list used in FoFCou.
 Harris En= -248.047741423715    
 JPrj=0 DoOrth=F DoCkMO=F.
 Leave Link  401 at Wed Oct 11 12:00:32 2023, MaxMem=  6710886400 cpu:               5.1 elap:               0.2
 (Enter /data0/home/software/g16/l502.exe)
 Keep R1 ints in memory in canonical form, NReq=34978190.
 FoFCou: FMM=F IPFlag=           0 FMFlag=           0 FMFlg1=           0
         NFxFlg=           0 DoJE=F BraDBF=F KetDBF=F FulRan=T
         wScrn=  0.000000 ICntrl=       600 IOpCl=  0 I1Cent=           0 NGrid=           0
         NMat0=    1 NMatS0=   5050 NMatT0=    0 NMatD0=    1 NMtDS0=    0 NMtDT0=    0
 Symmetry not used in FoFCou.
 Two-electron integral symmetry not used.
 Closed shell SCF:
 Using DIIS extrapolation, IDIIS=  1040.
 NGot=  6710886400 LenX=  6698109000 LenY=  6698098559
 Requested convergence on RMS density matrix=1.00D-08 within 128 cycles.
 Requested convergence on MAX density matrix=1.00D-06.
 Requested convergence on             energy=1.00D-06.
 No special actions if energy rises.

 Cycle   1  Pass 1  IDiag  1:
 Inv3:  Mode=1 IEnd=     2834352.
 Iteration    1 A*A^-1 deviation from unit magnitude is 4.33D-15 for    968.
 Iteration    1 A*A^-1 deviation from orthogonality  is 6.66D-15 for    448    206.
 Iteration    1 A^-1*A deviation from unit magnitude is 4.44D-15 for    968.
 Iteration    1 A^-1*A deviation from orthogonality  is 1.37D-14 for    383    356.
 E= -248.153254934106    
 DIIS: error= 4.52D-02 at cycle   1 NSaved=   1.
 NSaved= 1 IEnMin= 1 EnMin= -248.153254934106     IErMin= 1 ErrMin= 4.52D-02
 ErrMax= 4.52D-02  0.00D+00 EMaxC= 1.00D-01 BMatC= 1.05D-01 BMatP= 1.05D-01
 IDIUse=3 WtCom= 5.48D-01 WtEn= 4.52D-01
 Coeff-Com:  0.100D+01
 Coeff-En:   0.100D+01
 Coeff:      0.100D+01
 Gap=     0.366 Goal=   None    Shift=    0.000
 GapD=    0.366 DampG=1.000 DampE=0.500 DampFc=0.5000 IDamp=-1.
 Damping current iteration by 5.00D-01
 RMSDP=5.64D-03 MaxDP=8.59D-02              OVMax= 1.19D-01

 Cycle   2  Pass 1  IDiag  1:
 E= -248.210391852013     Delta-E=       -0.057136917907 Rises=F Damp=T
 DIIS: error= 1.29D-02 at cycle   2 NSaved=   2.
 NSaved= 2 IEnMin= 2 EnMin= -248.210391852013     IErMin= 2 ErrMin= 1.29D-02
 ErrMax= 1.29D-02  0.00D+00 EMaxC= 1.00D-01 BMatC= 1.07D-02 BMatP= 1.05D-01
 IDIUse=3 WtCom= 8.71D-01 WtEn= 1.29D-01
 Coeff-Com: -0.274D+00 0.127D+01
 Coeff-En:   0.000D+00 0.100D+01
 Coeff:     -0.239D+00 0.124D+01
 Gap=     0.336 Goal=   None    Shift=    0.000
 RMSDP=1.34D-03 MaxDP=1.72D-02 DE=-5.71D-02 OVMax= 5.28D-02

 Cycle   3  Pass 1  IDiag  1:
 E= -248.258394053719     Delta-E=       -0.048002201706 Rises=F Damp=F
 DIIS: error= 2.50D-03 at cycle   3 NSaved=   3.
 NSaved= 3 IEnMin= 3 EnMin= -248.258394053719     IErMin= 3 ErrMin= 2.50D-03
 ErrMax= 2.50D-03  0.00D+00 EMaxC= 1.00D-01 BMatC= 7.31D-04 BMatP= 1.07D-02
 IDIUse=3 WtCom= 9.75D-01 WtEn= 2.50D-02
 Coeff-Com: -0.852D-01 0.266D+00 0.819D+00
 Coeff-En:   0.000D+00 0.000D+00 0.100D+01
 Coeff:     -0.831D-01 0.259D+00 0.824D+00
 Gap=     0.335 Goal=   None    Shift=    0.000
 RMSDP=3.35D-04 MaxDP=5.13D-03 DE=-4.80D-02 OVMax= 1.65D-02

 Cycle   4  Pass 1  IDiag  1:
 E= -248.258913729492     Delta-E=       -0.000519675773 Rises=F Damp=F
 DIIS: error= 1.42D-03 at cycle   4 NSaved=   4.
 NSaved= 4 IEnMin= 4 EnMin= -248.258913729492     IErMin= 4 ErrMin= 1.42D-03
 ErrMax= 1.42D-03  0.00D+00 EMaxC= 1.00D-01 BMatC= 2.09D-04 BMatP= 7.31D-04
 IDIUse=3 WtCom= 9.86D-01 WtEn= 1.42D-02
 Coeff-Com: -0.215D-01 0.500D-01 0.372D+00 0.600D+00
 Coeff-En:   0.000D+00 0.000D+00 0.165D+00 0.835D+00
 Coeff:     -0.212D-01 0.493D-01 0.369D+00 0.603D+00
 Gap=     0.335 Goal=   None    Shift=    0.000
 RMSDP=1.58D-04 MaxDP=2.59D-03 DE=-5.20D-04 OVMax= 6.11D-03

 Cycle   5  Pass 1  IDiag  1:
 E= -248.259117432976     Delta-E=       -0.000203703484 Rises=F Damp=F
 DIIS: error= 3.18D-04 at cycle   5 NSaved=   5.
 NSaved= 5 IEnMin= 5 EnMin= -248.259117432976     IErMin= 5 ErrMin= 3.18D-04
 ErrMax= 3.18D-04  0.00D+00 EMaxC= 1.00D-01 BMatC= 7.97D-06 BMatP= 2.09D-04
 IDIUse=3 WtCom= 9.97D-01 WtEn= 3.18D-03
 Coeff-Com: -0.250D-02 0.243D-02 0.850D-01 0.218D+00 0.697D+00
 Coeff-En:   0.000D+00 0.000D+00 0.000D+00 0.000D+00 0.100D+01
 Coeff:     -0.250D-02 0.242D-02 0.847D-01 0.218D+00 0.698D+00
 Gap=     0.335 Goal=   None    Shift=    0.000
 RMSDP=3.19D-05 MaxDP=7.57D-04 DE=-2.04D-04 OVMax= 1.29D-03

 Cycle   6  Pass 1  IDiag  1:
 E= -248.259124312484     Delta-E=       -0.000006879508 Rises=F Damp=F
 DIIS: error= 1.02D-04 at cycle   6 NSaved=   6.
 NSaved= 6 IEnMin= 6 EnMin= -248.259124312484     IErMin= 6 ErrMin= 1.02D-04
 ErrMax= 1.02D-04  0.00D+00 EMaxC= 1.00D-01 BMatC= 1.02D-06 BMatP= 7.97D-06
 IDIUse=3 WtCom= 9.99D-01 WtEn= 1.02D-03
 Coeff-Com:  0.937D-04-0.183D-02 0.158D-01 0.591D-01 0.320D+00 0.607D+00
 Coeff-En:   0.000D+00 0.000D+00 0.000D+00 0.000D+00 0.000D+00 0.100D+01
 Coeff:      0.936D-04-0.183D-02 0.158D-01 0.591D-01 0.320D+00 0.607D+00
 Gap=     0.335 Goal=   None    Shift=    0.000
 RMSDP=1.07D-05 MaxDP=2.47D-04 DE=-6.88D-06 OVMax= 2.60D-04

 Cycle   7  Pass 1  IDiag  1:
 E= -248.259125152850     Delta-E=       -0.000000840367 Rises=F Damp=F
 DIIS: error= 2.29D-05 at cycle   7 NSaved=   7.
 NSaved= 7 IEnMin= 7 EnMin= -248.259125152850     IErMin= 7 ErrMin= 2.29D-05
 ErrMax= 2.29D-05  0.00D+00 EMaxC= 1.00D-01 BMatC= 4.02D-08 BMatP= 1.02D-06
 IDIUse=1 WtCom= 1.00D+00 WtEn= 0.00D+00
 Coeff-Com:  0.423D-03-0.860D-03-0.102D-01-0.244D-01-0.354D-01 0.123D+00
 Coeff-Com:  0.948D+00
 Coeff:      0.423D-03-0.860D-03-0.102D-01-0.244D-01-0.354D-01 0.123D+00
 Coeff:      0.948D+00
 Gap=     0.335 Goal=   None    Shift=    0.000
 RMSDP=3.95D-06 MaxDP=4.75D-05 DE=-8.40D-07 OVMax= 6.60D-05

 Cycle   8  Pass 1  IDiag  1:
 E= -248.259125201149     Delta-E=       -0.000000048299 Rises=F Damp=F
 DIIS: error= 3.33D-06 at cycle   8 NSaved=   8.
 NSaved= 8 IEnMin= 8 EnMin= -248.259125201149     IErMin= 8 ErrMin= 3.33D-06
 ErrMax= 3.33D-06  0.00D+00 EMaxC= 1.00D-01 BMatC= 1.22D-09 BMatP= 4.02D-08
 IDIUse=1 WtCom= 1.00D+00 WtEn= 0.00D+00
 Coeff-Com:  0.955D-04-0.174D-03-0.306D-02-0.808D-02-0.142D-01 0.246D-01
 Coeff-Com:  0.263D+00 0.737D+00
 Coeff:      0.955D-04-0.174D-03-0.306D-02-0.808D-02-0.142D-01 0.246D-01
 Coeff:      0.263D+00 0.737D+00
 Gap=     0.335 Goal=   None    Shift=    0.000
 RMSDP=5.55D-07 MaxDP=1.27D-05 DE=-4.83D-08 OVMax= 1.83D-05

 Cycle   9  Pass 1  IDiag  1:
 E= -248.259125202300     Delta-E=       -0.000000001151 Rises=F Damp=F
 DIIS: error= 1.50D-06 at cycle   9 NSaved=   9.
 NSaved= 9 IEnMin= 9 EnMin= -248.259125202300     IErMin= 9 ErrMin= 1.50D-06
 ErrMax= 1.50D-06  0.00D+00 EMaxC= 1.00D-01 BMatC= 2.34D-10 BMatP= 1.22D-09
 IDIUse=1 WtCom= 1.00D+00 WtEn= 0.00D+00
 Coeff-Com: -0.513D-04 0.110D-03 0.769D-03 0.137D-02 0.170D-02-0.132D-01
 Coeff-Com: -0.782D-01 0.270D+00 0.818D+00
 Coeff:     -0.513D-04 0.110D-03 0.769D-03 0.137D-02 0.170D-02-0.132D-01
 Coeff:     -0.782D-01 0.270D+00 0.818D+00
 Gap=     0.335 Goal=   None    Shift=    0.000
 RMSDP=2.69D-07 MaxDP=5.80D-06 DE=-1.15D-09 OVMax= 4.54D-06

 Cycle  10  Pass 1  IDiag  1:
 E= -248.259125202558     Delta-E=       -0.000000000258 Rises=F Damp=F
 DIIS: error= 1.26D-07 at cycle  10 NSaved=  10.
 NSaved=10 IEnMin=10 EnMin= -248.259125202558     IErMin=10 ErrMin= 1.26D-07
 ErrMax= 1.26D-07  0.00D+00 EMaxC= 1.00D-01 BMatC= 1.46D-12 BMatP= 2.34D-10
 IDIUse=1 WtCom= 1.00D+00 WtEn= 0.00D+00
 Coeff-Com:  0.732D-05-0.157D-04-0.520D-04-0.866D-04 0.131D-03 0.166D-02
 Coeff-Com:  0.519D-02-0.536D-01-0.124D+00 0.117D+01
 Coeff:      0.732D-05-0.157D-04-0.520D-04-0.866D-04 0.131D-03 0.166D-02
 Coeff:      0.519D-02-0.536D-01-0.124D+00 0.117D+01
 Gap=     0.335 Goal=   None    Shift=    0.000
 RMSDP=4.38D-08 MaxDP=1.08D-06 DE=-2.58D-10 OVMax= 6.44D-07

 Cycle  11  Pass 1  IDiag  1:
 E= -248.259125202559     Delta-E=       -0.000000000001 Rises=F Damp=F
 DIIS: error= 1.44D-08 at cycle  11 NSaved=  11.
 NSaved=11 IEnMin=11 EnMin= -248.259125202559     IErMin=11 ErrMin= 1.44D-08
 ErrMax= 1.44D-08  0.00D+00 EMaxC= 1.00D-01 BMatC= 2.26D-14 BMatP= 1.46D-12
 IDIUse=1 WtCom= 1.00D+00 WtEn= 0.00D+00
 Coeff-Com:  0.195D-06-0.408D-06-0.815D-06-0.330D-05 0.397D-05 0.134D-04
 Coeff-Com:  0.276D-03 0.848D-03-0.108D-02-0.849D-01 0.108D+01
 Coeff:      0.195D-06-0.408D-06-0.815D-06-0.330D-05 0.397D-05 0.134D-04
 Coeff:      0.276D-03 0.848D-03-0.108D-02-0.849D-01 0.108D+01
 Gap=     0.335 Goal=   None    Shift=    0.000
 RMSDP=4.41D-09 MaxDP=6.97D-08 DE=-1.14D-12 OVMax= 1.23D-07

 Error on total polarization charges =  0.02566
 SCF Done:  E(RM052X) =  -248.259125203     A.U. after   11 cycles
            NFock= 11  Conv=0.44D-08     -V/T= 2.0093
 KE= 2.459691569066D+02 PE=-9.885718509300D+02 EE= 2.878921236889D+02
 SMD-CDS (non-electrostatic) energy       (kcal/mol) =       1.30
 (included in total energy above)
 Leave Link  502 at Wed Oct 11 12:00:36 2023, MaxMem=  6710886400 cpu:              99.4 elap:               4.5
 (Enter /data0/home/software/g16/l601.exe)
 Copying SCF densities to generalized density rwf, IOpCl= 0 IROHF=0.

 **********************************************************************

            Population analysis using the SCF density.

 **********************************************************************

 Orbital symmetries:
       Occupied  (A) (A) (A) (A) (A) (A) (A) (A) (A) (A) (A) (A)
                 (A) (A) (A) (A) (A) (A) (A) (A) (A)
       Virtual   (A) (A) (A) (A) (A) (A) (A) (A) (A) (A) (A) (A)
                 (A) (A) (A) (A) (A) (A) (A) (A) (A) (A) (A) (A)
                 (A) (A) (A) (A) (A) (A) (A) (A) (A) (A) (A) (A)
                 (A) (A) (A) (A) (A) (A) (A) (A) (A) (A) (A) (A)
                 (A) (A) (A) (A) (A) (A) (A) (A) (A) (A) (A) (A)
                 (A) (A) (A) (A) (A) (A) (A) (A) (A) (A) (A) (A)
                 (A) (A) (A) (A) (A) (A) (A)
 The electronic state is 1-A.
 Alpha  occ. eigenvalues --  -14.79892 -10.60930 -10.60928 -10.59292 -10.58152
 Alpha  occ. eigenvalues --  -10.58148  -1.05964  -0.90960  -0.86570  -0.71786
 Alpha  occ. eigenvalues --   -0.71525  -0.60864  -0.55047  -0.54031  -0.49613
 Alpha  occ. eigenvalues --   -0.47528  -0.47017  -0.42277  -0.34494  -0.32725
 Alpha  occ. eigenvalues --   -0.31563
 Alpha virt. eigenvalues --    0.01907   0.03491   0.16479   0.21211   0.21308
 Alpha virt. eigenvalues --    0.22797   0.25031   0.25521   0.29846   0.35885
 Alpha virt. eigenvalues --    0.38241   0.38308   0.50970   0.51347   0.57815
 Alpha virt. eigenvalues --    0.60436   0.63537   0.65120   0.65655   0.66390
 Alpha virt. eigenvalues --    0.66470   0.66886   0.71481   0.72716   0.74813
 Alpha virt. eigenvalues --    0.76223   0.91307   0.92338   0.92990   0.93701
 Alpha virt. eigenvalues --    0.94613   0.94851   0.99868   1.02219   1.04459
 Alpha virt. eigenvalues --    1.10778   1.12594   1.17292   1.22605   1.26776
 Alpha virt. eigenvalues --    1.32605   1.43594   1.45302   1.53275   1.55729
 Alpha virt. eigenvalues --    1.55989   1.58917   1.60237   1.75997   1.86168
 Alpha virt. eigenvalues --    1.88258   1.90152   2.02009   2.07825   2.13726
 Alpha virt. eigenvalues --    2.20367   2.20861   2.23951   2.24990   2.25733
 Alpha virt. eigenvalues --    2.36468   2.37932   2.44790   2.58067   2.60969
 Alpha virt. eigenvalues --    2.71205   2.73464   2.74917   2.79223   2.83817
 Alpha virt. eigenvalues --    2.84475   3.10669   3.43426   4.06667   4.15915
 Alpha virt. eigenvalues --    4.17462   4.28738   4.37546   4.63542
          Condensed to atoms (all electrons):
               1          2          3          4          5          6
     1  C    4.825187   0.519340  -0.036442  -0.037575  -0.078667   0.458945
     2  C    0.519340   4.977246   0.541566  -0.037641  -0.037574  -0.039076
     3  C   -0.036442   0.541566   4.887808   0.541567  -0.036442  -0.044745
     4  C   -0.037575  -0.037641   0.541567   4.977246   0.519339  -0.039076
     5  C   -0.078667  -0.037574  -0.036442   0.519339   4.825187   0.458946
     6  N    0.458945  -0.039076  -0.044745  -0.039076   0.458946   6.773751
     7  H    0.004196  -0.038984   0.377083  -0.038984   0.004196  -0.000173
     8  H    0.389597  -0.051899   0.003561   0.000171   0.004474  -0.049482
     9  H   -0.032850   0.368337  -0.038015   0.004716   0.000042   0.004237
    10  H    0.000042   0.004716  -0.038015   0.368337  -0.032850   0.004237
    11  H    0.004474   0.000172   0.003561  -0.051899   0.389597  -0.049482
               7          8          9         10         11
     1  C    0.004196   0.389597  -0.032850   0.000042   0.004474
     2  C   -0.038984  -0.051899   0.368337   0.004716   0.000172
     3  C    0.377083   0.003561  -0.038015  -0.038015   0.003561
     4  C   -0.038984   0.000171   0.004716   0.368337  -0.051899
     5  C    0.004196   0.004474   0.000042  -0.032850   0.389597
     6  N   -0.000173  -0.049482   0.004237   0.004237  -0.049482
     7  H    0.476194  -0.000123  -0.004437  -0.004437  -0.000123
     8  H   -0.000123   0.494443  -0.002095   0.000017  -0.000127
     9  H   -0.004437  -0.002095   0.482160  -0.000082   0.000017
    10  H   -0.004437   0.000017  -0.000082   0.482160  -0.002095
    11  H   -0.000123  -0.000127   0.000017  -0.002095   0.494443
 Mulliken charges:
               1
     1  C   -0.016246
     2  C   -0.206201
     3  C   -0.161489
     4  C   -0.206201
     5  C   -0.016246
     6  N   -0.478083
     7  H    0.225593
     8  H    0.211464
     9  H    0.217972
    10  H    0.217972
    11  H    0.211464
 Sum of Mulliken charges =  -0.00000
 Mulliken charges with hydrogens summed into heavy atoms:
               1
     1  C    0.195218
     2  C    0.011771
     3  C    0.064105
     4  C    0.011771
     5  C    0.195218
     6  N   -0.478083
 Electronic spatial extent (au):  <R**2>=            430.3221
 Charge=             -0.0000 electrons
 Dipole moment (field-independent basis, Debye):
    X=             -0.0000    Y=             -3.1354    Z=              0.0002  Tot=              3.1354
 Quadrupole moment (field-independent basis, Debye-Ang):
   XX=            -26.9350   YY=            -35.2443   ZZ=            -37.4293
   XY=             -0.0001   XZ=             -0.0014   YZ=             -0.0001
 Traceless Quadrupole moment (field-independent basis, Debye-Ang):
   XX=              6.2679   YY=             -2.0414   ZZ=             -4.2264
   XY=             -0.0001   XZ=             -0.0014   YZ=             -0.0001
 Octapole moment (field-independent basis, Debye-Ang**2):
  XXX=             -0.0000  YYY=            -19.6587  ZZZ=             -0.0002  XYY=             -0.0001
  XXY=              1.1719  XXZ=             -0.0001  XZZ=              0.0000  YZZ=              0.9007
  YYZ=              0.0014  XYZ=             -0.0000
 Hexadecapole moment (field-independent basis, Debye-Ang**3):
 XXXX=           -230.3408 YYYY=           -270.2672 ZZZZ=            -37.9297 XXXY=              0.0000
 XXXZ=              0.0090 YYYX=             -0.0005 YYYZ=              0.0071 ZZZX=              0.0182
 ZZZY=              0.0083 XXYY=            -74.5496 XXZZ=            -56.0165 YYZZ=            -54.5981
 XXYZ=              0.0012 YYXZ=              0.0029 ZZXY=             -0.0000
 N-N= 2.064514451320D+02 E-N=-9.885718511413D+02  KE= 2.459691569066D+02
 No NMR shielding tensors so no spin-rotation constants.
 Leave Link  601 at Wed Oct 11 12:00:36 2023, MaxMem=  6710886400 cpu:               1.9 elap:               0.1
 (Enter /data0/home/software/g16/l9999.exe)
 1\1\GINC-LOCALHOST\SP\RM052X\6-31G(d)\C5H5N1\WUHANYU\11-Oct-2023\0\\#p
  M052X/6-31G* scrf=(smd,solvent=water)\\Title Card Required\\0,1\C,0,1
 .143265,0.718079,-0.000211\C,0,1.194172,-0.669579,-0.000121\C,0,-0.000
 014,-1.37942,0.000092\C,0,-1.194185,-0.669558,0.00021\C,0,-1.143251,0.
 7181,0.000118\N,0,0.000013,1.416776,-0.000094\H,0,-0.00002,-2.462434,0
 .000163\H,0,2.06046,1.296252,-0.00037\H,0,2.150334,-1.176658,-0.00022\
 H,0,-2.15036,-1.176612,0.000371\H,0,-2.060435,1.29629,0.000195\\Versio
 n=ES64L-G16RevA.03\State=1-A\HF=-248.2591252\RMSD=4.407e-09\Dipole=-0.
 0000123,-1.2335541,0.0000794\Quadrupole=4.6600199,-1.5177617,-3.142258
 2,-0.0000691,-0.0010561,-0.0001034\PG=C01 [X(C5H5N1)]\\@


 IMAGINATION WILL OFTEN CARRY US TO WORLDS THAT NEVER WERE.
 BUT WITHOUT IT, WE GO NOWHERE. -- CARL SAGAN (COSMOS)
 Job cpu time:       0 days  0 hours  1 minutes 54.3 seconds.
 Elapsed time:       0 days  0 hours  0 minutes  5.3 seconds.
 File lengths (MBytes):  RWF=     23 Int=      0 D2E=      0 Chk=      2 Scr=      1
 Normal termination of Gaussian 16 at Wed Oct 11 12:00:36 2023.
