 Entering Gaussian System, Link 0=g16
 Initial command:
 /data0/home/software/g16/l1.exe "/data0/home/software/g16/scratch/Gau-274012.inp" -scrdir="/data0/home/software/g16/scratch/"
 Default is to use a total of  22 processors:
                               22 via shared-memory
                                1 via Linda
 Entering Link 1 = /data0/home/software/g16/l1.exe PID=    274013.
  
 Copyright (c) 1988,1990,1992,1993,1995,1998,2003,2009,2016,
            Gaussian, Inc.  All Rights Reserved.
  
 This is part of the Gaussian(R) 16 program.  It is based on
 the Gaussian(R) 09 system (copyright 2009, Gaussian, Inc.),
 the Gaussian(R) 03 system (copyright 2003, Gaussian, Inc.),
 the Gaussian(R) 98 system (copyright 1998, Gaussian, Inc.),
 the Gaussian(R) 94 system (copyright 1995, Gaussian, Inc.),
 the Gaussian 92(TM) system (copyright 1992, Gaussian, Inc.),
 the Gaussian 90(TM) system (copyright 1990, Gaussian, Inc.),
 the Gaussian 88(TM) system (copyright 1988, Gaussian, Inc.),
 the Gaussian 86(TM) system (copyright 1986, Carnegie Mellon
 University), and the Gaussian 82(TM) system (copyright 1983,
 Carnegie Mellon University). Gaussian is a federally registered
 trademark of Gaussian, Inc.
  
 This software contains proprietary and confidential information,
 including trade secrets, belonging to Gaussian, Inc.
  
 This software is provided under written license and may be
 used, copied, transmitted, or stored only in accord with that
 written license.
  
 The following legend is applicable only to US Government
 contracts under FAR:
  
                    RESTRICTED RIGHTS LEGEND
  
 Use, reproduction and disclosure by the US Government is
 subject to restrictions as set forth in subparagraphs (a)
 and (c) of the Commercial Computer Software - Restricted
 Rights clause in FAR 52.227-19.
  
 Gaussian, Inc.
 340 Quinnipiac St., Bldg. 40, Wallingford CT 06492
  
  
 ---------------------------------------------------------------
 Warning -- This program may not be used in any manner that
 competes with the business of Gaussian, Inc. or will provide
 assistance to any competitor of Gaussian, Inc.  The licensee
 of this program is prohibited from giving any competitor of
 Gaussian, Inc. access to this program.  By using this program,
 the user acknowledges that Gaussian, Inc. is engaged in the
 business of creating and licensing software in the field of
 computational chemistry and represents and warrants to the
 licensee that it is not a competitor of Gaussian, Inc. and that
 it will not use this program in any manner prohibited above.
 ---------------------------------------------------------------
  

 Cite this work as:
 Gaussian 16, Revision A.03,
 M. J. Frisch, G. W. Trucks, H. B. Schlegel, G. E. Scuseria, 
 M. A. Robb, J. R. Cheeseman, G. Scalmani, V. Barone, 
 G. A. Petersson, H. Nakatsuji, X. Li, M. Caricato, A. V. Marenich, 
 J. Bloino, B. G. Janesko, R. Gomperts, B. Mennucci, H. P. Hratchian, 
 J. V. Ortiz, A. F. Izmaylov, J. L. Sonnenberg, D. Williams-Young, 
 F. Ding, F. Lipparini, F. Egidi, J. Goings, B. Peng, A. Petrone, 
 T. Henderson, D. Ranasinghe, V. G. Zakrzewski, J. Gao, N. Rega, 
 G. Zheng, W. Liang, M. Hada, M. Ehara, K. Toyota, R. Fukuda, 
 J. Hasegawa, M. Ishida, T. Nakajima, Y. Honda, O. Kitao, H. Nakai, 
 T. Vreven, K. Throssell, J. A. Montgomery, Jr., J. E. Peralta, 
 F. Ogliaro, M. J. Bearpark, J. J. Heyd, E. N. Brothers, K. N. Kudin, 
 V. N. Staroverov, T. A. Keith, R. Kobayashi, J. Normand, 
 K. Raghavachari, A. P. Rendell, J. C. Burant, S. S. Iyengar, 
 J. Tomasi, M. Cossi, J. M. Millam, M. Klene, C. Adamo, R. Cammi, 
 J. W. Ochterski, R. L. Martin, K. Morokuma, O. Farkas, 
 J. B. Foresman, and D. J. Fox, Gaussian, Inc., Wallingford CT, 2016.
 
 ******************************************
 Gaussian 16:  ES64L-G16RevA.03 25-Dec-2016
                19-Feb-2023 
 ******************************************
 %nproc=24
 Will use up to   24 processors via shared memory.
 %mem=50GB
 ---------------------------------------------------
 #p M062X/6-311+G(2d,p) nosymm em=GD3 counterpoise=2
 ---------------------------------------------------
 1/38=1,62=2,172=1/1;
 2/12=2,15=1,17=6,18=5,40=1/2;
 1/38=1,53=2,62=2,63=1/22;
 3/5=4,6=6,7=112,11=2,25=1,30=1,74=-55,124=31/1,2,3;
 4//1;
 5/5=2,38=5/2;
 6/7=2,8=2,9=2,10=2,28=1/1;
 1/53=2,62=2,63=1/22;
 3/5=7,6=11,7=112,11=2,25=1,30=1,74=-55,82=7,124=31/1,2,3;
 4//1;
 5/5=2,38=5/2;
 6/7=2,8=2,9=2,10=2,28=1/1;
 1/53=2,62=2,63=1/22(-4);
 99/5=1,9=1/99;
 Leave Link    1 at Sun Feb 19 11:51:58 2023, MaxMem=  6710886400 cpu:               0.7 elap:               0.0
 (Enter /data0/home/software/g16/l101.exe)
 -------------------
 Title Card Required
 -------------------
 Symbolic Z-matrix:
 Charge =  0 Multiplicity = 1 in supermolecule
 Charge =  0 Multiplicity = 1 in fragment      1.
 Charge =  0 Multiplicity = 1 in fragment      2.
 O                     9.64811   16.75065   1.10574    
 H                     8.99144   17.46704   1.20731    
 H                     9.15298   16.02305   0.73098    
 O                     7.6833    18.5973   1.7891     
 H                     7.44113   18.04443   2.55279    
 H                     8.10762   19.36038   2.18212    
 
 ITRead=  0  0  0  0  0  0
 MicOpt= -1 -1 -1 -1 -1 -1
 NAtoms=      6 NQM=        6 NQMF=       0 NMMI=      0 NMMIF=      0
                NMic=       0 NMicF=      0.
                    Isotopes and Nuclear Properties:
 (Nuclear quadrupole moments (NQMom) in fm**2, nuclear magnetic moments (NMagM)
  in nuclear magnetons)

  Atom         1           2           3           4           5           6
 IAtWgt=          16           1           1          16           1           1
 AtmWgt=  15.9949146   1.0078250   1.0078250  15.9949146   1.0078250   1.0078250
 NucSpn=           0           1           1           0           1           1
 AtZEff=  -0.0000000  -0.0000000  -0.0000000  -0.0000000  -0.0000000  -0.0000000
 NQMom=    0.0000000   0.0000000   0.0000000   0.0000000   0.0000000   0.0000000
 NMagM=    0.0000000   2.7928460   2.7928460   0.0000000   2.7928460   2.7928460
 AtZNuc=   8.0000000   1.0000000   1.0000000   8.0000000   1.0000000   1.0000000
 Leave Link  101 at Sun Feb 19 11:51:58 2023, MaxMem=  6710886400 cpu:               1.9 elap:               0.1
 (Enter /data0/home/software/g16/l202.exe)
                          Input orientation:                          
 ---------------------------------------------------------------------
 Center     Atomic      Atomic             Coordinates (Angstroms)
 Number     Number       Type             X           Y           Z
 ---------------------------------------------------------------------
      1          8           0        9.648108   16.750654    1.105737
      2          1           0        8.991440   17.467037    1.207307
      3          1           0        9.152977   16.023055    0.730977
      4          8           0        7.683302   18.597301    1.789101
      5          1           0        7.441129   18.044428    2.552790
      6          1           0        8.107622   19.360382    2.182124
 ---------------------------------------------------------------------
                    Distance matrix (angstroms):
                    1          2          3          4          5
     1  O    0.000000
     2  H    0.977105   0.000000
     3  H    0.956556   1.529074   0.000000
     4  O    2.781646   1.824063   3.147430   0.000000
     5  H    2.939144   2.132409   3.214868   0.973415   0.000000
     6  H    3.215958   2.305679   3.786337   0.957500   1.520967
                    6
     6  H    0.000000
 Symmetry turned off by external request.
 Stoichiometry    H4O2
 Framework group  C1[X(H4O2)]
 Deg. of freedom    12
 Full point group                 C1      NOp   1
 Rotational constants (GHZ):         199.9793982           7.1786565           7.0812604
 Leave Link  202 at Sun Feb 19 11:51:58 2023, MaxMem=  6710886400 cpu:               0.1 elap:               0.0
 (Enter /data0/home/software/g16/l122.exe)
 Counterpoise: doing full-system calculation.
 Leave Link  122 at Sun Feb 19 11:51:58 2023, MaxMem=  6710886400 cpu:               0.0 elap:               0.0
 (Enter /data0/home/software/g16/l301.exe)
 Standard basis: 6-311+G(2d,p) (5D, 7F)
 Ernie: Thresh=  0.10000D-02 Tol=  0.10000D-05 Strict=F.
    78 basis functions,   116 primitive gaussians,    82 cartesian basis functions
    10 alpha electrons       10 beta electrons
       nuclear repulsion energy        37.6026234021 Hartrees.
 IExCor= 4336 DFT=T Ex+Corr=M062X ExCW=0 ScaHFX=  0.540000
 ScaDFX=  1.000000  1.000000  1.000000  1.000000 ScalE2=  1.000000  1.000000
 IRadAn=      5 IRanWt=     -1 IRanGd=            0 ICorTp=0 IEmpDi=131
 NAtoms=    6 NActive=    6 NUniq=    6 SFac= 1.00D+00 NAtFMM=   60 NAOKFM=F Big=F
 Integral buffers will be    131072 words long.
 Raffenetti 2 integral format.
 Two-electron integral symmetry is turned off.
 R6Disp:  Grimme-D3 Dispersion energy=       -0.0000217262 Hartrees.
 Nuclear repulsion after empirical dispersion term =       37.6026016759 Hartrees.
 Leave Link  301 at Sun Feb 19 11:51:58 2023, MaxMem=  6710886400 cpu:               1.1 elap:               0.1
 (Enter /data0/home/software/g16/l302.exe)
 NPDir=0 NMtPBC=     1 NCelOv=     1 NCel=       1 NClECP=     1 NCelD=      1
         NCelK=      1 NCelE2=     1 NClLst=     1 CellRange=     0.0.
 One-electron integrals computed using PRISM.
 NBasis=    78 RedAO= T EigKep=  1.28D-03  NBF=    78
 NBsUse=    78 1.00D-06 EigRej= -1.00D+00 NBFU=    78
 Precomputing XC quadrature grid using
 IXCGrd= 4 IRadAn=           5 IRanWt=          -1 IRanGd=           0 AccXCQ= 0.00D+00.
 Generated NRdTot=       0 NPtTot=           0 NUsed=           0 NTot=          32
 NSgBfM=    82    82    82    82    82 MxSgAt=     6 MxSgA2=     6.
 Leave Link  302 at Sun Feb 19 11:51:58 2023, MaxMem=  6710886400 cpu:               2.4 elap:               0.1
 (Enter /data0/home/software/g16/l303.exe)
 DipDrv:  MaxL=1.
 Leave Link  303 at Sun Feb 19 11:51:58 2023, MaxMem=  6710886400 cpu:               0.4 elap:               0.0
 (Enter /data0/home/software/g16/l401.exe)
 ExpMin= 8.45D-02 ExpMax= 8.59D+03 ExpMxC= 1.30D+03 IAcc=3 IRadAn=         5 AccDes= 0.00D+00
 Harris functional with IExCor= 1009 and IRadAn=       5 diagonalized for initial guess.
 HarFok:  IExCor= 1009 AccDes= 0.00D+00 IRadAn=         5 IDoV= 1 UseB2=F ITyADJ=14
 ICtDFT=  3500011 ScaDFX=  1.000000  1.000000  1.000000  1.000000
 FoFCou: FMM=F IPFlag=           0 FMFlag=      100000 FMFlg1=           0
         NFxFlg=           0 DoJE=T BraDBF=F KetDBF=T FulRan=T
         wScrn=  0.000000 ICntrl=       500 IOpCl=  0 I1Cent=   200000004 NGrid=           0
         NMat0=    1 NMatS0=      1 NMatT0=    0 NMatD0=    1 NMtDS0=    0 NMtDT0=    0
 Symmetry not used in FoFCou.
 Harris En= -152.835498488564    
 JPrj=0 DoOrth=F DoCkMO=F.
 Leave Link  401 at Sun Feb 19 11:51:58 2023, MaxMem=  6710886400 cpu:               3.6 elap:               0.2
 (Enter /data0/home/software/g16/l502.exe)
 Keep R1 ints in memory in canonical form, NReq=26476721.
 FoFCou: FMM=F IPFlag=           0 FMFlag=           0 FMFlg1=           0
         NFxFlg=           0 DoJE=F BraDBF=F KetDBF=F FulRan=T
         wScrn=  0.000000 ICntrl=       600 IOpCl=  0 I1Cent=           0 NGrid=           0
         NMat0=    1 NMatS0=   3081 NMatT0=    0 NMatD0=    1 NMtDS0=    0 NMtDT0=    0
 Symmetry not used in FoFCou.
 Two-electron integral symmetry not used.
 Closed shell SCF:
 Using DIIS extrapolation, IDIIS=  1040.
 NGot=  6710886400 LenX=  6706122419 LenY=  6706115254
 Requested convergence on RMS density matrix=1.00D-08 within 128 cycles.
 Requested convergence on MAX density matrix=1.00D-06.
 Requested convergence on             energy=1.00D-06.
 No special actions if energy rises.
 Integral accuracy reduced to 1.0D-05 until final iterations.

 Cycle   1  Pass 0  IDiag  1:
 E= -152.712162255909    
 DIIS: error= 4.89D-02 at cycle   1 NSaved=   1.
 NSaved= 1 IEnMin= 1 EnMin= -152.712162255909     IErMin= 1 ErrMin= 4.89D-02
 ErrMax= 4.89D-02  0.00D+00 EMaxC= 1.00D-01 BMatC= 2.28D-01 BMatP= 2.28D-01
 IDIUse=3 WtCom= 5.11D-01 WtEn= 4.89D-01
 Coeff-Com:  0.100D+01
 Coeff-En:   0.100D+01
 Coeff:      0.100D+01
 Gap=     0.279 Goal=   None    Shift=    0.000
 GapD=    0.279 DampG=1.000 DampE=0.500 DampFc=0.5000 IDamp=-1.
 Damping current iteration by 5.00D-01
 RMSDP=7.09D-03 MaxDP=1.06D-01              OVMax= 1.82D-01

 Cycle   2  Pass 0  IDiag  1:
 E= -152.772694862339     Delta-E=       -0.060532606430 Rises=F Damp=T
 DIIS: error= 1.05D-02 at cycle   2 NSaved=   2.
 NSaved= 2 IEnMin= 2 EnMin= -152.772694862339     IErMin= 2 ErrMin= 1.05D-02
 ErrMax= 1.05D-02  0.00D+00 EMaxC= 1.00D-01 BMatC= 8.44D-03 BMatP= 2.28D-01
 IDIUse=3 WtCom= 8.95D-01 WtEn= 1.05D-01
 Coeff-Com:  0.607D-01 0.939D+00
 Coeff-En:   0.154D+00 0.846D+00
 Coeff:      0.704D-01 0.930D+00
 Gap=     0.406 Goal=   None    Shift=    0.000
 RMSDP=9.35D-04 MaxDP=1.53D-02 DE=-6.05D-02 OVMax= 1.07D-01

 Cycle   3  Pass 0  IDiag  1:
 E= -152.851454545603     Delta-E=       -0.078759683263 Rises=F Damp=F
 DIIS: error= 2.02D-03 at cycle   3 NSaved=   3.
 NSaved= 3 IEnMin= 3 EnMin= -152.851454545603     IErMin= 3 ErrMin= 2.02D-03
 ErrMax= 2.02D-03  0.00D+00 EMaxC= 1.00D-01 BMatC= 2.63D-04 BMatP= 8.44D-03
 IDIUse=3 WtCom= 9.80D-01 WtEn= 2.02D-02
 Coeff-Com: -0.243D-01 0.531D-01 0.971D+00
 Coeff-En:   0.000D+00 0.000D+00 0.100D+01
 Coeff:     -0.238D-01 0.521D-01 0.972D+00
 Gap=     0.407 Goal=   None    Shift=    0.000
 RMSDP=1.45D-04 MaxDP=2.12D-03 DE=-7.88D-02 OVMax= 4.82D-03

 Cycle   4  Pass 0  IDiag  1:
 E= -152.851626126507     Delta-E=       -0.000171580904 Rises=F Damp=F
 DIIS: error= 8.96D-04 at cycle   4 NSaved=   4.
 NSaved= 4 IEnMin= 4 EnMin= -152.851626126507     IErMin= 4 ErrMin= 8.96D-04
 ErrMax= 8.96D-04  0.00D+00 EMaxC= 1.00D-01 BMatC= 6.41D-05 BMatP= 2.63D-04
 IDIUse=3 WtCom= 9.91D-01 WtEn= 8.96D-03
 Coeff-Com: -0.113D-01 0.151D-01 0.463D+00 0.533D+00
 Coeff-En:   0.000D+00 0.000D+00 0.000D+00 0.100D+01
 Coeff:     -0.112D-01 0.150D-01 0.459D+00 0.537D+00
 Gap=     0.410 Goal=   None    Shift=    0.000
 RMSDP=5.56D-05 MaxDP=1.13D-03 DE=-1.72D-04 OVMax= 1.59D-03

 Cycle   5  Pass 0  IDiag  1:
 E= -152.851666037160     Delta-E=       -0.000039910654 Rises=F Damp=F
 DIIS: error= 1.77D-04 at cycle   5 NSaved=   5.
 NSaved= 5 IEnMin= 5 EnMin= -152.851666037160     IErMin= 5 ErrMin= 1.77D-04
 ErrMax= 1.77D-04  0.00D+00 EMaxC= 1.00D-01 BMatC= 2.66D-06 BMatP= 6.41D-05
 IDIUse=3 WtCom= 9.98D-01 WtEn= 1.77D-03
 Coeff-Com:  0.399D-03-0.298D-02 0.106D-01 0.147D+00 0.845D+00
 Coeff-En:   0.000D+00 0.000D+00 0.000D+00 0.000D+00 0.100D+01
 Coeff:      0.398D-03-0.298D-02 0.106D-01 0.147D+00 0.845D+00
 Gap=     0.410 Goal=   None    Shift=    0.000
 RMSDP=1.58D-05 MaxDP=3.20D-04 DE=-3.99D-05 OVMax= 6.51D-04

 Cycle   6  Pass 0  IDiag  1:
 E= -152.851668149396     Delta-E=       -0.000002112236 Rises=F Damp=F
 DIIS: error= 2.38D-05 at cycle   6 NSaved=   6.
 NSaved= 6 IEnMin= 6 EnMin= -152.851668149396     IErMin= 6 ErrMin= 2.38D-05
 ErrMax= 2.38D-05  0.00D+00 EMaxC= 1.00D-01 BMatC= 6.18D-08 BMatP= 2.66D-06
 IDIUse=1 WtCom= 1.00D+00 WtEn= 0.00D+00
 Coeff-Com:  0.738D-03-0.108D-02-0.254D-01-0.260D-01 0.698D-01 0.982D+00
 Coeff:      0.738D-03-0.108D-02-0.254D-01-0.260D-01 0.698D-01 0.982D+00
 Gap=     0.410 Goal=   None    Shift=    0.000
 RMSDP=5.56D-06 MaxDP=7.97D-05 DE=-2.11D-06 OVMax= 1.33D-04

 Initial convergence to 1.0D-05 achieved.  Increase integral accuracy.
 Cycle   7  Pass 1  IDiag  1:
 E= -152.851665111459     Delta-E=        0.000003037937 Rises=F Damp=F
 DIIS: error= 1.59D-05 at cycle   1 NSaved=   1.
 NSaved= 1 IEnMin= 1 EnMin= -152.851665111459     IErMin= 1 ErrMin= 1.59D-05
 ErrMax= 1.59D-05  0.00D+00 EMaxC= 1.00D-01 BMatC= 3.41D-08 BMatP= 3.41D-08
 IDIUse=1 WtCom= 1.00D+00 WtEn= 0.00D+00
 Coeff-Com:  0.100D+01
 Coeff:      0.100D+01
 Gap=     0.410 Goal=   None    Shift=    0.000
 RMSDP=5.56D-06 MaxDP=7.97D-05 DE= 3.04D-06 OVMax= 3.98D-05

 Cycle   8  Pass 1  IDiag  1:
 E= -152.851665138822     Delta-E=       -0.000000027363 Rises=F Damp=F
 DIIS: error= 3.42D-06 at cycle   2 NSaved=   2.
 NSaved= 2 IEnMin= 2 EnMin= -152.851665138822     IErMin= 2 ErrMin= 3.42D-06
 ErrMax= 3.42D-06  0.00D+00 EMaxC= 1.00D-01 BMatC= 1.06D-09 BMatP= 3.41D-08
 IDIUse=1 WtCom= 1.00D+00 WtEn= 0.00D+00
 Coeff-Com: -0.332D-01 0.103D+01
 Coeff:     -0.332D-01 0.103D+01
 Gap=     0.410 Goal=   None    Shift=    0.000
 RMSDP=6.31D-07 MaxDP=7.91D-06 DE=-2.74D-08 OVMax= 1.65D-05

 Cycle   9  Pass 1  IDiag  1:
 E= -152.851665139165     Delta-E=       -0.000000000343 Rises=F Damp=F
 DIIS: error= 3.27D-06 at cycle   3 NSaved=   3.
 NSaved= 3 IEnMin= 3 EnMin= -152.851665139165     IErMin= 3 ErrMin= 3.27D-06
 ErrMax= 3.27D-06  0.00D+00 EMaxC= 1.00D-01 BMatC= 1.04D-09 BMatP= 1.06D-09
 IDIUse=1 WtCom= 1.00D+00 WtEn= 0.00D+00
 Coeff-Com: -0.456D-01 0.534D+00 0.512D+00
 Coeff:     -0.456D-01 0.534D+00 0.512D+00
 Gap=     0.410 Goal=   None    Shift=    0.000
 RMSDP=2.13D-07 MaxDP=4.50D-06 DE=-3.43D-10 OVMax= 6.60D-06

 Cycle  10  Pass 1  IDiag  1:
 E= -152.851665139837     Delta-E=       -0.000000000672 Rises=F Damp=F
 DIIS: error= 2.94D-07 at cycle   4 NSaved=   4.
 NSaved= 4 IEnMin= 4 EnMin= -152.851665139837     IErMin= 4 ErrMin= 2.94D-07
 ErrMax= 2.94D-07  0.00D+00 EMaxC= 1.00D-01 BMatC= 6.92D-12 BMatP= 1.04D-09
 IDIUse=1 WtCom= 1.00D+00 WtEn= 0.00D+00
 Coeff-Com: -0.303D-04-0.341D-01 0.217D-01 0.101D+01
 Coeff:     -0.303D-04-0.341D-01 0.217D-01 0.101D+01
 Gap=     0.410 Goal=   None    Shift=    0.000
 RMSDP=5.78D-08 MaxDP=6.42D-07 DE=-6.72D-10 OVMax= 1.70D-06

 Cycle  11  Pass 1  IDiag  1:
 E= -152.851665139846     Delta-E=       -0.000000000009 Rises=F Damp=F
 DIIS: error= 6.14D-08 at cycle   5 NSaved=   5.
 NSaved= 5 IEnMin= 5 EnMin= -152.851665139846     IErMin= 5 ErrMin= 6.14D-08
 ErrMax= 6.14D-08  0.00D+00 EMaxC= 1.00D-01 BMatC= 4.68D-13 BMatP= 6.92D-12
 IDIUse=1 WtCom= 1.00D+00 WtEn= 0.00D+00
 Coeff-Com:  0.251D-02-0.358D-01-0.249D-01 0.160D+00 0.898D+00
 Coeff:      0.251D-02-0.358D-01-0.249D-01 0.160D+00 0.898D+00
 Gap=     0.410 Goal=   None    Shift=    0.000
 RMSDP=1.51D-08 MaxDP=1.58D-07 DE=-9.15D-12 OVMax= 4.15D-07

 Cycle  12  Pass 1  IDiag  1:
 E= -152.851665139847     Delta-E=       -0.000000000001 Rises=F Damp=F
 DIIS: error= 2.43D-08 at cycle   6 NSaved=   6.
 NSaved= 6 IEnMin= 6 EnMin= -152.851665139847     IErMin= 6 ErrMin= 2.43D-08
 ErrMax= 2.43D-08  0.00D+00 EMaxC= 1.00D-01 BMatC= 5.55D-14 BMatP= 4.68D-13
 IDIUse=1 WtCom= 1.00D+00 WtEn= 0.00D+00
 Coeff-Com:  0.713D-03-0.873D-02-0.779D-02 0.656D-03 0.248D+00 0.767D+00
 Coeff:      0.713D-03-0.873D-02-0.779D-02 0.656D-03 0.248D+00 0.767D+00
 Gap=     0.410 Goal=   None    Shift=    0.000
 RMSDP=3.12D-09 MaxDP=4.04D-08 DE=-7.39D-13 OVMax= 1.27D-07

 SCF Done:  E(RM062X) =  -152.851665140     A.U. after   12 cycles
            NFock= 12  Conv=0.31D-08     -V/T= 2.0028
 KE= 1.524314863169D+02 PE=-4.368880622892D+02 EE= 9.400230915647D+01
 Leave Link  502 at Sun Feb 19 11:51:59 2023, MaxMem=  6710886400 cpu:              21.9 elap:               1.0
 (Enter /data0/home/software/g16/l601.exe)
 Copying SCF densities to generalized density rwf, IOpCl= 0 IROHF=0.

 **********************************************************************

            Population analysis using the SCF density.

 **********************************************************************

 Alpha  occ. eigenvalues --  -19.65766 -19.59421  -1.16880  -1.10471  -0.63941
 Alpha  occ. eigenvalues --   -0.58744  -0.51161  -0.45812  -0.42126  -0.37317
 Alpha virt. eigenvalues --    0.03679   0.09854   0.11503   0.14821   0.15467
 Alpha virt. eigenvalues --    0.17070   0.20380   0.21122   0.21747   0.24605
 Alpha virt. eigenvalues --    0.30198   0.35294   0.49144   0.51098   0.55612
 Alpha virt. eigenvalues --    0.63286   0.93372   0.96682   1.01864   1.05069
 Alpha virt. eigenvalues --    1.07712   1.09483   1.14452   1.16462   1.23177
 Alpha virt. eigenvalues --    1.26940   1.32850   1.34110   1.38034   1.47177
 Alpha virt. eigenvalues --    1.65678   1.70450   1.72853   1.75795   1.79381
 Alpha virt. eigenvalues --    2.01625   2.04839   2.07263   2.11512   2.25966
 Alpha virt. eigenvalues --    2.38104   2.40806   2.46144   2.52987   2.53774
 Alpha virt. eigenvalues --    2.61524   2.86394   2.94974   3.02432   3.11396
 Alpha virt. eigenvalues --    5.07641   5.11748   5.48771   5.51521   5.89828
 Alpha virt. eigenvalues --    5.97197   6.76411   6.78063   6.81200   6.83841
 Alpha virt. eigenvalues --    6.87673   6.88878   6.94950   6.98163   7.06973
 Alpha virt. eigenvalues --    7.17945  49.95350  50.02090
          Condensed to atoms (all electrons):
               1          2          3          4          5          6
     1  O    8.079963   0.268744   0.299080   0.013991  -0.001650  -0.001921
     2  H    0.268744   0.403188  -0.014955  -0.058356   0.001265   0.007397
     3  H    0.299080  -0.014955   0.447669  -0.000836   0.000534   0.000873
     4  O    0.013991  -0.058356  -0.000836   7.981869   0.330973   0.326365
     5  H   -0.001650   0.001265   0.000534   0.330973   0.395825  -0.023675
     6  H   -0.001921   0.007397   0.000873   0.326365  -0.023675   0.395829
 Mulliken charges:
               1
     1  O   -0.658206
     2  H    0.392716
     3  H    0.267635
     4  O   -0.594006
     5  H    0.296728
     6  H    0.295133
 Sum of Mulliken charges =  -0.00000
 Mulliken charges with hydrogens summed into heavy atoms:
               1
     1  O    0.002145
     4  O   -0.002145
         Mulliken charges condensed to fragments:
      1      0.002145
      2     -0.002145
 Electronic spatial extent (au):  <R**2>=          27975.1176
 Charge=             -0.0000 electrons
 Dipole moment (field-independent basis, Debye):
    X=             -2.1131    Y=              0.7998    Z=              1.7022  Tot=              2.8289
 Quadrupole moment (field-independent basis, Debye-Ang):
   XX=            -54.3663   YY=             18.9940   ZZ=             -6.3137
   XY=            -27.4745   XZ=             10.1573   YZ=             34.4161
 Traceless Quadrupole moment (field-independent basis, Debye-Ang):
   XX=            -40.4709   YY=             32.8893   ZZ=              7.5816
   XY=            -27.4745   XZ=             10.1573   YZ=             34.4161
 Octapole moment (field-independent basis, Debye-Ang**2):
  XXX=           -939.8122  YYY=            259.2173  ZZZ=            -35.9690  XYY=           -391.4714
  XXY=           -849.2890  XXZ=             25.6774  XZZ=            -66.9412  YZZ=            -99.5083
  YYZ=            670.9448  XYZ=            220.6272
 Hexadecapole moment (field-independent basis, Debye-Ang**3):
 XXXX=         -13677.3410 YYYY=            327.2088 ZZZZ=           -132.2977 XXXY=         -15369.4309
 XXXZ=           -502.4792 YYYX=          -6628.8544 YYYZ=          12720.4832 ZZZX=           -330.2343
 ZZZY=           -620.7063 XXYY=         -13768.8728 XXZZ=           -731.2471 YYZZ=          -1580.2742
 XXYZ=            836.4929 YYXZ=           4508.5024 ZZXY=          -1063.2148
 N-N= 3.760260167593D+01 E-N=-4.368880617850D+02  KE= 1.524314863169D+02
 No NMR shielding tensors so no spin-rotation constants.
 Leave Link  601 at Sun Feb 19 11:51:59 2023, MaxMem=  6710886400 cpu:               1.8 elap:               0.1
 (Enter /data0/home/software/g16/l122.exe)
 CPIOFr:  IOpCl= 0 IRwI=-1 IRwCP=  731 ICalc= -1 LCPTot=       10496 Len1MO=       26312 IndFrg=       10496
 CPIOFr:  IOpCl= 0 IRwI=-1 IRwCP=  731 ICalc=  0 LCPTot=       10496 Len1MO=       26312 IndFrg=       36808
 Counterpoise: doing calculation for fragment   1 using the basis set of the full-system, NewBq=T
 Leave Link  122 at Sun Feb 19 11:51:59 2023, MaxMem=  6710886400 cpu:               0.1 elap:               0.0
 (Enter /data0/home/software/g16/l301.exe)
 Basis read from rwf:  (5D, 7F)
 No pseudopotential information found on rwf file.
    78 basis functions,   116 primitive gaussians,    82 cartesian basis functions
     5 alpha electrons        5 beta electrons
       nuclear repulsion energy         9.1043758336 Hartrees.
 IExCor= 4336 DFT=T Ex+Corr=M062X ExCW=0 ScaHFX=  0.540000
 ScaDFX=  1.000000  1.000000  1.000000  1.000000 ScalE2=  1.000000  1.000000
 IRadAn=      5 IRanWt=     -1 IRanGd=            0 ICorTp=0 IEmpDi=131
 NAtoms=    6 NActive=    6 NUniq=    6 SFac= 1.00D+00 NAtFMM=   60 NAOKFM=F Big=F
 Integral buffers will be    131072 words long.
 Raffenetti 2 integral format.
 Two-electron integral symmetry is turned off.
 R6Disp:  Grimme-D3 Dispersion energy=       -0.0000000078 Hartrees.
 Nuclear repulsion after empirical dispersion term =        9.1043758258 Hartrees.
 No density basis found on file   718.
 Leave Link  301 at Sun Feb 19 11:51:59 2023, MaxMem=  6710886400 cpu:               1.3 elap:               0.1
 (Enter /data0/home/software/g16/l302.exe)
 NPDir=0 NMtPBC=     1 NCelOv=     1 NCel=       1 NClECP=     1 NCelD=      1
         NCelK=      1 NCelE2=     1 NClLst=     1 CellRange=     0.0.
 One-electron integrals computed using PRISM.
 NBasis=    78 RedAO= T EigKep=  1.28D-03  NBF=    78
 NBsUse=    78 1.00D-06 EigRej= -1.00D+00 NBFU=    78
 Precomputing XC quadrature grid using
 IXCGrd= 4 IRadAn=           5 IRanWt=          -1 IRanGd=           0 AccXCQ= 0.00D+00.
 Generated NRdTot=       0 NPtTot=           0 NUsed=           0 NTot=          32
 NSgBfM=    82    82    82    82    82 MxSgAt=     6 MxSgA2=     6.
 Leave Link  302 at Sun Feb 19 11:52:00 2023, MaxMem=  6710886400 cpu:               2.4 elap:               0.1
 (Enter /data0/home/software/g16/l303.exe)
 DipDrv:  MaxL=1.
 Leave Link  303 at Sun Feb 19 11:52:00 2023, MaxMem=  6710886400 cpu:               0.4 elap:               0.0
 (Enter /data0/home/software/g16/l401.exe)
 ExpMin= 8.45D-02 ExpMax= 8.59D+03 ExpMxC= 1.30D+03 IAcc=3 IRadAn=         5 AccDes= 0.00D+00
 Harris functional with IExCor= 1009 and IRadAn=       5 diagonalized for initial guess.
 HarFok:  IExCor= 1009 AccDes= 0.00D+00 IRadAn=         5 IDoV= 1 UseB2=F ITyADJ=14
 ICtDFT=  3500011 ScaDFX=  1.000000  1.000000  1.000000  1.000000
 FoFCou: FMM=F IPFlag=           0 FMFlag=      100000 FMFlg1=           0
         NFxFlg=           0 DoJE=T BraDBF=F KetDBF=T FulRan=T
         wScrn=  0.000000 ICntrl=       500 IOpCl=  0 I1Cent=   200000004 NGrid=           0
         NMat0=    1 NMatS0=      1 NMatT0=    0 NMatD0=    1 NMtDS0=    0 NMtDT0=    0
 Symmetry not used in FoFCou.
 Harris En= -76.4168147417080    
 JPrj=0 DoOrth=F DoCkMO=F.
 Leave Link  401 at Sun Feb 19 11:52:00 2023, MaxMem=  6710886400 cpu:               3.6 elap:               0.2
 (Enter /data0/home/software/g16/l502.exe)
 Keep R1 ints in memory in canonical form, NReq=26476721.
 FoFCou: FMM=F IPFlag=           0 FMFlag=           0 FMFlg1=           0
         NFxFlg=           0 DoJE=F BraDBF=F KetDBF=F FulRan=T
         wScrn=  0.000000 ICntrl=       600 IOpCl=  0 I1Cent=           0 NGrid=           0
         NMat0=    1 NMatS0=   3081 NMatT0=    0 NMatD0=    1 NMtDS0=    0 NMtDT0=    0
 Symmetry not used in FoFCou.
 Two-electron integral symmetry not used.
 Closed shell SCF:
 Using DIIS extrapolation, IDIIS=  1040.
 NGot=  6710886400 LenX=  6706122419 LenY=  6706115254
 Requested convergence on RMS density matrix=1.00D-08 within 128 cycles.
 Requested convergence on MAX density matrix=1.00D-06.
 Requested convergence on             energy=1.00D-06.
 No special actions if energy rises.
 Integral accuracy reduced to 1.0D-05 until final iterations.

 Cycle   1  Pass 0  IDiag  1:
 E= -76.3465484184127    
 DIIS: error= 4.00D-02 at cycle   1 NSaved=   1.
 NSaved= 1 IEnMin= 1 EnMin= -76.3465484184127     IErMin= 1 ErrMin= 4.00D-02
 ErrMax= 4.00D-02  0.00D+00 EMaxC= 1.00D-01 BMatC= 1.21D-01 BMatP= 1.21D-01
 IDIUse=3 WtCom= 6.00D-01 WtEn= 4.00D-01
 Coeff-Com:  0.100D+01
 Coeff-En:   0.100D+01
 Coeff:      0.100D+01
 Gap=     0.296 Goal=   None    Shift=    0.000
 GapD=    0.296 DampG=1.000 DampE=0.500 DampFc=0.5000 IDamp=-1.
 Damping current iteration by 5.00D-01
 RMSDP=4.46D-03 MaxDP=1.00D-01              OVMax= 1.69D-01

 Cycle   2  Pass 0  IDiag  1:
 E= -76.3778549038149     Delta-E=       -0.031306485402 Rises=F Damp=T
 DIIS: error= 7.00D-03 at cycle   2 NSaved=   2.
 NSaved= 2 IEnMin= 2 EnMin= -76.3778549038149     IErMin= 2 ErrMin= 7.00D-03
 ErrMax= 7.00D-03  0.00D+00 EMaxC= 1.00D-01 BMatC= 4.90D-03 BMatP= 1.21D-01
 IDIUse=3 WtCom= 9.30D-01 WtEn= 7.00D-02
 Coeff-Com:  0.837D-01 0.916D+00
 Coeff-En:   0.190D+00 0.810D+00
 Coeff:      0.911D-01 0.909D+00
 Gap=     0.423 Goal=   None    Shift=    0.000
 RMSDP=5.56D-04 MaxDP=1.43D-02 DE=-3.13D-02 OVMax= 1.02D-01

 Cycle   3  Pass 0  IDiag  1:
 E= -76.4219404352409     Delta-E=       -0.044085531426 Rises=F Damp=F
 DIIS: error= 1.31D-03 at cycle   3 NSaved=   3.
 NSaved= 3 IEnMin= 3 EnMin= -76.4219404352409     IErMin= 3 ErrMin= 1.31D-03
 ErrMax= 1.31D-03  0.00D+00 EMaxC= 1.00D-01 BMatC= 1.34D-04 BMatP= 4.90D-03
 IDIUse=3 WtCom= 9.87D-01 WtEn= 1.31D-02
 Coeff-Com: -0.254D-01 0.490D-01 0.976D+00
 Coeff-En:   0.000D+00 0.000D+00 0.100D+01
 Coeff:     -0.251D-01 0.483D-01 0.977D+00
 Gap=     0.425 Goal=   None    Shift=    0.000
 RMSDP=7.81D-05 MaxDP=1.17D-03 DE=-4.41D-02 OVMax= 3.74D-03

 Cycle   4  Pass 0  IDiag  1:
 E= -76.4220486655743     Delta-E=       -0.000108230333 Rises=F Damp=F
 DIIS: error= 2.26D-04 at cycle   4 NSaved=   4.
 NSaved= 4 IEnMin= 4 EnMin= -76.4220486655743     IErMin= 4 ErrMin= 2.26D-04
 ErrMax= 2.26D-04  0.00D+00 EMaxC= 1.00D-01 BMatC= 3.00D-06 BMatP= 1.34D-04
 IDIUse=3 WtCom= 9.98D-01 WtEn= 2.26D-03
 Coeff-Com: -0.287D-02-0.162D-03 0.156D+00 0.847D+00
 Coeff-En:   0.000D+00 0.000D+00 0.000D+00 0.100D+01
 Coeff:     -0.286D-02-0.162D-03 0.156D+00 0.847D+00
 Gap=     0.426 Goal=   None    Shift=    0.000
 RMSDP=1.17D-05 MaxDP=3.32D-04 DE=-1.08D-04 OVMax= 5.18D-04

 Cycle   5  Pass 0  IDiag  1:
 E= -76.4220505341059     Delta-E=       -0.000001868532 Rises=F Damp=F
 DIIS: error= 4.93D-05 at cycle   5 NSaved=   5.
 NSaved= 5 IEnMin= 5 EnMin= -76.4220505341059     IErMin= 5 ErrMin= 4.93D-05
 ErrMax= 4.93D-05  0.00D+00 EMaxC= 1.00D-01 BMatC= 8.03D-08 BMatP= 3.00D-06
 IDIUse=1 WtCom= 1.00D+00 WtEn= 0.00D+00
 Coeff-Com:  0.139D-02-0.216D-02-0.366D-01-0.612D-01 0.110D+01
 Coeff:      0.139D-02-0.216D-02-0.366D-01-0.612D-01 0.110D+01
 Gap=     0.426 Goal=   None    Shift=    0.000
 RMSDP=5.87D-06 MaxDP=9.80D-05 DE=-1.87D-06 OVMax= 2.05D-04

 Initial convergence to 1.0D-05 achieved.  Increase integral accuracy.
 Cycle   6  Pass 1  IDiag  1:
 E= -76.4220515825251     Delta-E=       -0.000001048419 Rises=F Damp=F
 DIIS: error= 1.01D-05 at cycle   1 NSaved=   1.
 NSaved= 1 IEnMin= 1 EnMin= -76.4220515825251     IErMin= 1 ErrMin= 1.01D-05
 ErrMax= 1.01D-05  0.00D+00 EMaxC= 1.00D-01 BMatC= 1.59D-08 BMatP= 1.59D-08
 IDIUse=1 WtCom= 1.00D+00 WtEn= 0.00D+00
 Coeff-Com:  0.100D+01
 Coeff:      0.100D+01
 Gap=     0.426 Goal=   None    Shift=    0.000
 RMSDP=5.87D-06 MaxDP=9.80D-05 DE=-1.05D-06 OVMax= 3.78D-05

 Cycle   7  Pass 1  IDiag  1:
 E= -76.4220515938559     Delta-E=       -0.000000011331 Rises=F Damp=F
 DIIS: error= 3.38D-06 at cycle   2 NSaved=   2.
 NSaved= 2 IEnMin= 2 EnMin= -76.4220515938559     IErMin= 2 ErrMin= 3.38D-06
 ErrMax= 3.38D-06  0.00D+00 EMaxC= 1.00D-01 BMatC= 5.34D-10 BMatP= 1.59D-08
 IDIUse=1 WtCom= 1.00D+00 WtEn= 0.00D+00
 Coeff-Com: -0.186D-01 0.102D+01
 Coeff:     -0.186D-01 0.102D+01
 Gap=     0.426 Goal=   None    Shift=    0.000
 RMSDP=3.64D-07 MaxDP=8.28D-06 DE=-1.13D-08 OVMax= 1.40D-05

 Cycle   8  Pass 1  IDiag  1:
 E= -76.4220515939409     Delta-E=       -0.000000000085 Rises=F Damp=F
 DIIS: error= 2.79D-06 at cycle   3 NSaved=   3.
 NSaved= 3 IEnMin= 3 EnMin= -76.4220515939409     IErMin= 3 ErrMin= 2.79D-06
 ErrMax= 2.79D-06  0.00D+00 EMaxC= 1.00D-01 BMatC= 5.66D-10 BMatP= 5.34D-10
 IDIUse=1 WtCom= 1.00D+00 WtEn= 0.00D+00
 Coeff-Com: -0.431D-01 0.536D+00 0.507D+00
 Coeff:     -0.431D-01 0.536D+00 0.507D+00
 Gap=     0.426 Goal=   None    Shift=    0.000
 RMSDP=1.38D-07 MaxDP=3.78D-06 DE=-8.51D-11 OVMax= 6.09D-06

 Cycle   9  Pass 1  IDiag  1:
 E= -76.4220515943077     Delta-E=       -0.000000000367 Rises=F Damp=F
 DIIS: error= 2.87D-07 at cycle   4 NSaved=   4.
 NSaved= 4 IEnMin= 4 EnMin= -76.4220515943077     IErMin= 4 ErrMin= 2.87D-07
 ErrMax= 2.87D-07  0.00D+00 EMaxC= 1.00D-01 BMatC= 2.93D-12 BMatP= 5.34D-10
 IDIUse=1 WtCom= 1.00D+00 WtEn= 0.00D+00
 Coeff-Com:  0.880D-03-0.410D-01 0.176D-01 0.102D+01
 Coeff:      0.880D-03-0.410D-01 0.176D-01 0.102D+01
 Gap=     0.426 Goal=   None    Shift=    0.000
 RMSDP=3.27D-08 MaxDP=4.39D-07 DE=-3.67D-10 OVMax= 1.10D-06

 Cycle  10  Pass 1  IDiag  1:
 E= -76.4220515943124     Delta-E=       -0.000000000005 Rises=F Damp=F
 DIIS: error= 3.55D-08 at cycle   5 NSaved=   5.
 NSaved= 5 IEnMin= 5 EnMin= -76.4220515943124     IErMin= 5 ErrMin= 3.55D-08
 ErrMax= 3.55D-08  0.00D+00 EMaxC= 1.00D-01 BMatC= 1.25D-13 BMatP= 2.93D-12
 IDIUse=1 WtCom= 1.00D+00 WtEn= 0.00D+00
 Coeff-Com:  0.206D-02-0.311D-01-0.252D-01 0.898D-01 0.964D+00
 Coeff:      0.206D-02-0.311D-01-0.252D-01 0.898D-01 0.964D+00
 Gap=     0.426 Goal=   None    Shift=    0.000
 RMSDP=7.66D-09 MaxDP=1.23D-07 DE=-4.72D-12 OVMax= 3.34D-07

 SCF Done:  E(RM062X) =  -76.4220515943     A.U. after   10 cycles
            NFock= 10  Conv=0.77D-08     -V/T= 2.0030
 KE= 7.619255675599D+01 PE=-1.990565481011D+02 EE= 3.733756392508D+01
 Leave Link  502 at Sun Feb 19 11:52:01 2023, MaxMem=  6710886400 cpu:              17.7 elap:               0.8
 (Enter /data0/home/software/g16/l601.exe)
 Copying SCF densities to generalized density rwf, IOpCl= 0 IROHF=0.

 **********************************************************************

            Population analysis using the SCF density.

 **********************************************************************

 Alpha  occ. eigenvalues --  -19.62619  -1.13340  -0.60821  -0.47469  -0.39992
 Alpha virt. eigenvalues --    0.02593   0.09463   0.12270   0.12727   0.16335
 Alpha virt. eigenvalues --    0.18270   0.20667   0.21541   0.23008   0.26987
 Alpha virt. eigenvalues --    0.29003   0.36261   0.51338   0.55059   0.60789
 Alpha virt. eigenvalues --    0.69797   0.70828   0.81702   0.92977   0.98044
 Alpha virt. eigenvalues --    1.04152   1.05748   1.08023   1.20738   1.23056
 Alpha virt. eigenvalues --    1.33175   1.40264   1.67778   1.72161   1.74789
 Alpha virt. eigenvalues --    1.75491   1.79423   1.98074   2.06701   2.09403
 Alpha virt. eigenvalues --    2.19908   2.32413   2.35840   2.40039   2.42415
 Alpha virt. eigenvalues --    2.50487   2.57471   2.58236   2.64602   2.64992
 Alpha virt. eigenvalues --    2.66675   2.87364   2.91961   3.00867   3.14289
 Alpha virt. eigenvalues --    3.43608   3.51331   4.45743   5.03069   5.07807
 Alpha virt. eigenvalues --    5.49163   5.96446   6.78384   6.80794   6.89744
 Alpha virt. eigenvalues --    6.91994   7.12706   9.75536   9.78317   9.88942
 Alpha virt. eigenvalues --    9.92326  10.05164  12.85201  13.18302  13.63986
 Alpha virt. eigenvalues --   17.60013  49.98505 135.39493
          Condensed to atoms (all electrons):
               1          2          3          4          5          6
     1  O    8.000529   0.278530   0.302876   0.022486  -0.003170  -0.001780
     2  H    0.278530   0.394489  -0.016084  -0.004372   0.001147   0.004071
     3  H    0.302876  -0.016084   0.437408  -0.002415   0.000587   0.000690
     4  O    0.022486  -0.004372  -0.002415   0.016264  -0.003727  -0.008160
     5  H   -0.003170   0.001147   0.000587  -0.003727   0.001371   0.001383
     6  H   -0.001780   0.004071   0.000690  -0.008160   0.001383   0.005816
 Mulliken charges:
               1
     1  O   -0.599471
     2  H    0.342218
     3  H    0.276938
     4  O   -0.020076
     5  H    0.002409
     6  H   -0.002019
 Sum of Mulliken charges =   0.00000
 Mulliken charges with hydrogens summed into heavy atoms:
               1
     1  O    0.019686
     4  O   -0.019686
         Mulliken charges condensed to fragments:
      1      0.019686
      2     -0.019686
 Electronic spatial extent (au):  <R**2>=          13355.7705
 Charge=              0.0000 electrons
 Dipole moment (field-independent basis, Debye):
    X=             -2.0174    Y=             -0.0451    Z=             -0.4971  Tot=              2.0782
 Quadrupole moment (field-independent basis, Debye-Ang):
   XX=            -44.9073   YY=             -6.2530   ZZ=             -8.4075
   XY=            -34.5073   XZ=             -6.7069   YZ=             -7.3827
 Traceless Quadrupole moment (field-independent basis, Debye-Ang):
   XX=            -25.0514   YY=             13.6029   ZZ=             11.4485
   XY=            -34.5073   XZ=             -6.7069   YZ=             -7.3827
 Octapole moment (field-independent basis, Debye-Ang**2):
  XXX=           -735.5784  YYY=           -276.3388  ZZZ=            -25.8710  XYY=           -636.4259
  XXY=           -761.5840  XXZ=            -89.7500  XZZ=            -82.4874  YZZ=           -138.9199
  YYZ=           -113.2938  XYZ=           -103.9222
 Hexadecapole moment (field-independent basis, Debye-Ang**3):
 XXXX=         -10561.4118 YYYY=          -8843.5272 ZZZZ=            -62.7433 XXXY=         -12433.3141
 XXXZ=          -1170.2651 YYYX=         -12417.6426 YYYZ=          -1814.8223 ZZZX=           -249.8528
 ZZZY=           -430.6073 XXYY=         -13370.3302 XXZZ=           -818.8802 YYZZ=          -2303.5964
 XXYZ=          -1428.2289 YYXZ=          -1652.7295 ZZXY=          -1364.2809
 N-N= 9.104375825765D+00 E-N=-1.990565478023D+02  KE= 7.619255675599D+01
 No NMR shielding tensors so no spin-rotation constants.
 Leave Link  601 at Sun Feb 19 11:52:01 2023, MaxMem=  6710886400 cpu:               1.8 elap:               0.1
 (Enter /data0/home/software/g16/l122.exe)
 CPIOFr:  IOpCl= 0 IRwI=-1 IRwCP=  731 ICalc=  1 LCPTot=       10496 Len1MO=       26312 IndFrg=       63120
 Counterpoise: doing calculation for fragment   2 using the basis set of the full-system, NewBq=T
 Leave Link  122 at Sun Feb 19 11:52:01 2023, MaxMem=  6710886400 cpu:               0.1 elap:               0.0
 (Enter /data0/home/software/g16/l301.exe)
 Basis read from rwf:  (5D, 7F)
 No pseudopotential information found on rwf file.
    78 basis functions,   116 primitive gaussians,    82 cartesian basis functions
     5 alpha electrons        5 beta electrons
       nuclear repulsion energy         9.1182791136 Hartrees.
 IExCor= 4336 DFT=T Ex+Corr=M062X ExCW=0 ScaHFX=  0.540000
 ScaDFX=  1.000000  1.000000  1.000000  1.000000 ScalE2=  1.000000  1.000000
 IRadAn=      5 IRanWt=     -1 IRanGd=            0 ICorTp=0 IEmpDi=131
 NAtoms=    6 NActive=    6 NUniq=    6 SFac= 1.00D+00 NAtFMM=   60 NAOKFM=F Big=F
 Integral buffers will be    131072 words long.
 Raffenetti 2 integral format.
 Two-electron integral symmetry is turned off.
 R6Disp:  Grimme-D3 Dispersion energy=       -0.0000000075 Hartrees.
 Nuclear repulsion after empirical dispersion term =        9.1182791061 Hartrees.
 No density basis found on file   718.
 Leave Link  301 at Sun Feb 19 11:52:01 2023, MaxMem=  6710886400 cpu:               1.3 elap:               0.1
 (Enter /data0/home/software/g16/l302.exe)
 NPDir=0 NMtPBC=     1 NCelOv=     1 NCel=       1 NClECP=     1 NCelD=      1
         NCelK=      1 NCelE2=     1 NClLst=     1 CellRange=     0.0.
 One-electron integrals computed using PRISM.
 NBasis=    78 RedAO= T EigKep=  1.28D-03  NBF=    78
 NBsUse=    78 1.00D-06 EigRej= -1.00D+00 NBFU=    78
 Precomputing XC quadrature grid using
 IXCGrd= 4 IRadAn=           5 IRanWt=          -1 IRanGd=           0 AccXCQ= 0.00D+00.
 Generated NRdTot=       0 NPtTot=           0 NUsed=           0 NTot=          32
 NSgBfM=    82    82    82    82    82 MxSgAt=     6 MxSgA2=     6.
 Leave Link  302 at Sun Feb 19 11:52:01 2023, MaxMem=  6710886400 cpu:               2.5 elap:               0.1
 (Enter /data0/home/software/g16/l303.exe)
 DipDrv:  MaxL=1.
 Leave Link  303 at Sun Feb 19 11:52:01 2023, MaxMem=  6710886400 cpu:               0.4 elap:               0.0
 (Enter /data0/home/software/g16/l401.exe)
 ExpMin= 8.45D-02 ExpMax= 8.59D+03 ExpMxC= 1.30D+03 IAcc=3 IRadAn=         5 AccDes= 0.00D+00
 Harris functional with IExCor= 1009 and IRadAn=       5 diagonalized for initial guess.
 HarFok:  IExCor= 1009 AccDes= 0.00D+00 IRadAn=         5 IDoV= 1 UseB2=F ITyADJ=14
 ICtDFT=  3500011 ScaDFX=  1.000000  1.000000  1.000000  1.000000
 FoFCou: FMM=F IPFlag=           0 FMFlag=      100000 FMFlg1=           0
         NFxFlg=           0 DoJE=T BraDBF=F KetDBF=T FulRan=T
         wScrn=  0.000000 ICntrl=       500 IOpCl=  0 I1Cent=   200000004 NGrid=           0
         NMat0=    1 NMatS0=      1 NMatT0=    0 NMatD0=    1 NMtDS0=    0 NMtDT0=    0
 Symmetry not used in FoFCou.
 Harris En= -76.4171903911467    
 JPrj=0 DoOrth=F DoCkMO=F.
 Leave Link  401 at Sun Feb 19 11:52:01 2023, MaxMem=  6710886400 cpu:               3.6 elap:               0.2
 (Enter /data0/home/software/g16/l502.exe)
 Keep R1 ints in memory in canonical form, NReq=26476721.
 FoFCou: FMM=F IPFlag=           0 FMFlag=           0 FMFlg1=           0
         NFxFlg=           0 DoJE=F BraDBF=F KetDBF=F FulRan=T
         wScrn=  0.000000 ICntrl=       600 IOpCl=  0 I1Cent=           0 NGrid=           0
         NMat0=    1 NMatS0=   3081 NMatT0=    0 NMatD0=    1 NMtDS0=    0 NMtDT0=    0
 Symmetry not used in FoFCou.
 Two-electron integral symmetry not used.
 Closed shell SCF:
 Using DIIS extrapolation, IDIIS=  1040.
 NGot=  6710886400 LenX=  6706122419 LenY=  6706115254
 Requested convergence on RMS density matrix=1.00D-08 within 128 cycles.
 Requested convergence on MAX density matrix=1.00D-06.
 Requested convergence on             energy=1.00D-06.
 No special actions if energy rises.
 Integral accuracy reduced to 1.0D-05 until final iterations.

 Cycle   1  Pass 0  IDiag  1:
 E= -76.3471632367822    
 DIIS: error= 3.99D-02 at cycle   1 NSaved=   1.
 NSaved= 1 IEnMin= 1 EnMin= -76.3471632367822     IErMin= 1 ErrMin= 3.99D-02
 ErrMax= 3.99D-02  0.00D+00 EMaxC= 1.00D-01 BMatC= 1.21D-01 BMatP= 1.21D-01
 IDIUse=3 WtCom= 6.01D-01 WtEn= 3.99D-01
 Coeff-Com:  0.100D+01
 Coeff-En:   0.100D+01
 Coeff:      0.100D+01
 Gap=     0.313 Goal=   None    Shift=    0.000
 GapD=    0.313 DampG=1.000 DampE=0.500 DampFc=0.5000 IDamp=-1.
 Damping current iteration by 5.00D-01
 RMSDP=6.12D-03 MaxDP=1.00D-01              OVMax= 1.72D-01

 Cycle   2  Pass 0  IDiag  1:
 E= -76.3784239757383     Delta-E=       -0.031260738956 Rises=F Damp=T
 DIIS: error= 9.07D-03 at cycle   2 NSaved=   2.
 NSaved= 2 IEnMin= 2 EnMin= -76.3784239757383     IErMin= 2 ErrMin= 9.07D-03
 ErrMax= 9.07D-03  0.00D+00 EMaxC= 1.00D-01 BMatC= 4.90D-03 BMatP= 1.21D-01
 IDIUse=3 WtCom= 9.09D-01 WtEn= 9.07D-02
 Coeff-Com:  0.842D-01 0.916D+00
 Coeff-En:   0.191D+00 0.809D+00
 Coeff:      0.939D-01 0.906D+00
 Gap=     0.445 Goal=   None    Shift=    0.000
 RMSDP=9.15D-04 MaxDP=1.53D-02 DE=-3.13D-02 OVMax= 1.03D-01

 Cycle   3  Pass 0  IDiag  1:
 E= -76.4225382961417     Delta-E=       -0.044114320403 Rises=F Damp=F
 DIIS: error= 1.21D-03 at cycle   3 NSaved=   3.
 NSaved= 3 IEnMin= 3 EnMin= -76.4225382961417     IErMin= 3 ErrMin= 1.21D-03
 ErrMax= 1.21D-03  0.00D+00 EMaxC= 1.00D-01 BMatC= 1.12D-04 BMatP= 4.90D-03
 IDIUse=3 WtCom= 9.88D-01 WtEn= 1.21D-02
 Coeff-Com: -0.231D-01 0.432D-01 0.980D+00
 Coeff-En:   0.000D+00 0.000D+00 0.100D+01
 Coeff:     -0.228D-01 0.427D-01 0.980D+00
 Gap=     0.447 Goal=   None    Shift=    0.000
 RMSDP=8.09D-05 MaxDP=1.08D-03 DE=-4.41D-02 OVMax= 3.52D-03

 Cycle   4  Pass 0  IDiag  1:
 E= -76.4226306742281     Delta-E=       -0.000092378086 Rises=F Damp=F
 DIIS: error= 1.74D-04 at cycle   4 NSaved=   4.
 NSaved= 4 IEnMin= 4 EnMin= -76.4226306742281     IErMin= 4 ErrMin= 1.74D-04
 ErrMax= 1.74D-04  0.00D+00 EMaxC= 1.00D-01 BMatC= 2.85D-06 BMatP= 1.12D-04
 IDIUse=3 WtCom= 9.98D-01 WtEn= 1.74D-03
 Coeff-Com: -0.230D-02-0.105D-02 0.151D+00 0.853D+00
 Coeff-En:   0.000D+00 0.000D+00 0.000D+00 0.100D+01
 Coeff:     -0.230D-02-0.105D-02 0.151D+00 0.853D+00
 Gap=     0.448 Goal=   None    Shift=    0.000
 RMSDP=1.96D-05 MaxDP=3.29D-04 DE=-9.24D-05 OVMax= 5.24D-04

 Cycle   5  Pass 0  IDiag  1:
 E= -76.4226324857032     Delta-E=       -0.000001811475 Rises=F Damp=F
 DIIS: error= 3.39D-05 at cycle   5 NSaved=   5.
 NSaved= 5 IEnMin= 5 EnMin= -76.4226324857032     IErMin= 5 ErrMin= 3.39D-05
 ErrMax= 3.39D-05  0.00D+00 EMaxC= 1.00D-01 BMatC= 7.60D-08 BMatP= 2.85D-06
 IDIUse=1 WtCom= 1.00D+00 WtEn= 0.00D+00
 Coeff-Com:  0.127D-02-0.196D-02-0.364D-01-0.520D-01 0.109D+01
 Coeff:      0.127D-02-0.196D-02-0.364D-01-0.520D-01 0.109D+01
 Gap=     0.448 Goal=   None    Shift=    0.000
 RMSDP=1.29D-05 MaxDP=1.98D-04 DE=-1.81D-06 OVMax= 2.09D-04

 Cycle   6  Pass 0  IDiag  1:
 E= -76.4226326171933     Delta-E=       -0.000000131490 Rises=F Damp=F
 DIIS: error= 5.41D-06 at cycle   6 NSaved=   6.
 NSaved= 6 IEnMin= 6 EnMin= -76.4226326171933     IErMin= 6 ErrMin= 5.41D-06
 ErrMax= 5.41D-06  0.00D+00 EMaxC= 1.00D-01 BMatC= 1.85D-09 BMatP= 7.60D-08
 IDIUse=1 WtCom= 1.00D+00 WtEn= 0.00D+00
 Coeff-Com: -0.249D-03 0.362D-03 0.320D-02-0.619D-02-0.153D+00 0.116D+01
 Coeff:     -0.249D-03 0.362D-03 0.320D-02-0.619D-02-0.153D+00 0.116D+01
 Gap=     0.448 Goal=   None    Shift=    0.000
 RMSDP=1.87D-06 MaxDP=2.81D-05 DE=-1.31D-07 OVMax= 3.97D-05

 Initial convergence to 1.0D-05 achieved.  Increase integral accuracy.
 Cycle   7  Pass 1  IDiag  1:
 E= -76.4226272711839     Delta-E=        0.000005346009 Rises=F Damp=F
 DIIS: error= 1.52D-05 at cycle   1 NSaved=   1.
 NSaved= 1 IEnMin= 1 EnMin= -76.4226272711839     IErMin= 1 ErrMin= 1.52D-05
 ErrMax= 1.52D-05  0.00D+00 EMaxC= 1.00D-01 BMatC= 1.55D-08 BMatP= 1.55D-08
 IDIUse=1 WtCom= 1.00D+00 WtEn= 0.00D+00
 Coeff-Com:  0.100D+01
 Coeff:      0.100D+01
 Gap=     0.448 Goal=   None    Shift=    0.000
 RMSDP=1.87D-06 MaxDP=2.81D-05 DE= 5.35D-06 OVMax= 3.57D-05

 Cycle   8  Pass 1  IDiag  1:
 E= -76.4226272844359     Delta-E=       -0.000000013252 Rises=F Damp=F
 DIIS: error= 1.59D-06 at cycle   2 NSaved=   2.
 NSaved= 2 IEnMin= 2 EnMin= -76.4226272844359     IErMin= 2 ErrMin= 1.59D-06
 ErrMax= 1.59D-06  0.00D+00 EMaxC= 1.00D-01 BMatC= 2.14D-10 BMatP= 1.55D-08
 IDIUse=1 WtCom= 1.00D+00 WtEn= 0.00D+00
 Coeff-Com: -0.754D-01 0.108D+01
 Coeff:     -0.754D-01 0.108D+01
 Gap=     0.448 Goal=   None    Shift=    0.000
 RMSDP=3.08D-07 MaxDP=3.39D-06 DE=-1.33D-08 OVMax= 1.04D-05

 Cycle   9  Pass 1  IDiag  1:
 E= -76.4226272846745     Delta-E=       -0.000000000239 Rises=F Damp=F
 DIIS: error= 1.27D-06 at cycle   3 NSaved=   3.
 NSaved= 3 IEnMin= 3 EnMin= -76.4226272846745     IErMin= 3 ErrMin= 1.27D-06
 ErrMax= 1.27D-06  0.00D+00 EMaxC= 1.00D-01 BMatC= 1.01D-10 BMatP= 2.14D-10
 IDIUse=1 WtCom= 1.00D+00 WtEn= 0.00D+00
 Coeff-Com: -0.415D-01 0.488D+00 0.554D+00
 Coeff:     -0.415D-01 0.488D+00 0.554D+00
 Gap=     0.448 Goal=   None    Shift=    0.000
 RMSDP=9.32D-08 MaxDP=1.85D-06 DE=-2.39D-10 OVMax= 2.59D-06

 Cycle  10  Pass 1  IDiag  1:
 E= -76.4226272847397     Delta-E=       -0.000000000065 Rises=F Damp=F
 DIIS: error= 2.46D-07 at cycle   4 NSaved=   4.
 NSaved= 4 IEnMin= 4 EnMin= -76.4226272847397     IErMin= 4 ErrMin= 2.46D-07
 ErrMax= 2.46D-07  0.00D+00 EMaxC= 1.00D-01 BMatC= 5.57D-12 BMatP= 1.01D-10
 IDIUse=1 WtCom= 1.00D+00 WtEn= 0.00D+00
 Coeff-Com:  0.711D-03-0.469D-01 0.129D+00 0.917D+00
 Coeff:      0.711D-03-0.469D-01 0.129D+00 0.917D+00
 Gap=     0.448 Goal=   None    Shift=    0.000
 RMSDP=4.53D-08 MaxDP=5.21D-07 DE=-6.53D-11 OVMax= 1.46D-06

 Cycle  11  Pass 1  IDiag  1:
 E= -76.4226272847456     Delta-E=       -0.000000000006 Rises=F Damp=F
 DIIS: error= 4.73D-08 at cycle   5 NSaved=   5.
 NSaved= 5 IEnMin= 5 EnMin= -76.4226272847456     IErMin= 5 ErrMin= 4.73D-08
 ErrMax= 4.73D-08  0.00D+00 EMaxC= 1.00D-01 BMatC= 2.20D-13 BMatP= 5.57D-12
 IDIUse=1 WtCom= 1.00D+00 WtEn= 0.00D+00
 Coeff-Com:  0.251D-02-0.348D-01-0.187D-01 0.151D+00 0.900D+00
 Coeff:      0.251D-02-0.348D-01-0.187D-01 0.151D+00 0.900D+00
 Gap=     0.448 Goal=   None    Shift=    0.000
 RMSDP=1.37D-08 MaxDP=1.76D-07 DE=-5.85D-12 OVMax= 4.42D-07

 Cycle  12  Pass 1  IDiag  1:
 E= -76.4226272847459     Delta-E=       -0.000000000000 Rises=F Damp=F
 DIIS: error= 7.37D-09 at cycle   6 NSaved=   6.
 NSaved= 6 IEnMin= 6 EnMin= -76.4226272847459     IErMin= 6 ErrMin= 7.37D-09
 ErrMax= 7.37D-09  0.00D+00 EMaxC= 1.00D-01 BMatC= 7.92D-15 BMatP= 2.20D-13
 IDIUse=1 WtCom= 1.00D+00 WtEn= 0.00D+00
 Coeff-Com: -0.409D-04 0.227D-02-0.535D-02-0.518D-01-0.525D-01 0.111D+01
 Coeff:     -0.409D-04 0.227D-02-0.535D-02-0.518D-01-0.525D-01 0.111D+01
 Gap=     0.448 Goal=   None    Shift=    0.000
 RMSDP=4.04D-09 MaxDP=5.97D-08 DE=-2.98D-13 OVMax= 1.53D-07

 SCF Done:  E(RM062X) =  -76.4226272847     A.U. after   12 cycles
            NFock= 12  Conv=0.40D-08     -V/T= 2.0030
 KE= 7.619632031527D+01 PE=-1.990838164006D+02 EE= 3.734658969447D+01
 Leave Link  502 at Sun Feb 19 11:52:02 2023, MaxMem=  6710886400 cpu:              21.3 elap:               1.0
 (Enter /data0/home/software/g16/l601.exe)
 Copying SCF densities to generalized density rwf, IOpCl= 0 IROHF=0.

 **********************************************************************

            Population analysis using the SCF density.

 **********************************************************************

 Alpha  occ. eigenvalues --  -19.62643  -1.13429  -0.60768  -0.47611  -0.40040
 Alpha virt. eigenvalues --    0.04729   0.09648   0.12523   0.14710   0.16517
 Alpha virt. eigenvalues --    0.17765   0.20065   0.20843   0.23213   0.29332
 Alpha virt. eigenvalues --    0.34001   0.36512   0.51721   0.53925   0.59646
 Alpha virt. eigenvalues --    0.74227   0.75216   0.85078   0.96077   0.98313
 Alpha virt. eigenvalues --    1.00859   1.05884   1.10934   1.19304   1.21865
 Alpha virt. eigenvalues --    1.40013   1.56402   1.69101   1.75657   1.76100
 Alpha virt. eigenvalues --    1.78415   1.82964   1.90600   2.05847   2.10928
 Alpha virt. eigenvalues --    2.13599   2.27720   2.34757   2.42677   2.47754
 Alpha virt. eigenvalues --    2.50936   2.55712   2.56997   2.62099   2.64794
 Alpha virt. eigenvalues --    2.79648   2.86037   2.91565   3.01431   3.08559
 Alpha virt. eigenvalues --    3.45960   3.62186   4.54273   5.09680   5.13887
 Alpha virt. eigenvalues --    5.52311   5.93075   6.80391   6.82262   6.91453
 Alpha virt. eigenvalues --    6.98755   7.10261   9.65114   9.72898   9.78672
 Alpha virt. eigenvalues --    9.81182   9.97683  12.74780  13.10487  13.61942
 Alpha virt. eigenvalues --   17.59772  49.98857 135.60056
          Condensed to atoms (all electrons):
               1          2          3          4          5          6
     1  O    0.025987  -0.035527  -0.002364   0.053031  -0.002127  -0.002749
     2  H   -0.035527   0.054994   0.002677  -0.097190   0.003834   0.004953
     3  H   -0.002364   0.002677   0.000528  -0.000615  -0.000094   0.000061
     4  O    0.053031  -0.097190  -0.000615   7.954947   0.335472   0.335022
     5  H   -0.002127   0.003834  -0.000094   0.335472   0.414400  -0.028519
     6  H   -0.002749   0.004953   0.000061   0.335022  -0.028519   0.417412
 Mulliken charges:
               1
     1  O   -0.036252
     2  H    0.066259
     3  H   -0.000194
     4  O   -0.580668
     5  H    0.277034
     6  H    0.273821
 Sum of Mulliken charges =  -0.00000
 Mulliken charges with hydrogens summed into heavy atoms:
               1
     1  O    0.029813
     4  O   -0.029813
         Mulliken charges condensed to fragments:
      1      0.029813
      2     -0.029813
 Electronic spatial extent (au):  <R**2>=          14627.1460
 Charge=              0.0000 electrons
 Dipole moment (field-independent basis, Debye):
    X=              0.3242    Y=              0.3571    Z=              2.0003  Tot=              2.0576
 Quadrupole moment (field-independent basis, Debye-Ang):
   XX=             -2.0884   YY=              8.1037   ZZ=              1.3769
   XY=             10.0930   XZ=             15.8439   YZ=             37.4901
 Traceless Quadrupole moment (field-independent basis, Debye-Ang):
   XX=             -4.5525   YY=              5.6396   ZZ=             -1.0871
   XY=             10.0930   XZ=             15.8439   YZ=             37.4901
 Octapole moment (field-independent basis, Debye-Ang**2):
  XXX=           -105.7133  YYY=             81.8665  ZZZ=            -12.4138  XYY=            223.7503
  XXY=              2.6289  XXZ=            112.3842  XZZ=             10.9723  YZZ=             24.9912
  YYZ=            693.7499  XYZ=            299.7392
 Hexadecapole moment (field-independent basis, Debye-Ang**3):
 XXXX=          -1928.4554 YYYY=          -1544.8185 ZZZZ=            -76.7682 XXXY=          -1567.7431
 XXXZ=            691.4555 YYYX=           4099.4427 YYYZ=          12673.4606 ZZZX=            -96.2407
 ZZZY=           -235.3307 XXYY=            516.3565 XXZZ=             60.9516 YYZZ=            436.1926
 XXYZ=           2151.3762 YYXZ=           5601.4259 ZZXY=            205.6008
 N-N= 9.118279106086D+00 E-N=-1.990838165298D+02  KE= 7.619632031527D+01
 No NMR shielding tensors so no spin-rotation constants.
 Leave Link  601 at Sun Feb 19 11:52:02 2023, MaxMem=  6710886400 cpu:               1.9 elap:               0.1
 (Enter /data0/home/software/g16/l122.exe)
 CPIOFr:  IOpCl= 0 IRwI=-1 IRwCP=  731 ICalc=  2 LCPTot=       10496 Len1MO=       26312 IndFrg=       89432
 Counterpoise: doing calculation for fragment   1 using the basis set of the fragment.
 Leave Link  122 at Sun Feb 19 11:52:02 2023, MaxMem=  6710886400 cpu:               0.1 elap:               0.0
 (Enter /data0/home/software/g16/l301.exe)
 Basis read from rwf:  (5D, 7F)
 No pseudopotential information found on rwf file.
    39 basis functions,    58 primitive gaussians,    41 cartesian basis functions
     5 alpha electrons        5 beta electrons
       nuclear repulsion energy         9.1043758336 Hartrees.
 IExCor= 4336 DFT=T Ex+Corr=M062X ExCW=0 ScaHFX=  0.540000
 ScaDFX=  1.000000  1.000000  1.000000  1.000000 ScalE2=  1.000000  1.000000
 IRadAn=      5 IRanWt=     -1 IRanGd=            0 ICorTp=0 IEmpDi=131
 NAtoms=    6 NActive=    3 NUniq=    3 SFac= 1.00D+00 NAtFMM=   60 NAOKFM=F Big=F
 Integral buffers will be    131072 words long.
 Raffenetti 2 integral format.
 Two-electron integral symmetry is turned off.
 R6Disp:  Grimme-D3 Dispersion energy=       -0.0000000078 Hartrees.
 Nuclear repulsion after empirical dispersion term =        9.1043758258 Hartrees.
 No density basis found on file   718.
 Leave Link  301 at Sun Feb 19 11:52:02 2023, MaxMem=  6710886400 cpu:               1.3 elap:               0.1
 (Enter /data0/home/software/g16/l302.exe)
 NPDir=0 NMtPBC=     1 NCelOv=     1 NCel=       1 NClECP=     1 NCelD=      1
         NCelK=      1 NCelE2=     1 NClLst=     1 CellRange=     0.0.
 One-electron integrals computed using PRISM.
 NBasis=    39 RedAO= T EigKep=  3.06D-03  NBF=    39
 NBsUse=    39 1.00D-06 EigRej= -1.00D+00 NBFU=    39
 Precomputing XC quadrature grid using
 IXCGrd= 4 IRadAn=           5 IRanWt=          -1 IRanGd=           0 AccXCQ= 0.00D+00.
 Generated NRdTot=       0 NPtTot=           0 NUsed=           0 NTot=          32
 NSgBfM=    41    41    41    41    41 MxSgAt=     3 MxSgA2=     3.
 Leave Link  302 at Sun Feb 19 11:52:02 2023, MaxMem=  6710886400 cpu:               2.3 elap:               0.1
 (Enter /data0/home/software/g16/l303.exe)
 DipDrv:  MaxL=1.
 Leave Link  303 at Sun Feb 19 11:52:02 2023, MaxMem=  6710886400 cpu:               0.4 elap:               0.0
 (Enter /data0/home/software/g16/l401.exe)
 ExpMin= 8.45D-02 ExpMax= 8.59D+03 ExpMxC= 1.30D+03 IAcc=3 IRadAn=         5 AccDes= 0.00D+00
 Harris functional with IExCor= 1009 and IRadAn=       5 diagonalized for initial guess.
 HarFok:  IExCor= 1009 AccDes= 0.00D+00 IRadAn=         5 IDoV= 1 UseB2=F ITyADJ=14
 ICtDFT=  3500011 ScaDFX=  1.000000  1.000000  1.000000  1.000000
 FoFCou: FMM=F IPFlag=           0 FMFlag=      100000 FMFlg1=           0
         NFxFlg=           0 DoJE=T BraDBF=F KetDBF=T FulRan=T
         wScrn=  0.000000 ICntrl=       500 IOpCl=  0 I1Cent=   200000004 NGrid=           0
         NMat0=    1 NMatS0=      1 NMatT0=    0 NMatD0=    1 NMtDS0=    0 NMtDT0=    0
 Symmetry not used in FoFCou.
 Harris En= -76.4165708140687    
 JPrj=0 DoOrth=F DoCkMO=F.
 Leave Link  401 at Sun Feb 19 11:52:03 2023, MaxMem=  6710886400 cpu:               2.9 elap:               0.1
 (Enter /data0/home/software/g16/l502.exe)
 Keep R1 ints in memory in canonical form, NReq=21036027.
 FoFCou: FMM=F IPFlag=           0 FMFlag=           0 FMFlg1=           0
         NFxFlg=           0 DoJE=F BraDBF=F KetDBF=F FulRan=T
         wScrn=  0.000000 ICntrl=       600 IOpCl=  0 I1Cent=           0 NGrid=           0
         NMat0=    1 NMatS0=    780 NMatT0=    0 NMatD0=    1 NMtDS0=    0 NMtDT0=    0
 Symmetry not used in FoFCou.
 Two-electron integral symmetry not used.
 Closed shell SCF:
 Using DIIS extrapolation, IDIIS=  1040.
 NGot=  6710886400 LenX=  6710576925 LenY=  6710574803
 Requested convergence on RMS density matrix=1.00D-08 within 128 cycles.
 Requested convergence on MAX density matrix=1.00D-06.
 Requested convergence on             energy=1.00D-06.
 No special actions if energy rises.
 Integral accuracy reduced to 1.0D-05 until final iterations.

 Cycle   1  Pass 0  IDiag  1:
 E= -76.3462382902050    
 DIIS: error= 7.03D-02 at cycle   1 NSaved=   1.
 NSaved= 1 IEnMin= 1 EnMin= -76.3462382902050     IErMin= 1 ErrMin= 7.03D-02
 ErrMax= 7.03D-02  0.00D+00 EMaxC= 1.00D-01 BMatC= 1.21D-01 BMatP= 1.21D-01
 IDIUse=3 WtCom= 2.97D-01 WtEn= 7.03D-01
 Coeff-Com:  0.100D+01
 Coeff-En:   0.100D+01
 Coeff:      0.100D+01
 Gap=     0.325 Goal=   None    Shift=    0.000
 GapD=    0.325 DampG=1.000 DampE=0.500 DampFc=0.5000 IDamp=-1.
 Damping current iteration by 5.00D-01
 RMSDP=7.90D-03 MaxDP=1.01D-01              OVMax= 1.68D-01

 Cycle   2  Pass 0  IDiag  1:
 E= -76.3777163260402     Delta-E=       -0.031478035835 Rises=F Damp=T
 DIIS: error= 1.14D-02 at cycle   2 NSaved=   2.
 NSaved= 2 IEnMin= 2 EnMin= -76.3777163260402     IErMin= 2 ErrMin= 1.14D-02
 ErrMax= 1.14D-02  0.00D+00 EMaxC= 1.00D-01 BMatC= 4.83D-03 BMatP= 1.21D-01
 IDIUse=3 WtCom= 8.86D-01 WtEn= 1.14D-01
 Coeff-Com:  0.821D-01 0.918D+00
 Coeff-En:   0.187D+00 0.813D+00
 Coeff:      0.940D-01 0.906D+00
 Gap=     0.457 Goal=   None    Shift=    0.000
 RMSDP=9.39D-04 MaxDP=1.40D-02 DE=-3.15D-02 OVMax= 1.01D-01

 Cycle   3  Pass 0  IDiag  1:
 E= -76.4216748716460     Delta-E=       -0.043958545606 Rises=F Damp=F
 DIIS: error= 2.18D-03 at cycle   3 NSaved=   3.
 NSaved= 3 IEnMin= 3 EnMin= -76.4216748716460     IErMin= 3 ErrMin= 2.18D-03
 ErrMax= 2.18D-03  0.00D+00 EMaxC= 1.00D-01 BMatC= 9.16D-05 BMatP= 4.83D-03
 IDIUse=3 WtCom= 9.78D-01 WtEn= 2.18D-02
 Coeff-Com: -0.200D-01 0.399D-01 0.980D+00
 Coeff-En:   0.000D+00 0.000D+00 0.100D+01
 Coeff:     -0.195D-01 0.390D-01 0.981D+00
 Gap=     0.462 Goal=   None    Shift=    0.000
 RMSDP=1.15D-04 MaxDP=1.02D-03 DE=-4.40D-02 OVMax= 3.31D-03

 Cycle   4  Pass 0  IDiag  1:
 E= -76.4217528492118     Delta-E=       -0.000077977566 Rises=F Damp=F
 DIIS: error= 4.13D-04 at cycle   4 NSaved=   4.
 NSaved= 4 IEnMin= 4 EnMin= -76.4217528492118     IErMin= 4 ErrMin= 4.13D-04
 ErrMax= 4.13D-04  0.00D+00 EMaxC= 1.00D-01 BMatC= 3.31D-06 BMatP= 9.16D-05
 IDIUse=3 WtCom= 9.96D-01 WtEn= 4.13D-03
 Coeff-Com: -0.193D-02-0.216D-02 0.163D+00 0.841D+00
 Coeff-En:   0.000D+00 0.000D+00 0.000D+00 0.100D+01
 Coeff:     -0.192D-02-0.215D-02 0.163D+00 0.841D+00
 Gap=     0.462 Goal=   None    Shift=    0.000
 RMSDP=2.21D-05 MaxDP=3.53D-04 DE=-7.80D-05 OVMax= 5.34D-04

 Cycle   5  Pass 0  IDiag  1:
 E= -76.4217548880359     Delta-E=       -0.000002038824 Rises=F Damp=F
 DIIS: error= 8.92D-05 at cycle   5 NSaved=   5.
 NSaved= 5 IEnMin= 5 EnMin= -76.4217548880359     IErMin= 5 ErrMin= 8.92D-05
 ErrMax= 8.92D-05  0.00D+00 EMaxC= 1.00D-01 BMatC= 8.31D-08 BMatP= 3.31D-06
 IDIUse=1 WtCom= 1.00D+00 WtEn= 0.00D+00
 Coeff-Com:  0.117D-02-0.179D-02-0.365D-01-0.672D-01 0.110D+01
 Coeff:      0.117D-02-0.179D-02-0.365D-01-0.672D-01 0.110D+01
 Gap=     0.463 Goal=   None    Shift=    0.000
 RMSDP=8.98D-06 MaxDP=1.03D-04 DE=-2.04D-06 OVMax= 2.02D-04

 Initial convergence to 1.0D-05 achieved.  Increase integral accuracy.
 Cycle   6  Pass 1  IDiag  1:
 E= -76.4217562442610     Delta-E=       -0.000001356225 Rises=F Damp=F
 DIIS: error= 1.87D-05 at cycle   1 NSaved=   1.
 NSaved= 1 IEnMin= 1 EnMin= -76.4217562442610     IErMin= 1 ErrMin= 1.87D-05
 ErrMax= 1.87D-05  0.00D+00 EMaxC= 1.00D-01 BMatC= 1.57D-08 BMatP= 1.57D-08
 IDIUse=1 WtCom= 1.00D+00 WtEn= 0.00D+00
 Coeff-Com:  0.100D+01
 Coeff:      0.100D+01
 Gap=     0.463 Goal=   None    Shift=    0.000
 RMSDP=8.98D-06 MaxDP=1.03D-04 DE=-1.36D-06 OVMax= 3.96D-05

 Cycle   7  Pass 1  IDiag  1:
 E= -76.4217562555308     Delta-E=       -0.000000011270 Rises=F Damp=F
 DIIS: error= 7.00D-06 at cycle   2 NSaved=   2.
 NSaved= 2 IEnMin= 2 EnMin= -76.4217562555308     IErMin= 2 ErrMin= 7.00D-06
 ErrMax= 7.00D-06  0.00D+00 EMaxC= 1.00D-01 BMatC= 7.39D-10 BMatP= 1.57D-08
 IDIUse=1 WtCom= 1.00D+00 WtEn= 0.00D+00
 Coeff-Com:  0.751D-02 0.992D+00
 Coeff:      0.751D-02 0.992D+00
 Gap=     0.463 Goal=   None    Shift=    0.000
 RMSDP=6.15D-07 MaxDP=9.88D-06 DE=-1.13D-08 OVMax= 1.55D-05

 Cycle   8  Pass 1  IDiag  1:
 E= -76.4217562555966     Delta-E=       -0.000000000066 Rises=F Damp=F
 DIIS: error= 5.83D-06 at cycle   3 NSaved=   3.
 NSaved= 3 IEnMin= 3 EnMin= -76.4217562555966     IErMin= 3 ErrMin= 5.83D-06
 ErrMax= 5.83D-06  0.00D+00 EMaxC= 1.00D-01 BMatC= 7.95D-10 BMatP= 7.39D-10
 IDIUse=1 WtCom= 1.00D+00 WtEn= 0.00D+00
 Coeff-Com: -0.436D-01 0.530D+00 0.513D+00
 Coeff:     -0.436D-01 0.530D+00 0.513D+00
 Gap=     0.463 Goal=   None    Shift=    0.000
 RMSDP=3.12D-07 MaxDP=4.41D-06 DE=-6.58D-11 OVMax= 7.10D-06

 Cycle   9  Pass 1  IDiag  1:
 E= -76.4217562561121     Delta-E=       -0.000000000516 Rises=F Damp=F
 DIIS: error= 4.52D-07 at cycle   4 NSaved=   4.
 NSaved= 4 IEnMin= 4 EnMin= -76.4217562561121     IErMin= 4 ErrMin= 4.52D-07
 ErrMax= 4.52D-07  0.00D+00 EMaxC= 1.00D-01 BMatC= 2.47D-12 BMatP= 7.39D-10
 IDIUse=1 WtCom= 1.00D+00 WtEn= 0.00D+00
 Coeff-Com:  0.122D-02-0.446D-01-0.184D-02 0.105D+01
 Coeff:      0.122D-02-0.446D-01-0.184D-02 0.105D+01
 Gap=     0.463 Goal=   None    Shift=    0.000
 RMSDP=5.30D-08 MaxDP=3.77D-07 DE=-5.16D-10 OVMax= 1.04D-06

 Cycle  10  Pass 1  IDiag  1:
 E= -76.4217562561162     Delta-E=       -0.000000000004 Rises=F Damp=F
 DIIS: error= 5.60D-08 at cycle   5 NSaved=   5.
 NSaved= 5 IEnMin= 5 EnMin= -76.4217562561162     IErMin= 5 ErrMin= 5.60D-08
 ErrMax= 5.60D-08  0.00D+00 EMaxC= 1.00D-01 BMatC= 1.19D-13 BMatP= 2.47D-12
 IDIUse=1 WtCom= 1.00D+00 WtEn= 0.00D+00
 Coeff-Com:  0.204D-02-0.297D-01-0.257D-01 0.909D-01 0.962D+00
 Coeff:      0.204D-02-0.297D-01-0.257D-01 0.909D-01 0.962D+00
 Gap=     0.463 Goal=   None    Shift=    0.000
 RMSDP=1.51D-08 MaxDP=1.21D-07 DE=-4.06D-12 OVMax= 3.21D-07

 Cycle  11  Pass 1  IDiag  1:
 E= -76.4217562561164     Delta-E=       -0.000000000000 Rises=F Damp=F
 DIIS: error= 8.59D-09 at cycle   6 NSaved=   6.
 NSaved= 6 IEnMin= 6 EnMin= -76.4217562561164     IErMin= 6 ErrMin= 8.59D-09
 ErrMax= 8.59D-09  0.00D+00 EMaxC= 1.00D-01 BMatC= 3.49D-15 BMatP= 1.19D-13
 IDIUse=1 WtCom= 1.00D+00 WtEn= 0.00D+00
 Coeff-Com: -0.146D-04 0.185D-02-0.231D-03-0.475D-01 0.687D-03 0.105D+01
 Coeff:     -0.146D-04 0.185D-02-0.231D-03-0.475D-01 0.687D-03 0.105D+01
 Gap=     0.463 Goal=   None    Shift=    0.000
 RMSDP=2.87D-09 MaxDP=2.25D-08 DE=-2.56D-13 OVMax= 6.20D-08

 SCF Done:  E(RM062X) =  -76.4217562561     A.U. after   11 cycles
            NFock= 11  Conv=0.29D-08     -V/T= 2.0030
 KE= 7.619580536726D+01 PE=-1.990606917183D+02 EE= 3.733875426921D+01
 Leave Link  502 at Sun Feb 19 11:52:03 2023, MaxMem=  6710886400 cpu:               8.6 elap:               0.4
 (Enter /data0/home/software/g16/l601.exe)
 Copying SCF densities to generalized density rwf, IOpCl= 0 IROHF=0.

 **********************************************************************

            Population analysis using the SCF density.

 **********************************************************************

 Alpha  occ. eigenvalues --  -19.62587  -1.13334  -0.60816  -0.47450  -0.39978
 Alpha virt. eigenvalues --    0.06276   0.13324   0.17393   0.17948   0.18940
 Alpha virt. eigenvalues --    0.23261   0.51099   0.53479   0.97881   1.00233
 Alpha virt. eigenvalues --    1.06039   1.18693   1.19865   1.32489   1.33871
 Alpha virt. eigenvalues --    1.69537   1.74081   1.75789   2.07617   2.09396
 Alpha virt. eigenvalues --    2.35321   2.42109   2.54357   2.88439   3.01170
 Alpha virt. eigenvalues --    5.05684   5.47735   5.92746   6.78254   6.80286
 Alpha virt. eigenvalues --    6.87075   6.91475   7.09575  49.95856
          Condensed to atoms (all electrons):
               1          2          3
     1  O    7.915705   0.319178   0.322645
     2  H    0.319178   0.424966  -0.024466
     3  H    0.322645  -0.024466   0.424614
 Mulliken charges:
               1
     1  O   -0.557529
     2  H    0.280322
     3  H    0.277207
     4  O    0.000000
     5  H    0.000000
     6  H    0.000000
 Sum of Mulliken charges =  -0.00000
 Mulliken charges with hydrogens summed into heavy atoms:
               1
     1  O   -0.000000
     4  O    0.000000
         Mulliken charges condensed to fragments:
      1     -0.000000
      2      0.000000
 Electronic spatial extent (au):  <R**2>=          13355.9159
 Charge=              0.0000 electrons
 Dipole moment (field-independent basis, Debye):
    X=             -2.0536    Y=             -0.0316    Z=             -0.4912  Tot=              2.1117
 Quadrupole moment (field-independent basis, Debye-Ang):
   XX=            -45.5731   YY=             -5.7922   ZZ=             -8.3980
   XY=            -35.0053   XZ=             -6.6982   YZ=             -7.2627
 Traceless Quadrupole moment (field-independent basis, Debye-Ang):
   XX=            -25.6520   YY=             14.1289   ZZ=             11.5231
   XY=            -35.0053   XZ=             -6.6982   YZ=             -7.2627
 Octapole moment (field-independent basis, Debye-Ang**2):
  XXX=           -744.9089  YYY=           -264.5147  ZZZ=            -25.8167  XYY=           -642.9217
  XXY=           -771.8861  XXZ=            -90.0805  XZZ=            -82.4975  YZZ=           -138.7007
  YYZ=           -110.9056  XYZ=           -103.5960
 Hexadecapole moment (field-independent basis, Debye-Ang**3):
 XXXX=         -10679.2725 YYYY=          -8572.8862 ZZZZ=            -62.5352 XXXY=         -12583.0563
 XXXZ=          -1177.2093 YYYX=         -12494.4843 YYYZ=          -1768.1237 ZZZX=           -249.5710
 ZZZY=           -429.5243 XXYY=         -13528.5569 XXZZ=           -819.8579 YYZZ=          -2298.8684
 XXYZ=          -1432.2673 YYXZ=          -1644.1465 ZZXY=          -1363.9348
 N-N= 9.104375825765D+00 E-N=-1.990606916769D+02  KE= 7.619580536726D+01
 No NMR shielding tensors so no spin-rotation constants.
 Leave Link  601 at Sun Feb 19 11:52:03 2023, MaxMem=  6710886400 cpu:               1.8 elap:               0.1
 (Enter /data0/home/software/g16/l122.exe)
 CPIOFr:  IOpCl= 0 IRwI=-1 IRwCP=  731 ICalc=  3 LCPTot=       10496 Len1MO=       26312 IndFrg=      115744
 Counterpoise: doing calculation for fragment   2 using the basis set of the fragment.
 Leave Link  122 at Sun Feb 19 11:52:03 2023, MaxMem=  6710886400 cpu:               0.1 elap:               0.0
 (Enter /data0/home/software/g16/l301.exe)
 Basis read from rwf:  (5D, 7F)
 No pseudopotential information found on rwf file.
    39 basis functions,    58 primitive gaussians,    41 cartesian basis functions
     5 alpha electrons        5 beta electrons
       nuclear repulsion energy         9.1182791136 Hartrees.
 IExCor= 4336 DFT=T Ex+Corr=M062X ExCW=0 ScaHFX=  0.540000
 ScaDFX=  1.000000  1.000000  1.000000  1.000000 ScalE2=  1.000000  1.000000
 IRadAn=      5 IRanWt=     -1 IRanGd=            0 ICorTp=0 IEmpDi=131
 NAtoms=    6 NActive=    3 NUniq=    3 SFac= 1.00D+00 NAtFMM=   60 NAOKFM=F Big=F
 Integral buffers will be    131072 words long.
 Raffenetti 2 integral format.
 Two-electron integral symmetry is turned off.
 R6Disp:  Grimme-D3 Dispersion energy=       -0.0000000075 Hartrees.
 Nuclear repulsion after empirical dispersion term =        9.1182791061 Hartrees.
 No density basis found on file   718.
 Leave Link  301 at Sun Feb 19 11:52:03 2023, MaxMem=  6710886400 cpu:               1.3 elap:               0.1
 (Enter /data0/home/software/g16/l302.exe)
 NPDir=0 NMtPBC=     1 NCelOv=     1 NCel=       1 NClECP=     1 NCelD=      1
         NCelK=      1 NCelE2=     1 NClLst=     1 CellRange=     0.0.
 One-electron integrals computed using PRISM.
 NBasis=    39 RedAO= T EigKep=  3.01D-03  NBF=    39
 NBsUse=    39 1.00D-06 EigRej= -1.00D+00 NBFU=    39
 Precomputing XC quadrature grid using
 IXCGrd= 4 IRadAn=           5 IRanWt=          -1 IRanGd=           0 AccXCQ= 0.00D+00.
 Generated NRdTot=       0 NPtTot=           0 NUsed=           0 NTot=          32
 NSgBfM=    41    41    41    41    41 MxSgAt=     3 MxSgA2=     3.
 Leave Link  302 at Sun Feb 19 11:52:03 2023, MaxMem=  6710886400 cpu:               2.3 elap:               0.1
 (Enter /data0/home/software/g16/l303.exe)
 DipDrv:  MaxL=1.
 Leave Link  303 at Sun Feb 19 11:52:03 2023, MaxMem=  6710886400 cpu:               0.4 elap:               0.0
 (Enter /data0/home/software/g16/l401.exe)
 ExpMin= 8.45D-02 ExpMax= 8.59D+03 ExpMxC= 1.30D+03 IAcc=3 IRadAn=         5 AccDes= 0.00D+00
 Harris functional with IExCor= 1009 and IRadAn=       5 diagonalized for initial guess.
 HarFok:  IExCor= 1009 AccDes= 0.00D+00 IRadAn=         5 IDoV= 1 UseB2=F ITyADJ=14
 ICtDFT=  3500011 ScaDFX=  1.000000  1.000000  1.000000  1.000000
 FoFCou: FMM=F IPFlag=           0 FMFlag=      100000 FMFlg1=           0
         NFxFlg=           0 DoJE=T BraDBF=F KetDBF=T FulRan=T
         wScrn=  0.000000 ICntrl=       500 IOpCl=  0 I1Cent=   200000004 NGrid=           0
         NMat0=    1 NMatS0=      1 NMatT0=    0 NMatD0=    1 NMtDS0=    0 NMtDT0=    0
 Symmetry not used in FoFCou.
 Harris En= -76.4166722271278    
 JPrj=0 DoOrth=F DoCkMO=F.
 Leave Link  401 at Sun Feb 19 11:52:04 2023, MaxMem=  6710886400 cpu:               2.9 elap:               0.1
 (Enter /data0/home/software/g16/l502.exe)
 Keep R1 ints in memory in canonical form, NReq=21036027.
 FoFCou: FMM=F IPFlag=           0 FMFlag=           0 FMFlg1=           0
         NFxFlg=           0 DoJE=F BraDBF=F KetDBF=F FulRan=T
         wScrn=  0.000000 ICntrl=       600 IOpCl=  0 I1Cent=           0 NGrid=           0
         NMat0=    1 NMatS0=    780 NMatT0=    0 NMatD0=    1 NMtDS0=    0 NMtDT0=    0
 Symmetry not used in FoFCou.
 Two-electron integral symmetry not used.
 Closed shell SCF:
 Using DIIS extrapolation, IDIIS=  1040.
 NGot=  6710886400 LenX=  6710576925 LenY=  6710574803
 Requested convergence on RMS density matrix=1.00D-08 within 128 cycles.
 Requested convergence on MAX density matrix=1.00D-06.
 Requested convergence on             energy=1.00D-06.
 No special actions if energy rises.
 Integral accuracy reduced to 1.0D-05 until final iterations.

 Cycle   1  Pass 0  IDiag  1:
 E= -76.3462908523768    
 DIIS: error= 7.03D-02 at cycle   1 NSaved=   1.
 NSaved= 1 IEnMin= 1 EnMin= -76.3462908523768     IErMin= 1 ErrMin= 7.03D-02
 ErrMax= 7.03D-02  0.00D+00 EMaxC= 1.00D-01 BMatC= 1.21D-01 BMatP= 1.21D-01
 IDIUse=3 WtCom= 2.97D-01 WtEn= 7.03D-01
 Coeff-Com:  0.100D+01
 Coeff-En:   0.100D+01
 Coeff:      0.100D+01
 Gap=     0.325 Goal=   None    Shift=    0.000
 GapD=    0.325 DampG=1.000 DampE=0.500 DampFc=0.5000 IDamp=-1.
 Damping current iteration by 5.00D-01
 RMSDP=7.92D-03 MaxDP=1.01D-01              OVMax= 1.68D-01

 Cycle   2  Pass 0  IDiag  1:
 E= -76.3778266551903     Delta-E=       -0.031535802814 Rises=F Damp=T
 DIIS: error= 1.15D-02 at cycle   2 NSaved=   2.
 NSaved= 2 IEnMin= 2 EnMin= -76.3778266551903     IErMin= 2 ErrMin= 1.15D-02
 ErrMax= 1.15D-02  0.00D+00 EMaxC= 1.00D-01 BMatC= 4.81D-03 BMatP= 1.21D-01
 IDIUse=3 WtCom= 8.85D-01 WtEn= 1.15D-01
 Coeff-Com:  0.815D-01 0.918D+00
 Coeff-En:   0.186D+00 0.814D+00
 Coeff:      0.935D-01 0.906D+00
 Gap=     0.458 Goal=   None    Shift=    0.000
 RMSDP=9.39D-04 MaxDP=1.39D-02 DE=-3.15D-02 OVMax= 1.00D-01

 Cycle   3  Pass 0  IDiag  1:
 E= -76.4217672871459     Delta-E=       -0.043940631956 Rises=F Damp=F
 DIIS: error= 2.16D-03 at cycle   3 NSaved=   3.
 NSaved= 3 IEnMin= 3 EnMin= -76.4217672871459     IErMin= 3 ErrMin= 2.16D-03
 ErrMax= 2.16D-03  0.00D+00 EMaxC= 1.00D-01 BMatC= 9.04D-05 BMatP= 4.81D-03
 IDIUse=3 WtCom= 9.78D-01 WtEn= 2.16D-02
 Coeff-Com: -0.199D-01 0.392D-01 0.981D+00
 Coeff-En:   0.000D+00 0.000D+00 0.100D+01
 Coeff:     -0.195D-01 0.384D-01 0.981D+00
 Gap=     0.462 Goal=   None    Shift=    0.000
 RMSDP=1.14D-04 MaxDP=9.82D-04 DE=-4.39D-02 OVMax= 3.30D-03

 Cycle   4  Pass 0  IDiag  1:
 E= -76.4218442993212     Delta-E=       -0.000077012175 Rises=F Damp=F
 DIIS: error= 4.10D-04 at cycle   4 NSaved=   4.
 NSaved= 4 IEnMin= 4 EnMin= -76.4218442993212     IErMin= 4 ErrMin= 4.10D-04
 ErrMax= 4.10D-04  0.00D+00 EMaxC= 1.00D-01 BMatC= 3.25D-06 BMatP= 9.04D-05
 IDIUse=3 WtCom= 9.96D-01 WtEn= 4.10D-03
 Coeff-Com: -0.187D-02-0.222D-02 0.162D+00 0.842D+00
 Coeff-En:   0.000D+00 0.000D+00 0.000D+00 0.100D+01
 Coeff:     -0.186D-02-0.221D-02 0.161D+00 0.843D+00
 Gap=     0.463 Goal=   None    Shift=    0.000
 RMSDP=2.20D-05 MaxDP=3.53D-04 DE=-7.70D-05 OVMax= 5.31D-04

 Cycle   5  Pass 0  IDiag  1:
 E= -76.4218463026535     Delta-E=       -0.000002003332 Rises=F Damp=F
 DIIS: error= 8.79D-05 at cycle   5 NSaved=   5.
 NSaved= 5 IEnMin= 5 EnMin= -76.4218463026535     IErMin= 5 ErrMin= 8.79D-05
 ErrMax= 8.79D-05  0.00D+00 EMaxC= 1.00D-01 BMatC= 8.15D-08 BMatP= 3.25D-06
 IDIUse=1 WtCom= 1.00D+00 WtEn= 0.00D+00
 Coeff-Com:  0.117D-02-0.178D-02-0.364D-01-0.638D-01 0.110D+01
 Coeff:      0.117D-02-0.178D-02-0.364D-01-0.638D-01 0.110D+01
 Gap=     0.463 Goal=   None    Shift=    0.000
 RMSDP=8.88D-06 MaxDP=1.02D-04 DE=-2.00D-06 OVMax= 1.99D-04

 Initial convergence to 1.0D-05 achieved.  Increase integral accuracy.
 Cycle   6  Pass 1  IDiag  1:
 E= -76.4218415686488     Delta-E=        0.000004734005 Rises=F Damp=F
 DIIS: error= 1.89D-05 at cycle   1 NSaved=   1.
 NSaved= 1 IEnMin= 1 EnMin= -76.4218415686488     IErMin= 1 ErrMin= 1.89D-05
 ErrMax= 1.89D-05  0.00D+00 EMaxC= 1.00D-01 BMatC= 1.75D-08 BMatP= 1.75D-08
 IDIUse=1 WtCom= 1.00D+00 WtEn= 0.00D+00
 Coeff-Com:  0.100D+01
 Coeff:      0.100D+01
 Gap=     0.463 Goal=   None    Shift=    0.000
 RMSDP=8.88D-06 MaxDP=1.02D-04 DE= 4.73D-06 OVMax= 4.58D-05

 Cycle   7  Pass 1  IDiag  1:
 E= -76.4218415839259     Delta-E=       -0.000000015277 Rises=F Damp=F
 DIIS: error= 1.21D-05 at cycle   2 NSaved=   2.
 NSaved= 2 IEnMin= 2 EnMin= -76.4218415839259     IErMin= 2 ErrMin= 1.21D-05
 ErrMax= 1.21D-05  0.00D+00 EMaxC= 1.00D-01 BMatC= 2.05D-09 BMatP= 1.75D-08
 IDIUse=1 WtCom= 1.00D+00 WtEn= 0.00D+00
 Coeff-Com:  0.106D+00 0.894D+00
 Coeff:      0.106D+00 0.894D+00
 Gap=     0.463 Goal=   None    Shift=    0.000
 RMSDP=9.90D-07 MaxDP=1.39D-05 DE=-1.53D-08 OVMax= 2.55D-05

 Cycle   8  Pass 1  IDiag  1:
 E= -76.4218415844584     Delta-E=       -0.000000000532 Rises=F Damp=F
 DIIS: error= 7.98D-06 at cycle   3 NSaved=   3.
 NSaved= 3 IEnMin= 3 EnMin= -76.4218415844584     IErMin= 3 ErrMin= 7.98D-06
 ErrMax= 7.98D-06  0.00D+00 EMaxC= 1.00D-01 BMatC= 1.69D-09 BMatP= 2.05D-09
 IDIUse=1 WtCom= 1.00D+00 WtEn= 0.00D+00
 Coeff-Com: -0.534D-01 0.487D+00 0.567D+00
 Coeff:     -0.534D-01 0.487D+00 0.567D+00
 Gap=     0.463 Goal=   None    Shift=    0.000
 RMSDP=4.78D-07 MaxDP=6.35D-06 DE=-5.32D-10 OVMax= 1.05D-05

 Cycle   9  Pass 1  IDiag  1:
 E= -76.4218415855739     Delta-E=       -0.000000001116 Rises=F Damp=F
 DIIS: error= 5.93D-07 at cycle   4 NSaved=   4.
 NSaved= 4 IEnMin= 4 EnMin= -76.4218415855739     IErMin= 4 ErrMin= 5.93D-07
 ErrMax= 5.93D-07  0.00D+00 EMaxC= 1.00D-01 BMatC= 4.75D-12 BMatP= 1.69D-09
 IDIUse=1 WtCom= 1.00D+00 WtEn= 0.00D+00
 Coeff-Com:  0.149D-02-0.609D-01-0.486D-01 0.111D+01
 Coeff:      0.149D-02-0.609D-01-0.486D-01 0.111D+01
 Gap=     0.463 Goal=   None    Shift=    0.000
 RMSDP=1.09D-07 MaxDP=6.97D-07 DE=-1.12D-09 OVMax= 2.01D-06

 Cycle  10  Pass 1  IDiag  1:
 E= -76.4218415855834     Delta-E=       -0.000000000009 Rises=F Damp=F
 DIIS: error= 7.85D-08 at cycle   5 NSaved=   5.
 NSaved= 5 IEnMin= 5 EnMin= -76.4218415855834     IErMin= 5 ErrMin= 7.85D-08
 ErrMax= 7.85D-08  0.00D+00 EMaxC= 1.00D-01 BMatC= 2.83D-13 BMatP= 4.75D-12
 IDIUse=1 WtCom= 1.00D+00 WtEn= 0.00D+00
 Coeff-Com:  0.283D-02-0.333D-01-0.346D-01 0.160D+00 0.905D+00
 Coeff:      0.283D-02-0.333D-01-0.346D-01 0.160D+00 0.905D+00
 Gap=     0.463 Goal=   None    Shift=    0.000
 RMSDP=2.74D-08 MaxDP=2.10D-07 DE=-9.42D-12 OVMax= 4.61D-07

 Cycle  11  Pass 1  IDiag  1:
 E= -76.4218415855838     Delta-E=       -0.000000000000 Rises=F Damp=F
 DIIS: error= 1.60D-08 at cycle   6 NSaved=   6.
 NSaved= 6 IEnMin= 6 EnMin= -76.4218415855838     IErMin= 6 ErrMin= 1.60D-08
 ErrMax= 1.60D-08  0.00D+00 EMaxC= 1.00D-01 BMatC= 7.41D-15 BMatP= 2.83D-13
 IDIUse=1 WtCom= 1.00D+00 WtEn= 0.00D+00
 Coeff-Com:  0.921D-04 0.429D-03 0.246D-03-0.345D-01-0.999D-02 0.104D+01
 Coeff:      0.921D-04 0.429D-03 0.246D-03-0.345D-01-0.999D-02 0.104D+01
 Gap=     0.463 Goal=   None    Shift=    0.000
 RMSDP=6.10D-09 MaxDP=4.91D-08 DE=-4.12D-13 OVMax= 1.22D-07

 SCF Done:  E(RM062X) =  -76.4218415856     A.U. after   11 cycles
            NFock= 11  Conv=0.61D-08     -V/T= 2.0029
 KE= 7.620156696229D+01 PE=-1.990897891686D+02 EE= 3.734810151462D+01
 Leave Link  502 at Sun Feb 19 11:52:04 2023, MaxMem=  6710886400 cpu:               8.8 elap:               0.4
 (Enter /data0/home/software/g16/l601.exe)
 Copying SCF densities to generalized density rwf, IOpCl= 0 IROHF=0.

 **********************************************************************

            Population analysis using the SCF density.

 **********************************************************************

 Alpha  occ. eigenvalues --  -19.62589  -1.13433  -0.60773  -0.47574  -0.40003
 Alpha virt. eigenvalues --    0.06296   0.13351   0.17396   0.17943   0.18928
 Alpha virt. eigenvalues --    0.23301   0.51214   0.53564   0.97930   1.00192
 Alpha virt. eigenvalues --    1.06031   1.18262   1.20028   1.32315   1.33813
 Alpha virt. eigenvalues --    1.70036   1.74268   1.75696   2.07849   2.09462
 Alpha virt. eigenvalues --    2.35893   2.41256   2.54635   2.88530   3.01507
 Alpha virt. eigenvalues --    5.05681   5.48463   5.92804   6.78333   6.80174
 Alpha virt. eigenvalues --    6.87197   6.91517   7.09384  49.95951
          Condensed to atoms (all electrons):
               4          5          6
     4  O    7.914691   0.318973   0.321645
     5  H    0.318973   0.426548  -0.024376
     6  H    0.321645  -0.024376   0.426278
 Mulliken charges:
               1
     1  O    0.000000
     2  H    0.000000
     3  H    0.000000
     4  O   -0.555308
     5  H    0.278855
     6  H    0.276453
 Sum of Mulliken charges =   0.00000
 Mulliken charges with hydrogens summed into heavy atoms:
               1
     1  O    0.000000
     4  O    0.000000
         Mulliken charges condensed to fragments:
      1      0.000000
      2      0.000000
 Electronic spatial extent (au):  <R**2>=          14626.2018
 Charge=              0.0000 electrons
 Dipole moment (field-independent basis, Debye):
    X=              0.3287    Y=              0.3828    Z=              2.0585  Tot=              2.1195
 Quadrupole moment (field-independent basis, Debye-Ang):
   XX=             -1.9978   YY=              9.0647   ZZ=              1.5952
   XY=             10.3741   XZ=             16.3329   YZ=             38.5980
 Traceless Quadrupole moment (field-independent basis, Debye-Ang):
   XX=             -4.8852   YY=              6.1773   ZZ=             -1.2922
   XY=             10.3741   XZ=             16.3329   YZ=             38.5980
 Octapole moment (field-independent basis, Debye-Ang**2):
  XXX=           -104.3621  YYY=            108.8481  ZZZ=            -11.7046  XYY=            232.6937
  XXY=              5.8532  XXZ=            116.5797  XZZ=             12.8200  YZZ=             29.0630
  YYZ=            714.8658  XYZ=            309.0010
 Hexadecapole moment (field-independent basis, Debye-Ang**3):
 XXXX=          -1910.6852 YYYY=           -871.1478 ZZZZ=            -74.4972 XXXY=          -1530.5078
 XXXZ=            728.1445 YYYX=           4335.6702 YYYZ=          13076.3981 ZZZX=            -90.1925
 ZZZY=           -222.1947 XXYY=            605.2681 XXZZ=             76.8665 YYZZ=            512.2833
 XXYZ=           2230.4933 YYXZ=           5777.1239 ZZXY=            239.9470
 N-N= 9.118279106086D+00 E-N=-1.990897892667D+02  KE= 7.620156696229D+01
 No NMR shielding tensors so no spin-rotation constants.
 Leave Link  601 at Sun Feb 19 11:52:04 2023, MaxMem=  6710886400 cpu:               1.8 elap:               0.1
 (Enter /data0/home/software/g16/l122.exe)
 CPIOFr:  IOpCl= 0 IRwI=-1 IRwCP=  731 ICalc=  4 LCPTot=       10496 Len1MO=       26312 IndFrg=      142056
 Restoring MOs from calculation   1 to rwf.
 CPIOFr:  IOpCl= 0 IRwI=-2 IRwCP=  731 ICalc=  0 LCPTot=       10496 Len1MO=       26312 IndFrg=       36808
 Counterpoise corrected energy =    -152.850584102489
                   BSSE energy =       0.001081037358
              sum of fragments =    -152.843597841700
           complexation energy =      -5.06 kcal/mole (raw)
           complexation energy =      -4.38 kcal/mole (corrected)
 Leave Link  122 at Sun Feb 19 11:52:04 2023, MaxMem=  6710886400 cpu:               0.1 elap:               0.0
 (Enter /data0/home/software/g16/l9999.exe)
 1\1\GINC-LOCALHOST\SP\RM062X\6-311+G(2d,p)\H4O2\WUHANYU\19-Feb-2023\0\
 \#p M062X/6-311+G(2d,p) nosymm em=GD3 counterpoise=2\\Title Card Requi
 red\\0,1\O,0,9.648108,16.750654,1.105737\H,0,8.99144,17.467037,1.20730
 7\H,0,9.152977,16.023055,0.730977\O,0,7.683302,18.597301,1.789101\H,0,
 7.441129,18.044428,2.55279\H,0,8.107622,19.360382,2.182124\\Version=ES
 64L-G16RevA.03\HF=-76.4218416\RMSD=6.100e-09\Dipole=-0.8438361,0.33008
 77,0.6949288\Quadrupole=-30.7830421,25.2432485,5.5397936,-20.5878618,7
 .9217484,26.5004626\PG=C01 [X(H4O2)]\\@


 IF YOU BELIEVE CERTAIN WORDS, YOU BELIEVE THEIR HIDDEN ARGUMENTS.
 WHEN YOU BELIEVE SOMETHING IS RIGHT OR WRONG, TRUE OR FALSE, 
 YOU BELIEVE THE ASSUMPTIONS IN THE WORDS WHICH EXPRESS THE ARGUMENTS.
 SUCH ASSUMPTIONS ARE OFTEN FULL OF HOLES, BUT REMAIN MOST PRECIOUS 
 TO THE CONVINCED.

                 -- THE OPEN-ENDED PROOF FROM THE PANOPLIA PROPHETICA
                    CHILDREN OF DUNE BY FRANK HERBERT
 Job cpu time:       0 days  0 hours  2 minutes  8.0 seconds.
 Elapsed time:       0 days  0 hours  0 minutes  6.2 seconds.
 File lengths (MBytes):  RWF=     10 Int=      0 D2E=      0 Chk=      3 Scr=      1
 Normal termination of Gaussian 16 at Sun Feb 19 11:52:04 2023.
