          17
 G =       -0.303575 Gcorr = 0.067458 a.u. Nimag =   0 Frame:     1 Step:     1 Geom:     1
C           6.50176100     15.72024800     12.35302900
C           7.74370100     15.07787200     12.37430600
C           6.45585300     14.00053100     13.78801700
N           5.69768700     15.04479700     13.26470500
H           4.69794400     15.18542700     13.38735400
H           6.15578000     16.55849500     11.78877700
H           8.63834500     15.30283200     11.83030500
H           6.08620800     13.29957600     14.51508300
N           7.69636300     14.01773600     13.26392700
P           3.34864800     13.09723000     11.71572800
O           3.27881700     14.23445300     12.63205200
O           4.63872600     13.02275800     10.79085500
H           5.47408100     13.02209800     11.40328200
O           3.33692000     11.65921600     12.39476400
H           2.42790600     11.54291200     12.86732600
O           2.16554100     12.97548900     10.65959800
H           2.14572200     13.84833600     10.11089800
          17
 G =       -0.305961 Gcorr = 0.066673 a.u. Nimag =   0 Frame:     2 Step:     2 Geom:     2
C           6.47367200     15.74211700     12.66427700
C           7.33748200     14.68829600     12.36592200
C           6.13593000     14.04090100     14.09019200
N           5.72641600     15.33440100     13.76853400
H           4.92297400     15.80909100     14.12219700
H           6.32648500     16.68692100     12.18638800
H           8.08434200     14.60991700     11.60235700
H           5.71376300     13.46016900     14.89189000
N           7.10984200     13.64231200     13.25166400
P           3.57427900     13.37385500     11.73293500
O           3.67135300     14.81951900     11.84000400
O           4.84659600     12.57162700     11.20593300
H           5.68349500     12.83757300     11.75243800
O           3.19593700     12.73089500     13.13983800
H           2.97396900     11.73752400     13.01029100
O           2.44761600     12.76587400     10.77806700
H           2.77584900     12.84901800      9.80707800
          17
 G =       -0.305975 Gcorr = 0.066659 a.u. Nimag =   0 Frame:     3 Step:     3 Geom:     3
C           6.35866200     15.81385800     12.49200100
C           7.27374000     14.86633600     12.03313000
C           6.34327800     14.01385400     13.83409400
N           5.78412200     15.27688800     13.64333300
H           4.98746600     15.65173200     14.11318400
H           6.07242400     16.76418400     12.09497400
H           7.93124100     14.90189400     11.18849600
H           6.07088700     13.35269500     14.63837700
N           7.24556400     13.75719900     12.86946300
P           3.59660100     13.22838000     11.73655700
O           3.57337100     14.66871200     11.92568100
O           4.86651900     12.58426500     11.02061900
H           5.73368800     12.90050000     11.48733100
O           3.44519900     12.47652500     13.13214900
H           3.30089400     11.47466600     12.96402200
O           2.42634200     12.56547000     10.87528400
H           2.63000200     12.73285300      9.88131600
          17
 G =       -0.306001 Gcorr = 0.066633 a.u. Nimag =   0 Frame:     4 Step:     4 Geom:     4
C           6.62298300     15.65859900     12.36364200
C           7.46751200     14.55931200     12.20870500
C           6.14773300     14.09765800     13.90607300
N           5.80016000     15.36920000     13.45139900
H           4.99368300     15.89492600     13.71423600
H           6.53475100     16.56209400     11.79916000
H           8.25418500     14.39409000     11.50102500
H           5.66086900     13.60058300     14.72707600
N           7.15484000     13.60091000     13.16484100
P           3.70657100     13.29909900     11.46403600
O           3.84419100     14.74539600     11.45348900
O           4.98040200     12.41965400     11.08445100
H           5.79261700     12.70866600     11.65582000
O           3.22725700     12.79103400     12.89515100
H           2.98096000     11.79661100     12.83716400
O           2.61754900     12.64162200     10.49833400
H           3.00373900     12.63055700      9.54541300
          17
 G =       -0.304057 Gcorr = 0.068032 a.u. Nimag =   0 Frame:     5 Step:     5 Geom:     5
C           7.56731100     15.57019000     13.45895000
C           6.69133300     14.70536300     12.80314300
C           5.45025500     16.00434700     14.07759400
N           6.77599200     16.39182100     14.26598500
H           7.11140800     17.11498800     14.85982200
H           8.63154300     15.65622600     13.41325000
H           6.89609600     13.91947400     12.09260100
H           4.61166200     16.46212300     14.57201600
N           5.39341400     14.99001100     13.19875500
P           3.83419700     12.49703300     10.88317800
O           5.25069400     12.17339900     10.83411300
O           3.28938700     13.38460100     12.08276900
H           4.05858000     14.00097500     12.45969400
O           3.36042300     13.22755200      9.55135000
H           2.35032000     13.40163400      9.61319400
O           2.80704700     11.26705500     10.94068900
H           2.64034200     11.03322900     11.92290600
          17
 G =       -0.305232 Gcorr = 0.068319 a.u. Nimag =   0 Frame:     6 Step:     6 Geom:     6
C           6.71387300     15.49839000     12.18883600
C           5.54417100     16.21385600     12.44071200
C           5.67449800     14.66375300     13.99610800
N           6.80081100     14.52721100     13.18760700
H           7.43861600     13.76031900     13.19047500
H           7.44007700     15.59162900     11.41098100
H           5.12347500     17.04695500     11.91565600
H           5.45960900     14.02601000     14.83676800
N           4.90916000     15.68075100     13.55671900
P           4.28738800     12.65688000     11.45660700
O           5.19981700     12.24976600     12.51537100
O           3.17814400     13.74295200     11.81527800
H           3.57181800     14.45077000     12.46516200
O           5.08207000     13.22645600     10.20332100
H           4.41310500     13.41709300      9.44514400
O           3.37935500     11.53498000     10.77222700
H           2.63401400     11.28224400     11.43304200
          17
 G =       -0.305241 Gcorr = 0.068537 a.u. Nimag =   0 Frame:     7 Step:     7 Geom:     7
C           6.79408800     16.84323600     13.46708800
C           5.60657500     16.65044900     12.76316900
C           6.38360400     14.64358200     13.23388900
N           7.28350200     15.56814500     13.76356500
H           8.12192600     15.37384700     14.26143100
H           7.29653400     17.73922500     13.76102600
H           4.92487800     17.37086300     12.35509700
H           6.50242800     13.56949000     13.30853000
N           5.37230100     15.28931500     12.63090800
P           3.87152400     12.14489900     11.46423600
O           4.87726400     11.76453200     12.44503900
O           3.33435500     13.63853200     11.46349500
H           4.07455300     14.29395900     11.83877900
O           4.37527400     11.85496300      9.98330600
H           3.62629300     12.10832100      9.32709100
O           2.49023300     11.33272300     11.48468300
H           1.86466900     11.78392600     12.15867800
          17
 G =       -0.304252 Gcorr = 0.068830 a.u. Nimag =   0 Frame:     8 Step:     8 Geom:     8
C           6.99935300     16.61192400     13.44719400
C           5.74905800     16.11659900     13.81467700
C           6.38054700     14.96373500     12.04719900
N           7.39617300     15.87822900     12.32584400
H           8.25002100     15.99815000     11.83126800
H           7.60001600     17.38538400     13.87513900
H           5.10403600     16.40685600     14.62163700
H           6.40642000     14.25503900     11.23144300
N           5.38697000     15.10368600     12.93929100
P           3.54364800     12.01281900     11.91069100
O           3.71665700     10.96447900     12.90081100
O           3.13256500     13.47393900     12.34687900
H           3.98052700     13.96981600     12.75744900
O           4.83484400     12.32415700     10.99511300
H           5.29273300     11.45372300     10.75215000
O           2.40012400     11.64121600     10.86413400
H           2.18631100     12.47025900     10.29908700
          17
 G =       -0.305217 Gcorr = 0.068333 a.u. Nimag =   0 Frame:     9 Step:     9 Geom:     9
C           6.78924800     14.82436100     13.51033100
C           7.37590100     14.42585400     12.31004200
C           5.74777300     15.80705200     11.78038400
N           5.76807600     15.71310000     13.17017600
H           5.06477300     16.04725700     13.79359000
H           6.99886700     14.54672000     14.52031200
H           8.19852700     13.76276900     12.13585700
H           5.04036300     16.40424300     11.23034000
N           6.71581200     15.03612100     11.24954800
P           3.78821600     12.90670900     12.16115300
O           3.39947700     14.28422600     12.42679200
O           4.73990000     12.63609000     10.91214200
H           5.43902200     13.39889700     10.82694800
O           4.51084300     12.26279200     13.42215200
H           4.68787900     11.26757500     13.23083700
O           2.63394400     11.83944400     11.87822100
H           2.27138200     12.00680000     10.93118500
          17
 G =       -0.305398 Gcorr = 0.067648 a.u. Nimag =   0 Frame:    10 Step:    10 Geom:    10
C           6.76749500     15.20007500     11.68087100
C           7.75123500     14.71840900     12.54932000
C           5.93564000     14.99602800     13.75192700
N           5.62610700     15.39340600     12.45385900
H           4.70327200     15.61748900     12.09158300
H           6.79723200     15.41228800     10.63438500
H           8.77281200     14.46445300     12.35141100
H           5.23282500     15.01654000     14.56638400
N           7.21979000     14.59742600     13.82271300
P           3.43544400     12.95084300     11.62342000
O           3.42653400     14.39794400     11.42991800
O           4.84572200     12.22397700     11.45558400
H           5.58117500     12.79834900     11.88462500
O           2.89482000     12.55683200     13.05961900
H           2.83268400     11.52842700     13.11834200
O           2.52948400     12.05762900     10.66706500
H           2.84773200     12.20990000      9.69898600
          17
 G =       -0.304813 Gcorr = 0.069183 a.u. Nimag =   0 Frame:    11 Step:    11 Geom:    11
C           7.74930200     15.51644500     12.10136200
C           6.65689300     15.40180800     11.24336200
C           5.95001400     14.79044000     13.23856700
N           7.29630500     15.12782300     13.36512700
H           7.84776400     15.10191900     14.19256300
H           8.75530100     15.82821400     11.91771800
H           6.58277400     15.60372000     10.19168600
H           5.32940700     14.44287300     14.05350700
N           5.55860300     14.95407300     11.96336500
P           3.04677600     12.54973000     11.87139300
O           1.85266700     11.73683500     11.70962200
O           2.90285300     14.03723000     11.36705800
H           3.80035500     14.56444600     11.55325900
O           3.60660400     12.75717800     13.37293900
H           3.08080700     12.17779300     14.01422600
O           4.31819000     11.91433900     11.14881200
H           5.14538700     12.48514900     11.34544500
          17
 G =       -0.305218 Gcorr = 0.068332 a.u. Nimag =   0 Frame:    12 Step:    12 Geom:    12
C           5.95058500     15.84799200     12.83185900
C           6.45744800     14.89391900     13.71295200
C           6.99458400     14.22137900     11.68846400
N           6.30813500     15.42571100     11.55036800
H           5.95732600     15.80973600     10.69930900
H           5.38227200     16.73502700     13.00872500
H           6.41123500     14.85463500     14.78206300
H           7.36947800     13.64667400     10.85850600
N           7.09330400     13.89082300     12.99010700
P           3.70595800     12.97009300     11.73577900
O           4.45635500     13.45933200     10.58828400
O           4.50401300     12.15157900     12.84583300
H           5.44958400     12.56073900     12.97723100
O           2.97986600     14.16308000     12.49515900
H           2.39231400     13.77144200     13.24329100
O           2.48521200     11.97531900     11.46806600
H           2.87233400     11.05253200     11.23401100
          17
 G =       -0.303626 Gcorr = 0.067408 a.u. Nimag =   0 Frame:    13 Step:    13 Geom:    13
C           7.34918700     14.41124900     12.72009500
C           7.21840500     15.23580200     13.84194400
C           5.70380900     15.89697100     12.39741500
N           6.40022800     14.84818600     11.80223300
H           6.15337400     14.37345400     10.93732800
H           8.01015900     13.59581000     12.52282500
H           7.77497200     15.23740500     14.75691800
H           4.89828800     16.42635300     11.92043100
N           6.19686000     16.14531200     13.62584100
P           3.75148900     12.69485900     11.56154000
O           4.76033100     13.17141100     10.61664700
O           4.18459600     12.66324500     13.09020000
H           4.49195100     13.61555000     13.35742800
O           2.39988500     13.53131800     11.61121900
H           1.93954000     13.43810600     10.69328900
O           3.21758900     11.21480600     11.32816300
H           4.02934000     10.58017700     11.36649700
          17
 G =       -0.305940 Gcorr = 0.066694 a.u. Nimag =   0 Frame:    14 Step:    14 Geom:    14
C           7.35976000     14.56284000     12.46159700
C           6.88085100     14.65242200     13.76862500
C           5.50617900     15.82873800     12.51859500
N           6.49568000     15.32416300     11.67561500
H           6.48789900     15.33251700     10.67774300
H           8.18830600     14.02573900     12.05204100
H           7.26947800     14.22681400     14.67129100
H           4.68542000     16.43818700     12.18229500
N           5.73062100     15.43163900     13.78446700
P           4.08704800     12.71426300     11.59684900
O           5.38133900     12.78828700     10.94099300
O           4.04884000     12.73607400     13.19000900
H           4.58794300     13.54404300     13.54556100
O           3.14437000     13.90352500     11.11417200
H           2.19148700     13.74263900     11.45909900
O           3.17468700     11.43410500     11.31473200
H           3.54009200     10.65401000     11.87632500
          17
 G =       -0.305262 Gcorr = 0.068289 a.u. Nimag =   0 Frame:    15 Step:    15 Geom:    15
C           5.95201700     15.91009600     12.70978000
C           6.19775300     15.08125700     13.80355100
C           7.10321700     14.09548900     12.05784000
N           6.54256400     15.28895800     11.60814900
H           6.40472300     15.55318800     10.65622800
H           5.41906300     16.83280200     12.63409700
H           5.92502000     15.20388700     14.83178300
H           7.60524900     13.39053200     11.41708300
N           6.90384300     13.96002600     13.38260500
P           3.79473000     12.99866000     11.54616200
O           4.80402400     13.28264800     10.53623100
O           4.27963100     12.32282900     12.90515800
H           5.20134900     12.71056900     13.18478400
O           3.00960200     14.31794400     11.95848500
H           2.24834900     14.06318100     12.60217500
O           2.59133300     12.02369200     11.15488400
H           2.95753400     11.06425300     11.12101600
          17
 G =       -0.305248 Gcorr = 0.068303 a.u. Nimag =   0 Frame:    16 Step:    16 Geom:    16
C           5.95218200     15.90880600     13.05200800
C           6.22930600     14.94709100     14.02249100
C           7.09953400     14.20569200     12.14306200
N           6.52050600     15.44207500     11.86562500
H           6.35822400     15.82663900     10.95970700
H           5.41185900     16.82852300     13.10933100
H           5.98007900     14.93204000     15.06381400
H           7.59092700     13.59498800     11.40470400
N           6.93252800     13.89699000     13.44304800
P           3.79167900     13.14284400     11.57358400
O           4.77303800     13.56670300     10.58545400
O           4.31577300     12.30245400     12.82172500
H           5.24078300     12.66144200     13.12807100
O           3.00644400     14.38905200     12.17135300
H           2.26242800     14.04527600     12.79315700
O           2.58727700     12.21295500     11.08741000
H           2.95743700     11.26644200     10.93546600
          17
 G =       -0.305261 Gcorr = 0.068518 a.u. Nimag =   0 Frame:    17 Step:    17 Geom:    17
C           7.37655000     16.15353800     13.64678200
C           6.40180200     15.29266400     14.14836800
C           6.42503400     15.00146000     11.96491200
N           7.38791400     15.96573400     12.26190600
H           7.98070200     16.44098500     11.62055900
H           8.02360700     16.84405000     14.14292500
H           6.08158800     15.13150000     15.15916200
H           6.20646200     14.65013900     10.96383200
N           5.82858000     14.59267700     13.09645700
P           3.46964200     12.46572300     11.25299100
O           4.49947500     12.83790200     10.29427000
O           3.78967000     12.59261400     12.80243900
H           4.50627300     13.35275400     12.96707500
O           2.13168000     13.29093000     11.00840800
H           1.42398400     12.97434100     11.68297600
O           2.92001900     10.96182500     11.18589900
H           3.53702100     10.37117200     11.75104900
          17
 G =       -0.304959 Gcorr = 0.067748 a.u. Nimag =   0 Frame:    18 Step:    18 Geom:    18
C           7.26225900     16.16073600     13.76652700
C           6.36439400     15.20535300     14.23996900
C           6.15339400     15.22475600     12.04742100
N           7.12490400     16.17013500     12.37593200
H           7.63903000     16.74636300     11.74970200
H           7.94743200     16.79591500     14.28521400
H           6.16133000     14.89179800     15.24547200
H           5.83837800     15.00838100     11.03491700
N           5.69105000     14.64212000     13.16563700
P           3.80848800     12.23110600     11.21763900
O           4.99863500     11.58504500     10.69840800
O           3.73063400     12.59974800     12.75957800
H           4.51874200     13.25678200     13.01557700
O           3.53040600     13.58998400     10.42442700
H           2.60492100     13.94613700     10.66327200
O           2.43127600     11.43209600     11.03972500
H           2.16473100     11.04355400     11.95059000
          17
 G =       -0.305931 Gcorr = 0.066703 a.u. Nimag =   0 Frame:    19 Step:    19 Geom:    19
C           6.87974700     14.62762700     13.37608400
C           5.84131700     15.25262300     14.06660200
C           5.60306000     15.80230700     11.95068800
N           6.73516500     14.99299300     12.03831000
H           7.23515600     14.58542900     11.27689800
H           7.65145100     13.96913900     13.71302000
H           5.60934600     15.24086000     15.11208800
H           5.23187700     16.21647200     11.02937200
N           5.05753800     15.96772700     13.16954800
P           4.16954200     12.58684900     11.53991300
O           5.59416400     12.38149800     11.73767200
O           3.33752800     13.26841200     12.71603000
H           3.79254400     14.15095400     13.00563800
O           3.90411800     13.46834300     10.24046300
H           2.90008300     13.46574600     10.02813000
O           3.25824400     11.30521700     11.26140700
H           3.09912300     10.82781200     12.15814700
          17
 G =       -0.304036 Gcorr = 0.068053 a.u. Nimag =   0 Frame:    20 Step:    20 Geom:    20
C           7.42384600     15.86911200     13.31536800
C           6.57135800     14.82009600     12.97158500
C           5.46225000     16.68189500     12.57728200
N           6.71631100     17.04759100     13.06391800
H           7.05804400     17.96956700     13.20993500
H           8.42188900     15.86401100     13.69739500
H           6.73247900     13.75397400     13.01473100
H           4.69644800     17.38285100     12.29542300
N           5.36938900     15.34302100     12.51999900
P           3.91097500     12.00619200     11.65458900
O           5.10128500     11.67375500     12.42030800
O           3.32502800     13.47997500     11.74561100
H           4.09154000     14.16299200     11.99036300
O           4.11967400     11.71605700     10.10410500
H           3.24486700     11.92707100      9.60934500
O           2.58965800     11.14796300     11.95260900
H           2.06495800     11.61388800     12.69744100
          17
 G =       -0.304973 Gcorr = 0.067733 a.u. Nimag =   0 Frame:    21 Step:    21 Geom:    21
C           7.10466300     16.36831200     13.64970200
C           6.34707500     15.31435500     14.15792600
C           5.93137100     15.39353600     11.99618900
N           6.83772200     16.41534800     12.27884900
H           7.23610400     17.06051000     11.63570700
H           7.77342800     17.04721800     14.13321600
H           6.26874200     14.94606800     15.16232700
H           5.54441200     15.18509400     11.00723500
N           5.63125300     14.72867700     13.12382100
P           3.80959500     12.21815600     11.24478600
O           5.00061600     11.71341600     10.58886000
O           3.84593800     12.51677100     12.80332900
H           4.58625200     13.24129500     13.01630400
O           3.32903600     13.57235500     10.54612100
H           2.40110900     13.82553900     10.88586600
O           2.50290900     11.29538100     11.15581900
H           2.36977500     10.83798000     12.06395300
