 Entering Gaussian System, Link 0=g16
 Initial command:
 /data0/home/software/g16/l1.exe "/data0/home/software/g16/scratch/Gau-346063.inp" -scrdir="/data0/home/software/g16/scratch/"
 Default is to use a total of  22 processors:
                               22 via shared-memory
                                1 via Linda
 Entering Link 1 = /data0/home/software/g16/l1.exe PID=    346064.
  
 Copyright (c) 1988,1990,1992,1993,1995,1998,2003,2009,2016,
            Gaussian, Inc.  All Rights Reserved.
  
 This is part of the Gaussian(R) 16 program.  It is based on
 the Gaussian(R) 09 system (copyright 2009, Gaussian, Inc.),
 the Gaussian(R) 03 system (copyright 2003, Gaussian, Inc.),
 the Gaussian(R) 98 system (copyright 1998, Gaussian, Inc.),
 the Gaussian(R) 94 system (copyright 1995, Gaussian, Inc.),
 the Gaussian 92(TM) system (copyright 1992, Gaussian, Inc.),
 the Gaussian 90(TM) system (copyright 1990, Gaussian, Inc.),
 the Gaussian 88(TM) system (copyright 1988, Gaussian, Inc.),
 the Gaussian 86(TM) system (copyright 1986, Carnegie Mellon
 University), and the Gaussian 82(TM) system (copyright 1983,
 Carnegie Mellon University). Gaussian is a federally registered
 trademark of Gaussian, Inc.
  
 This software contains proprietary and confidential information,
 including trade secrets, belonging to Gaussian, Inc.
  
 This software is provided under written license and may be
 used, copied, transmitted, or stored only in accord with that
 written license.
  
 The following legend is applicable only to US Government
 contracts under FAR:
  
                    RESTRICTED RIGHTS LEGEND
  
 Use, reproduction and disclosure by the US Government is
 subject to restrictions as set forth in subparagraphs (a)
 and (c) of the Commercial Computer Software - Restricted
 Rights clause in FAR 52.227-19.
  
 Gaussian, Inc.
 340 Quinnipiac St., Bldg. 40, Wallingford CT 06492
  
  
 ---------------------------------------------------------------
 Warning -- This program may not be used in any manner that
 competes with the business of Gaussian, Inc. or will provide
 assistance to any competitor of Gaussian, Inc.  The licensee
 of this program is prohibited from giving any competitor of
 Gaussian, Inc. access to this program.  By using this program,
 the user acknowledges that Gaussian, Inc. is engaged in the
 business of creating and licensing software in the field of
 computational chemistry and represents and warrants to the
 licensee that it is not a competitor of Gaussian, Inc. and that
 it will not use this program in any manner prohibited above.
 ---------------------------------------------------------------
  

 Cite this work as:
 Gaussian 16, Revision A.03,
 M. J. Frisch, G. W. Trucks, H. B. Schlegel, G. E. Scuseria, 
 M. A. Robb, J. R. Cheeseman, G. Scalmani, V. Barone, 
 G. A. Petersson, H. Nakatsuji, X. Li, M. Caricato, A. V. Marenich, 
 J. Bloino, B. G. Janesko, R. Gomperts, B. Mennucci, H. P. Hratchian, 
 J. V. Ortiz, A. F. Izmaylov, J. L. Sonnenberg, D. Williams-Young, 
 F. Ding, F. Lipparini, F. Egidi, J. Goings, B. Peng, A. Petrone, 
 T. Henderson, D. Ranasinghe, V. G. Zakrzewski, J. Gao, N. Rega, 
 G. Zheng, W. Liang, M. Hada, M. Ehara, K. Toyota, R. Fukuda, 
 J. Hasegawa, M. Ishida, T. Nakajima, Y. Honda, O. Kitao, H. Nakai, 
 T. Vreven, K. Throssell, J. A. Montgomery, Jr., J. E. Peralta, 
 F. Ogliaro, M. J. Bearpark, J. J. Heyd, E. N. Brothers, K. N. Kudin, 
 V. N. Staroverov, T. A. Keith, R. Kobayashi, J. Normand, 
 K. Raghavachari, A. P. Rendell, J. C. Burant, S. S. Iyengar, 
 J. Tomasi, M. Cossi, J. M. Millam, M. Klene, C. Adamo, R. Cammi, 
 J. W. Ochterski, R. L. Martin, K. Morokuma, O. Farkas, 
 J. B. Foresman, and D. J. Fox, Gaussian, Inc., Wallingford CT, 2016.
 
 ******************************************
 Gaussian 16:  ES64L-G16RevA.03 25-Dec-2016
                20-Feb-2023 
 ******************************************
 %nproc=24
 Will use up to   24 processors via shared memory.
 %mem=50GB
 ---------------------------------------------------
 #p M062X/6-311+G(2d,p) nosymm em=GD3 counterpoise=2
 ---------------------------------------------------
 1/38=1,62=2,172=1/1;
 2/12=2,15=1,17=6,18=5,40=1/2;
 1/38=1,53=2,62=2,63=1/22;
 3/5=4,6=6,7=112,11=2,25=1,30=1,74=-55,124=31/1,2,3;
 4//1;
 5/5=2,38=5/2;
 6/7=2,8=2,9=2,10=2,28=1/1;
 1/53=2,62=2,63=1/22;
 3/5=7,6=11,7=112,11=2,25=1,30=1,74=-55,82=7,124=31/1,2,3;
 4//1;
 5/5=2,38=5/2;
 6/7=2,8=2,9=2,10=2,28=1/1;
 1/53=2,62=2,63=1/22(-4);
 99/5=1,9=1/99;
 Leave Link    1 at Mon Feb 20 00:27:00 2023, MaxMem=  6710886400 cpu:               0.7 elap:               0.0
 (Enter /data0/home/software/g16/l101.exe)
 -------------------
 Title Card Required
 -------------------
 Symbolic Z-matrix:
 Charge =  0 Multiplicity = 1 in supermolecule
 Charge =  0 Multiplicity = 1 in fragment      1.
 Charge =  0 Multiplicity = 1 in fragment      2.
 C                     16.96729   6.21615   4.12488    
 H                     17.39439   5.53484   3.37216    
 H                     16.05592   5.76856   4.54311    
 H                     16.66432   7.1384    3.56577    
 C                     18.21797   5.31821   6.0218     
 H                     18.63953   4.50875   5.40207    
 H                     18.93999   5.52979   6.83308    
 H                     17.29044   4.94886   6.48744    
 C                     19.25831   6.99454   4.57106    
 H                     19.33495   8.10795   4.54002    
 H                     20.14266   6.65034   5.13196    
 H                     19.3452   6.66788   3.52059    
 C                     17.35841   7.6375    6.07351    
 H                     16.41591   7.25599   6.51702    
 H                     17.05274   8.47891   5.39078    
 C                     18.30212   8.14462   7.17036    
 H                     19.36749   7.92039   6.93498    
 H                     18.10199   7.62701   8.12665    
 C                     18.16401   9.65619   7.36625    
 H                     18.94581   10.03244   8.05089    
 H                     17.19224   9.91818   7.82126    
 N                     17.96685   6.54984   5.19894    
 C                     18.30579   10.37411   6.01368    
 O                     17.28613   10.89414   5.54381    
 O                     19.42776   10.32748   5.45557    
 O                     21.30685   8.53035   6.11265    
 H                     20.63508   9.23259   5.90029    
 H                     22.14163   8.97577   6.04411    
 
 ITRead=  0  0  0  0  0  0  0  0  0  0  0  0  0  0  0  0  0  0  0  0
 ITRead=  0  0  0  0  0  0  0  0
 MicOpt= -1 -1 -1 -1 -1 -1 -1 -1 -1 -1 -1 -1 -1 -1 -1 -1 -1 -1 -1 -1
 MicOpt= -1 -1 -1 -1 -1 -1 -1 -1
 NAtoms=     28 NQM=       28 NQMF=       0 NMMI=      0 NMMIF=      0
                NMic=       0 NMicF=      0.
                    Isotopes and Nuclear Properties:
 (Nuclear quadrupole moments (NQMom) in fm**2, nuclear magnetic moments (NMagM)
  in nuclear magnetons)

  Atom         1           2           3           4           5           6           7           8           9          10
 IAtWgt=          12           1           1           1          12           1           1           1          12           1
 AtmWgt=  12.0000000   1.0078250   1.0078250   1.0078250  12.0000000   1.0078250   1.0078250   1.0078250  12.0000000   1.0078250
 NucSpn=           0           1           1           1           0           1           1           1           0           1
 AtZEff=  -0.0000000  -0.0000000  -0.0000000  -0.0000000  -0.0000000  -0.0000000  -0.0000000  -0.0000000  -0.0000000  -0.0000000
 NQMom=    0.0000000   0.0000000   0.0000000   0.0000000   0.0000000   0.0000000   0.0000000   0.0000000   0.0000000   0.0000000
 NMagM=    0.0000000   2.7928460   2.7928460   2.7928460   0.0000000   2.7928460   2.7928460   2.7928460   0.0000000   2.7928460
 AtZNuc=   6.0000000   1.0000000   1.0000000   1.0000000   6.0000000   1.0000000   1.0000000   1.0000000   6.0000000   1.0000000

  Atom        11          12          13          14          15          16          17          18          19          20
 IAtWgt=           1           1          12           1           1          12           1           1          12           1
 AtmWgt=   1.0078250   1.0078250  12.0000000   1.0078250   1.0078250  12.0000000   1.0078250   1.0078250  12.0000000   1.0078250
 NucSpn=           1           1           0           1           1           0           1           1           0           1
 AtZEff=  -0.0000000  -0.0000000  -0.0000000  -0.0000000  -0.0000000  -0.0000000  -0.0000000  -0.0000000  -0.0000000  -0.0000000
 NQMom=    0.0000000   0.0000000   0.0000000   0.0000000   0.0000000   0.0000000   0.0000000   0.0000000   0.0000000   0.0000000
 NMagM=    2.7928460   2.7928460   0.0000000   2.7928460   2.7928460   0.0000000   2.7928460   2.7928460   0.0000000   2.7928460
 AtZNuc=   1.0000000   1.0000000   6.0000000   1.0000000   1.0000000   6.0000000   1.0000000   1.0000000   6.0000000   1.0000000

  Atom        21          22          23          24          25          26          27          28
 IAtWgt=           1          14          12          16          16          16           1           1
 AtmWgt=   1.0078250  14.0030740  12.0000000  15.9949146  15.9949146  15.9949146   1.0078250   1.0078250
 NucSpn=           1           2           0           0           0           0           1           1
 AtZEff=  -0.0000000  -0.0000000  -0.0000000  -0.0000000  -0.0000000  -0.0000000  -0.0000000  -0.0000000
 NQMom=    0.0000000   2.0440000   0.0000000   0.0000000   0.0000000   0.0000000   0.0000000   0.0000000
 NMagM=    2.7928460   0.4037610   0.0000000   0.0000000   0.0000000   0.0000000   2.7928460   2.7928460
 AtZNuc=   1.0000000   7.0000000   6.0000000   8.0000000   8.0000000   8.0000000   1.0000000   1.0000000
 Leave Link  101 at Mon Feb 20 00:27:00 2023, MaxMem=  6710886400 cpu:               2.2 elap:               0.1
 (Enter /data0/home/software/g16/l202.exe)
                          Input orientation:                          
 ---------------------------------------------------------------------
 Center     Atomic      Atomic             Coordinates (Angstroms)
 Number     Number       Type             X           Y           Z
 ---------------------------------------------------------------------
      1          6           0       16.967287    6.216146    4.124881
      2          1           0       17.394386    5.534842    3.372155
      3          1           0       16.055919    5.768556    4.543110
      4          1           0       16.664324    7.138400    3.565767
      5          6           0       18.217966    5.318208    6.021801
      6          1           0       18.639532    4.508746    5.402068
      7          1           0       18.939994    5.529787    6.833079
      8          1           0       17.290437    4.948861    6.487439
      9          6           0       19.258313    6.994536    4.571056
     10          1           0       19.334945    8.107945    4.540024
     11          1           0       20.142658    6.650343    5.131957
     12          1           0       19.345200    6.667880    3.520586
     13          6           0       17.358414    7.637505    6.073509
     14          1           0       16.415911    7.255994    6.517020
     15          1           0       17.052737    8.478905    5.390778
     16          6           0       18.302116    8.144619    7.170363
     17          1           0       19.367490    7.920393    6.934984
     18          1           0       18.101994    7.627006    8.126652
     19          6           0       18.164007    9.656194    7.366250
     20          1           0       18.945811   10.032441    8.050894
     21          1           0       17.192243    9.918179    7.821258
     22          7           0       17.966855    6.549838    5.198936
     23          6           0       18.305793   10.374112    6.013683
     24          8           0       17.286132   10.894144    5.543806
     25          8           0       19.427762   10.327484    5.455567
     26          8           0       21.306852    8.530347    6.112647
     27          1           0       20.635082    9.232595    5.900287
     28          1           0       22.141633    8.975773    6.044107
 ---------------------------------------------------------------------
                    Distance matrix (angstroms):
                    1          2          3          4          5
     1  C    0.000000
     2  H    1.101447   0.000000
     3  H    1.098109   1.793670   0.000000
     4  H    1.120244   1.772533   1.789365   0.000000
     5  C    2.443112   2.783135   2.657779   3.429141   0.000000
     6  H    2.709765   2.593031   2.999998   3.766766   1.103184
     7  H    3.420087   3.790373   3.690374   4.294373   1.106464
     8  H    2.700392   3.171620   2.444657   3.704358   1.101611
     9  C    2.460440   2.653732   3.429160   2.785692   2.448889
    10  H    3.058930   3.427907   4.027997   3.003566   3.350513
    11  H    3.359421   3.448803   4.222052   3.845771   2.504166
    12  H    2.494736   2.260859   3.560015   2.722228   3.057507
    13  C    2.443439   3.423419   2.744373   2.649460   2.473993
    14  H    2.666014   3.716175   2.497676   2.964023   2.692148
    15  H    2.594200   3.585955   3.009681   2.297495   3.427237
    16  C    3.843922   4.696945   4.194465   4.085089   3.052028
    17  H    4.069657   4.719930   4.617138   4.389788   2.987754
    18  H    4.392295   5.242433   4.525708   4.807006   3.126403
    19  C    4.875709   5.790566   5.246702   4.799167   4.541869
    20  H    5.821704   6.672774   6.231913   5.804913   5.183722
    21  H    5.236302   6.248922   5.408961   5.110291   5.044788
    22  N    1.504686   2.166810   2.166145   2.170307   1.502357
    23  C    4.758976   5.588100   5.332510   4.376819   5.056673
    24  O    4.898844   5.783589   5.365302   4.290093   5.673434
    25  O    4.972702   5.607552   5.743320   4.623656   5.184310
    26  O    5.304580   5.638327   6.137038   5.475142   4.457276
    27  H    5.069887   5.528738   5.900019   5.059897   4.602134
    28  H    6.170318   6.443267   7.040962   6.286416   5.364088
                    6          7          8          9         10
     6  H    0.000000
     7  H    1.783422   0.000000
     8  H    1.786558   1.782689   0.000000
     9  C    2.693069   2.713589   3.424886   0.000000
    10  H    3.765761   3.472893   4.237010   1.116474   0.000000
    11  H    2.630358   2.365558   3.587135   1.102336   1.768442
    12  H    2.949543   3.525912   3.997411   1.103513   1.764411
    13  C    3.446916   2.742411   2.721170   2.506071   2.545499
    14  H    3.706073   3.074196   2.467495   3.454618   3.626995
    15  H    4.275536   3.786723   3.704103   2.782061   2.463710
    16  C    4.057128   2.712562   3.420928   2.998900   2.826086
    17  H    3.810392   2.430665   3.653005   2.541119   2.402513
    18  H    4.175626   2.602672   3.243163   3.792012   3.823005
    19  C    5.529951   4.232453   4.867691   4.011862   3.428662
    20  H    6.133620   4.664440   5.570228   4.629881   4.022601
    21  H    6.099925   4.825880   5.146148   4.835302   4.316783
    22  N    2.158660   2.158223   2.163541   1.503281   2.175668
    23  C    5.906604   4.953898   5.539742   3.796051   2.892462
    24  O    6.528789   5.759671   6.019705   4.476906   3.601127
    25  O    5.872127   5.015312   5.878988   3.452480   2.402746
    26  O    4.877786   3.889010   5.394358   2.988600   2.557339
    27  H    5.152203   4.177824   5.466422   2.944700   2.192147
    28  H    5.712377   4.769464   6.320338   3.795881   3.300438
                   11         12         13         14         15
    11  H    0.000000
    12  H    1.797989   0.000000
    13  C    3.100488   3.377115   0.000000
    14  H    4.021673   4.231457   1.109308   0.000000
    15  H    3.599755   3.468835   1.125839   1.780303   0.000000
    16  C    3.126588   4.073040   1.533241   2.185013   2.199913
    17  H    2.337695   3.636949   2.204212   3.054167   2.838061
    18  H    3.753182   4.866346   2.183671   2.360390   3.051504
    19  C    4.235831   5.011424   2.528886   3.088364   2.554099
    20  H    4.625065   5.657161   3.487922   4.057317   3.615719
    21  H    5.159074   5.804778   2.878144   3.064467   2.828110
    22  N    2.179153   2.175001   1.522530   2.154398   2.143295
    23  C    4.244758   4.586072   2.896571   3.680715   2.355837
    24  O    5.132174   5.118055   3.300228   3.865303   2.431310
    25  O    3.759942   4.140491   3.449644   4.430799   3.010346
    26  O    2.418991   3.746417   4.048316   5.070384   4.315233
    27  H    2.738766   3.728879   3.648407   4.699863   3.696058
    28  H    3.199304   4.417529   4.966992   5.997098   5.154666
                   16         17         18         19         20
    16  C    0.000000
    17  H    1.113868   0.000000
    18  H    1.105649   1.762847   0.000000
    19  C    1.530459   2.155775   2.167870   0.000000
    20  H    2.180264   2.425658   2.550271   1.105222   0.000000
    21  H    2.191118   3.083558   2.484026   1.104533   1.772227
    22  N    2.557782   2.618026   3.122511   3.792831   4.606576
    23  C    2.511685   2.827850   3.471709   1.537838   2.162543
    24  O    3.352283   3.887238   4.243927   2.371600   3.127708
    25  O    2.995414   2.826021   4.023051   2.387136   2.656134
    26  O    3.208736   2.193036   3.891447   3.566024   3.404057
    27  H    2.870456   2.097442   3.735124   2.904255   2.849298
    28  H    4.086705   3.098929   4.740765   4.246474   3.918803
                   21         22         23         24         25
    21  H    0.000000
    22  N    4.338469   0.000000
    23  C    2.171450   3.924763   0.000000
    24  O    2.479538   4.410818   1.237306   0.000000
    25  O    3.280483   4.058413   1.253986   2.217086   0.000000
    26  O    4.666416   3.989093   3.523580   4.698649   2.681872
    27  H    4.001662   3.848183   2.596441   3.755435   1.689432
    28  H    5.342551   4.901861   4.082885   5.244649   3.088462
                   26         27         28
    26  O    0.000000
    27  H    0.994748   0.000000
    28  H    0.948663   1.535037   0.000000
 Symmetry turned off by external request.
 Stoichiometry    C7H17NO3
 Framework group  C1[X(C7H17NO3)]
 Deg. of freedom    78
 Full point group                 C1      NOp   1
 Rotational constants (GHZ):           1.3066040           0.7207663           0.6118818
 Leave Link  202 at Mon Feb 20 00:27:00 2023, MaxMem=  6710886400 cpu:               0.1 elap:               0.0
 (Enter /data0/home/software/g16/l122.exe)
 Counterpoise: doing full-system calculation.
 Leave Link  122 at Mon Feb 20 00:27:00 2023, MaxMem=  6710886400 cpu:               0.1 elap:               0.0
 (Enter /data0/home/software/g16/l301.exe)
 Standard basis: 6-311+G(2d,p) (5D, 7F)
 Ernie: Thresh=  0.10000D-02 Tol=  0.10000D-05 Strict=F.
   399 basis functions,   598 primitive gaussians,   421 cartesian basis functions
    45 alpha electrons       45 beta electrons
       nuclear repulsion energy       710.3142642770 Hartrees.
 IExCor= 4336 DFT=T Ex+Corr=M062X ExCW=0 ScaHFX=  0.540000
 ScaDFX=  1.000000  1.000000  1.000000  1.000000 ScalE2=  1.000000  1.000000
 IRadAn=      5 IRanWt=     -1 IRanGd=            0 ICorTp=0 IEmpDi=131
 NAtoms=   28 NActive=   28 NUniq=   28 SFac= 1.00D+00 NAtFMM=   60 NAOKFM=F Big=F
 Integral buffers will be    131072 words long.
 Raffenetti 2 integral format.
 Two-electron integral symmetry is turned off.
 R6Disp:  Grimme-D3 Dispersion energy=       -0.0014118665 Hartrees.
 Nuclear repulsion after empirical dispersion term =      710.3128524104 Hartrees.
 Leave Link  301 at Mon Feb 20 00:27:00 2023, MaxMem=  6710886400 cpu:               1.1 elap:               0.1
 (Enter /data0/home/software/g16/l302.exe)
 NPDir=0 NMtPBC=     1 NCelOv=     1 NCel=       1 NClECP=     1 NCelD=      1
         NCelK=      1 NCelE2=     1 NClLst=     1 CellRange=     0.0.
 One-electron integrals computed using PRISM.
 NBasis=   399 RedAO= T EigKep=  9.37D-06  NBF=   399
 NBsUse=   399 1.00D-06 EigRej= -1.00D+00 NBFU=   399
 Precomputing XC quadrature grid using
 IXCGrd= 4 IRadAn=           5 IRanWt=          -1 IRanGd=           0 AccXCQ= 0.00D+00.
 Generated NRdTot=       0 NPtTot=           0 NUsed=           0 NTot=          32
 NSgBfM=   421   421   421   421   421 MxSgAt=    28 MxSgA2=    28.
 Leave Link  302 at Mon Feb 20 00:27:01 2023, MaxMem=  6710886400 cpu:               8.4 elap:               0.4
 (Enter /data0/home/software/g16/l303.exe)
 DipDrv:  MaxL=1.
 Leave Link  303 at Mon Feb 20 00:27:01 2023, MaxMem=  6710886400 cpu:               1.0 elap:               0.1
 (Enter /data0/home/software/g16/l401.exe)
 ExpMin= 4.38D-02 ExpMax= 8.59D+03 ExpMxC= 1.30D+03 IAcc=3 IRadAn=         5 AccDes= 0.00D+00
 Harris functional with IExCor= 1009 and IRadAn=       5 diagonalized for initial guess.
 HarFok:  IExCor= 1009 AccDes= 0.00D+00 IRadAn=         5 IDoV= 1 UseB2=F ITyADJ=14
 ICtDFT=  3500011 ScaDFX=  1.000000  1.000000  1.000000  1.000000
 FoFCou: FMM=F IPFlag=           0 FMFlag=      100000 FMFlg1=           0
         NFxFlg=           0 DoJE=T BraDBF=F KetDBF=T FulRan=T
         wScrn=  0.000000 ICntrl=       500 IOpCl=  0 I1Cent=   200000004 NGrid=           0
         NMat0=    1 NMatS0=      1 NMatT0=    0 NMatD0=    1 NMtDS0=    0 NMtDT0=    0
 Symmetry not used in FoFCou.
 Harris En= -557.138874483803    
 JPrj=0 DoOrth=F DoCkMO=F.
 Leave Link  401 at Mon Feb 20 00:27:02 2023, MaxMem=  6710886400 cpu:              34.0 elap:               1.4
 (Enter /data0/home/software/g16/l502.exe)
 Two-electron integral symmetry not used.
 Closed shell SCF:
 Using DIIS extrapolation, IDIIS=  1040.
 NGot=  6710886400 LenX=  6710518669 LenY=  6710340987
 Requested convergence on RMS density matrix=1.00D-08 within 128 cycles.
 Requested convergence on MAX density matrix=1.00D-06.
 Requested convergence on             energy=1.00D-06.
 No special actions if energy rises.
 Fock matrices will be formed incrementally for  20 cycles.

 Cycle   1  Pass 1  IDiag  1:
 FoFJK:  IHMeth= 1 ICntrl=       0 DoSepK=F KAlg= 0 I1Cent=           0 FoldK=F
 IRaf= 930000000 NMat=       1 IRICut=       1 DoRegI=T DoRafI=F ISym2E= 0 IDoP0=0 IntGTp=1.
 FoFCou: FMM=F IPFlag=           0 FMFlag=      100000 FMFlg1=           0
         NFxFlg=           0 DoJE=F BraDBF=F KetDBF=F FulRan=T
         wScrn=  0.000000 ICntrl=         0 IOpCl=  0 I1Cent=           0 NGrid=           0
         NMat0=    1 NMatS0=      1 NMatT0=    0 NMatD0=    1 NMtDS0=    0 NMtDT0=    0
 Symmetry not used in FoFCou.
 E= -556.876494831796    
 DIIS: error= 2.21D-02 at cycle   1 NSaved=   1.
 NSaved= 1 IEnMin= 1 EnMin= -556.876494831796     IErMin= 1 ErrMin= 2.21D-02
 ErrMax= 2.21D-02  0.00D+00 EMaxC= 1.00D-01 BMatC= 5.92D-01 BMatP= 5.92D-01
 IDIUse=3 WtCom= 7.79D-01 WtEn= 2.21D-01
 Coeff-Com:  0.100D+01
 Coeff-En:   0.100D+01
 Coeff:      0.100D+01
 Gap=     0.314 Goal=   None    Shift=    0.000
 GapD=    0.314 DampG=1.000 DampE=0.500 DampFc=0.5000 IDamp=-1.
 Damping current iteration by 5.00D-01
 RMSDP=8.44D-03 MaxDP=1.35D+00              OVMax= 1.93D-01

 Cycle   2  Pass 1  IDiag  1:
 RMSU=  4.13D-03    CP:  1.08D+00
 E= -557.074332194090     Delta-E=       -0.197837362294 Rises=F Damp=T
 DIIS: error= 4.73D-03 at cycle   2 NSaved=   2.
 NSaved= 2 IEnMin= 2 EnMin= -557.074332194090     IErMin= 2 ErrMin= 4.73D-03
 ErrMax= 4.73D-03  0.00D+00 EMaxC= 1.00D-01 BMatC= 3.84D-02 BMatP= 5.92D-01
 IDIUse=3 WtCom= 9.53D-01 WtEn= 4.73D-02
 Coeff-Com:  0.714D-02 0.993D+00
 Coeff-En:   0.279D-01 0.972D+00
 Coeff:      0.812D-02 0.992D+00
 Gap=     0.236 Goal=   None    Shift=    0.000
 RMSDP=3.28D-03 MaxDP=6.60D-01 DE=-1.98D-01 OVMax= 1.30D-01

 Cycle   3  Pass 1  IDiag  1:
 RMSU=  2.59D-03    CP:  9.52D-01  6.41D-01
 E= -557.293296688916     Delta-E=       -0.218964494826 Rises=F Damp=F
 DIIS: error= 3.59D-03 at cycle   3 NSaved=   3.
 NSaved= 3 IEnMin= 3 EnMin= -557.293296688916     IErMin= 3 ErrMin= 3.59D-03
 ErrMax= 3.59D-03  0.00D+00 EMaxC= 1.00D-01 BMatC= 1.09D-02 BMatP= 3.84D-02
 IDIUse=3 WtCom= 9.64D-01 WtEn= 3.59D-02
 Coeff-Com: -0.551D-01 0.317D+00 0.738D+00
 Coeff-En:   0.000D+00 0.000D+00 0.100D+01
 Coeff:     -0.531D-01 0.306D+00 0.747D+00
 Gap=     0.232 Goal=   None    Shift=    0.000
 RMSDP=5.44D-04 MaxDP=6.94D-02 DE=-2.19D-01 OVMax= 2.58D-02

 Cycle   4  Pass 1  IDiag  1:
 RMSU=  4.47D-04    CP:  9.68D-01  7.04D-01  1.00D+00
 E= -557.299180771498     Delta-E=       -0.005884082582 Rises=F Damp=F
 DIIS: error= 1.77D-03 at cycle   4 NSaved=   4.
 NSaved= 4 IEnMin= 4 EnMin= -557.299180771498     IErMin= 4 ErrMin= 1.77D-03
 ErrMax= 1.77D-03  0.00D+00 EMaxC= 1.00D-01 BMatC= 2.69D-03 BMatP= 1.09D-02
 IDIUse=3 WtCom= 9.82D-01 WtEn= 1.77D-02
 Coeff-Com: -0.257D-01 0.736D-01 0.380D+00 0.572D+00
 Coeff-En:   0.000D+00 0.000D+00 0.184D+00 0.816D+00
 Coeff:     -0.252D-01 0.723D-01 0.377D+00 0.576D+00
 Gap=     0.234 Goal=   None    Shift=    0.000
 RMSDP=2.56D-04 MaxDP=3.62D-02 DE=-5.88D-03 OVMax= 1.20D-02

 Cycle   5  Pass 1  IDiag  1:
 RMSU=  1.50D-04    CP:  9.58D-01  6.74D-01  1.02D+00  7.50D-01
 E= -557.301313927033     Delta-E=       -0.002133155535 Rises=F Damp=F
 DIIS: error= 4.33D-04 at cycle   5 NSaved=   5.
 NSaved= 5 IEnMin= 5 EnMin= -557.301313927033     IErMin= 5 ErrMin= 4.33D-04
 ErrMax= 4.33D-04  0.00D+00 EMaxC= 1.00D-01 BMatC= 1.82D-04 BMatP= 2.69D-03
 IDIUse=3 WtCom= 9.96D-01 WtEn= 4.33D-03
 Coeff-Com: -0.947D-02 0.188D-01 0.146D+00 0.292D+00 0.553D+00
 Coeff-En:   0.000D+00 0.000D+00 0.000D+00 0.000D+00 0.100D+01
 Coeff:     -0.943D-02 0.187D-01 0.145D+00 0.291D+00 0.555D+00
 Gap=     0.232 Goal=   None    Shift=    0.000
 RMSDP=5.48D-05 MaxDP=6.32D-03 DE=-2.13D-03 OVMax= 4.17D-03

 Cycle   6  Pass 1  IDiag  1:
 RMSU=  4.22D-05    CP:  9.59D-01  6.75D-01  1.03D+00  8.20D-01  9.36D-01
 E= -557.301436289428     Delta-E=       -0.000122362396 Rises=F Damp=F
 DIIS: error= 1.59D-04 at cycle   6 NSaved=   6.
 NSaved= 6 IEnMin= 6 EnMin= -557.301436289428     IErMin= 6 ErrMin= 1.59D-04
 ErrMax= 1.59D-04  0.00D+00 EMaxC= 1.00D-01 BMatC= 1.79D-05 BMatP= 1.82D-04
 IDIUse=3 WtCom= 9.98D-01 WtEn= 1.59D-03
 Coeff-Com: -0.139D-02 0.342D-03 0.234D-01 0.707D-01 0.276D+00 0.631D+00
 Coeff-En:   0.000D+00 0.000D+00 0.000D+00 0.000D+00 0.000D+00 0.100D+01
 Coeff:     -0.138D-02 0.341D-03 0.234D-01 0.706D-01 0.275D+00 0.632D+00
 Gap=     0.233 Goal=   None    Shift=    0.000
 RMSDP=2.51D-05 MaxDP=3.00D-03 DE=-1.22D-04 OVMax= 1.01D-03

 Cycle   7  Pass 1  IDiag  1:
 RMSU=  2.14D-05    CP:  9.59D-01  6.74D-01  1.03D+00  8.41D-01  9.71D-01
                    CP:  9.54D-01
 E= -557.301450227662     Delta-E=       -0.000013938233 Rises=F Damp=F
 DIIS: error= 2.79D-05 at cycle   7 NSaved=   7.
 NSaved= 7 IEnMin= 7 EnMin= -557.301450227662     IErMin= 7 ErrMin= 2.79D-05
 ErrMax= 2.79D-05  0.00D+00 EMaxC= 1.00D-01 BMatC= 9.92D-07 BMatP= 1.79D-05
 IDIUse=1 WtCom= 1.00D+00 WtEn= 0.00D+00
 Coeff-Com:  0.687D-03-0.223D-02-0.789D-02-0.826D-02 0.372D-01 0.204D+00
 Coeff-Com:  0.777D+00
 Coeff:      0.687D-03-0.223D-02-0.789D-02-0.826D-02 0.372D-01 0.204D+00
 Coeff:      0.777D+00
 Gap=     0.233 Goal=   None    Shift=    0.000
 RMSDP=1.19D-05 MaxDP=1.35D-03 DE=-1.39D-05 OVMax= 3.22D-04

 Cycle   8  Pass 1  IDiag  1:
 RMSU=  7.60D-06    CP:  9.59D-01  6.72D-01  1.03D+00  8.36D-01  9.94D-01
                    CP:  9.52D-01  1.03D+00
 E= -557.301451119343     Delta-E=       -0.000000891681 Rises=F Damp=F
 DIIS: error= 1.66D-05 at cycle   8 NSaved=   8.
 NSaved= 8 IEnMin= 8 EnMin= -557.301451119343     IErMin= 8 ErrMin= 1.66D-05
 ErrMax= 1.66D-05  0.00D+00 EMaxC= 1.00D-01 BMatC= 2.49D-07 BMatP= 9.92D-07
 IDIUse=1 WtCom= 1.00D+00 WtEn= 0.00D+00
 Coeff-Com:  0.502D-03-0.102D-02-0.647D-02-0.136D-01-0.191D-01 0.449D-02
 Coeff-Com:  0.372D+00 0.663D+00
 Coeff:      0.502D-03-0.102D-02-0.647D-02-0.136D-01-0.191D-01 0.449D-02
 Coeff:      0.372D+00 0.663D+00
 Gap=     0.233 Goal=   None    Shift=    0.000
 RMSDP=4.86D-06 MaxDP=4.98D-04 DE=-8.92D-07 OVMax= 1.22D-04

 Cycle   9  Pass 1  IDiag  1:
 RMSU=  2.83D-06    CP:  9.59D-01  6.72D-01  1.03D+00  8.34D-01  1.00D+00
                    CP:  9.58D-01  1.09D+00  1.16D+00
 E= -557.301451327494     Delta-E=       -0.000000208151 Rises=F Damp=F
 DIIS: error= 3.75D-06 at cycle   9 NSaved=   9.
 NSaved= 9 IEnMin= 9 EnMin= -557.301451327494     IErMin= 9 ErrMin= 3.75D-06
 ErrMax= 3.75D-06  0.00D+00 EMaxC= 1.00D-01 BMatC= 1.18D-08 BMatP= 2.49D-07
 IDIUse=1 WtCom= 1.00D+00 WtEn= 0.00D+00
 Coeff-Com:  0.993D-04-0.148D-03-0.138D-02-0.381D-02-0.765D-02-0.141D-01
 Coeff-Com:  0.649D-01 0.212D+00 0.750D+00
 Coeff:      0.993D-04-0.148D-03-0.138D-02-0.381D-02-0.765D-02-0.141D-01
 Coeff:      0.649D-01 0.212D+00 0.750D+00
 Gap=     0.233 Goal=   None    Shift=    0.000
 RMSDP=1.67D-06 MaxDP=2.19D-04 DE=-2.08D-07 OVMax= 4.51D-05

 Cycle  10  Pass 1  IDiag  1:
 RMSU=  6.46D-07    CP:  9.59D-01  6.71D-01  1.03D+00  8.33D-01  1.00D+00
                    CP:  9.53D-01  1.11D+00  1.26D+00  1.20D+00
 E= -557.301451338528     Delta-E=       -0.000000011034 Rises=F Damp=F
 DIIS: error= 1.22D-06 at cycle  10 NSaved=  10.
 NSaved=10 IEnMin=10 EnMin= -557.301451338528     IErMin=10 ErrMin= 1.22D-06
 ErrMax= 1.22D-06  0.00D+00 EMaxC= 1.00D-01 BMatC= 1.75D-09 BMatP= 1.18D-08
 IDIUse=1 WtCom= 1.00D+00 WtEn= 0.00D+00
 Coeff-Com: -0.346D-04 0.766D-04 0.375D-03 0.392D-03 0.246D-03-0.644D-02
 Coeff-Com: -0.284D-01-0.199D-01 0.253D+00 0.801D+00
 Coeff:     -0.346D-04 0.766D-04 0.375D-03 0.392D-03 0.246D-03-0.644D-02
 Coeff:     -0.284D-01-0.199D-01 0.253D+00 0.801D+00
 Gap=     0.233 Goal=   None    Shift=    0.000
 RMSDP=9.16D-07 MaxDP=1.42D-04 DE=-1.10D-08 OVMax= 1.54D-05

 Cycle  11  Pass 1  IDiag  1:
 RMSU=  1.71D-07    CP:  9.59D-01  6.71D-01  1.03D+00  8.32D-01  1.00D+00
                    CP:  9.48D-01  1.12D+00  1.32D+00  1.33D+00  1.09D+00
 E= -557.301451340473     Delta-E=       -0.000000001945 Rises=F Damp=F
 DIIS: error= 5.48D-07 at cycle  11 NSaved=  11.
 NSaved=11 IEnMin=11 EnMin= -557.301451340473     IErMin=11 ErrMin= 5.48D-07
 ErrMax= 5.48D-07  0.00D+00 EMaxC= 1.00D-01 BMatC= 2.23D-10 BMatP= 1.75D-09
 IDIUse=1 WtCom= 1.00D+00 WtEn= 0.00D+00
 Coeff-Com: -0.225D-04 0.464D-04 0.274D-03 0.485D-03 0.973D-03-0.118D-02
 Coeff-Com: -0.163D-01-0.286D-01 0.216D-01 0.314D+00 0.709D+00
 Coeff:     -0.225D-04 0.464D-04 0.274D-03 0.485D-03 0.973D-03-0.118D-02
 Coeff:     -0.163D-01-0.286D-01 0.216D-01 0.314D+00 0.709D+00
 Gap=     0.233 Goal=   None    Shift=    0.000
 RMSDP=2.40D-07 MaxDP=3.62D-05 DE=-1.95D-09 OVMax= 4.71D-06

 Cycle  12  Pass 1  IDiag  1:
 RMSU=  4.63D-08    CP:  9.59D-01  6.71D-01  1.03D+00  8.32D-01  1.00D+00
                    CP:  9.47D-01  1.12D+00  1.33D+00  1.36D+00  1.12D+00
                    CP:  1.13D+00
 E= -557.301451340684     Delta-E=       -0.000000000210 Rises=F Damp=F
 DIIS: error= 2.03D-07 at cycle  12 NSaved=  12.
 NSaved=12 IEnMin=12 EnMin= -557.301451340684     IErMin=12 ErrMin= 2.03D-07
 ErrMax= 2.03D-07  0.00D+00 EMaxC= 1.00D-01 BMatC= 1.86D-11 BMatP= 2.23D-10
 IDIUse=1 WtCom= 1.00D+00 WtEn= 0.00D+00
 Coeff-Com: -0.330D-05 0.628D-05 0.525D-04 0.108D-03 0.318D-03 0.116D-03
 Coeff-Com: -0.212D-02-0.699D-02-0.182D-01 0.133D-01 0.203D+00 0.811D+00
 Coeff:     -0.330D-05 0.628D-05 0.525D-04 0.108D-03 0.318D-03 0.116D-03
 Coeff:     -0.212D-02-0.699D-02-0.182D-01 0.133D-01 0.203D+00 0.811D+00
 Gap=     0.233 Goal=   None    Shift=    0.000
 RMSDP=5.12D-08 MaxDP=4.54D-06 DE=-2.10D-10 OVMax= 1.93D-06

 Cycle  13  Pass 1  IDiag  1:
 RMSU=  2.08D-08    CP:  9.59D-01  6.71D-01  1.03D+00  8.32D-01  1.00D+00
                    CP:  9.47D-01  1.12D+00  1.33D+00  1.37D+00  1.13D+00
                    CP:  1.16D+00  1.07D+00
 E= -557.301451340714     Delta-E=       -0.000000000030 Rises=F Damp=F
 DIIS: error= 9.57D-08 at cycle  13 NSaved=  13.
 NSaved=13 IEnMin=13 EnMin= -557.301451340714     IErMin=13 ErrMin= 9.57D-08
 ErrMax= 9.57D-08  0.00D+00 EMaxC= 1.00D-01 BMatC= 4.38D-12 BMatP= 1.86D-11
 IDIUse=1 WtCom= 1.00D+00 WtEn= 0.00D+00
 Coeff-Com:  0.222D-05-0.447D-05-0.185D-04-0.287D-04 0.126D-04 0.191D-03
 Coeff-Com:  0.152D-02 0.866D-03-0.115D-01-0.402D-01-0.172D-01 0.365D+00
 Coeff-Com:  0.702D+00
 Coeff:      0.222D-05-0.447D-05-0.185D-04-0.287D-04 0.126D-04 0.191D-03
 Coeff:      0.152D-02 0.866D-03-0.115D-01-0.402D-01-0.172D-01 0.365D+00
 Coeff:      0.702D+00
 Gap=     0.233 Goal=   None    Shift=    0.000
 RMSDP=1.23D-08 MaxDP=8.36D-07 DE=-3.00D-11 OVMax= 7.58D-07

 Cycle  14  Pass 1  IDiag  1:
 RMSU=  7.19D-09    CP:  9.59D-01  6.71D-01  1.03D+00  8.32D-01  1.00D+00
                    CP:  9.47D-01  1.12D+00  1.33D+00  1.37D+00  1.13D+00
                    CP:  1.20D+00  1.15D+00  1.10D+00
 E= -557.301451340713     Delta-E=        0.000000000001 Rises=F Damp=F
 DIIS: error= 1.91D-08 at cycle  14 NSaved=  14.
 NSaved=14 IEnMin=13 EnMin= -557.301451340714     IErMin=14 ErrMin= 1.91D-08
 ErrMax= 1.91D-08  0.00D+00 EMaxC= 1.00D-01 BMatC= 2.33D-13 BMatP= 4.38D-12
 IDIUse=1 WtCom= 1.00D+00 WtEn= 0.00D+00
 Coeff-Com:  0.863D-06-0.180D-05-0.877D-05-0.161D-04-0.170D-04 0.276D-04
 Coeff-Com:  0.618D-03 0.798D-03-0.129D-02-0.121D-01-0.231D-01 0.184D-01
 Coeff-Com:  0.201D+00 0.816D+00
 Coeff:      0.863D-06-0.180D-05-0.877D-05-0.161D-04-0.170D-04 0.276D-04
 Coeff:      0.618D-03 0.798D-03-0.129D-02-0.121D-01-0.231D-01 0.184D-01
 Coeff:      0.201D+00 0.816D+00
 Gap=     0.233 Goal=   None    Shift=    0.000
 RMSDP=6.33D-09 MaxDP=1.05D-06 DE= 6.82D-13 OVMax= 2.19D-07

 Cycle  15  Pass 1  IDiag  1:
 RMSU=  2.27D-09    CP:  9.59D-01  6.71D-01  1.03D+00  8.32D-01  1.00D+00
                    CP:  9.47D-01  1.12D+00  1.33D+00  1.37D+00  1.13D+00
                    CP:  1.20D+00  1.17D+00  1.18D+00  1.13D+00
 E= -557.301451340713     Delta-E=       -0.000000000000 Rises=F Damp=F
 DIIS: error= 4.34D-09 at cycle  15 NSaved=  15.
 NSaved=15 IEnMin=13 EnMin= -557.301451340714     IErMin=15 ErrMin= 4.34D-09
 ErrMax= 4.34D-09  0.00D+00 EMaxC= 1.00D-01 BMatC= 1.72D-14 BMatP= 2.33D-13
 IDIUse=1 WtCom= 1.00D+00 WtEn= 0.00D+00
 Coeff-Com: -0.660D-08-0.873D-08-0.520D-06-0.143D-05-0.423D-05-0.121D-04
 Coeff-Com:  0.285D-04 0.135D-03 0.853D-03 0.568D-03-0.386D-02-0.329D-01
 Coeff-Com: -0.127D-01 0.199D+00 0.849D+00
 Coeff:     -0.660D-08-0.873D-08-0.520D-06-0.143D-05-0.423D-05-0.121D-04
 Coeff:      0.285D-04 0.135D-03 0.853D-03 0.568D-03-0.386D-02-0.329D-01
 Coeff:     -0.127D-01 0.199D+00 0.849D+00
 Gap=     0.233 Goal=   None    Shift=    0.000
 RMSDP=2.95D-09 MaxDP=4.98D-07 DE=-2.27D-13 OVMax= 7.07D-08

 SCF Done:  E(RM062X) =  -557.301451341     A.U. after   15 cycles
            NFock= 15  Conv=0.30D-08     -V/T= 2.0045
 KE= 5.548273351734D+02 PE=-2.722909126705D+03 EE= 9.004674877803D+02
 Leave Link  502 at Mon Feb 20 00:28:08 2023, MaxMem=  6710886400 cpu:            1561.1 elap:              65.3
 (Enter /data0/home/software/g16/l601.exe)
 Copying SCF densities to generalized density rwf, IOpCl= 0 IROHF=0.

 **********************************************************************

            Population analysis using the SCF density.

 **********************************************************************

 Alpha  occ. eigenvalues --  -19.57626 -19.52168 -19.51069 -14.92025 -10.64209
 Alpha  occ. eigenvalues --  -10.64145 -10.61899 -10.61080 -10.57855 -10.55246
 Alpha  occ. eigenvalues --  -10.51187  -1.16518  -1.11243  -1.08768  -1.01219
 Alpha  occ. eigenvalues --   -0.90997  -0.88533  -0.87021  -0.82393  -0.75128
 Alpha  occ. eigenvalues --   -0.69529  -0.63588  -0.63275  -0.61838  -0.57937
 Alpha  occ. eigenvalues --   -0.56574  -0.55208  -0.53905  -0.51656  -0.51328
 Alpha  occ. eigenvalues --   -0.50602  -0.49704  -0.49010  -0.47783  -0.47259
 Alpha  occ. eigenvalues --   -0.44804  -0.44224  -0.43159  -0.42589  -0.39747
 Alpha  occ. eigenvalues --   -0.38715  -0.35884  -0.27620  -0.27230  -0.25804
 Alpha virt. eigenvalues --   -0.02501  -0.00307   0.00043   0.01324   0.01893
 Alpha virt. eigenvalues --    0.03427   0.03671   0.04121   0.04549   0.05203
 Alpha virt. eigenvalues --    0.06891   0.07313   0.07503   0.08537   0.08772
 Alpha virt. eigenvalues --    0.09279   0.10295   0.11289   0.11560   0.11942
 Alpha virt. eigenvalues --    0.12435   0.13012   0.13395   0.13587   0.14134
 Alpha virt. eigenvalues --    0.14481   0.15164   0.16075   0.16165   0.16447
 Alpha virt. eigenvalues --    0.16859   0.17441   0.17622   0.18839   0.19667
 Alpha virt. eigenvalues --    0.19861   0.20334   0.20519   0.21507   0.22836
 Alpha virt. eigenvalues --    0.23313   0.24296   0.24925   0.25343   0.25797
 Alpha virt. eigenvalues --    0.26198   0.26669   0.26987   0.27715   0.28173
 Alpha virt. eigenvalues --    0.28981   0.29606   0.30205   0.31492   0.32159
 Alpha virt. eigenvalues --    0.32887   0.33031   0.34407   0.35159   0.36547
 Alpha virt. eigenvalues --    0.36551   0.38004   0.38827   0.39225   0.40446
 Alpha virt. eigenvalues --    0.41054   0.42065   0.42479   0.43319   0.44943
 Alpha virt. eigenvalues --    0.45299   0.45755   0.47873   0.48183   0.49564
 Alpha virt. eigenvalues --    0.50524   0.51015   0.52288   0.53121   0.53728
 Alpha virt. eigenvalues --    0.55265   0.56210   0.56792   0.57458   0.57999
 Alpha virt. eigenvalues --    0.58941   0.59777   0.60434   0.61190   0.62013
 Alpha virt. eigenvalues --    0.63013   0.63570   0.64409   0.65312   0.65701
 Alpha virt. eigenvalues --    0.67415   0.68182   0.69124   0.70355   0.70684
 Alpha virt. eigenvalues --    0.71404   0.71735   0.72399   0.73638   0.74480
 Alpha virt. eigenvalues --    0.75333   0.76939   0.77916   0.78504   0.79240
 Alpha virt. eigenvalues --    0.80921   0.82838   0.83375   0.84079   0.85524
 Alpha virt. eigenvalues --    0.87144   0.90203   0.90992   0.91216   0.94715
 Alpha virt. eigenvalues --    0.95920   0.96108   0.97220   0.98826   1.01806
 Alpha virt. eigenvalues --    1.04943   1.07255   1.10327   1.10583   1.12667
 Alpha virt. eigenvalues --    1.13720   1.15049   1.15602   1.16416   1.16740
 Alpha virt. eigenvalues --    1.17348   1.17916   1.19825   1.21392   1.21644
 Alpha virt. eigenvalues --    1.22638   1.24084   1.24375   1.25058   1.26131
 Alpha virt. eigenvalues --    1.27560   1.29594   1.29983   1.31421   1.31898
 Alpha virt. eigenvalues --    1.32875   1.34299   1.36286   1.37901   1.39035
 Alpha virt. eigenvalues --    1.39097   1.40785   1.41317   1.41765   1.43498
 Alpha virt. eigenvalues --    1.45367   1.46185   1.47347   1.48527   1.49049
 Alpha virt. eigenvalues --    1.51414   1.54036   1.55508   1.58109   1.59400
 Alpha virt. eigenvalues --    1.62376   1.64544   1.67255   1.70266   1.71908
 Alpha virt. eigenvalues --    1.74014   1.74501   1.76317   1.77605   1.78909
 Alpha virt. eigenvalues --    1.79463   1.80569   1.81490   1.81837   1.84596
 Alpha virt. eigenvalues --    1.84896   1.85169   1.87456   1.87897   1.89219
 Alpha virt. eigenvalues --    1.90666   1.90915   1.91650   1.95055   1.96909
 Alpha virt. eigenvalues --    1.98580   2.00722   2.04730   2.06761   2.08848
 Alpha virt. eigenvalues --    2.11525   2.13091   2.14617   2.15977   2.17729
 Alpha virt. eigenvalues --    2.18460   2.20727   2.22221   2.24356   2.24855
 Alpha virt. eigenvalues --    2.26032   2.27156   2.28929   2.29559   2.32603
 Alpha virt. eigenvalues --    2.33335   2.34379   2.35764   2.36186   2.36367
 Alpha virt. eigenvalues --    2.37870   2.38454   2.39346   2.40276   2.41523
 Alpha virt. eigenvalues --    2.43376   2.47079   2.47283   2.48003   2.53121
 Alpha virt. eigenvalues --    2.54953   2.56749   2.58429   2.63770   2.64879
 Alpha virt. eigenvalues --    2.66302   2.68977   2.70775   2.71813   2.73544
 Alpha virt. eigenvalues --    2.77689   2.79001   2.82165   2.84149   2.86923
 Alpha virt. eigenvalues --    2.88686   2.89241   2.93132   2.96588   2.97343
 Alpha virt. eigenvalues --    3.00504   3.02126   3.03048   3.06887   3.11612
 Alpha virt. eigenvalues --    3.13156   3.14183   3.16299   3.19749   3.21414
 Alpha virt. eigenvalues --    3.25234   3.25373   3.26399   3.30951   3.32092
 Alpha virt. eigenvalues --    3.34293   3.35439   3.37162   3.38993   3.40564
 Alpha virt. eigenvalues --    3.42046   3.46981   3.48800   3.50879   3.52386
 Alpha virt. eigenvalues --    3.53156   3.55940   3.56996   3.58111   3.60077
 Alpha virt. eigenvalues --    3.61214   3.62231   3.63369   3.63907   3.66483
 Alpha virt. eigenvalues --    3.67782   3.68882   3.71814   3.73757   3.74752
 Alpha virt. eigenvalues --    3.76383   3.77864   3.79719   3.82431   3.83377
 Alpha virt. eigenvalues --    3.90190   3.92992   3.98499   4.04351   4.11786
 Alpha virt. eigenvalues --    4.13165   4.14037   4.14687   4.16652   4.18011
 Alpha virt. eigenvalues --    4.20918   4.26331   4.28755   4.39717   4.42927
 Alpha virt. eigenvalues --    4.53491   4.77533   4.79471   4.81262   5.18499
 Alpha virt. eigenvalues --    5.23868   5.24303   5.32163   5.33293   5.40866
 Alpha virt. eigenvalues --    5.42685   5.44005   5.48437   5.53397   5.65001
 Alpha virt. eigenvalues --    5.99917   6.02399   6.27961   6.83665   6.88446
 Alpha virt. eigenvalues --    6.91683   6.94177   6.95332   6.97237   6.99887
 Alpha virt. eigenvalues --    7.06255   7.13676   7.19513   7.21008   7.26864
 Alpha virt. eigenvalues --    7.32264   7.33937   7.47585  23.92176  23.98943
 Alpha virt. eigenvalues --   24.03810  24.08893  24.10024  24.11008  24.27846
 Alpha virt. eigenvalues --   35.50958  50.08878  50.21446  50.25707
          Condensed to atoms (all electrons):
               1          2          3          4          5          6
     1  C    5.434867   0.397556   0.409664   0.425521  -0.130586  -0.020431
     2  H    0.397556   0.466103  -0.019213  -0.019547  -0.023761   0.000106
     3  H    0.409664  -0.019213   0.457632  -0.018521  -0.014534   0.000319
     4  H    0.425521  -0.019547  -0.018521   0.422357   0.017287  -0.000063
     5  C   -0.130586  -0.023761  -0.014534   0.017287   5.532398   0.385847
     6  H   -0.020431   0.000106   0.000319  -0.000063   0.385847   0.451089
     7  H    0.016559  -0.000080   0.000259  -0.000217   0.403443  -0.016968
     8  H   -0.011643   0.000682   0.001505   0.000176   0.425588  -0.019752
     9  C   -0.102524  -0.016913   0.023244  -0.015747  -0.190987  -0.013280
    10  H   -0.006144  -0.000009  -0.000217   0.000035   0.012189   0.000084
    11  H    0.006099   0.000291  -0.000245   0.000088   0.004261  -0.000480
    12  H    0.001580   0.000259   0.000945  -0.000493  -0.016913  -0.000098
    13  C   -0.317386   0.043135  -0.038382  -0.000497  -0.143036   0.050265
    14  H   -0.004960  -0.000038  -0.000335  -0.000194  -0.021928  -0.000000
    15  H    0.007288   0.000102   0.000254   0.001392   0.013146  -0.000231
    16  C    0.057486   0.000965   0.002156  -0.014524  -0.034272  -0.003046
    17  H    0.007602  -0.000039   0.000037   0.000097  -0.014096  -0.000427
    18  H   -0.001403   0.000001   0.000009  -0.000006   0.005468   0.000058
    19  C   -0.070935   0.001078  -0.000177  -0.002059  -0.103211   0.004465
    20  H    0.000421  -0.000000  -0.000001   0.000001   0.002196  -0.000002
    21  H    0.001085  -0.000001   0.000003   0.000002  -0.000842  -0.000003
    22  N    0.266343  -0.028806  -0.008518  -0.030598   0.260339  -0.024374
    23  C    0.040515   0.000216   0.000598  -0.000822  -0.002515  -0.000259
    24  O    0.002255  -0.000004   0.000059  -0.000138  -0.000102  -0.000003
    25  O    0.000081  -0.000064   0.000000  -0.000002   0.001911  -0.000021
    26  O    0.000550   0.000017   0.000020   0.000004   0.001195  -0.000017
    27  H   -0.000397  -0.000010  -0.000002  -0.000002   0.000048  -0.000008
    28  H    0.000105   0.000001  -0.000000  -0.000000  -0.000456   0.000005
               7          8          9         10         11         12
     1  C    0.016559  -0.011643  -0.102524  -0.006144   0.006099   0.001580
     2  H   -0.000080   0.000682  -0.016913  -0.000009   0.000291   0.000259
     3  H    0.000259   0.001505   0.023244  -0.000217  -0.000245   0.000945
     4  H   -0.000217   0.000176  -0.015747   0.000035   0.000088  -0.000493
     5  C    0.403443   0.425588  -0.190987   0.012189   0.004261  -0.016913
     6  H   -0.016968  -0.019752  -0.013280   0.000084  -0.000480  -0.000098
     7  H    0.435957  -0.017539  -0.005411   0.000146   0.000580   0.000295
     8  H   -0.017539   0.452448   0.025364  -0.000230   0.000607  -0.000023
     9  C   -0.005411   0.025364   5.803088   0.339700   0.435481   0.398098
    10  H    0.000146  -0.000230   0.339700   0.403765  -0.011047  -0.018882
    11  H    0.000580   0.000607   0.435481  -0.011047   0.433738  -0.019584
    12  H    0.000295  -0.000023   0.398098  -0.018882  -0.019584   0.482686
    13  C   -0.043589  -0.041302  -0.425476   0.020000  -0.004782   0.009428
    14  H    0.000064  -0.001056   0.022294   0.000239  -0.000321  -0.000073
    15  H   -0.000041   0.000336  -0.015546  -0.005836   0.000005   0.000369
    16  C    0.019417   0.002914  -0.085234   0.016436  -0.032474   0.007932
    17  H   -0.000531   0.000310   0.025768  -0.009495  -0.000480  -0.000015
    18  H   -0.001034   0.000146  -0.006625   0.000429   0.000266  -0.000051
    19  C    0.002875  -0.004887   0.090022  -0.031899   0.008776  -0.000350
    20  H    0.000011  -0.000004  -0.001516   0.000538   0.000021  -0.000004
    21  H   -0.000004   0.000022   0.001329  -0.000458  -0.000008   0.000004
    22  N   -0.023384  -0.020828   0.173377  -0.008926  -0.042080  -0.031709
    23  C    0.001629  -0.000134  -0.003469   0.019032  -0.003485   0.001365
    24  O    0.000013  -0.000010   0.008445  -0.002229  -0.000013  -0.000028
    25  O   -0.000045   0.000024  -0.033072   0.023879  -0.000823   0.000564
    26  O   -0.000584  -0.000080  -0.038367   0.002824  -0.016783   0.002892
    27  H   -0.000051   0.000003   0.001402  -0.002130   0.000844  -0.000201
    28  H    0.000012  -0.000000   0.003288   0.000154  -0.000774  -0.000003
              13         14         15         16         17         18
     1  C   -0.317386  -0.004960   0.007288   0.057486   0.007602  -0.001403
     2  H    0.043135  -0.000038   0.000102   0.000965  -0.000039   0.000001
     3  H   -0.038382  -0.000335   0.000254   0.002156   0.000037   0.000009
     4  H   -0.000497  -0.000194   0.001392  -0.014524   0.000097  -0.000006
     5  C   -0.143036  -0.021928   0.013146  -0.034272  -0.014096   0.005468
     6  H    0.050265  -0.000000  -0.000231  -0.003046  -0.000427   0.000058
     7  H   -0.043589   0.000064  -0.000041   0.019417  -0.000531  -0.001034
     8  H   -0.041302  -0.001056   0.000336   0.002914   0.000310   0.000146
     9  C   -0.425476   0.022294  -0.015546  -0.085234   0.025768  -0.006625
    10  H    0.020000   0.000239  -0.005836   0.016436  -0.009495   0.000429
    11  H   -0.004782  -0.000321   0.000005  -0.032474  -0.000480   0.000266
    12  H    0.009428  -0.000073   0.000369   0.007932  -0.000015  -0.000051
    13  C    7.378356   0.320043   0.404327  -0.823696  -0.173266   0.025698
    14  H    0.320043   0.466526  -0.023948   0.018256   0.003602  -0.012513
    15  H    0.404327  -0.023948   0.398715  -0.036811   0.000512   0.003340
    16  C   -0.823696   0.018256  -0.036811   7.234749   0.511684   0.360871
    17  H   -0.173266   0.003602   0.000512   0.511684   0.473336  -0.042001
    18  H    0.025698  -0.012513   0.003340   0.360871  -0.042001   0.531659
    19  C    0.395000  -0.007087  -0.053991  -1.021562  -0.036430  -0.034422
    20  H    0.047347  -0.000209   0.000596  -0.062835  -0.009445  -0.001070
    21  H   -0.048805  -0.000045   0.002557   0.041814   0.005324  -0.007618
    22  N   -0.072716   0.019424  -0.006531   0.039280   0.057200  -0.008055
    23  C   -0.222888   0.014584   0.043127  -0.006813   0.001520   0.025558
    24  O   -0.044016   0.000608   0.015808  -0.047817  -0.000163  -0.001608
    25  O   -0.025075  -0.000622  -0.006193   0.118345  -0.006437  -0.001755
    26  O    0.019169  -0.000202   0.000169  -0.049074  -0.003729   0.002076
    27  H   -0.005384  -0.000020  -0.000367   0.045015  -0.003228  -0.000214
    28  H   -0.001889   0.000002  -0.000034   0.005537  -0.001555  -0.000064
              19         20         21         22         23         24
     1  C   -0.070935   0.000421   0.001085   0.266343   0.040515   0.002255
     2  H    0.001078  -0.000000  -0.000001  -0.028806   0.000216  -0.000004
     3  H   -0.000177  -0.000001   0.000003  -0.008518   0.000598   0.000059
     4  H   -0.002059   0.000001   0.000002  -0.030598  -0.000822  -0.000138
     5  C   -0.103211   0.002196  -0.000842   0.260339  -0.002515  -0.000102
     6  H    0.004465  -0.000002  -0.000003  -0.024374  -0.000259  -0.000003
     7  H    0.002875   0.000011  -0.000004  -0.023384   0.001629   0.000013
     8  H   -0.004887  -0.000004   0.000022  -0.020828  -0.000134  -0.000010
     9  C    0.090022  -0.001516   0.001329   0.173377  -0.003469   0.008445
    10  H   -0.031899   0.000538  -0.000458  -0.008926   0.019032  -0.002229
    11  H    0.008776   0.000021  -0.000008  -0.042080  -0.003485  -0.000013
    12  H   -0.000350  -0.000004   0.000004  -0.031709   0.001365  -0.000028
    13  C    0.395000   0.047347  -0.048805  -0.072716  -0.222888  -0.044016
    14  H   -0.007087  -0.000209  -0.000045   0.019424   0.014584   0.000608
    15  H   -0.053991   0.000596   0.002557  -0.006531   0.043127   0.015808
    16  C   -1.021562  -0.062835   0.041814   0.039280  -0.006813  -0.047817
    17  H   -0.036430  -0.009445   0.005324   0.057200   0.001520  -0.000163
    18  H   -0.034422  -0.001070  -0.007618  -0.008055   0.025558  -0.001608
    19  C    7.206405   0.415347   0.395171  -0.113858  -0.602716  -0.029882
    20  H    0.415347   0.517633  -0.034104   0.000684  -0.047250   0.007115
    21  H    0.395171  -0.034104   0.506238   0.001362  -0.021982  -0.025425
    22  N   -0.113858   0.000684   0.001362   6.696464   0.070322   0.006577
    23  C   -0.602716  -0.047250  -0.021982   0.070322   5.790926   0.431960
    24  O   -0.029882   0.007115  -0.025425   0.006577   0.431960   8.290167
    25  O   -0.039211  -0.015592   0.006908  -0.013470   0.300207  -0.101349
    26  O    0.003651   0.001684  -0.000469   0.008273   0.036221   0.001671
    27  H   -0.000171  -0.002219   0.000273  -0.003739  -0.033974  -0.001710
    28  H    0.000351   0.000082   0.000003  -0.000121  -0.001884   0.000083
              25         26         27         28
     1  C    0.000081   0.000550  -0.000397   0.000105
     2  H   -0.000064   0.000017  -0.000010   0.000001
     3  H    0.000000   0.000020  -0.000002  -0.000000
     4  H   -0.000002   0.000004  -0.000002  -0.000000
     5  C    0.001911   0.001195   0.000048  -0.000456
     6  H   -0.000021  -0.000017  -0.000008   0.000005
     7  H   -0.000045  -0.000584  -0.000051   0.000012
     8  H    0.000024  -0.000080   0.000003  -0.000000
     9  C   -0.033072  -0.038367   0.001402   0.003288
    10  H    0.023879   0.002824  -0.002130   0.000154
    11  H   -0.000823  -0.016783   0.000844  -0.000774
    12  H    0.000564   0.002892  -0.000201  -0.000003
    13  C   -0.025075   0.019169  -0.005384  -0.001889
    14  H   -0.000622  -0.000202  -0.000020   0.000002
    15  H   -0.006193   0.000169  -0.000367  -0.000034
    16  C    0.118345  -0.049074   0.045015   0.005537
    17  H   -0.006437  -0.003729  -0.003228  -0.001555
    18  H   -0.001755   0.002076  -0.000214  -0.000064
    19  C   -0.039211   0.003651  -0.000171   0.000351
    20  H   -0.015592   0.001684  -0.002219   0.000082
    21  H    0.006908  -0.000469   0.000273   0.000003
    22  N   -0.013470   0.008273  -0.003739  -0.000121
    23  C    0.300207   0.036221  -0.033974  -0.001884
    24  O   -0.101349   0.001671  -0.001710   0.000083
    25  O    8.333654  -0.096818   0.114572   0.004495
    26  O   -0.096818   8.312175   0.227623   0.251874
    27  H    0.114572   0.227623   0.319767  -0.009996
    28  H    0.004495   0.251874  -0.009996   0.447576
 Mulliken charges:
               1
     1  C   -0.409168
     2  H    0.197975
     3  H    0.203441
     4  H    0.236469
     5  C   -0.368074
     6  H    0.207224
     7  H    0.228216
     8  H    0.207365
     9  C   -0.396728
    10  H    0.258051
    11  H    0.242320
    12  H    0.182007
    13  C   -0.280586
    14  H    0.207910
    15  H    0.257483
    16  C   -0.264700
    17  H    0.214346
    18  H    0.162861
    19  C   -0.370295
    20  H    0.180576
    21  H    0.177668
    22  N   -0.161930
    23  C    0.170410
    24  O   -0.510265
    25  O   -0.564094
    26  O   -0.665964
    27  H    0.354277
    28  H    0.303207
 Sum of Mulliken charges =  -0.00000
 Mulliken charges with hydrogens summed into heavy atoms:
               1
     1  C    0.228716
     5  C    0.274730
     9  C    0.285650
    13  C    0.184806
    16  C    0.112507
    19  C   -0.012051
    22  N   -0.161930
    23  C    0.170410
    24  O   -0.510265
    25  O   -0.564094
    26  O   -0.008480
         Mulliken charges condensed to fragments:
      1      0.008480
      2     -0.008480
 Electronic spatial extent (au):  <R**2>=         144171.1802
 Charge=             -0.0000 electrons
 Dipole moment (field-independent basis, Debye):
    X=             -1.8531    Y=            -13.3062    Z=             -0.5723  Tot=             13.4468
 Quadrupole moment (field-independent basis, Debye-Ang):
   XX=           -138.2066   YY=           -295.5567   ZZ=            -71.2827
   XY=           -249.8531   XZ=            -20.9963   YZ=            -71.9105
 Traceless Quadrupole moment (field-independent basis, Debye-Ang):
   XX=             30.1421   YY=           -127.2080   ZZ=             97.0660
   XY=           -249.8531   XZ=            -20.9963   YZ=            -71.9105
 Octapole moment (field-independent basis, Debye-Ang**2):
  XXX=          -5742.0275  YYY=          -4675.4575  ZZZ=          -1191.8257  XYY=          -5388.7450
  XXY=          -5270.2983  XXZ=           -990.1323  XZZ=          -1380.3681  YZZ=           -926.0924
  YYZ=          -1578.6491  XYZ=          -1352.1370
 Hexadecapole moment (field-independent basis, Debye-Ang**3):
 XXXX=        -188655.1664 YYYY=         -64979.1220 ZZZZ=         -14209.9672 XXXY=        -119988.4516
 XXXZ=         -36899.9638 YYYX=         -84836.2409 YYYZ=         -25241.5949 ZZZX=         -22457.8912
 ZZZY=         -11633.8491 XXYY=        -103433.4704 XXZZ=         -29286.9221 YYZZ=         -13183.5151
 XXYZ=         -28852.1589 YYXZ=         -28781.1121 ZZXY=         -17304.2569
 N-N= 7.103128524104D+02 E-N=-2.722909126812D+03  KE= 5.548273351734D+02
 No NMR shielding tensors so no spin-rotation constants.
 Leave Link  601 at Mon Feb 20 00:28:08 2023, MaxMem=  6710886400 cpu:               2.7 elap:               0.2
 (Enter /data0/home/software/g16/l122.exe)
 CPIOFr:  IOpCl= 0 IRwI=-1 IRwCP=  731 ICalc= -1 LCPTot=      247647 Len1MO=      645595 IndFrg=      247647
 CPIOFr:  IOpCl= 0 IRwI=-1 IRwCP=  731 ICalc=  0 LCPTot=      247647 Len1MO=      645595 IndFrg=      893242
 Counterpoise: doing calculation for fragment   1 using the basis set of the full-system, NewBq=T
 Leave Link  122 at Mon Feb 20 00:28:08 2023, MaxMem=  6710886400 cpu:               0.3 elap:               0.0
 (Enter /data0/home/software/g16/l301.exe)
 Basis read from rwf:  (5D, 7F)
 No pseudopotential information found on rwf file.
   399 basis functions,   598 primitive gaussians,   421 cartesian basis functions
    40 alpha electrons       40 beta electrons
       nuclear repulsion energy       587.0598354086 Hartrees.
 IExCor= 4336 DFT=T Ex+Corr=M062X ExCW=0 ScaHFX=  0.540000
 ScaDFX=  1.000000  1.000000  1.000000  1.000000 ScalE2=  1.000000  1.000000
 IRadAn=      5 IRanWt=     -1 IRanGd=            0 ICorTp=0 IEmpDi=131
 NAtoms=   28 NActive=   28 NUniq=   28 SFac= 1.00D+00 NAtFMM=   60 NAOKFM=F Big=F
 Integral buffers will be    131072 words long.
 Raffenetti 2 integral format.
 Two-electron integral symmetry is turned off.
 R6Disp:  Grimme-D3 Dispersion energy=       -0.0010347501 Hartrees.
 Nuclear repulsion after empirical dispersion term =      587.0588006585 Hartrees.
 No density basis found on file   718.
 Leave Link  301 at Mon Feb 20 00:28:08 2023, MaxMem=  6710886400 cpu:               1.3 elap:               0.1
 (Enter /data0/home/software/g16/l302.exe)
 NPDir=0 NMtPBC=     1 NCelOv=     1 NCel=       1 NClECP=     1 NCelD=      1
         NCelK=      1 NCelE2=     1 NClLst=     1 CellRange=     0.0.
 One-electron integrals computed using PRISM.
 NBasis=   399 RedAO= T EigKep=  9.37D-06  NBF=   399
 NBsUse=   399 1.00D-06 EigRej= -1.00D+00 NBFU=   399
 Precomputing XC quadrature grid using
 IXCGrd= 4 IRadAn=           5 IRanWt=          -1 IRanGd=           0 AccXCQ= 0.00D+00.
 Generated NRdTot=       0 NPtTot=           0 NUsed=           0 NTot=          32
 NSgBfM=   421   421   421   421   421 MxSgAt=    28 MxSgA2=    28.
 Leave Link  302 at Mon Feb 20 00:28:08 2023, MaxMem=  6710886400 cpu:               8.4 elap:               0.4
 (Enter /data0/home/software/g16/l303.exe)
 DipDrv:  MaxL=1.
 Leave Link  303 at Mon Feb 20 00:28:08 2023, MaxMem=  6710886400 cpu:               1.0 elap:               0.1
 (Enter /data0/home/software/g16/l401.exe)
 ExpMin= 4.38D-02 ExpMax= 8.59D+03 ExpMxC= 1.30D+03 IAcc=3 IRadAn=         5 AccDes= 0.00D+00
 Harris functional with IExCor= 1009 and IRadAn=       5 diagonalized for initial guess.
 HarFok:  IExCor= 1009 AccDes= 0.00D+00 IRadAn=         5 IDoV= 1 UseB2=F ITyADJ=14
 ICtDFT=  3500011 ScaDFX=  1.000000  1.000000  1.000000  1.000000
 FoFCou: FMM=F IPFlag=           0 FMFlag=      100000 FMFlg1=           0
         NFxFlg=           0 DoJE=T BraDBF=F KetDBF=T FulRan=T
         wScrn=  0.000000 ICntrl=       500 IOpCl=  0 I1Cent=   200000004 NGrid=           0
         NMat0=    1 NMatS0=      1 NMatT0=    0 NMatD0=    1 NMtDS0=    0 NMtDT0=    0
 Symmetry not used in FoFCou.
 Harris En= -480.723901688123    
 JPrj=0 DoOrth=F DoCkMO=F.
 Leave Link  401 at Mon Feb 20 00:28:10 2023, MaxMem=  6710886400 cpu:              35.5 elap:               1.5
 (Enter /data0/home/software/g16/l502.exe)
 Two-electron integral symmetry not used.
 Closed shell SCF:
 Using DIIS extrapolation, IDIIS=  1040.
 NGot=  6710886400 LenX=  6710518669 LenY=  6710340987
 Requested convergence on RMS density matrix=1.00D-08 within 128 cycles.
 Requested convergence on MAX density matrix=1.00D-06.
 Requested convergence on             energy=1.00D-06.
 No special actions if energy rises.
 Fock matrices will be formed incrementally for  20 cycles.

 Cycle   1  Pass 1  IDiag  1:
 FoFJK:  IHMeth= 1 ICntrl=       0 DoSepK=F KAlg= 0 I1Cent=           0 FoldK=F
 IRaf= 930000000 NMat=       1 IRICut=       1 DoRegI=T DoRafI=F ISym2E= 0 IDoP0=0 IntGTp=1.
 FoFCou: FMM=F IPFlag=           0 FMFlag=      100000 FMFlg1=           0
         NFxFlg=           0 DoJE=F BraDBF=F KetDBF=F FulRan=T
         wScrn=  0.000000 ICntrl=         0 IOpCl=  0 I1Cent=           0 NGrid=           0
         NMat0=    1 NMatS0=      1 NMatT0=    0 NMatD0=    1 NMtDS0=    0 NMtDT0=    0
 Symmetry not used in FoFCou.
 E= -480.473115542301    
 DIIS: error= 2.33D-02 at cycle   1 NSaved=   1.
 NSaved= 1 IEnMin= 1 EnMin= -480.473115542301     IErMin= 1 ErrMin= 2.33D-02
 ErrMax= 2.33D-02  0.00D+00 EMaxC= 1.00D-01 BMatC= 4.94D-01 BMatP= 4.94D-01
 IDIUse=3 WtCom= 7.67D-01 WtEn= 2.33D-01
 Coeff-Com:  0.100D+01
 Coeff-En:   0.100D+01
 Coeff:      0.100D+01
 Gap=     0.306 Goal=   None    Shift=    0.000
 GapD=    0.306 DampG=1.000 DampE=0.500 DampFc=0.5000 IDamp=-1.
 Damping current iteration by 5.00D-01
 RMSDP=1.57D-02 MaxDP=1.65D+00              OVMax= 4.33D-01

 Cycle   2  Pass 1  IDiag  1:
 RMSU=  7.81D-03    CP:  1.10D+00
 E= -480.608052213719     Delta-E=       -0.134936671418 Rises=F Damp=T
 DIIS: error= 5.12D-03 at cycle   2 NSaved=   2.
 NSaved= 2 IEnMin= 2 EnMin= -480.608052213719     IErMin= 2 ErrMin= 5.12D-03
 ErrMax= 5.12D-03  0.00D+00 EMaxC= 1.00D-01 BMatC= 4.28D-02 BMatP= 4.94D-01
 IDIUse=3 WtCom= 9.49D-01 WtEn= 5.12D-02
 Coeff-Com:  0.549D-01 0.945D+00
 Coeff-En:   0.195D+00 0.805D+00
 Coeff:      0.620D-01 0.938D+00
 Gap=     0.190 Goal=   None    Shift=    0.000
 RMSDP=7.48D-03 MaxDP=8.67D-01 DE=-1.35D-01 OVMax= 3.24D-01

 Cycle   3  Pass 1  IDiag  1:
 RMSU=  3.11D-03    CP:  9.42D-01  1.52D-01
 E= -480.828546036842     Delta-E=       -0.220493823123 Rises=F Damp=F
 DIIS: error= 6.55D-03 at cycle   3 NSaved=   3.
 NSaved= 3 IEnMin= 3 EnMin= -480.828546036842     IErMin= 2 ErrMin= 5.12D-03
 ErrMax= 6.55D-03  0.00D+00 EMaxC= 1.00D-01 BMatC= 2.33D-02 BMatP= 4.28D-02
 IDIUse=3 WtCom= 9.35D-01 WtEn= 6.55D-02
 Coeff-Com: -0.600D-01 0.409D+00 0.651D+00
 Coeff-En:   0.000D+00 0.000D+00 0.100D+01
 Coeff:     -0.561D-01 0.383D+00 0.673D+00
 Gap=     0.211 Goal=   None    Shift=    0.000
 RMSDP=9.39D-04 MaxDP=1.35D-01 DE=-2.20D-01 OVMax= 3.54D-02

 Cycle   4  Pass 1  IDiag  1:
 RMSU=  7.92D-04    CP:  9.71D-01  1.91D-01  1.09D+00
 E= -480.845061161093     Delta-E=       -0.016515124251 Rises=F Damp=F
 DIIS: error= 1.85D-03 at cycle   4 NSaved=   4.
 NSaved= 4 IEnMin= 4 EnMin= -480.845061161093     IErMin= 4 ErrMin= 1.85D-03
 ErrMax= 1.85D-03  0.00D+00 EMaxC= 1.00D-01 BMatC= 2.83D-03 BMatP= 2.33D-02
 IDIUse=3 WtCom= 9.81D-01 WtEn= 1.85D-02
 Coeff-Com: -0.377D-01 0.961D-01 0.296D+00 0.646D+00
 Coeff-En:   0.000D+00 0.000D+00 0.000D+00 0.100D+01
 Coeff:     -0.370D-01 0.944D-01 0.291D+00 0.652D+00
 Gap=     0.208 Goal=   None    Shift=    0.000
 RMSDP=3.17D-04 MaxDP=2.03D-02 DE=-1.65D-02 OVMax= 1.26D-02

 Cycle   5  Pass 1  IDiag  1:
 RMSU=  2.87D-04    CP:  9.63D-01  1.83D-01  1.09D+00  8.92D-01
 E= -480.847448090222     Delta-E=       -0.002386929129 Rises=F Damp=F
 DIIS: error= 5.27D-04 at cycle   5 NSaved=   5.
 NSaved= 5 IEnMin= 5 EnMin= -480.847448090222     IErMin= 5 ErrMin= 5.27D-04
 ErrMax= 5.27D-04  0.00D+00 EMaxC= 1.00D-01 BMatC= 2.42D-04 BMatP= 2.83D-03
 IDIUse=3 WtCom= 9.95D-01 WtEn= 5.27D-03
 Coeff-Com: -0.128D-01 0.192D-01 0.754D-01 0.278D+00 0.640D+00
 Coeff-En:   0.000D+00 0.000D+00 0.000D+00 0.000D+00 0.100D+01
 Coeff:     -0.127D-01 0.191D-01 0.750D-01 0.276D+00 0.642D+00
 Gap=     0.208 Goal=   None    Shift=    0.000
 RMSDP=1.07D-04 MaxDP=1.13D-02 DE=-2.39D-03 OVMax= 5.75D-03

 Cycle   6  Pass 1  IDiag  1:
 RMSU=  7.42D-05    CP:  9.66D-01  1.81D-01  1.10D+00  9.75D-01  1.08D+00
 E= -480.847632453982     Delta-E=       -0.000184363759 Rises=F Damp=F
 DIIS: error= 2.48D-04 at cycle   6 NSaved=   6.
 NSaved= 6 IEnMin= 6 EnMin= -480.847632453982     IErMin= 6 ErrMin= 2.48D-04
 ErrMax= 2.48D-04  0.00D+00 EMaxC= 1.00D-01 BMatC= 4.51D-05 BMatP= 2.42D-04
 IDIUse=3 WtCom= 9.98D-01 WtEn= 2.48D-03
 Coeff-Com:  0.112D-04-0.407D-02-0.822D-02 0.325D-01 0.326D+00 0.653D+00
 Coeff-En:   0.000D+00 0.000D+00 0.000D+00 0.000D+00 0.230D-02 0.998D+00
 Coeff:      0.112D-04-0.406D-02-0.820D-02 0.325D-01 0.326D+00 0.654D+00
 Gap=     0.209 Goal=   None    Shift=    0.000
 RMSDP=5.83D-05 MaxDP=5.16D-03 DE=-1.84D-04 OVMax= 2.91D-03

 Cycle   7  Pass 1  IDiag  1:
 RMSU=  3.89D-05    CP:  9.66D-01  1.79D-01  1.10D+00  9.79D-01  1.21D+00
                    CP:  1.19D+00
 E= -480.847668191713     Delta-E=       -0.000035737731 Rises=F Damp=F
 DIIS: error= 8.13D-05 at cycle   7 NSaved=   7.
 NSaved= 7 IEnMin= 7 EnMin= -480.847668191713     IErMin= 7 ErrMin= 8.13D-05
 ErrMax= 8.13D-05  0.00D+00 EMaxC= 1.00D-01 BMatC= 5.95D-06 BMatP= 4.51D-05
 IDIUse=1 WtCom= 1.00D+00 WtEn= 0.00D+00
 Coeff-Com:  0.202D-02-0.511D-02-0.126D-01-0.200D-01 0.813D-01 0.318D+00
 Coeff-Com:  0.637D+00
 Coeff:      0.202D-02-0.511D-02-0.126D-01-0.200D-01 0.813D-01 0.318D+00
 Coeff:      0.637D+00
 Gap=     0.210 Goal=   None    Shift=    0.000
 RMSDP=2.53D-05 MaxDP=2.59D-03 DE=-3.57D-05 OVMax= 9.01D-04

 Cycle   8  Pass 1  IDiag  1:
 RMSU=  1.43D-05    CP:  9.65D-01  1.78D-01  1.10D+00  9.66D-01  1.26D+00
                    CP:  1.25D+00  1.14D+00
 E= -480.847672919684     Delta-E=       -0.000004727971 Rises=F Damp=F
 DIIS: error= 2.98D-05 at cycle   8 NSaved=   8.
 NSaved= 8 IEnMin= 8 EnMin= -480.847672919684     IErMin= 8 ErrMin= 2.98D-05
 ErrMax= 2.98D-05  0.00D+00 EMaxC= 1.00D-01 BMatC= 5.92D-07 BMatP= 5.95D-06
 IDIUse=1 WtCom= 1.00D+00 WtEn= 0.00D+00
 Coeff-Com:  0.717D-03-0.136D-02-0.237D-02-0.939D-02-0.233D-02 0.430D-01
 Coeff-Com:  0.267D+00 0.705D+00
 Coeff:      0.717D-03-0.136D-02-0.237D-02-0.939D-02-0.233D-02 0.430D-01
 Coeff:      0.267D+00 0.705D+00
 Gap=     0.210 Goal=   None    Shift=    0.000
 RMSDP=1.44D-05 MaxDP=1.52D-03 DE=-4.73D-06 OVMax= 3.22D-04

 Cycle   9  Pass 1  IDiag  1:
 RMSU=  5.90D-06    CP:  9.64D-01  1.78D-01  1.10D+00  9.57D-01  1.27D+00
                    CP:  1.27D+00  1.27D+00  1.29D+00
 E= -480.847673496727     Delta-E=       -0.000000577043 Rises=F Damp=F
 DIIS: error= 1.44D-05 at cycle   9 NSaved=   9.
 NSaved= 9 IEnMin= 9 EnMin= -480.847673496727     IErMin= 9 ErrMin= 1.44D-05
 ErrMax= 1.44D-05  0.00D+00 EMaxC= 1.00D-01 BMatC= 4.39D-08 BMatP= 5.92D-07
 IDIUse=1 WtCom= 1.00D+00 WtEn= 0.00D+00
 Coeff-Com:  0.126D-04 0.122D-03 0.544D-03-0.997D-03-0.677D-02-0.174D-01
 Coeff-Com:  0.267D-01 0.230D+00 0.768D+00
 Coeff:      0.126D-04 0.122D-03 0.544D-03-0.997D-03-0.677D-02-0.174D-01
 Coeff:      0.267D-01 0.230D+00 0.768D+00
 Gap=     0.210 Goal=   None    Shift=    0.000
 RMSDP=4.94D-06 MaxDP=5.55D-04 DE=-5.77D-07 OVMax= 9.86D-05

 Cycle  10  Pass 1  IDiag  1:
 RMSU=  1.08D-06    CP:  9.64D-01  1.77D-01  1.10D+00  9.54D-01  1.27D+00
                    CP:  1.28D+00  1.33D+00  1.43D+00  1.16D+00
 E= -480.847673540664     Delta-E=       -0.000000043937 Rises=F Damp=F
 DIIS: error= 5.00D-06 at cycle  10 NSaved=  10.
 NSaved=10 IEnMin=10 EnMin= -480.847673540664     IErMin=10 ErrMin= 5.00D-06
 ErrMax= 5.00D-06  0.00D+00 EMaxC= 1.00D-01 BMatC= 1.09D-08 BMatP= 4.39D-08
 IDIUse=1 WtCom= 1.00D+00 WtEn= 0.00D+00
 Coeff-Com: -0.945D-04 0.167D-03 0.397D-03 0.818D-03-0.191D-02-0.139D-01
 Coeff-Com: -0.258D-01 0.966D-03 0.358D+00 0.681D+00
 Coeff:     -0.945D-04 0.167D-03 0.397D-03 0.818D-03-0.191D-02-0.139D-01
 Coeff:     -0.258D-01 0.966D-03 0.358D+00 0.681D+00
 Gap=     0.210 Goal=   None    Shift=    0.000
 RMSDP=1.95D-06 MaxDP=2.53D-04 DE=-4.39D-08 OVMax= 3.32D-05

 Cycle  11  Pass 1  IDiag  1:
 RMSU=  3.87D-07    CP:  9.64D-01  1.77D-01  1.10D+00  9.53D-01  1.27D+00
                    CP:  1.28D+00  1.35D+00  1.49D+00  1.26D+00  1.22D+00
 E= -480.847673551454     Delta-E=       -0.000000010790 Rises=F Damp=F
 DIIS: error= 6.32D-07 at cycle  11 NSaved=  11.
 NSaved=11 IEnMin=11 EnMin= -480.847673551454     IErMin=11 ErrMin= 6.32D-07
 ErrMax= 6.32D-07  0.00D+00 EMaxC= 1.00D-01 BMatC= 3.70D-10 BMatP= 1.09D-08
 IDIUse=1 WtCom= 1.00D+00 WtEn= 0.00D+00
 Coeff-Com: -0.241D-04 0.480D-04 0.297D-04 0.127D-03-0.184D-03-0.261D-02
 Coeff-Com: -0.633D-02-0.122D-01 0.385D-01 0.139D+00 0.844D+00
 Coeff:     -0.241D-04 0.480D-04 0.297D-04 0.127D-03-0.184D-03-0.261D-02
 Coeff:     -0.633D-02-0.122D-01 0.385D-01 0.139D+00 0.844D+00
 Gap=     0.210 Goal=   None    Shift=    0.000
 RMSDP=5.18D-07 MaxDP=7.01D-05 DE=-1.08D-08 OVMax= 1.07D-05

 Cycle  12  Pass 1  IDiag  1:
 RMSU=  1.21D-07    CP:  9.64D-01  1.77D-01  1.10D+00  9.52D-01  1.27D+00
                    CP:  1.28D+00  1.35D+00  1.51D+00  1.28D+00  1.29D+00
                    CP:  1.26D+00
 E= -480.847673551993     Delta-E=       -0.000000000539 Rises=F Damp=F
 DIIS: error= 1.80D-07 at cycle  12 NSaved=  12.
 NSaved=12 IEnMin=12 EnMin= -480.847673551993     IErMin=12 ErrMin= 1.80D-07
 ErrMax= 1.80D-07  0.00D+00 EMaxC= 1.00D-01 BMatC= 4.46D-11 BMatP= 3.70D-10
 IDIUse=1 WtCom= 1.00D+00 WtEn= 0.00D+00
 Coeff-Com:  0.402D-05-0.359D-05-0.307D-04-0.768D-04 0.104D-03 0.523D-03
 Coeff-Com:  0.140D-02-0.272D-02-0.267D-01-0.454D-01 0.190D+00 0.882D+00
 Coeff:      0.402D-05-0.359D-05-0.307D-04-0.768D-04 0.104D-03 0.523D-03
 Coeff:      0.140D-02-0.272D-02-0.267D-01-0.454D-01 0.190D+00 0.882D+00
 Gap=     0.210 Goal=   None    Shift=    0.000
 RMSDP=1.44D-07 MaxDP=1.74D-05 DE=-5.39D-10 OVMax= 4.77D-06

 Cycle  13  Pass 1  IDiag  1:
 RMSU=  3.55D-08    CP:  9.64D-01  1.77D-01  1.10D+00  9.52D-01  1.27D+00
                    CP:  1.28D+00  1.35D+00  1.51D+00  1.29D+00  1.32D+00
                    CP:  1.37D+00  1.23D+00
 E= -480.847673552046     Delta-E=       -0.000000000054 Rises=F Damp=F
 DIIS: error= 7.46D-08 at cycle  13 NSaved=  13.
 NSaved=13 IEnMin=13 EnMin= -480.847673552046     IErMin=13 ErrMin= 7.46D-08
 ErrMax= 7.46D-08  0.00D+00 EMaxC= 1.00D-01 BMatC= 5.40D-12 BMatP= 4.46D-11
 IDIUse=1 WtCom= 1.00D+00 WtEn= 0.00D+00
 Coeff-Com:  0.280D-05-0.468D-05-0.720D-05-0.241D-04 0.677D-04 0.298D-03
 Coeff-Com:  0.827D-03-0.414D-03-0.107D-01-0.219D-01-0.150D-01 0.247D+00
 Coeff-Com:  0.800D+00
 Coeff:      0.280D-05-0.468D-05-0.720D-05-0.241D-04 0.677D-04 0.298D-03
 Coeff:      0.827D-03-0.414D-03-0.107D-01-0.219D-01-0.150D-01 0.247D+00
 Coeff:      0.800D+00
 Gap=     0.210 Goal=   None    Shift=    0.000
 RMSDP=1.99D-08 MaxDP=2.21D-06 DE=-5.37D-11 OVMax= 1.46D-06

 Cycle  14  Pass 1  IDiag  1:
 RMSU=  1.01D-08    CP:  9.64D-01  1.77D-01  1.10D+00  9.52D-01  1.27D+00
                    CP:  1.28D+00  1.36D+00  1.51D+00  1.29D+00  1.32D+00
                    CP:  1.39D+00  1.29D+00  1.21D+00
 E= -480.847673552062     Delta-E=       -0.000000000015 Rises=F Damp=F
 DIIS: error= 2.33D-08 at cycle  14 NSaved=  14.
 NSaved=14 IEnMin=14 EnMin= -480.847673552062     IErMin=14 ErrMin= 2.33D-08
 ErrMax= 2.33D-08  0.00D+00 EMaxC= 1.00D-01 BMatC= 6.82D-13 BMatP= 5.40D-12
 IDIUse=1 WtCom= 1.00D+00 WtEn= 0.00D+00
 Coeff-Com: -0.226D-06 0.143D-06 0.560D-05 0.103D-04 0.676D-05-0.440D-04
 Coeff-Com: -0.354D-04 0.141D-03 0.172D-02 0.284D-02-0.292D-01-0.623D-01
 Coeff-Com:  0.214D+00 0.873D+00
 Coeff:     -0.226D-06 0.143D-06 0.560D-05 0.103D-04 0.676D-05-0.440D-04
 Coeff:     -0.354D-04 0.141D-03 0.172D-02 0.284D-02-0.292D-01-0.623D-01
 Coeff:      0.214D+00 0.873D+00
 Gap=     0.210 Goal=   None    Shift=    0.000
 RMSDP=9.95D-09 MaxDP=9.51D-07 DE=-1.55D-11 OVMax= 6.75D-07

 SCF Done:  E(RM062X) =  -480.847673552     A.U. after   14 cycles
            NFock= 14  Conv=0.99D-08     -V/T= 2.0048
 KE= 4.785561342356D+02 PE=-2.295303048790D+03 EE= 7.488404403434D+02
 Leave Link  502 at Mon Feb 20 00:29:11 2023, MaxMem=  6710886400 cpu:            1455.5 elap:              60.9
 (Enter /data0/home/software/g16/l601.exe)
 Copying SCF densities to generalized density rwf, IOpCl= 0 IROHF=0.

 **********************************************************************

            Population analysis using the SCF density.

 **********************************************************************

 Alpha  occ. eigenvalues --  -19.49325 -19.49287 -14.92728 -10.64869 -10.64695
 Alpha  occ. eigenvalues --  -10.62346 -10.62147 -10.55810 -10.55782 -10.50484
 Alpha  occ. eigenvalues --   -1.17193  -1.08813  -0.98737  -0.91199  -0.89168
 Alpha  occ. eigenvalues --   -0.87928  -0.82502  -0.75414  -0.69546  -0.64128
 Alpha  occ. eigenvalues --   -0.64014  -0.62245  -0.56848  -0.55777  -0.53617
 Alpha  occ. eigenvalues --   -0.52029  -0.51413  -0.51046  -0.50430  -0.49060
 Alpha  occ. eigenvalues --   -0.48118  -0.46201  -0.43467  -0.43286  -0.41847
 Alpha  occ. eigenvalues --   -0.38765  -0.37794  -0.25043  -0.24646  -0.23970
 Alpha virt. eigenvalues --   -0.02988  -0.00749  -0.00499   0.00801   0.01242
 Alpha virt. eigenvalues --    0.02578   0.03021   0.03506   0.04072   0.04927
 Alpha virt. eigenvalues --    0.06282   0.06745   0.07312   0.08123   0.08716
 Alpha virt. eigenvalues --    0.09205   0.10046   0.11165   0.11559   0.11878
 Alpha virt. eigenvalues --    0.12308   0.12950   0.13254   0.13596   0.14096
 Alpha virt. eigenvalues --    0.14373   0.14775   0.15889   0.15980   0.16332
 Alpha virt. eigenvalues --    0.16933   0.17197   0.17547   0.18574   0.19399
 Alpha virt. eigenvalues --    0.19700   0.19985   0.20575   0.21529   0.22173
 Alpha virt. eigenvalues --    0.22732   0.23726   0.24068   0.24730   0.25125
 Alpha virt. eigenvalues --    0.25470   0.26016   0.26881   0.27424   0.28039
 Alpha virt. eigenvalues --    0.28743   0.29855   0.30735   0.31879   0.32819
 Alpha virt. eigenvalues --    0.33273   0.33853   0.34768   0.35240   0.36933
 Alpha virt. eigenvalues --    0.37191   0.38182   0.39279   0.40323   0.40865
 Alpha virt. eigenvalues --    0.41265   0.42636   0.43093   0.44361   0.44463
 Alpha virt. eigenvalues --    0.44966   0.46447   0.47694   0.48235   0.48667
 Alpha virt. eigenvalues --    0.50726   0.51171   0.51338   0.52384   0.54052
 Alpha virt. eigenvalues --    0.55236   0.56260   0.56950   0.57352   0.58699
 Alpha virt. eigenvalues --    0.59331   0.60590   0.61376   0.61608   0.61966
 Alpha virt. eigenvalues --    0.63340   0.64238   0.65263   0.65510   0.67005
 Alpha virt. eigenvalues --    0.67811   0.68820   0.69998   0.70470   0.71055
 Alpha virt. eigenvalues --    0.71601   0.73276   0.74107   0.74215   0.75410
 Alpha virt. eigenvalues --    0.76562   0.76933   0.77634   0.79380   0.79836
 Alpha virt. eigenvalues --    0.81501   0.82684   0.83261   0.84504   0.85502
 Alpha virt. eigenvalues --    0.87255   0.88277   0.90039   0.90723   0.91789
 Alpha virt. eigenvalues --    0.94355   0.96256   0.96590   0.97378   0.99253
 Alpha virt. eigenvalues --    1.01849   1.03949   1.04983   1.07398   1.09706
 Alpha virt. eigenvalues --    1.10566   1.11904   1.12804   1.13602   1.14719
 Alpha virt. eigenvalues --    1.15985   1.16856   1.18833   1.19545   1.20584
 Alpha virt. eigenvalues --    1.22217   1.23243   1.24148   1.25552   1.25704
 Alpha virt. eigenvalues --    1.26462   1.29428   1.29849   1.30470   1.32506
 Alpha virt. eigenvalues --    1.33415   1.36220   1.37119   1.38393   1.39753
 Alpha virt. eigenvalues --    1.40673   1.41659   1.43236   1.44224   1.45726
 Alpha virt. eigenvalues --    1.47348   1.48349   1.49445   1.53620   1.55272
 Alpha virt. eigenvalues --    1.56132   1.58330   1.58726   1.65380   1.69925
 Alpha virt. eigenvalues --    1.70938   1.72556   1.72914   1.73906   1.75746
 Alpha virt. eigenvalues --    1.77675   1.79260   1.80719   1.82301   1.82397
 Alpha virt. eigenvalues --    1.84039   1.84994   1.86369   1.87697   1.88498
 Alpha virt. eigenvalues --    1.89226   1.90474   1.91283   1.91873   1.93400
 Alpha virt. eigenvalues --    1.93992   1.96121   1.99007   2.00065   2.01232
 Alpha virt. eigenvalues --    2.05201   2.06504   2.10305   2.13471   2.14240
 Alpha virt. eigenvalues --    2.17025   2.17591   2.19115   2.20954   2.22916
 Alpha virt. eigenvalues --    2.23201   2.24948   2.25351   2.26796   2.28526
 Alpha virt. eigenvalues --    2.29989   2.30505   2.32531   2.33057   2.34401
 Alpha virt. eigenvalues --    2.35306   2.35975   2.36648   2.38611   2.38788
 Alpha virt. eigenvalues --    2.39554   2.41919   2.43311   2.45424   2.47263
 Alpha virt. eigenvalues --    2.48066   2.52800   2.54895   2.56811   2.57840
 Alpha virt. eigenvalues --    2.59184   2.63267   2.65346   2.66645   2.69659
 Alpha virt. eigenvalues --    2.70002   2.71277   2.72632   2.73522   2.75771
 Alpha virt. eigenvalues --    2.78975   2.82070   2.83682   2.85168   2.87652
 Alpha virt. eigenvalues --    2.90082   2.91510   2.93180   2.95381   2.97304
 Alpha virt. eigenvalues --    2.98565   3.01592   3.01847   3.04056   3.04534
 Alpha virt. eigenvalues --    3.11216   3.14132   3.16031   3.16821   3.19008
 Alpha virt. eigenvalues --    3.22049   3.24827   3.25646   3.30318   3.31525
 Alpha virt. eigenvalues --    3.33710   3.35149   3.36891   3.38459   3.40081
 Alpha virt. eigenvalues --    3.41401   3.43032   3.47482   3.49148   3.50708
 Alpha virt. eigenvalues --    3.52778   3.52951   3.56365   3.57146   3.57970
 Alpha virt. eigenvalues --    3.59983   3.61525   3.62111   3.62524   3.64239
 Alpha virt. eigenvalues --    3.66127   3.67722   3.69824   3.72150   3.72883
 Alpha virt. eigenvalues --    3.74572   3.75988   3.76476   3.79582   3.81470
 Alpha virt. eigenvalues --    3.82421   3.85935   3.91248   3.93318   3.99966
 Alpha virt. eigenvalues --    4.05283   4.11350   4.12514   4.13370   4.14268
 Alpha virt. eigenvalues --    4.15670   4.17630   4.20030   4.26560   4.29246
 Alpha virt. eigenvalues --    4.39808   4.43734   4.53658   4.66123   4.76849
 Alpha virt. eigenvalues --    4.78811   4.80711   5.20132   5.23189   5.23572
 Alpha virt. eigenvalues --    5.33883   5.36251   5.40864   5.42502   5.46418
 Alpha virt. eigenvalues --    5.48330   5.56373   6.02741   6.30606   6.90822
 Alpha virt. eigenvalues --    6.98242   6.98885   7.08134   7.16900   7.22515
 Alpha virt. eigenvalues --    7.26011   7.33578   7.35940   7.49477   9.66208
 Alpha virt. eigenvalues --    9.72941   9.76809   9.83345  10.04920  12.65231
 Alpha virt. eigenvalues --   13.07341  13.49584  17.42111  23.91645  23.98698
 Alpha virt. eigenvalues --   24.03215  24.09154  24.09393  24.10308  24.29816
 Alpha virt. eigenvalues --   35.50258  50.23447  50.27542 130.36179
          Condensed to atoms (all electrons):
               1          2          3          4          5          6
     1  C    5.447160   0.396225   0.410307   0.425802  -0.144852  -0.022132
     2  H    0.396225   0.465799  -0.018906  -0.019427  -0.024971   0.000023
     3  H    0.410307  -0.018906   0.454596  -0.017807  -0.013227   0.000346
     4  H    0.425802  -0.019427  -0.017807   0.416719   0.016835  -0.000058
     5  C   -0.144852  -0.024971  -0.013227   0.016835   5.528420   0.388209
     6  H   -0.022132   0.000023   0.000346  -0.000058   0.388209   0.449959
     7  H    0.018057  -0.000082   0.000282  -0.000210   0.400013  -0.018290
     8  H   -0.010679   0.000617   0.001451   0.000157   0.427253  -0.019296
     9  C   -0.087982  -0.018213   0.023648  -0.015365  -0.195760  -0.013330
    10  H   -0.012451  -0.000030  -0.000143  -0.000006   0.008290   0.000053
    11  H    0.009189   0.000267  -0.000265   0.000029   0.007159  -0.000517
    12  H    0.003346   0.000343   0.000902  -0.000437  -0.015951  -0.000036
    13  C   -0.338010   0.044395  -0.041720  -0.000966  -0.104740   0.051604
    14  H   -0.004620  -0.000009  -0.000355  -0.000120  -0.025385  -0.000046
    15  H    0.008925   0.000116   0.000309   0.001378   0.012391  -0.000212
    16  C    0.054988   0.001386   0.002745  -0.014578  -0.044388  -0.003795
    17  H    0.009955  -0.000020   0.000035   0.000122  -0.019031  -0.000432
    18  H   -0.002758  -0.000003  -0.000001  -0.000013   0.007183   0.000084
    19  C   -0.054061   0.001308  -0.000520  -0.001436  -0.090078   0.004472
    20  H    0.000395  -0.000000  -0.000001   0.000001   0.002065  -0.000002
    21  H    0.001253  -0.000001   0.000005   0.000002  -0.001180  -0.000003
    22  N    0.263598  -0.026970  -0.008109  -0.030103   0.241908  -0.024711
    23  C    0.031653   0.000053   0.000676  -0.001403  -0.007858  -0.000386
    24  O    0.003427  -0.000003   0.000060  -0.000066  -0.000725  -0.000003
    25  O   -0.000048  -0.000053  -0.000007   0.000000   0.004695  -0.000015
    26  O   -0.001042   0.000015   0.000009   0.000006   0.000022   0.000073
    27  H    0.000013  -0.000005  -0.000001   0.000002  -0.000078  -0.000000
    28  H   -0.000081   0.000000   0.000000   0.000000  -0.000203   0.000001
               7          8          9         10         11         12
     1  C    0.018057  -0.010679  -0.087982  -0.012451   0.009189   0.003346
     2  H   -0.000082   0.000617  -0.018213  -0.000030   0.000267   0.000343
     3  H    0.000282   0.001451   0.023648  -0.000143  -0.000265   0.000902
     4  H   -0.000210   0.000157  -0.015365  -0.000006   0.000029  -0.000437
     5  C    0.400013   0.427253  -0.195760   0.008290   0.007159  -0.015951
     6  H   -0.018290  -0.019296  -0.013330   0.000053  -0.000517  -0.000036
[...]
    19  C   -0.139959
    20  H   -0.011408
    21  H    0.006248
    22  N   -0.015528
    23  C    0.361399
    24  O   -0.102815
    25  O    8.362001
 Mulliken charges:
               1
     1  C   -0.408011
     2  H    0.198989
     3  H    0.205206
     4  H    0.240436
     5  C   -0.361556
     6  H    0.207210
     7  H    0.220974
     8  H    0.210609
     9  C   -0.399342
    10  H    0.301156
    11  H    0.203372
    12  H    0.180456
    13  C   -0.253833
    14  H    0.208352
    15  H    0.262528
    16  C   -0.208634
    17  H    0.183687
    18  H    0.160318
    19  C   -0.383487
    20  H    0.170522
    21  H    0.174846
    22  N   -0.186854
    23  C    0.160649
    24  O   -0.527913
    25  O   -0.559678
    26  O    0.000000
    27  H    0.000000
    28  H    0.000000
 Sum of Mulliken charges =  -0.00000
 Mulliken charges with hydrogens summed into heavy atoms:
               1
     1  C    0.236619
     5  C    0.277238
     9  C    0.285643
    13  C    0.217046
    16  C    0.135371
    19  C   -0.038120
    22  N   -0.186854
    23  C    0.160649
    24  O   -0.527913
    25  O   -0.559678
    26  O    0.000000
         Mulliken charges condensed to fragments:
      1     -0.000000
      2      0.000000
 Electronic spatial extent (au):  <R**2>=         123944.1278
 Charge=             -0.0000 electrons
 Dipole moment (field-independent basis, Debye):
    X=             -1.5657    Y=            -15.7702    Z=             -0.2119  Tot=             15.8492
 Quadrupole moment (field-independent basis, Debye-Ang):
   XX=           -122.4384   YY=           -332.7365   ZZ=            -59.2979
   XY=           -298.0579   XZ=            -11.1985   YZ=            -83.0290
 Traceless Quadrupole moment (field-independent basis, Debye-Ang):
   XX=             49.0525   YY=           -161.2456   ZZ=            112.1931
   XY=           -298.0579   XZ=            -11.1985   YZ=            -83.0290
 Octapole moment (field-independent basis, Debye-Ang**2):
  XXX=          -5121.6672  YYY=          -5091.0450  ZZZ=          -1014.5621  XYY=          -6125.2518
  XXY=          -6185.1943  XXZ=           -716.5793  XZZ=          -1109.4297  YZZ=           -905.9045
  YYZ=          -1764.5349  XYZ=          -1561.5267
 Hexadecapole moment (field-independent basis, Debye-Ang**3):
 XXXX=        -167624.7935 YYYY=         -69044.9220 ZZZZ=         -12225.3475 XXXY=        -136577.2684
 XXXZ=         -29240.2047 YYYX=         -93011.3452 YYYZ=         -27357.3772 ZZZX=         -18561.3414
 ZZZY=         -10595.9606 XXYY=        -117850.8049 XXZZ=         -23070.5847 YYZZ=         -13523.9082
 XXYZ=         -32610.0851 YYXZ=         -32406.7540 ZZXY=         -16690.5645
 N-N= 5.870588006585D+02 E-N=-2.295305385640D+03  KE= 4.785593562136D+02
 No NMR shielding tensors so no spin-rotation constants.
 Leave Link  601 at Mon Feb 20 00:30:38 2023, MaxMem=  6710886400 cpu:               2.5 elap:               0.1
 (Enter /data0/home/software/g16/l122.exe)
 CPIOFr:  IOpCl= 0 IRwI=-1 IRwCP=  731 ICalc=  3 LCPTot=      247647 Len1MO=      645595 IndFrg=     2830027
 Counterpoise: doing calculation for fragment   2 using the basis set of the fragment.
 Leave Link  122 at Mon Feb 20 00:30:39 2023, MaxMem=  6710886400 cpu:               0.2 elap:               0.0
 (Enter /data0/home/software/g16/l301.exe)
 Basis read from rwf:  (5D, 7F)
 No pseudopotential information found on rwf file.
    39 basis functions,    58 primitive gaussians,    41 cartesian basis functions
     5 alpha electrons        5 beta electrons
       nuclear repulsion energy         9.0630106271 Hartrees.
 IExCor= 4336 DFT=T Ex+Corr=M062X ExCW=0 ScaHFX=  0.540000
 ScaDFX=  1.000000  1.000000  1.000000  1.000000 ScalE2=  1.000000  1.000000
 IRadAn=      5 IRanWt=     -1 IRanGd=            0 ICorTp=0 IEmpDi=131
 NAtoms=   28 NActive=    3 NUniq=    3 SFac= 1.00D+00 NAtFMM=   60 NAOKFM=F Big=F
 Integral buffers will be    131072 words long.
 Raffenetti 2 integral format.
 Two-electron integral symmetry is turned off.
 R6Disp:  Grimme-D3 Dispersion energy=       -0.0000000081 Hartrees.
 Nuclear repulsion after empirical dispersion term =        9.0630106190 Hartrees.
 No density basis found on file   718.
 Leave Link  301 at Mon Feb 20 00:30:39 2023, MaxMem=  6710886400 cpu:               1.3 elap:               0.1
 (Enter /data0/home/software/g16/l302.exe)
 NPDir=0 NMtPBC=     1 NCelOv=     1 NCel=       1 NClECP=     1 NCelD=      1
         NCelK=      1 NCelE2=     1 NClLst=     1 CellRange=     0.0.
 One-electron integrals computed using PRISM.
 NBasis=    39 RedAO= T EigKep=  3.09D-03  NBF=    39
 NBsUse=    39 1.00D-06 EigRej= -1.00D+00 NBFU=    39
 Precomputing XC quadrature grid using
 IXCGrd= 4 IRadAn=           5 IRanWt=          -1 IRanGd=           0 AccXCQ= 0.00D+00.
 Generated NRdTot=       0 NPtTot=           0 NUsed=           0 NTot=          32
 NSgBfM=    41    41    41    41    41 MxSgAt=     3 MxSgA2=     3.
 Leave Link  302 at Mon Feb 20 00:30:39 2023, MaxMem=  6710886400 cpu:               2.3 elap:               0.1
 (Enter /data0/home/software/g16/l303.exe)
 DipDrv:  MaxL=1.
 Leave Link  303 at Mon Feb 20 00:30:39 2023, MaxMem=  6710886400 cpu:               0.4 elap:               0.0
 (Enter /data0/home/software/g16/l401.exe)
 ExpMin= 8.45D-02 ExpMax= 8.59D+03 ExpMxC= 1.30D+03 IAcc=3 IRadAn=         5 AccDes= 0.00D+00
 Harris functional with IExCor= 1009 and IRadAn=       5 diagonalized for initial guess.
 HarFok:  IExCor= 1009 AccDes= 0.00D+00 IRadAn=         5 IDoV= 1 UseB2=F ITyADJ=14
 ICtDFT=  3500011 ScaDFX=  1.000000  1.000000  1.000000  1.000000
 FoFCou: FMM=F IPFlag=           0 FMFlag=      100000 FMFlg1=           0
         NFxFlg=           0 DoJE=T BraDBF=F KetDBF=T FulRan=T
         wScrn=  0.000000 ICntrl=       500 IOpCl=  0 I1Cent=   200000004 NGrid=           0
         NMat0=    1 NMatS0=      1 NMatT0=    0 NMatD0=    1 NMtDS0=    0 NMtDT0=    0
 Symmetry not used in FoFCou.
 Harris En= -76.4155019650712    
 JPrj=0 DoOrth=F DoCkMO=F.
 Leave Link  401 at Mon Feb 20 00:30:39 2023, MaxMem=  6710886400 cpu:               2.9 elap:               0.1
 (Enter /data0/home/software/g16/l502.exe)
 Keep R1 ints in memory in canonical form, NReq=21041397.
 FoFCou: FMM=F IPFlag=           0 FMFlag=           0 FMFlg1=           0
         NFxFlg=           0 DoJE=F BraDBF=F KetDBF=F FulRan=T
         wScrn=  0.000000 ICntrl=       600 IOpCl=  0 I1Cent=           0 NGrid=           0
         NMat0=    1 NMatS0=    780 NMatT0=    0 NMatD0=    1 NMtDS0=    0 NMtDT0=    0
 Symmetry not used in FoFCou.
 Two-electron integral symmetry not used.
 Closed shell SCF:
 Using DIIS extrapolation, IDIIS=  1040.
 NGot=  6710886400 LenX=  6710576219 LenY=  6710574097
 Requested convergence on RMS density matrix=1.00D-08 within 128 cycles.
 Requested convergence on MAX density matrix=1.00D-06.
 Requested convergence on             energy=1.00D-06.
 No special actions if energy rises.
 Integral accuracy reduced to 1.0D-05 until final iterations.

 Cycle   1  Pass 0  IDiag  1:
 E= -76.3454876464001    
 DIIS: error= 6.98D-02 at cycle   1 NSaved=   1.
 NSaved= 1 IEnMin= 1 EnMin= -76.3454876464001     IErMin= 1 ErrMin= 6.98D-02
 ErrMax= 6.98D-02  0.00D+00 EMaxC= 1.00D-01 BMatC= 1.20D-01 BMatP= 1.20D-01
 IDIUse=3 WtCom= 3.02D-01 WtEn= 6.98D-01
 Coeff-Com:  0.100D+01
 Coeff-En:   0.100D+01
 Coeff:      0.100D+01
 Gap=     0.323 Goal=   None    Shift=    0.000
 GapD=    0.323 DampG=1.000 DampE=0.500 DampFc=0.5000 IDamp=-1.
 Damping current iteration by 5.00D-01
 RMSDP=7.91D-03 MaxDP=1.01D-01              OVMax= 1.68D-01

 Cycle   2  Pass 0  IDiag  1:
 E= -76.3767116491563     Delta-E=       -0.031224002756 Rises=F Damp=T
 DIIS: error= 1.10D-02 at cycle   2 NSaved=   2.
 NSaved= 2 IEnMin= 2 EnMin= -76.3767116491563     IErMin= 2 ErrMin= 1.10D-02
 ErrMax= 1.10D-02  0.00D+00 EMaxC= 1.00D-01 BMatC= 4.91D-03 BMatP= 1.20D-01
 IDIUse=3 WtCom= 8.90D-01 WtEn= 1.10D-01
 Coeff-Com:  0.846D-01 0.915D+00
 Coeff-En:   0.191D+00 0.809D+00
 Coeff:      0.963D-01 0.904D+00
 Gap=     0.456 Goal=   None    Shift=    0.000
 RMSDP=9.54D-04 MaxDP=1.42D-02 DE=-3.12D-02 OVMax= 1.01D-01

 Cycle   3  Pass 0  IDiag  1:
 E= -76.4207223039300     Delta-E=       -0.044010654774 Rises=F Damp=F
 DIIS: error= 2.22D-03 at cycle   3 NSaved=   3.
 NSaved= 3 IEnMin= 3 EnMin= -76.4207223039300     IErMin= 3 ErrMin= 2.22D-03
 ErrMax= 2.22D-03  0.00D+00 EMaxC= 1.00D-01 BMatC= 9.54D-05 BMatP= 4.91D-03
 IDIUse=3 WtCom= 9.78D-01 WtEn= 2.22D-02
 Coeff-Com: -0.202D-01 0.412D-01 0.979D+00
 Coeff-En:   0.000D+00 0.000D+00 0.100D+01
 Coeff:     -0.198D-01 0.402D-01 0.980D+00
 Gap=     0.460 Goal=   None    Shift=    0.000
 RMSDP=1.17D-04 MaxDP=1.05D-03 DE=-4.40D-02 OVMax= 3.38D-03

 Cycle   4  Pass 0  IDiag  1:
 E= -76.4208034883372     Delta-E=       -0.000081184407 Rises=F Damp=F
 DIIS: error= 4.23D-04 at cycle   4 NSaved=   4.
 NSaved= 4 IEnMin= 4 EnMin= -76.4208034883372     IErMin= 4 ErrMin= 4.23D-04
 ErrMax= 4.23D-04  0.00D+00 EMaxC= 1.00D-01 BMatC= 3.45D-06 BMatP= 9.54D-05
 IDIUse=3 WtCom= 9.96D-01 WtEn= 4.23D-03
 Coeff-Com: -0.205D-02-0.210D-02 0.166D+00 0.839D+00
 Coeff-En:   0.000D+00 0.000D+00 0.000D+00 0.100D+01
 Coeff:     -0.204D-02-0.209D-02 0.165D+00 0.839D+00
 Gap=     0.461 Goal=   None    Shift=    0.000
 RMSDP=2.25D-05 MaxDP=3.57D-04 DE=-8.12D-05 OVMax= 5.46D-04

 Cycle   5  Pass 0  IDiag  1:
 E= -76.4208056239307     Delta-E=       -0.000002135594 Rises=F Damp=F
 DIIS: error= 9.21D-05 at cycle   5 NSaved=   5.
 NSaved= 5 IEnMin= 5 EnMin= -76.4208056239307     IErMin= 5 ErrMin= 9.21D-05
 ErrMax= 9.21D-05  0.00D+00 EMaxC= 1.00D-01 BMatC= 8.81D-08 BMatP= 3.45D-06
 IDIUse=1 WtCom= 1.00D+00 WtEn= 0.00D+00
 Coeff-Com:  0.121D-02-0.185D-02-0.372D-01-0.700D-01 0.111D+01
 Coeff:      0.121D-02-0.185D-02-0.372D-01-0.700D-01 0.111D+01
 Gap=     0.461 Goal=   None    Shift=    0.000
 RMSDP=9.23D-06 MaxDP=1.04D-04 DE=-2.14D-06 OVMax= 2.10D-04

 Initial convergence to 1.0D-05 achieved.  Increase integral accuracy.
 Cycle   6  Pass 1  IDiag  1:
 E= -76.4208061341922     Delta-E=       -0.000000510261 Rises=F Damp=F
 DIIS: error= 1.01D-05 at cycle   1 NSaved=   1.
 NSaved= 1 IEnMin= 1 EnMin= -76.4208061341922     IErMin= 1 ErrMin= 1.01D-05
 ErrMax= 1.01D-05  0.00D+00 EMaxC= 1.00D-01 BMatC= 8.75D-09 BMatP= 8.75D-09
 IDIUse=1 WtCom= 1.00D+00 WtEn= 0.00D+00
 Coeff-Com:  0.100D+01
 Coeff:      0.100D+01
 Gap=     0.461 Goal=   None    Shift=    0.000
 RMSDP=9.23D-06 MaxDP=1.04D-04 DE=-5.10D-07 OVMax= 3.56D-05

 Cycle   7  Pass 1  IDiag  1:
 E= -76.4208061407929     Delta-E=       -0.000000006601 Rises=F Damp=F
 DIIS: error= 1.00D-05 at cycle   2 NSaved=   2.
 NSaved= 2 IEnMin= 2 EnMin= -76.4208061407929     IErMin= 2 ErrMin= 1.00D-05
 ErrMax= 1.00D-05  0.00D+00 EMaxC= 1.00D-01 BMatC= 1.21D-09 BMatP= 8.75D-09
 IDIUse=1 WtCom= 1.00D+00 WtEn= 0.00D+00
 Coeff-Com:  0.142D+00 0.858D+00
 Coeff:      0.142D+00 0.858D+00
 Gap=     0.461 Goal=   None    Shift=    0.000
 RMSDP=6.96D-07 MaxDP=1.09D-05 DE=-6.60D-09 OVMax= 1.93D-05

 Cycle   8  Pass 1  IDiag  1:
 E= -76.4208061411770     Delta-E=       -0.000000000384 Rises=F Damp=F
 DIIS: error= 5.35D-06 at cycle   3 NSaved=   3.
 NSaved= 3 IEnMin= 3 EnMin= -76.4208061411770     IErMin= 3 ErrMin= 5.35D-06
 ErrMax= 5.35D-06  0.00D+00 EMaxC= 1.00D-01 BMatC= 8.53D-10 BMatP= 1.21D-09
 IDIUse=1 WtCom= 1.00D+00 WtEn= 0.00D+00
 Coeff-Com: -0.523D-01 0.460D+00 0.593D+00
 Coeff:     -0.523D-01 0.460D+00 0.593D+00
 Gap=     0.461 Goal=   None    Shift=    0.000
 RMSDP=3.44D-07 MaxDP=4.56D-06 DE=-3.84D-10 OVMax= 8.32D-06

 Cycle   9  Pass 1  IDiag  1:
 E= -76.4208061417499     Delta-E=       -0.000000000573 Rises=F Damp=F
 DIIS: error= 5.95D-07 at cycle   4 NSaved=   4.
 NSaved= 4 IEnMin= 4 EnMin= -76.4208061417499     IErMin= 4 ErrMin= 5.95D-07
 ErrMax= 5.95D-07  0.00D+00 EMaxC= 1.00D-01 BMatC= 2.70D-12 BMatP= 8.53D-10
 IDIUse=1 WtCom= 1.00D+00 WtEn= 0.00D+00
 Coeff-Com:  0.248D-02-0.778D-01-0.586D-01 0.113D+01
 Coeff:      0.248D-02-0.778D-01-0.586D-01 0.113D+01
 Gap=     0.461 Goal=   None    Shift=    0.000
 RMSDP=6.21D-08 MaxDP=5.21D-07 DE=-5.73D-10 OVMax= 1.53D-06

 Cycle  10  Pass 1  IDiag  1:
 E= -76.4208061417558     Delta-E=       -0.000000000006 Rises=F Damp=F
 DIIS: error= 5.05D-08 at cycle   5 NSaved=   5.
 NSaved= 5 IEnMin= 5 EnMin= -76.4208061417558     IErMin= 5 ErrMin= 5.05D-08
 ErrMax= 5.05D-08  0.00D+00 EMaxC= 1.00D-01 BMatC= 1.07D-13 BMatP= 2.70D-12
 IDIUse=1 WtCom= 1.00D+00 WtEn= 0.00D+00
 Coeff-Com:  0.199D-02-0.267D-01-0.300D-01 0.124D+00 0.931D+00
 Coeff:      0.199D-02-0.267D-01-0.300D-01 0.124D+00 0.931D+00
 Gap=     0.461 Goal=   None    Shift=    0.000
 RMSDP=1.04D-08 MaxDP=9.73D-08 DE=-5.87D-12 OVMax= 2.64D-07

 Cycle  11  Pass 1  IDiag  1:
 E= -76.4208061417558     Delta-E=       -0.000000000000 Rises=F Damp=F
 DIIS: error= 6.72D-09 at cycle   6 NSaved=   6.
 NSaved= 6 IEnMin= 6 EnMin= -76.4208061417558     IErMin= 6 ErrMin= 6.72D-09
 ErrMax= 6.72D-09  0.00D+00 EMaxC= 1.00D-01 BMatC= 1.64D-15 BMatP= 1.07D-13
 IDIUse=1 WtCom= 1.00D+00 WtEn= 0.00D+00
 Coeff-Com:  0.279D-04 0.918D-03 0.125D-03-0.248D-01-0.135D-02 0.103D+01
 Coeff:      0.279D-04 0.918D-03 0.125D-03-0.248D-01-0.135D-02 0.103D+01
 Gap=     0.461 Goal=   None    Shift=    0.000
 RMSDP=2.06D-09 MaxDP=1.57D-08 DE=-4.26D-14 OVMax= 4.50D-08

 SCF Done:  E(RM062X) =  -76.4208061418     A.U. after   11 cycles
            NFock= 11  Conv=0.21D-08     -V/T= 2.0031
 KE= 7.618139286221D+01 PE=-1.989712120236D+02 EE= 3.730600240065D+01
 Leave Link  502 at Mon Feb 20 00:30:39 2023, MaxMem=  6710886400 cpu:               8.7 elap:               0.4
 (Enter /data0/home/software/g16/l601.exe)
 Copying SCF densities to generalized density rwf, IOpCl= 0 IROHF=0.

 **********************************************************************

            Population analysis using the SCF density.

 **********************************************************************

 Alpha  occ. eigenvalues --  -19.62661  -1.13165  -0.60574  -0.47420  -0.39944
 Alpha virt. eigenvalues --    0.06137   0.13250   0.17411   0.17953   0.18946
 Alpha virt. eigenvalues --    0.23312   0.49982   0.53941   0.97862   1.00486
 Alpha virt. eigenvalues --    1.06012   1.18570   1.19779   1.32385   1.34103
 Alpha virt. eigenvalues --    1.69231   1.73632   1.75714   2.06161   2.10128
 Alpha virt. eigenvalues --    2.35213   2.41340   2.54259   2.87142   3.01332
 Alpha virt. eigenvalues --    5.05657   5.46775   5.91178   6.78275   6.80270
 Alpha virt. eigenvalues --    6.87162   6.91336   7.09895  49.95529
          Condensed to atoms (all electrons):
              26         27         28
    26  O    7.920347   0.315149   0.322883
    27  H    0.315149   0.426270  -0.024068
    28  H    0.322883  -0.024068   0.425457
 Mulliken charges:
               1
     1  C    0.000000
     2  H    0.000000
     3  H    0.000000
     4  H    0.000000
     5  C    0.000000
     6  H    0.000000
     7  H    0.000000
     8  H    0.000000
     9  C    0.000000
    10  H    0.000000
    11  H    0.000000
    12  H    0.000000
    13  C    0.000000
    14  H    0.000000
    15  H    0.000000
    16  C    0.000000
    17  H    0.000000
    18  H    0.000000
    19  C    0.000000
    20  H    0.000000
    21  H    0.000000
    22  N    0.000000
    23  C    0.000000
    24  O    0.000000
    25  O    0.000000
    26  O   -0.558379
    27  H    0.282650
    28  H    0.275729
 Sum of Mulliken charges =  -0.00000
 Mulliken charges with hydrogens summed into heavy atoms:
               1
     1  C    0.000000
     5  C    0.000000
     9  C    0.000000
    13  C    0.000000
    16  C    0.000000
    19  C    0.000000
    22  N    0.000000
    23  C    0.000000
    24  O    0.000000
    25  O    0.000000
    26  O   -0.000000
         Mulliken charges condensed to fragments:
      1      0.000000
      2     -0.000000
 Electronic spatial extent (au):  <R**2>=          20216.0949
 Charge=             -0.0000 electrons
 Dipole moment (field-independent basis, Debye):
    X=              0.3168    Y=              2.0354    Z=             -0.4967  Tot=              2.1190
 Quadrupole moment (field-independent basis, Debye-Ang):
   XX=              9.0602   YY=             28.7967   ZZ=            -13.6919
   XY=             45.8013   XZ=             -8.4052   YZ=              7.7306
 Traceless Quadrupole moment (field-independent basis, Debye-Ang):
   XX=              1.0052   YY=             20.7417   ZZ=            -21.7469
   XY=             45.8013   XZ=             -8.4052   YZ=              7.7306
 Octapole moment (field-independent basis, Debye-Ang**2):
  XXX=            148.0352  YYY=            291.9442  ZZZ=           -195.0407  XYY=            631.6353
  XXY=            990.6087  XXZ=           -159.9936  XZZ=           -277.0342  YZZ=            -46.9816
  YYZ=            131.6835  XYZ=            181.8044
 Hexadecapole moment (field-independent basis, Debye-Ang**3):
 XXXX=            190.6948 YYYY=           2435.1014 ZZZZ=          -2160.4155 XXXY=          20633.6637
 XXXZ=          -3581.5458 YYYX=           6348.0238 YYYZ=           1369.8593 ZZZX=          -4058.0417
 ZZZY=          -1260.0339 XXYY=          13531.3317 XXZZ=          -5760.1257 YYZZ=            -30.6324
 XXYZ=           4009.3065 YYXZ=           2936.5531 ZZXY=           -883.8601
 N-N= 9.063010618996D+00 E-N=-1.989712119802D+02  KE= 7.618139286221D+01
 No NMR shielding tensors so no spin-rotation constants.
 Leave Link  601 at Mon Feb 20 00:30:39 2023, MaxMem=  6710886400 cpu:               1.7 elap:               0.1
 (Enter /data0/home/software/g16/l122.exe)
 CPIOFr:  IOpCl= 0 IRwI=-1 IRwCP=  731 ICalc=  4 LCPTot=      247647 Len1MO=      645595 IndFrg=     3475622
 Restoring MOs from calculation   1 to rwf.
 CPIOFr:  IOpCl= 0 IRwI=-2 IRwCP=  731 ICalc=  0 LCPTot=      247647 Len1MO=      645595 IndFrg=      893242
 Counterpoise corrected energy =    -557.300179703025
                   BSSE energy =       0.001271637689
              sum of fragments =    -557.268216220424
           complexation energy =     -20.86 kcal/mole (raw)
           complexation energy =     -20.06 kcal/mole (corrected)
 Leave Link  122 at Mon Feb 20 00:30:39 2023, MaxMem=  6710886400 cpu:               0.3 elap:               0.0
 (Enter /data0/home/software/g16/l9999.exe)
 1\1\GINC-LOCALHOST\SP\RM062X\6-311+G(2d,p)\C7H17N1O3\WUHANYU\20-Feb-20
 23\0\\#p M062X/6-311+G(2d,p) nosymm em=GD3 counterpoise=2\\Title Card 
 Required\\0,1\C,0,16.967287,6.216146,4.124881\H,0,17.394386,5.534842,3
 .372155\H,0,16.055919,5.768556,4.54311\H,0,16.664324,7.1384,3.565767\C
 ,0,18.217966,5.318208,6.021801\H,0,18.639532,4.508746,5.402068\H,0,18.
 939994,5.529787,6.833079\H,0,17.290437,4.948861,6.487439\C,0,19.258313
 ,6.994536,4.571056\H,0,19.334945,8.107945,4.540024\H,0,20.142658,6.650
 343,5.131957\H,0,19.3452,6.66788,3.520586\C,0,17.358414,7.637505,6.073
 509\H,0,16.415911,7.255994,6.51702\H,0,17.052737,8.478905,5.390778\C,0
 ,18.302116,8.144619,7.170363\H,0,19.36749,7.920393,6.934984\H,0,18.101
 994,7.627006,8.126652\C,0,18.164007,9.656194,7.36625\H,0,18.945811,10.
 032441,8.050894\H,0,17.192243,9.918179,7.821258\N,0,17.966855,6.549838
 ,5.198936\C,0,18.305793,10.374112,6.013683\O,0,17.286132,10.894144,5.5
 43806\O,0,19.427762,10.327484,5.455567\O,0,21.306852,8.530347,6.112647
 \H,0,20.635082,9.232595,5.900287\H,0,22.141633,8.975773,6.044107\\Vers
 ion=ES64L-G16RevA.03\HF=-76.4208061\RMSD=2.065e-09\Dipole=-0.7235029,-
 5.2053507,-0.2341806\Quadrupole=22.4490873,-94.0184964,71.5694091,-184
 .4746769,-15.9062386,-53.2656363\PG=C01 [X(C7H17N1O3)]\\@


 THE ATTENTION SPAN OF A COMPUTER IS AS LONG
 AS ITS EXTENSION CORD.
 Job cpu time:       0 days  1 hours 27 minutes  3.9 seconds.
 Elapsed time:       0 days  0 hours  3 minutes 39.2 seconds.
 File lengths (MBytes):  RWF=    124 Int=      0 D2E=      0 Chk=     36 Scr=      1
 Normal termination of Gaussian 16 at Mon Feb 20 00:30:39 2023.
