 Entering Gaussian System, Link 0=g16
 Initial command:
 /data0/home/software/g16/l1.exe "/data0/home/software/g16/scratch/Gau-227255.inp" -scrdir="/data0/home/software/g16/scratch/"
 Default is to use a total of  22 processors:
                               22 via shared-memory
                                1 via Linda
 Entering Link 1 = /data0/home/software/g16/l1.exe PID=    227256.
  
 Copyright (c) 1988,1990,1992,1993,1995,1998,2003,2009,2016,
            Gaussian, Inc.  All Rights Reserved.
  
 This is part of the Gaussian(R) 16 program.  It is based on
 the Gaussian(R) 09 system (copyright 2009, Gaussian, Inc.),
 the Gaussian(R) 03 system (copyright 2003, Gaussian, Inc.),
 the Gaussian(R) 98 system (copyright 1998, Gaussian, Inc.),
 the Gaussian(R) 94 system (copyright 1995, Gaussian, Inc.),
 the Gaussian 92(TM) system (copyright 1992, Gaussian, Inc.),
 the Gaussian 90(TM) system (copyright 1990, Gaussian, Inc.),
 the Gaussian 88(TM) system (copyright 1988, Gaussian, Inc.),
 the Gaussian 86(TM) system (copyright 1986, Carnegie Mellon
 University), and the Gaussian 82(TM) system (copyright 1983,
 Carnegie Mellon University). Gaussian is a federally registered
 trademark of Gaussian, Inc.
  
 This software contains proprietary and confidential information,
 including trade secrets, belonging to Gaussian, Inc.
  
 This software is provided under written license and may be
 used, copied, transmitted, or stored only in accord with that
 written license.
  
 The following legend is applicable only to US Government
 contracts under FAR:
  
                    RESTRICTED RIGHTS LEGEND
  
 Use, reproduction and disclosure by the US Government is
 subject to restrictions as set forth in subparagraphs (a)
 and (c) of the Commercial Computer Software - Restricted
 Rights clause in FAR 52.227-19.
  
 Gaussian, Inc.
 340 Quinnipiac St., Bldg. 40, Wallingford CT 06492
  
  
 ---------------------------------------------------------------
 Warning -- This program may not be used in any manner that
 competes with the business of Gaussian, Inc. or will provide
 assistance to any competitor of Gaussian, Inc.  The licensee
 of this program is prohibited from giving any competitor of
 Gaussian, Inc. access to this program.  By using this program,
 the user acknowledges that Gaussian, Inc. is engaged in the
 business of creating and licensing software in the field of
 computational chemistry and represents and warrants to the
 licensee that it is not a competitor of Gaussian, Inc. and that
 it will not use this program in any manner prohibited above.
 ---------------------------------------------------------------
  

 Cite this work as:
 Gaussian 16, Revision A.03,
 M. J. Frisch, G. W. Trucks, H. B. Schlegel, G. E. Scuseria, 
 M. A. Robb, J. R. Cheeseman, G. Scalmani, V. Barone, 
 G. A. Petersson, H. Nakatsuji, X. Li, M. Caricato, A. V. Marenich, 
 J. Bloino, B. G. Janesko, R. Gomperts, B. Mennucci, H. P. Hratchian, 
 J. V. Ortiz, A. F. Izmaylov, J. L. Sonnenberg, D. Williams-Young, 
 F. Ding, F. Lipparini, F. Egidi, J. Goings, B. Peng, A. Petrone, 
 T. Henderson, D. Ranasinghe, V. G. Zakrzewski, J. Gao, N. Rega, 
 G. Zheng, W. Liang, M. Hada, M. Ehara, K. Toyota, R. Fukuda, 
 J. Hasegawa, M. Ishida, T. Nakajima, Y. Honda, O. Kitao, H. Nakai, 
 T. Vreven, K. Throssell, J. A. Montgomery, Jr., J. E. Peralta, 
 F. Ogliaro, M. J. Bearpark, J. J. Heyd, E. N. Brothers, K. N. Kudin, 
 V. N. Staroverov, T. A. Keith, R. Kobayashi, J. Normand, 
 K. Raghavachari, A. P. Rendell, J. C. Burant, S. S. Iyengar, 
 J. Tomasi, M. Cossi, J. M. Millam, M. Klene, C. Adamo, R. Cammi, 
 J. W. Ochterski, R. L. Martin, K. Morokuma, O. Farkas, 
 J. B. Foresman, and D. J. Fox, Gaussian, Inc., Wallingford CT, 2016.
 
 ******************************************
 Gaussian 16:  ES64L-G16RevA.03 25-Dec-2016
                17-Feb-2023 
 ******************************************
 %nproc=24
 Will use up to   24 processors via shared memory.
 %mem=50GB
 ---------------------------------------------------
 #p M062X/6-311+G(2d,p) nosymm em=GD3 counterpoise=2
 ---------------------------------------------------
 1/38=1,62=2,172=1/1;
 2/12=2,15=1,17=6,18=5,40=1/2;
 1/38=1,53=2,62=2,63=1/22;
 3/5=4,6=6,7=112,11=2,25=1,30=1,74=-55,124=31/1,2,3;
 4//1;
 5/5=2,38=5/2;
 6/7=2,8=2,9=2,10=2,28=1/1;
 1/53=2,62=2,63=1/22;
 3/5=7,6=11,7=112,11=2,25=1,30=1,74=-55,82=7,124=31/1,2,3;
 4//1;
 5/5=2,38=5/2;
 6/7=2,8=2,9=2,10=2,28=1/1;
 1/53=2,62=2,63=1/22(-4);
 99/5=1,9=1/99;
 Leave Link    1 at Fri Feb 17 21:22:44 2023, MaxMem=  6710886400 cpu:               0.7 elap:               0.0
 (Enter /data0/home/software/g16/l101.exe)
 -------------------
 Title Card Required
 -------------------
 Symbolic Z-matrix:
 Charge =  0 Multiplicity = 1 in supermolecule
 Charge =  0 Multiplicity = 1 in fragment      1.
 Charge =  0 Multiplicity = 1 in fragment      2.
 C                     11.37683   15.13363   12.4105    
 C                     12.00708   15.98048   11.49531    
 C                     12.63955   13.92937   11.00369    
 N                     11.78699   13.84184   12.0952    
 H                     11.45726   12.97889   12.52227    
 H                     10.70942   15.35021   13.21721    
 H                     11.96736   17.04849   11.40931    
 H                     13.11936   13.07617   10.54176    
 N                     12.77794   15.2185   10.63049    
 P                     13.59503   14.48538   7.2534     
 O                     13.46903   13.16635   7.88923    
 O                     12.2716   15.0568   6.57698    
 H                     11.51802   15.1101   7.28953    
 O                     14.14604   15.66733   8.14965    
 H                     13.76975   15.56685   9.13668    
 O                     14.60563   14.44388   6.02875    
 H                     14.67149   15.41087   5.6597     
 
 ITRead=  0  0  0  0  0  0  0  0  0  0  0  0  0  0  0  0  0
 MicOpt= -1 -1 -1 -1 -1 -1 -1 -1 -1 -1 -1 -1 -1 -1 -1 -1 -1
 NAtoms=     17 NQM=       17 NQMF=       0 NMMI=      0 NMMIF=      0
                NMic=       0 NMicF=      0.
                    Isotopes and Nuclear Properties:
 (Nuclear quadrupole moments (NQMom) in fm**2, nuclear magnetic moments (NMagM)
  in nuclear magnetons)

  Atom         1           2           3           4           5           6           7           8           9          10
 IAtWgt=          12          12          12          14           1           1           1           1          14          31
 AtmWgt=  12.0000000  12.0000000  12.0000000  14.0030740   1.0078250   1.0078250   1.0078250   1.0078250  14.0030740  30.9737634
 NucSpn=           0           0           0           2           1           1           1           1           2           1
 AtZEff=  -0.0000000  -0.0000000  -0.0000000  -0.0000000  -0.0000000  -0.0000000  -0.0000000  -0.0000000  -0.0000000  -0.0000000
 NQMom=    0.0000000   0.0000000   0.0000000   2.0440000   0.0000000   0.0000000   0.0000000   0.0000000   2.0440000   0.0000000
 NMagM=    0.0000000   0.0000000   0.0000000   0.4037610   2.7928460   2.7928460   2.7928460   2.7928460   0.4037610   1.1316000
 AtZNuc=   6.0000000   6.0000000   6.0000000   7.0000000   1.0000000   1.0000000   1.0000000   1.0000000   7.0000000  15.0000000

  Atom        11          12          13          14          15          16          17
 IAtWgt=          16          16           1          16           1          16           1
 AtmWgt=  15.9949146  15.9949146   1.0078250  15.9949146   1.0078250  15.9949146   1.0078250
 NucSpn=           0           0           1           0           1           0           1
 AtZEff=  -0.0000000  -0.0000000  -0.0000000  -0.0000000  -0.0000000  -0.0000000  -0.0000000
 NQMom=    0.0000000   0.0000000   0.0000000   0.0000000   0.0000000   0.0000000   0.0000000
 NMagM=    0.0000000   0.0000000   2.7928460   0.0000000   2.7928460   0.0000000   2.7928460
 AtZNuc=   8.0000000   8.0000000   1.0000000   8.0000000   1.0000000   8.0000000   1.0000000
 Leave Link  101 at Fri Feb 17 21:22:44 2023, MaxMem=  6710886400 cpu:               2.0 elap:               0.1
 (Enter /data0/home/software/g16/l202.exe)
                          Input orientation:                          
 ---------------------------------------------------------------------
 Center     Atomic      Atomic             Coordinates (Angstroms)
 Number     Number       Type             X           Y           Z
 ---------------------------------------------------------------------
      1          6           0       11.376828   15.133632   12.410501
      2          6           0       12.007084   15.980477   11.495308
      3          6           0       12.639553   13.929368   11.003689
      4          7           0       11.786988   13.841842   12.095201
      5          1           0       11.457265   12.978891   12.522268
      6          1           0       10.709418   15.350211   13.217207
      7          1           0       11.967356   17.048487   11.409313
      8          1           0       13.119357   13.076171   10.541762
      9          7           0       12.777943   15.218503   10.630494
     10         15           0       13.595033   14.485382    7.253403
     11          8           0       13.469032   13.166350    7.889227
     12          8           0       12.271600   15.056797    6.576981
     13          1           0       11.518019   15.110099    7.289528
     14          8           0       14.146044   15.667329    8.149646
     15          1           0       13.769752   15.566849    9.136675
     16          8           0       14.605633   14.443881    6.028753
     17          1           0       14.671492   15.410873    5.659704
 ---------------------------------------------------------------------
                    Distance matrix (angstroms):
                    1          2          3          4          5
     1  C    0.000000
     2  C    1.397121   0.000000
     3  C    2.241394   2.201989   0.000000
     4  N    1.391534   2.232056   1.387777   0.000000
     5  H    2.159137   3.219700   2.146461   1.017737   0.000000
     6  H    1.069167   2.246354   3.262496   2.166848   2.581739
     7  H    2.240038   1.072203   3.216408   3.284136   4.249762
     8  H    3.280509   3.252906   1.082374   2.185093   2.587357
     9  N    2.266881   1.386626   1.349183   2.241106   3.215410
    10  P    5.651223   4.769764   3.909826   5.208280   5.882219
    11  O    5.356252   4.802127   3.312115   4.579932   5.054445
    12  O    5.902243   5.011297   4.582819   5.671130   6.350376
    13  H    5.122973   4.322653   4.055485   4.977481   5.650425
    14  O    5.109626   3.983298   3.665458   4.946206   5.794571
    15  H    4.078198   2.973422   2.728449   3.957256   4.848439
    16  O    7.185238   6.244742   5.374029   6.716324   7.363705
    17  H    7.516976   6.440326   5.906082   7.224807   7.958679
                    6          7          8          9         10
     6  H    0.000000
     7  H    2.781192   0.000000
     8  H    4.258764   4.225996   0.000000
     9  N    3.314699   2.147662   2.171180   0.000000
    10  P    6.681442   5.146885   3.609079   3.551035   0.000000
    11  O    6.385303   5.451332   2.677003   3.493348   1.469692
    12  O    6.827819   5.235535   4.512323   4.088215   1.592337
    13  H    5.987392   4.575137   4.156702   3.572284   2.169231
    14  O    6.131161   4.156887   3.672929   2.868406   1.582360
    15  H    5.105225   3.257110   2.932705   1.826616   2.178718
    16  O    8.226530   6.534134   4.944380   5.011637   1.588333
    17  H    8.533321   6.561413   5.629782   5.322714   2.134285
                   11         12         13         14         15
    11  O    0.000000
    12  O    2.594152   0.000000
    13  H    2.818555   1.038484   0.000000
    14  O    2.604047   2.521818   2.820784   0.000000
    15  H    2.721939   3.009426   2.948029   1.061093   0.000000
    16  O    2.526917   2.474658   3.400994   2.491231   3.408656
    17  H    3.384460   2.593501   3.562469   2.557670   3.595385
                   16         17
    16  O    0.000000
    17  H    1.037115   0.000000
 Symmetry turned off by external request.
 Stoichiometry    C3H7N2O4P
 Framework group  C1[X(C3H7N2O4P)]
 Deg. of freedom    45
 Full point group                 C1      NOp   1
 Rotational constants (GHZ):           2.9289301           0.4980294           0.4741762
 Leave Link  202 at Fri Feb 17 21:22:44 2023, MaxMem=  6710886400 cpu:               0.1 elap:               0.0
 (Enter /data0/home/software/g16/l122.exe)
 Counterpoise: doing full-system calculation.
 Leave Link  122 at Fri Feb 17 21:22:44 2023, MaxMem=  6710886400 cpu:               0.0 elap:               0.0
 (Enter /data0/home/software/g16/l301.exe)
 Standard basis: 6-311+G(2d,p) (5D, 7F)
 Ernie: Thresh=  0.10000D-02 Tol=  0.10000D-05 Strict=F.
   320 basis functions,   490 primitive gaussians,   340 cartesian basis functions
    43 alpha electrons       43 beta electrons
       nuclear repulsion energy       648.3947491873 Hartrees.
 IExCor= 4336 DFT=T Ex+Corr=M062X ExCW=0 ScaHFX=  0.540000
 ScaDFX=  1.000000  1.000000  1.000000  1.000000 ScalE2=  1.000000  1.000000
 IRadAn=      5 IRanWt=     -1 IRanGd=            0 ICorTp=0 IEmpDi=131
 NAtoms=   17 NActive=   17 NUniq=   17 SFac= 1.00D+00 NAtFMM=   60 NAOKFM=F Big=F
 Integral buffers will be    131072 words long.
 Raffenetti 2 integral format.
 Two-electron integral symmetry is turned off.
 R6Disp:  Grimme-D3 Dispersion energy=       -0.0005311995 Hartrees.
 Nuclear repulsion after empirical dispersion term =      648.3942179878 Hartrees.
 Leave Link  301 at Fri Feb 17 21:22:44 2023, MaxMem=  6710886400 cpu:               1.1 elap:               0.1
 (Enter /data0/home/software/g16/l302.exe)
 NPDir=0 NMtPBC=     1 NCelOv=     1 NCel=       1 NClECP=     1 NCelD=      1
         NCelK=      1 NCelE2=     1 NClLst=     1 CellRange=     0.0.
 One-electron integrals computed using PRISM.
 NBasis=   320 RedAO= T EigKep=  4.24D-05  NBF=   320
 NBsUse=   320 1.00D-06 EigRej= -1.00D+00 NBFU=   320
 Precomputing XC quadrature grid using
 IXCGrd= 4 IRadAn=           5 IRanWt=          -1 IRanGd=           0 AccXCQ= 0.00D+00.
 Generated NRdTot=       0 NPtTot=           0 NUsed=           0 NTot=          32
 NSgBfM=   340   340   340   340   340 MxSgAt=    17 MxSgA2=    17.
 Leave Link  302 at Fri Feb 17 21:22:44 2023, MaxMem=  6710886400 cpu:               5.0 elap:               0.2
 (Enter /data0/home/software/g16/l303.exe)
 DipDrv:  MaxL=1.
 Leave Link  303 at Fri Feb 17 21:22:44 2023, MaxMem=  6710886400 cpu:               0.7 elap:               0.0
 (Enter /data0/home/software/g16/l401.exe)
 ExpMin= 3.48D-02 ExpMax= 7.75D+04 ExpMxC= 2.65D+03 IAcc=3 IRadAn=         5 AccDes= 0.00D+00
 Harris functional with IExCor= 1009 and IRadAn=       5 diagonalized for initial guess.
 HarFok:  IExCor= 1009 AccDes= 0.00D+00 IRadAn=         5 IDoV= 1 UseB2=F ITyADJ=14
 ICtDFT=  3500011 ScaDFX=  1.000000  1.000000  1.000000  1.000000
 FoFCou: FMM=F IPFlag=           0 FMFlag=      100000 FMFlg1=           0
         NFxFlg=           0 DoJE=T BraDBF=F KetDBF=T FulRan=T
         wScrn=  0.000000 ICntrl=       500 IOpCl=  0 I1Cent=   200000004 NGrid=           0
         NMat0=    1 NMatS0=      1 NMatT0=    0 NMatD0=    1 NMtDS0=    0 NMtDT0=    0
 Symmetry not used in FoFCou.
 Harris En= -870.008328678105    
 JPrj=0 DoOrth=F DoCkMO=F.
 Leave Link  401 at Fri Feb 17 21:22:45 2023, MaxMem=  6710886400 cpu:              16.7 elap:               0.7
 (Enter /data0/home/software/g16/l502.exe)
 Two-electron integral symmetry not used.
 Closed shell SCF:
 Using DIIS extrapolation, IDIIS=  1040.
 NGot=  6710886400 LenX=  6710644641 LenY=  6710528600
 Requested convergence on RMS density matrix=1.00D-08 within 128 cycles.
 Requested convergence on MAX density matrix=1.00D-06.
 Requested convergence on             energy=1.00D-06.
 No special actions if energy rises.
 Fock matrices will be formed incrementally for  20 cycles.

 Cycle   1  Pass 1  IDiag  1:
 FoFJK:  IHMeth= 1 ICntrl=       0 DoSepK=F KAlg= 0 I1Cent=           0 FoldK=F
 IRaf= 870000000 NMat=       1 IRICut=       1 DoRegI=T DoRafI=F ISym2E= 0 IDoP0=0 IntGTp=1.
 FoFCou: FMM=F IPFlag=           0 FMFlag=      100000 FMFlg1=           0
         NFxFlg=           0 DoJE=F BraDBF=F KetDBF=F FulRan=T
         wScrn=  0.000000 ICntrl=         0 IOpCl=  0 I1Cent=           0 NGrid=           0
         NMat0=    1 NMatS0=      1 NMatT0=    0 NMatD0=    1 NMtDS0=    0 NMtDT0=    0
 Symmetry not used in FoFCou.
 E= -870.003493155310    
 DIIS: error= 3.55D-02 at cycle   1 NSaved=   1.
 NSaved= 1 IEnMin= 1 EnMin= -870.003493155310     IErMin= 1 ErrMin= 3.55D-02
 ErrMax= 3.55D-02  0.00D+00 EMaxC= 1.00D-01 BMatC= 6.23D-01 BMatP= 6.23D-01
 IDIUse=3 WtCom= 6.45D-01 WtEn= 3.55D-01
 Coeff-Com:  0.100D+01
 Coeff-En:   0.100D+01
 Coeff:      0.100D+01
 Gap=     0.314 Goal=   None    Shift=    0.000
 GapD=    0.314 DampG=1.000 DampE=0.500 DampFc=0.5000 IDamp=-1.
 Damping current iteration by 5.00D-01
 RMSDP=4.20D-03 MaxDP=1.56D-01              OVMax= 2.42D-01

 Cycle   2  Pass 1  IDiag  1:
 RMSU=  2.10D-03    CP:  1.00D+00
 E= -870.163041428895     Delta-E=       -0.159548273585 Rises=F Damp=T
 DIIS: error= 6.40D-03 at cycle   2 NSaved=   2.
 NSaved= 2 IEnMin= 2 EnMin= -870.163041428895     IErMin= 2 ErrMin= 6.40D-03
 ErrMax= 6.40D-03  0.00D+00 EMaxC= 1.00D-01 BMatC= 3.88D-02 BMatP= 6.23D-01
 IDIUse=3 WtCom= 9.36D-01 WtEn= 6.40D-02
 Coeff-Com:  0.274D-01 0.973D+00
 Coeff-En:   0.124D+00 0.876D+00
 Coeff:      0.335D-01 0.966D+00
 Gap=     0.353 Goal=   None    Shift=    0.000
 RMSDP=1.05D-03 MaxDP=5.24D-02 DE=-1.60D-01 OVMax= 1.59D-01

 Cycle   3  Pass 1  IDiag  1:
 RMSU=  8.91D-04    CP:  9.91D-01  7.47D-01
 E= -870.358133375372     Delta-E=       -0.195091946478 Rises=F Damp=F
 DIIS: error= 6.31D-03 at cycle   3 NSaved=   3.
 NSaved= 3 IEnMin= 3 EnMin= -870.358133375372     IErMin= 3 ErrMin= 6.31D-03
 ErrMax= 6.31D-03  0.00D+00 EMaxC= 1.00D-01 BMatC= 1.42D-02 BMatP= 3.88D-02
 IDIUse=3 WtCom= 9.37D-01 WtEn= 6.31D-02
 Coeff-Com: -0.505D-01 0.342D+00 0.709D+00
 Coeff-En:   0.000D+00 0.000D+00 0.100D+01
 Coeff:     -0.473D-01 0.320D+00 0.727D+00
 Gap=     0.305 Goal=   None    Shift=    0.000
 RMSDP=4.64D-04 MaxDP=2.10D-02 DE=-1.95D-01 OVMax= 3.96D-02

 Cycle   4  Pass 1  IDiag  1:
 RMSU=  4.21D-04    CP:  9.89D-01  8.15D-01  8.56D-01
 E= -870.364939320295     Delta-E=       -0.006805944923 Rises=F Damp=F
 DIIS: error= 3.45D-03 at cycle   4 NSaved=   4.
 NSaved= 4 IEnMin= 4 EnMin= -870.364939320295     IErMin= 4 ErrMin= 3.45D-03
 ErrMax= 3.45D-03  0.00D+00 EMaxC= 1.00D-01 BMatC= 4.75D-03 BMatP= 1.42D-02
 IDIUse=3 WtCom= 9.66D-01 WtEn= 3.45D-02
 Coeff-Com: -0.305D-01 0.830D-01 0.410D+00 0.537D+00
 Coeff-En:   0.000D+00 0.000D+00 0.240D+00 0.760D+00
 Coeff:     -0.295D-01 0.801D-01 0.404D+00 0.545D+00
 Gap=     0.301 Goal=   None    Shift=    0.000
 RMSDP=1.81D-04 MaxDP=7.42D-03 DE=-6.81D-03 OVMax= 1.36D-02

 Cycle   5  Pass 1  IDiag  1:
 RMSU=  9.22D-05    CP:  9.89D-01  8.02D-01  9.30D-01  6.72D-01
 E= -870.368129510483     Delta-E=       -0.003190190188 Rises=F Damp=F
 DIIS: error= 4.46D-04 at cycle   5 NSaved=   5.
 NSaved= 5 IEnMin= 5 EnMin= -870.368129510483     IErMin= 5 ErrMin= 4.46D-04
 ErrMax= 4.46D-04  0.00D+00 EMaxC= 1.00D-01 BMatC= 7.97D-05 BMatP= 4.75D-03
 IDIUse=3 WtCom= 9.96D-01 WtEn= 4.46D-03
 Coeff-Com: -0.742D-02 0.127D-01 0.106D+00 0.198D+00 0.691D+00
 Coeff-En:   0.000D+00 0.000D+00 0.000D+00 0.000D+00 0.100D+01
 Coeff:     -0.739D-02 0.127D-01 0.106D+00 0.197D+00 0.692D+00
 Gap=     0.299 Goal=   None    Shift=    0.000
 RMSDP=3.28D-05 MaxDP=1.43D-03 DE=-3.19D-03 OVMax= 1.99D-03

 Cycle   6  Pass 1  IDiag  1:
 RMSU=  2.26D-05    CP:  9.88D-01  8.00D-01  9.34D-01  7.04D-01  8.00D-01
 E= -870.368187037264     Delta-E=       -0.000057526781 Rises=F Damp=F
 DIIS: error= 1.43D-04 at cycle   6 NSaved=   6.
 NSaved= 6 IEnMin= 6 EnMin= -870.368187037264     IErMin= 6 ErrMin= 1.43D-04
 ErrMax= 1.43D-04  0.00D+00 EMaxC= 1.00D-01 BMatC= 6.29D-06 BMatP= 7.97D-05
 IDIUse=3 WtCom= 9.99D-01 WtEn= 1.43D-03
 Coeff-Com: -0.128D-02 0.603D-03 0.191D-01 0.468D-01 0.279D+00 0.656D+00
 Coeff-En:   0.000D+00 0.000D+00 0.000D+00 0.000D+00 0.000D+00 0.100D+01
 Coeff:     -0.127D-02 0.602D-03 0.190D-01 0.468D-01 0.278D+00 0.657D+00
 Gap=     0.299 Goal=   None    Shift=    0.000
 RMSDP=9.01D-06 MaxDP=4.02D-04 DE=-5.75D-05 OVMax= 7.02D-04

 Cycle   7  Pass 1  IDiag  1:
 RMSU=  6.79D-06    CP:  9.88D-01  7.99D-01  9.36D-01  7.09D-01  8.51D-01
                    CP:  9.36D-01
 E= -870.368192564031     Delta-E=       -0.000005526767 Rises=F Damp=F
 DIIS: error= 5.64D-05 at cycle   7 NSaved=   7.
 NSaved= 7 IEnMin= 7 EnMin= -870.368192564031     IErMin= 7 ErrMin= 5.64D-05
 ErrMax= 5.64D-05  0.00D+00 EMaxC= 1.00D-01 BMatC= 4.57D-07 BMatP= 6.29D-06
 IDIUse=1 WtCom= 1.00D+00 WtEn= 0.00D+00
 Coeff-Com:  0.471D-03-0.123D-02-0.673D-02-0.956D-02 0.439D-02 0.179D+00
 Coeff-Com:  0.833D+00
 Coeff:      0.471D-03-0.123D-02-0.673D-02-0.956D-02 0.439D-02 0.179D+00
 Coeff:      0.833D+00
 Gap=     0.299 Goal=   None    Shift=    0.000
 RMSDP=3.60D-06 MaxDP=1.19D-04 DE=-5.53D-06 OVMax= 3.94D-04

 Cycle   8  Pass 1  IDiag  1:
 RMSU=  2.66D-06    CP:  9.88D-01  7.98D-01  9.37D-01  7.09D-01  8.51D-01
                    CP:  1.02D+00  1.04D+00
 E= -870.368192920223     Delta-E=       -0.000000356192 Rises=F Damp=F
 DIIS: error= 3.82D-05 at cycle   8 NSaved=   8.
 NSaved= 8 IEnMin= 8 EnMin= -870.368192920223     IErMin= 8 ErrMin= 3.82D-05
 ErrMax= 3.82D-05  0.00D+00 EMaxC= 1.00D-01 BMatC= 2.25D-07 BMatP= 4.57D-07
 IDIUse=1 WtCom= 1.00D+00 WtEn= 0.00D+00
 Coeff-Com:  0.413D-03-0.768D-03-0.613D-02-0.111D-01-0.307D-01 0.182D-01
 Coeff-Com:  0.481D+00 0.550D+00
 Coeff:      0.413D-03-0.768D-03-0.613D-02-0.111D-01-0.307D-01 0.182D-01
 Coeff:      0.481D+00 0.550D+00
 Gap=     0.299 Goal=   None    Shift=    0.000
 RMSDP=1.50D-06 MaxDP=6.52D-05 DE=-3.56D-07 OVMax= 1.43D-04

 Cycle   9  Pass 1  IDiag  1:
 RMSU=  8.88D-07    CP:  9.88D-01  7.98D-01  9.37D-01  7.10D-01  8.58D-01
                    CP:  1.03D+00  1.14D+00  8.06D-01
 E= -870.368193123447     Delta-E=       -0.000000203224 Rises=F Damp=F
 DIIS: error= 5.78D-06 at cycle   9 NSaved=   9.
 NSaved= 9 IEnMin= 9 EnMin= -870.368193123447     IErMin= 9 ErrMin= 5.78D-06
 ErrMax= 5.78D-06  0.00D+00 EMaxC= 1.00D-01 BMatC= 5.52D-09 BMatP= 2.25D-07
 IDIUse=1 WtCom= 1.00D+00 WtEn= 0.00D+00
 Coeff-Com:  0.795D-04-0.126D-03-0.129D-02-0.247D-02-0.863D-02-0.637D-02
 Coeff-Com:  0.872D-01 0.158D+00 0.774D+00
 Coeff:      0.795D-04-0.126D-03-0.129D-02-0.247D-02-0.863D-02-0.637D-02
 Coeff:      0.872D-01 0.158D+00 0.774D+00
 Gap=     0.299 Goal=   None    Shift=    0.000
 RMSDP=3.57D-07 MaxDP=1.61D-05 DE=-2.03D-07 OVMax= 5.73D-05

 Cycle  10  Pass 1  IDiag  1:
 RMSU=  2.61D-07    CP:  9.88D-01  7.98D-01  9.37D-01  7.10D-01  8.57D-01
                    CP:  1.04D+00  1.16D+00  8.66D-01  1.01D+00
 E= -870.368193128323     Delta-E=       -0.000000004876 Rises=F Damp=F
 DIIS: error= 4.81D-06 at cycle  10 NSaved=  10.
 NSaved=10 IEnMin=10 EnMin= -870.368193128323     IErMin=10 ErrMin= 4.81D-06
 ErrMax= 4.81D-06  0.00D+00 EMaxC= 1.00D-01 BMatC= 2.59D-09 BMatP= 5.52D-09
 IDIUse=1 WtCom= 1.00D+00 WtEn= 0.00D+00
 Coeff-Com: -0.241D-04 0.540D-04 0.283D-03 0.407D-03-0.225D-03-0.770D-02
 Coeff-Com: -0.310D-01-0.985D-02 0.426D+00 0.622D+00
 Coeff:     -0.241D-04 0.540D-04 0.283D-03 0.407D-03-0.225D-03-0.770D-02
 Coeff:     -0.310D-01-0.985D-02 0.426D+00 0.622D+00
 Gap=     0.299 Goal=   None    Shift=    0.000
 RMSDP=1.91D-07 MaxDP=5.72D-06 DE=-4.88D-09 OVMax= 2.29D-05

 Cycle  11  Pass 1  IDiag  1:
 RMSU=  1.11D-07    CP:  9.88D-01  7.98D-01  9.37D-01  7.10D-01  8.57D-01
                    CP:  1.04D+00  1.17D+00  8.93D-01  1.13D+00  8.05D-01
 E= -870.368193130902     Delta-E=       -0.000000002578 Rises=F Damp=F
 DIIS: error= 9.82D-07 at cycle  11 NSaved=  11.
 NSaved=11 IEnMin=11 EnMin= -870.368193130902     IErMin=11 ErrMin= 9.82D-07
 ErrMax= 9.82D-07  0.00D+00 EMaxC= 1.00D-01 BMatC= 9.91D-11 BMatP= 2.59D-09
 IDIUse=1 WtCom= 1.00D+00 WtEn= 0.00D+00
 Coeff-Com: -0.145D-04 0.285D-04 0.216D-03 0.360D-03 0.689D-03-0.217D-02
 Coeff-Com: -0.185D-01-0.218D-01 0.554D-01 0.195D+00 0.791D+00
 Coeff:     -0.145D-04 0.285D-04 0.216D-03 0.360D-03 0.689D-03-0.217D-02
 Coeff:     -0.185D-01-0.218D-01 0.554D-01 0.195D+00 0.791D+00
 Gap=     0.299 Goal=   None    Shift=    0.000
 RMSDP=4.91D-08 MaxDP=1.83D-06 DE=-2.58D-09 OVMax= 7.21D-06

 Cycle  12  Pass 1  IDiag  1:
 RMSU=  2.79D-08    CP:  9.88D-01  7.98D-01  9.37D-01  7.10D-01  8.57D-01
                    CP:  1.04D+00  1.17D+00  8.99D-01  1.16D+00  8.91D-01
                    CP:  9.92D-01
 E= -870.368193131029     Delta-E=       -0.000000000127 Rises=F Damp=F
 DIIS: error= 2.16D-07 at cycle  12 NSaved=  12.
 NSaved=12 IEnMin=12 EnMin= -870.368193131029     IErMin=12 ErrMin= 2.16D-07
 ErrMax= 2.16D-07  0.00D+00 EMaxC= 1.00D-01 BMatC= 8.46D-12 BMatP= 9.91D-11
 IDIUse=1 WtCom= 1.00D+00 WtEn= 0.00D+00
 Coeff-Com: -0.547D-07-0.152D-06 0.180D-04 0.329D-04 0.179D-03 0.318D-03
 Coeff-Com: -0.286D-03-0.395D-02-0.289D-01-0.197D-01 0.193D+00 0.860D+00
 Coeff:     -0.547D-07-0.152D-06 0.180D-04 0.329D-04 0.179D-03 0.318D-03
 Coeff:     -0.286D-03-0.395D-02-0.289D-01-0.197D-01 0.193D+00 0.860D+00
 Gap=     0.299 Goal=   None    Shift=    0.000
 RMSDP=1.56D-08 MaxDP=6.57D-07 DE=-1.27D-10 OVMax= 1.57D-06

 Cycle  13  Pass 1  IDiag  1:
 RMSU=  1.03D-08    CP:  9.88D-01  7.98D-01  9.37D-01  7.10D-01  8.57D-01
                    CP:  1.04D+00  1.17D+00  8.99D-01  1.16D+00  9.04D-01
                    CP:  1.08D+00  1.02D+00
 E= -870.368193131019     Delta-E=        0.000000000010 Rises=F Damp=F
 DIIS: error= 5.86D-08 at cycle  13 NSaved=  13.
 NSaved=13 IEnMin=12 EnMin= -870.368193131029     IErMin=13 ErrMin= 5.86D-08
 ErrMax= 5.86D-08  0.00D+00 EMaxC= 1.00D-01 BMatC= 9.14D-13 BMatP= 8.46D-12
 IDIUse=1 WtCom= 1.00D+00 WtEn= 0.00D+00
 Coeff-Com:  0.109D-05-0.226D-05-0.933D-05-0.163D-04 0.281D-06 0.224D-03
 Coeff-Com:  0.129D-02 0.280D-03-0.135D-01-0.230D-01 0.108D-02 0.291D+00
 Coeff-Com:  0.743D+00
 Coeff:      0.109D-05-0.226D-05-0.933D-05-0.163D-04 0.281D-06 0.224D-03
 Coeff:      0.129D-02 0.280D-03-0.135D-01-0.230D-01 0.108D-02 0.291D+00
 Coeff:      0.743D+00
 Gap=     0.299 Goal=   None    Shift=    0.000
 RMSDP=4.08D-09 MaxDP=1.39D-07 DE= 9.78D-12 OVMax= 6.05D-07

 SCF Done:  E(RM062X) =  -870.368193131     A.U. after   13 cycles
            NFock= 13  Conv=0.41D-08     -V/T= 2.0033
 KE= 8.675340397196D+02 PE=-3.351417924727D+03 EE= 9.651214738884D+02
 Leave Link  502 at Fri Feb 17 21:23:09 2023, MaxMem=  6710886400 cpu:             569.5 elap:              23.8
 (Enter /data0/home/software/g16/l601.exe)
 Copying SCF densities to generalized density rwf, IOpCl= 0 IROHF=0.

 **********************************************************************

            Population analysis using the SCF density.

 **********************************************************************

 Alpha  occ. eigenvalues --  -78.14192 -19.65845 -19.65597 -19.63269 -19.56662
 Alpha  occ. eigenvalues --  -14.83805 -14.77343 -10.62979 -10.60065 -10.58603
 Alpha  occ. eigenvalues --   -6.94940  -5.06860  -5.06807  -5.06657  -1.21319
 Alpha  occ. eigenvalues --   -1.14395  -1.14224  -1.12733  -1.06796  -0.99923
 Alpha  occ. eigenvalues --   -0.86180  -0.72700  -0.70156  -0.69421  -0.66372
 Alpha  occ. eigenvalues --   -0.61854  -0.61391  -0.55209  -0.53843  -0.52898
 Alpha  occ. eigenvalues --   -0.52656  -0.50598  -0.49610  -0.48421  -0.48134
 Alpha  occ. eigenvalues --   -0.44205  -0.43362  -0.40361  -0.38383  -0.37624
 Alpha  occ. eigenvalues --   -0.36565  -0.35345  -0.30856
 Alpha virt. eigenvalues --   -0.00915   0.00407   0.01804   0.01868   0.02528
 Alpha virt. eigenvalues --    0.03286   0.04643   0.04795   0.05536   0.06220
 Alpha virt. eigenvalues --    0.07057   0.07108   0.09135   0.09319   0.10593
 Alpha virt. eigenvalues --    0.11188   0.11982   0.13443   0.14124   0.14272
 Alpha virt. eigenvalues --    0.15597   0.15916   0.17432   0.18736   0.19215
 Alpha virt. eigenvalues --    0.19733   0.20134   0.20647   0.21120   0.21517
 Alpha virt. eigenvalues --    0.22191   0.22630   0.23011   0.23664   0.24527
 Alpha virt. eigenvalues --    0.25152   0.25987   0.26124   0.26753   0.27064
 Alpha virt. eigenvalues --    0.28265   0.28687   0.28947   0.30065   0.31234
 Alpha virt. eigenvalues --    0.31462   0.31876   0.32435   0.33014   0.33870
 Alpha virt. eigenvalues --    0.36090   0.37976   0.38711   0.39995   0.40721
 Alpha virt. eigenvalues --    0.41002   0.42209   0.43580   0.44057   0.46225
 Alpha virt. eigenvalues --    0.47611   0.49247   0.50012   0.52248   0.54444
 Alpha virt. eigenvalues --    0.55581   0.57236   0.57765   0.59353   0.60288
 Alpha virt. eigenvalues --    0.61107   0.64226   0.65197   0.66860   0.67637
 Alpha virt. eigenvalues --    0.69413   0.70609   0.73076   0.75928   0.76752
 Alpha virt. eigenvalues --    0.77834   0.78460   0.79346   0.80497   0.81082
 Alpha virt. eigenvalues --    0.83110   0.85480   0.85793   0.88712   0.89003
 Alpha virt. eigenvalues --    0.90565   0.91919   0.93024   0.95400   0.97681
 Alpha virt. eigenvalues --    0.99081   1.01479   1.02122   1.05903   1.07872
 Alpha virt. eigenvalues --    1.08722   1.09875   1.12579   1.15209   1.15692
 Alpha virt. eigenvalues --    1.17616   1.18091   1.19866   1.22178   1.23895
 Alpha virt. eigenvalues --    1.25013   1.25734   1.27372   1.27995   1.29023
 Alpha virt. eigenvalues --    1.30035   1.31252   1.32428   1.35109   1.35856
 Alpha virt. eigenvalues --    1.36952   1.38126   1.38827   1.41058   1.42125
 Alpha virt. eigenvalues --    1.44048   1.45035   1.46435   1.48153   1.49348
 Alpha virt. eigenvalues --    1.50679   1.52266   1.57111   1.59948   1.61842
 Alpha virt. eigenvalues --    1.64630   1.65098   1.66803   1.68500   1.68824
 Alpha virt. eigenvalues --    1.71143   1.71446   1.72468   1.73623   1.75603
 Alpha virt. eigenvalues --    1.79412   1.80974   1.84086   1.87159   1.88009
 Alpha virt. eigenvalues --    1.89128   1.91799   1.93314   1.95022   1.97236
 Alpha virt. eigenvalues --    1.98825   2.02087   2.04765   2.10280   2.11232
 Alpha virt. eigenvalues --    2.12533   2.15072   2.15501   2.19426   2.21484
 Alpha virt. eigenvalues --    2.26638   2.29753   2.30164   2.34116   2.39553
 Alpha virt. eigenvalues --    2.42224   2.43366   2.48330   2.50465   2.54424
 Alpha virt. eigenvalues --    2.61989   2.62896   2.64204   2.68376   2.71570
 Alpha virt. eigenvalues --    2.75285   2.76894   2.78224   2.79144   2.80664
 Alpha virt. eigenvalues --    2.84615   2.85954   2.88083   2.93277   2.94573
 Alpha virt. eigenvalues --    2.96008   2.99064   3.05098   3.12297   3.15544
 Alpha virt. eigenvalues --    3.22071   3.26608   3.31292   3.33537   3.36402
 Alpha virt. eigenvalues --    3.37580   3.41314   3.42097   3.45671   3.51172
 Alpha virt. eigenvalues --    3.54690   3.57068   3.64791   3.67875   3.68424
 Alpha virt. eigenvalues --    3.71409   3.94172   3.94319   3.97366   3.99329
 Alpha virt. eigenvalues --    4.01992   4.47938   4.60888   4.86957   4.93352
 Alpha virt. eigenvalues --    4.95079   4.98284   4.99000   5.03498   5.05831
 Alpha virt. eigenvalues --    5.06939   5.09483   5.10985   5.11818   5.16753
 Alpha virt. eigenvalues --    5.17958   5.20969   5.24059   5.25503   5.28193
 Alpha virt. eigenvalues --    5.32215   5.37749   5.38219   5.51426   5.53454
 Alpha virt. eigenvalues --    5.54482   5.57744   5.78032   6.76191   6.77116
 Alpha virt. eigenvalues --    6.78207   6.80483   6.82052   6.83451   6.85643
 Alpha virt. eigenvalues --    6.88515   6.94322   6.97006   6.99692   7.01190
 Alpha virt. eigenvalues --    7.03200   7.08531   7.15720   7.28085   7.29419
 Alpha virt. eigenvalues --    7.31425   7.37670   7.43404   7.68501  14.26295
 Alpha virt. eigenvalues --   14.28486  14.38016  23.89528  24.06912  24.11460
 Alpha virt. eigenvalues --   35.62745  35.67409  50.03234  50.03560  50.07552
 Alpha virt. eigenvalues --   50.12586 163.90782
          Condensed to atoms (all electrons):
               1          2          3          4          5          6
     1  C    5.375631   0.165051  -0.166006   0.412634  -0.050065   0.399136
     2  C    0.165051   5.540161  -0.138052  -0.146310   0.021854  -0.022893
     3  C   -0.166006  -0.138052   5.032375   0.349310  -0.016180   0.011857
     4  N    0.412634  -0.146310   0.349310   6.351404   0.371263  -0.036278
     5  H   -0.050065   0.021854  -0.016180   0.371263   0.388206  -0.002532
     6  H    0.399136  -0.022893   0.011857  -0.036278  -0.002532   0.498809
     7  H   -0.053475   0.436063   0.010069   0.008925  -0.000080  -0.000574
     8  H    0.007316   0.010412   0.410689  -0.035643  -0.000953  -0.000033
     9  N    0.031259   0.181609   0.441413  -0.026203   0.000132   0.008313
    10  P    0.002832  -0.010573   0.010958  -0.000955   0.000168  -0.000007
    11  O    0.002803  -0.002913   0.014541   0.000704   0.000024  -0.000002
    12  O   -0.002799   0.006259  -0.006175  -0.000177  -0.000003   0.000002
    13  H   -0.000406   0.001471  -0.004207   0.000354  -0.000008  -0.000001
    14  O   -0.016137   0.017056  -0.019092   0.003107   0.000042   0.000013
    15  H    0.009049  -0.011679  -0.005369   0.000068  -0.000054  -0.000005
    16  O    0.000286  -0.001109   0.000941  -0.000079  -0.000000   0.000000
    17  H    0.000027  -0.000148  -0.000088   0.000014  -0.000000   0.000000
               7          8          9         10         11         12
     1  C   -0.053475   0.007316   0.031259   0.002832   0.002803  -0.002799
     2  C    0.436063   0.010412   0.181609  -0.010573  -0.002913   0.006259
     3  C    0.010069   0.410689   0.441413   0.010958   0.014541  -0.006175
     4  N    0.008925  -0.035643  -0.026203  -0.000955   0.000704  -0.000177
     5  H   -0.000080  -0.000953   0.000132   0.000168   0.000024  -0.000003
     6  H   -0.000574  -0.000033   0.008313  -0.000007  -0.000002   0.000002
     7  H    0.510471  -0.000085  -0.046113  -0.000296   0.000063   0.000024
     8  H   -0.000085   0.437497  -0.033476   0.002319  -0.000465  -0.000064
     9  N   -0.046113  -0.033476   6.836333   0.001480  -0.020848   0.000695
    10  P   -0.000296   0.002319   0.001480  12.437199   0.539031   0.250873
    11  O    0.000063  -0.000465  -0.020848   0.539031   8.195084  -0.000512
    12  O    0.000024  -0.000064   0.000695   0.250873  -0.000512   8.026990
    13  H    0.000007   0.000118   0.001960   0.016586  -0.013770   0.247168
    14  O    0.000621  -0.000106   0.018830   0.307341  -0.047323   0.020297
    15  H   -0.000993   0.000392   0.044203  -0.004699   0.008598  -0.006591
    16  O   -0.000002   0.000065  -0.000869   0.196746  -0.025478  -0.008778
    17  H   -0.000000   0.000003   0.000402   0.026657  -0.002989  -0.010895
              13         14         15         16         17
     1  C   -0.000406  -0.016137   0.009049   0.000286   0.000027
     2  C    0.001471   0.017056  -0.011679  -0.001109  -0.000148
     3  C   -0.004207  -0.019092  -0.005369   0.000941  -0.000088
     4  N    0.000354   0.003107   0.000068  -0.000079   0.000014
     5  H   -0.000008   0.000042  -0.000054  -0.000000  -0.000000
     6  H   -0.000001   0.000013  -0.000005   0.000000   0.000000
     7  H    0.000007   0.000621  -0.000993  -0.000002  -0.000000
     8  H    0.000118  -0.000106   0.000392   0.000065   0.000003
     9  N    0.001960   0.018830   0.044203  -0.000869   0.000402
    10  P    0.016586   0.307341  -0.004699   0.196746   0.026657
    11  O   -0.013770  -0.047323   0.008598  -0.025478  -0.002989
    12  O    0.247168   0.020297  -0.006591  -0.008778  -0.010895
    13  H    0.441942  -0.007752  -0.000905   0.003243   0.001745
    14  O   -0.007752   8.162161   0.245135   0.004898  -0.007888
    15  H   -0.000905   0.245135   0.227472   0.002602   0.000541
    16  O    0.003243   0.004898   0.002602   8.079216   0.229415
    17  H    0.001745  -0.007888   0.000541   0.229415   0.455212
 Mulliken charges:
               1
     1  C   -0.117135
     2  C   -0.046258
     3  C    0.073017
     4  N   -0.252140
     5  H    0.288189
     6  H    0.144195
     7  H    0.135376
     8  H    0.202012
     9  N   -0.439119
    10  P    1.224338
    11  O   -0.646548
    12  O   -0.516312
    13  H    0.312455
    14  O   -0.681203
    15  H    0.492235
    16  O   -0.481097
    17  H    0.307993
 Sum of Mulliken charges =  -0.00000
 Mulliken charges with hydrogens summed into heavy atoms:
               1
     1  C    0.027060
     2  C    0.089118
     3  C    0.275030
     4  N    0.036049
     9  N   -0.439119
    10  P    1.224338
    11  O   -0.646548
    12  O   -0.203857
    14  O   -0.188968
    16  O   -0.173104
         Mulliken charges condensed to fragments:
      1     -0.011862
      2      0.011862
 Electronic spatial extent (au):  <R**2>=         145065.1934
 Charge=             -0.0000 electrons
 Dipole moment (field-independent basis, Debye):
    X=             -3.8170    Y=              1.5074    Z=              5.0797  Tot=              6.5303
 Quadrupole moment (field-independent basis, Debye-Ang):
   XX=           -161.2092   YY=            -19.8719   ZZ=             40.1948
   XY=            -33.1625   XZ=             22.5077   YZ=             75.9086
 Traceless Quadrupole moment (field-independent basis, Debye-Ang):
   XX=           -114.2471   YY=             27.0902   ZZ=             87.1569
   XY=            -33.1625   XZ=             22.5077   YZ=             75.9086
 Octapole moment (field-independent basis, Debye-Ang**2):
  XXX=          -4349.8665  YYY=          -1845.9169  ZZZ=           -129.0088  XYY=           -990.6288
  XXY=          -2025.2315  XXZ=           -829.4920  XZZ=             24.8158  YZZ=            491.5478
  YYZ=            573.1624  XYZ=            373.2752
 Hexadecapole moment (field-independent basis, Debye-Ang**3):
 XXXX=         -96734.1670 YYYY=         -63948.7163 ZZZZ=         -11253.2810 XXXY=         -58796.3865
 XXXZ=         -32245.7054 YYYX=         -34183.7130 YYYZ=          -7801.4258 ZZZX=          -7177.9123
 ZZZY=          -3953.4053 XXYY=         -35836.5781 XXZZ=         -11484.8108 YYZZ=            524.0744
 XXYZ=         -11319.0060 YYXZ=          -1148.1694 ZZXY=           -659.7802
 N-N= 6.483942179878D+02 E-N=-3.351417926804D+03  KE= 8.675340397196D+02
 No NMR shielding tensors so no spin-rotation constants.
 Leave Link  601 at Fri Feb 17 21:23:09 2023, MaxMem=  6710886400 cpu:               2.4 elap:               0.1
 (Enter /data0/home/software/g16/l122.exe)
 CPIOFr:  IOpCl= 0 IRwI=-1 IRwCP=  731 ICalc= -1 LCPTot=      158204 Len1MO=      416108 IndFrg=      158204
 CPIOFr:  IOpCl= 0 IRwI=-1 IRwCP=  731 ICalc=  0 LCPTot=      158204 Len1MO=      416108 IndFrg=      574312
 Counterpoise: doing calculation for fragment   1 using the basis set of the full-system, NewBq=T
 Leave Link  122 at Fri Feb 17 21:23:09 2023, MaxMem=  6710886400 cpu:               0.2 elap:               0.0
 (Enter /data0/home/software/g16/l301.exe)
 Basis read from rwf:  (5D, 7F)
 No pseudopotential information found on rwf file.
   320 basis functions,   490 primitive gaussians,   340 cartesian basis functions
    18 alpha electrons       18 beta electrons
       nuclear repulsion energy       160.9886598869 Hartrees.
 IExCor= 4336 DFT=T Ex+Corr=M062X ExCW=0 ScaHFX=  0.540000
 ScaDFX=  1.000000  1.000000  1.000000  1.000000 ScalE2=  1.000000  1.000000
 IRadAn=      5 IRanWt=     -1 IRanGd=            0 ICorTp=0 IEmpDi=131
 NAtoms=   17 NActive=   17 NUniq=   17 SFac= 1.00D+00 NAtFMM=   60 NAOKFM=F Big=F
 Integral buffers will be    131072 words long.
 Raffenetti 2 integral format.
 Two-electron integral symmetry is turned off.
 R6Disp:  Grimme-D3 Dispersion energy=       -0.0000417754 Hartrees.
 Nuclear repulsion after empirical dispersion term =      160.9886181114 Hartrees.
 No density basis found on file   718.
 Leave Link  301 at Fri Feb 17 21:23:09 2023, MaxMem=  6710886400 cpu:               1.2 elap:               0.1
 (Enter /data0/home/software/g16/l302.exe)
 NPDir=0 NMtPBC=     1 NCelOv=     1 NCel=       1 NClECP=     1 NCelD=      1
         NCelK=      1 NCelE2=     1 NClLst=     1 CellRange=     0.0.
 One-electron integrals computed using PRISM.
 NBasis=   320 RedAO= T EigKep=  4.24D-05  NBF=   320
 NBsUse=   320 1.00D-06 EigRej= -1.00D+00 NBFU=   320
 Precomputing XC quadrature grid using
 IXCGrd= 4 IRadAn=           5 IRanWt=          -1 IRanGd=           0 AccXCQ= 0.00D+00.
 Generated NRdTot=       0 NPtTot=           0 NUsed=           0 NTot=          32
 NSgBfM=   340   340   340   340   340 MxSgAt=    17 MxSgA2=    17.
 Leave Link  302 at Fri Feb 17 21:23:09 2023, MaxMem=  6710886400 cpu:               5.0 elap:               0.2
 (Enter /data0/home/software/g16/l303.exe)
 DipDrv:  MaxL=1.
 Leave Link  303 at Fri Feb 17 21:23:09 2023, MaxMem=  6710886400 cpu:               0.7 elap:               0.0
 (Enter /data0/home/software/g16/l401.exe)
 ExpMin= 3.48D-02 ExpMax= 7.75D+04 ExpMxC= 2.65D+03 IAcc=3 IRadAn=         5 AccDes= 0.00D+00
 Harris functional with IExCor= 1009 and IRadAn=       5 diagonalized for initial guess.
 HarFok:  IExCor= 1009 AccDes= 0.00D+00 IRadAn=         5 IDoV= 1 UseB2=F ITyADJ=14
 ICtDFT=  3500011 ScaDFX=  1.000000  1.000000  1.000000  1.000000
 FoFCou: FMM=F IPFlag=           0 FMFlag=      100000 FMFlg1=           0
         NFxFlg=           0 DoJE=T BraDBF=F KetDBF=T FulRan=T
         wScrn=  0.000000 ICntrl=       500 IOpCl=  0 I1Cent=   200000004 NGrid=           0
         NMat0=    1 NMatS0=      1 NMatT0=    0 NMatD0=    1 NMtDS0=    0 NMtDT0=    0
 Symmetry not used in FoFCou.
 Harris En= -226.053912301225    
 JPrj=0 DoOrth=F DoCkMO=F.
 Leave Link  401 at Fri Feb 17 21:23:10 2023, MaxMem=  6710886400 cpu:              15.7 elap:               0.7
 (Enter /data0/home/software/g16/l502.exe)
 Two-electron integral symmetry not used.
 Closed shell SCF:
 Using DIIS extrapolation, IDIIS=  1040.
 NGot=  6710886400 LenX=  6710644641 LenY=  6710528600
 Requested convergence on RMS density matrix=1.00D-08 within 128 cycles.
 Requested convergence on MAX density matrix=1.00D-06.
 Requested convergence on             energy=1.00D-06.
 No special actions if energy rises.
 Fock matrices will be formed incrementally for  20 cycles.

 Cycle   1  Pass 1  IDiag  1:
 FoFJK:  IHMeth= 1 ICntrl=       0 DoSepK=F KAlg= 0 I1Cent=           0 FoldK=F
 IRaf= 870000000 NMat=       1 IRICut=       1 DoRegI=T DoRafI=F ISym2E= 0 IDoP0=0 IntGTp=1.
 FoFCou: FMM=F IPFlag=           0 FMFlag=      100000 FMFlg1=           0
         NFxFlg=           0 DoJE=F BraDBF=F KetDBF=F FulRan=T
         wScrn=  0.000000 ICntrl=         0 IOpCl=  0 I1Cent=           0 NGrid=           0
         NMat0=    1 NMatS0=      1 NMatT0=    0 NMatD0=    1 NMtDS0=    0 NMtDT0=    0
 Symmetry not used in FoFCou.
 E= -226.086791107941    
 DIIS: error= 1.57D-02 at cycle   1 NSaved=   1.
 NSaved= 1 IEnMin= 1 EnMin= -226.086791107941     IErMin= 1 ErrMin= 1.57D-02
 ErrMax= 1.57D-02  0.00D+00 EMaxC= 1.00D-01 BMatC= 1.33D-01 BMatP= 1.33D-01
 IDIUse=3 WtCom= 8.43D-01 WtEn= 1.57D-01
 Coeff-Com:  0.100D+01
 Coeff-En:   0.100D+01
 Coeff:      0.100D+01
 Gap=     0.310 Goal=   None    Shift=    0.000
 GapD=    0.310 DampG=1.000 DampE=0.500 DampFc=0.5000 IDamp=-1.
 Damping current iteration by 5.00D-01
 RMSDP=2.35D-03 MaxDP=1.41D-01              OVMax= 1.75D-01

 Cycle   2  Pass 1  IDiag  1:
 RMSU=  1.18D-03    CP:  1.00D+00
 E= -226.134237895706     Delta-E=       -0.047446787765 Rises=F Damp=T
 DIIS: error= 5.87D-03 at cycle   2 NSaved=   2.
 NSaved= 2 IEnMin= 2 EnMin= -226.134237895706     IErMin= 2 ErrMin= 5.87D-03
 ErrMax= 5.87D-03  0.00D+00 EMaxC= 1.00D-01 BMatC= 1.57D-02 BMatP= 1.33D-01
 IDIUse=3 WtCom= 9.41D-01 WtEn= 5.87D-02
 Coeff-Com: -0.937D-01 0.109D+01
 Coeff-En:   0.000D+00 0.100D+01
 Coeff:     -0.882D-01 0.109D+01
 Gap=     0.289 Goal=   None    Shift=    0.000
 RMSDP=7.26D-04 MaxDP=5.09D-02 DE=-4.74D-02 OVMax= 1.15D-01

 Cycle   3  Pass 1  IDiag  1:
 RMSU=  6.16D-04    CP:  9.86D-01  6.83D-01
 E= -226.179322117386     Delta-E=       -0.045084221681 Rises=F Damp=F
 DIIS: error= 5.78D-03 at cycle   3 NSaved=   3.
 NSaved= 3 IEnMin= 3 EnMin= -226.179322117386     IErMin= 3 ErrMin= 5.78D-03
 ErrMax= 5.78D-03  0.00D+00 EMaxC= 1.00D-01 BMatC= 1.03D-02 BMatP= 1.57D-02
 IDIUse=3 WtCom= 9.42D-01 WtEn= 5.78D-02
 Coeff-Com: -0.151D+00 0.540D+00 0.612D+00
 Coeff-En:   0.000D+00 0.000D+00 0.100D+01
 Coeff:     -0.143D+00 0.509D+00 0.634D+00
 Gap=     0.292 Goal=   None    Shift=    0.000
 RMSDP=2.76D-04 MaxDP=1.40D-02 DE=-4.51D-02 OVMax= 4.31D-02

 Cycle   4  Pass 1  IDiag  1:
 RMSU=  2.09D-04    CP:  9.88D-01  8.08D-01  8.32D-01
 E= -226.187101505291     Delta-E=       -0.007779387904 Rises=F Damp=F
 DIIS: error= 2.23D-03 at cycle   4 NSaved=   4.
 NSaved= 4 IEnMin= 4 EnMin= -226.187101505291     IErMin= 4 ErrMin= 2.23D-03
 ErrMax= 2.23D-03  0.00D+00 EMaxC= 1.00D-01 BMatC= 1.42D-03 BMatP= 1.03D-02
 IDIUse=3 WtCom= 9.78D-01 WtEn= 2.23D-02
 Coeff-Com: -0.647D-01 0.160D+00 0.336D+00 0.568D+00
 Coeff-En:   0.000D+00 0.000D+00 0.790D-01 0.921D+00
 Coeff:     -0.633D-01 0.156D+00 0.331D+00 0.576D+00
 Gap=     0.286 Goal=   None    Shift=    0.000
 RMSDP=1.05D-04 MaxDP=4.18D-03 DE=-7.78D-03 OVMax= 1.04D-02

 Cycle   5  Pass 1  IDiag  1:
 RMSU=  6.27D-05    CP:  9.85D-01  7.67D-01  8.98D-01  7.62D-01
 E= -226.188310044414     Delta-E=       -0.001208539124 Rises=F Damp=F
 DIIS: error= 4.40D-04 at cycle   5 NSaved=   5.
 NSaved= 5 IEnMin= 5 EnMin= -226.188310044414     IErMin= 5 ErrMin= 4.40D-04
 ErrMax= 4.40D-04  0.00D+00 EMaxC= 1.00D-01 BMatC= 2.69D-05 BMatP= 1.42D-03
 IDIUse=3 WtCom= 9.96D-01 WtEn= 4.40D-03
 Coeff-Com: -0.156D-01 0.311D-01 0.833D-01 0.201D+00 0.701D+00
 Coeff-En:   0.000D+00 0.000D+00 0.000D+00 0.000D+00 0.100D+01
 Coeff:     -0.155D-01 0.310D-01 0.829D-01 0.200D+00 0.702D+00
 Gap=     0.286 Goal=   None    Shift=    0.000
 RMSDP=1.57D-05 MaxDP=8.34D-04 DE=-1.21D-03 OVMax= 2.27D-03

 Cycle   6  Pass 1  IDiag  1:
 RMSU=  1.32D-05    CP:  9.85D-01  7.68D-01  9.03D-01  7.78D-01  8.89D-01
 E= -226.188331168753     Delta-E=       -0.000021124338 Rises=F Damp=F
 DIIS: error= 1.58D-04 at cycle   6 NSaved=   6.
 NSaved= 6 IEnMin= 6 EnMin= -226.188331168753     IErMin= 6 ErrMin= 1.58D-04
 ErrMax= 1.58D-04  0.00D+00 EMaxC= 1.00D-01 BMatC= 4.47D-06 BMatP= 2.69D-05
 IDIUse=3 WtCom= 9.98D-01 WtEn= 1.58D-03
 Coeff-Com: -0.410D-02 0.623D-02 0.227D-01 0.647D-01 0.351D+00 0.560D+00
 Coeff-En:   0.000D+00 0.000D+00 0.000D+00 0.000D+00 0.225D-01 0.978D+00
 Coeff:     -0.410D-02 0.622D-02 0.227D-01 0.646D-01 0.350D+00 0.560D+00
 Gap=     0.286 Goal=   None    Shift=    0.000
 RMSDP=7.49D-06 MaxDP=4.11D-04 DE=-2.11D-05 OVMax= 9.55D-04

 Cycle   7  Pass 1  IDiag  1:
 RMSU=  4.83D-06    CP:  9.85D-01  7.64D-01  9.06D-01  7.82D-01  9.33D-01
                    CP:  9.15D-01
 E= -226.188335342478     Delta-E=       -0.000004173725 Rises=F Damp=F
 DIIS: error= 2.17D-05 at cycle   7 NSaved=   7.
 NSaved= 7 IEnMin= 7 EnMin= -226.188335342478     IErMin= 7 ErrMin= 2.17D-05
 ErrMax= 2.17D-05  0.00D+00 EMaxC= 1.00D-01 BMatC= 1.53D-07 BMatP= 4.47D-06
 IDIUse=1 WtCom= 1.00D+00 WtEn= 0.00D+00
 Coeff-Com:  0.192D-02-0.406D-02-0.846D-02-0.225D-01-0.540D-01 0.780D-01
 Coeff-Com:  0.101D+01
 Coeff:      0.192D-02-0.406D-02-0.846D-02-0.225D-01-0.540D-01 0.780D-01
 Coeff:      0.101D+01
 Gap=     0.286 Goal=   None    Shift=    0.000
 RMSDP=3.89D-06 MaxDP=1.85D-04 DE=-4.17D-06 OVMax= 2.36D-04

 Cycle   8  Pass 1  IDiag  1:
 RMSU=  1.11D-06    CP:  9.85D-01  7.62D-01  9.08D-01  7.82D-01  9.50D-01
                    CP:  1.05D+00  1.16D+00
 E= -226.188335566352     Delta-E=       -0.000000223875 Rises=F Damp=F
 DIIS: error= 9.42D-06 at cycle   8 NSaved=   8.
 NSaved= 8 IEnMin= 8 EnMin= -226.188335566352     IErMin= 8 ErrMin= 9.42D-06
 ErrMax= 9.42D-06  0.00D+00 EMaxC= 1.00D-01 BMatC= 1.33D-08 BMatP= 1.53D-07
 IDIUse=1 WtCom= 1.00D+00 WtEn= 0.00D+00
 Coeff-Com:  0.745D-03-0.151D-02-0.310D-02-0.918D-02-0.258D-01 0.121D-01
 Coeff-Com:  0.345D+00 0.682D+00
 Coeff:      0.745D-03-0.151D-02-0.310D-02-0.918D-02-0.258D-01 0.121D-01
 Coeff:      0.345D+00 0.682D+00
 Gap=     0.286 Goal=   None    Shift=    0.000
 RMSDP=4.85D-07 MaxDP=2.28D-05 DE=-2.24D-07 OVMax= 5.41D-05

 Cycle   9  Pass 1  IDiag  1:
 RMSU=  3.25D-07    CP:  9.85D-01  7.62D-01  9.09D-01  7.82D-01  9.52D-01
                    CP:  1.05D+00  1.19D+00  1.07D+00
 E= -226.188335578674     Delta-E=       -0.000000012322 Rises=F Damp=F
 DIIS: error= 3.31D-06 at cycle   9 NSaved=   9.
 NSaved= 9 IEnMin= 9 EnMin= -226.188335578674     IErMin= 9 ErrMin= 3.31D-06
 ErrMax= 3.31D-06  0.00D+00 EMaxC= 1.00D-01 BMatC= 3.04D-09 BMatP= 1.33D-08
 IDIUse=1 WtCom= 1.00D+00 WtEn= 0.00D+00
 Coeff-Com: -0.110D-03 0.243D-03 0.703D-03 0.107D-02 0.117D-02-0.129D-01
 Coeff-Com: -0.848D-01 0.303D+00 0.792D+00
 Coeff:     -0.110D-03 0.243D-03 0.703D-03 0.107D-02 0.117D-02-0.129D-01
 Coeff:     -0.848D-01 0.303D+00 0.792D+00
 Gap=     0.286 Goal=   None    Shift=    0.000
 RMSDP=2.41D-07 MaxDP=1.23D-05 DE=-1.23D-08 OVMax= 2.02D-05

 Cycle  10  Pass 1  IDiag  1:
 RMSU=  1.13D-07    CP:  9.85D-01  7.62D-01  9.09D-01  7.81D-01  9.51D-01
                    CP:  1.06D+00  1.20D+00  1.22D+00  1.04D+00
 E= -226.188335581718     Delta-E=       -0.000000003044 Rises=F Damp=F
 DIIS: error= 3.60D-07 at cycle  10 NSaved=  10.
 NSaved=10 IEnMin=10 EnMin= -226.188335581718     IErMin=10 ErrMin= 3.60D-07
 ErrMax= 3.60D-07  0.00D+00 EMaxC= 1.00D-01 BMatC= 6.39D-11 BMatP= 3.04D-09
 IDIUse=1 WtCom= 1.00D+00 WtEn= 0.00D+00
 Coeff-Com: -0.468D-04 0.101D-03 0.266D-03 0.528D-03 0.128D-02-0.170D-02
 Coeff-Com: -0.285D-01 0.152D-01 0.948D-01 0.918D+00
 Coeff:     -0.468D-04 0.101D-03 0.266D-03 0.528D-03 0.128D-02-0.170D-02
 Coeff:     -0.285D-01 0.152D-01 0.948D-01 0.918D+00
 Gap=     0.286 Goal=   None    Shift=    0.000
 RMSDP=4.15D-08 MaxDP=2.00D-06 DE=-3.04D-09 OVMax= 4.29D-06

 Cycle  11  Pass 1  IDiag  1:
 RMSU=  2.36D-08    CP:  9.85D-01  7.62D-01  9.09D-01  7.81D-01  9.51D-01
                    CP:  1.06D+00  1.20D+00  1.24D+00  1.09D+00  1.09D+00
 E= -226.188335581787     Delta-E=       -0.000000000069 Rises=F Damp=F
 DIIS: error= 3.64D-07 at cycle  11 NSaved=  11.
 NSaved=11 IEnMin=11 EnMin= -226.188335581787     IErMin=10 ErrMin= 3.60D-07
 ErrMax= 3.64D-07  0.00D+00 EMaxC= 1.00D-01 BMatC= 1.59D-11 BMatP= 6.39D-11
 IDIUse=1 WtCom= 1.00D+00 WtEn= 0.00D+00
 Coeff-Com: -0.641D-05 0.134D-04 0.436D-04 0.877D-04 0.323D-03 0.463D-03
 Coeff-Com: -0.423D-02-0.171D-01-0.315D-01 0.396D+00 0.655D+00
 Coeff:     -0.641D-05 0.134D-04 0.436D-04 0.877D-04 0.323D-03 0.463D-03
 Coeff:     -0.423D-02-0.171D-01-0.315D-01 0.396D+00 0.655D+00
 Gap=     0.286 Goal=   None    Shift=    0.000
 RMSDP=1.32D-08 MaxDP=6.99D-07 DE=-6.91D-11 OVMax= 1.88D-06

 Cycle  12  Pass 1  IDiag  1:
 RMSU=  9.65D-09    CP:  9.85D-01  7.62D-01  9.09D-01  7.81D-01  9.51D-01
                    CP:  1.06D+00  1.20D+00  1.24D+00  1.10D+00  1.13D+00
                    CP:  9.09D-01
 E= -226.188335581804     Delta-E=       -0.000000000017 Rises=F Damp=F
 DIIS: error= 6.88D-08 at cycle  12 NSaved=  12.
 NSaved=12 IEnMin=12 EnMin= -226.188335581804     IErMin=12 ErrMin= 6.88D-08
 ErrMax= 6.88D-08  0.00D+00 EMaxC= 1.00D-01 BMatC= 1.74D-12 BMatP= 1.59D-11
 IDIUse=1 WtCom= 1.00D+00 WtEn= 0.00D+00
 Coeff-Com:  0.363D-05-0.778D-05-0.149D-04-0.319D-04-0.260D-04 0.426D-03
 Coeff-Com:  0.198D-02-0.680D-02-0.255D-01 0.136D-02 0.255D+00 0.774D+00
 Coeff:      0.363D-05-0.778D-05-0.149D-04-0.319D-04-0.260D-04 0.426D-03
 Coeff:      0.198D-02-0.680D-02-0.255D-01 0.136D-02 0.255D+00 0.774D+00
 Gap=     0.286 Goal=   None    Shift=    0.000
 RMSDP=4.28D-09 MaxDP=2.11D-07 DE=-1.71D-11 OVMax= 3.89D-07

 SCF Done:  E(RM062X) =  -226.188335582     A.U. after   12 cycles
            NFock= 12  Conv=0.43D-08     -V/T= 2.0053
 KE= 2.249977442777D+02 PE=-8.484237338564D+02 EE= 2.362490358855D+02
 Leave Link  502 at Fri Feb 17 21:23:31 2023, MaxMem=  6710886400 cpu:             503.6 elap:              21.1
 (Enter /data0/home/software/g16/l601.exe)
 Copying SCF densities to generalized density rwf, IOpCl= 0 IROHF=0.

 **********************************************************************

            Population analysis using the SCF density.

 **********************************************************************

 Alpha  occ. eigenvalues --  -14.81508 -14.73517 -10.60447 -10.57705 -10.55837
 Alpha  occ. eigenvalues --   -1.11741  -0.96857  -0.83721  -0.70063  -0.66997
 Alpha  occ. eigenvalues --   -0.64205  -0.51498  -0.50527  -0.50089  -0.48002
 Alpha  occ. eigenvalues --   -0.34472  -0.34063  -0.28484
 Alpha virt. eigenvalues --    0.00144   0.02184   0.02895   0.03447   0.04473
 Alpha virt. eigenvalues --    0.04839   0.05506   0.06729   0.07086   0.07767
 Alpha virt. eigenvalues --    0.08101   0.08680   0.10326   0.10998   0.12032
 Alpha virt. eigenvalues --    0.12669   0.14251   0.15057   0.15347   0.15390
 Alpha virt. eigenvalues --    0.17876   0.18074   0.19926   0.20576   0.20937
 Alpha virt. eigenvalues --    0.21499   0.22257   0.22609   0.22888   0.23273
 Alpha virt. eigenvalues --    0.24397   0.24985   0.25825   0.26740   0.27518
 Alpha virt. eigenvalues --    0.27798   0.28525   0.28754   0.29524   0.30183
 Alpha virt. eigenvalues --    0.31105   0.31603   0.33460   0.34727   0.35227
 Alpha virt. eigenvalues --    0.37426   0.37724   0.38222   0.38896   0.39815
 Alpha virt. eigenvalues --    0.41649   0.42163   0.42625   0.44029   0.45638
 Alpha virt. eigenvalues --    0.48520   0.49015   0.50123   0.50990   0.56392
 Alpha virt. eigenvalues --    0.57537   0.58650   0.60570   0.61451   0.64347
 Alpha virt. eigenvalues --    0.65704   0.67444   0.69376   0.70554   0.70879
 Alpha virt. eigenvalues --    0.72294   0.72804   0.74761   0.75460   0.76116
 Alpha virt. eigenvalues --    0.76640   0.77038   0.77571   0.79278   0.79701
 Alpha virt. eigenvalues --    0.82080   0.83093   0.84628   0.85471   0.86824
 Alpha virt. eigenvalues --    0.87812   0.88246   0.89063   0.89620   0.91609
 Alpha virt. eigenvalues --    0.91929   0.94591   0.94959   0.97860   0.99052
 Alpha virt. eigenvalues --    0.99854   1.01295   1.02739   1.03745   1.04653
 Alpha virt. eigenvalues --    1.08304   1.09158   1.11414   1.12902   1.14629
 Alpha virt. eigenvalues --    1.15667   1.18289   1.18860   1.24127   1.26661
 Alpha virt. eigenvalues --    1.27904   1.28975   1.29110   1.30992   1.33330
 Alpha virt. eigenvalues --    1.35652   1.37716   1.39069   1.41479   1.43224
 Alpha virt. eigenvalues --    1.43487   1.45302   1.45832   1.47841   1.50079
 Alpha virt. eigenvalues --    1.53184   1.53370   1.53853   1.69012   1.70221
 Alpha virt. eigenvalues --    1.73417   1.73875   1.81422   1.82864   1.89489
 Alpha virt. eigenvalues --    1.89971   1.93583   1.95657   2.00263   2.01447
 Alpha virt. eigenvalues --    2.02195   2.04505   2.08770   2.14581   2.17056
 Alpha virt. eigenvalues --    2.21216   2.22364   2.23694   2.27483   2.29508
 Alpha virt. eigenvalues --    2.35047   2.36214   2.38222   2.41731   2.45809
 Alpha virt. eigenvalues --    2.46624   2.48660   2.49584   2.51276   2.53968
 Alpha virt. eigenvalues --    2.56305   2.60680   2.62929   2.63612   2.65598
 Alpha virt. eigenvalues --    2.67233   2.68963   2.70430   2.72418   2.74591
 Alpha virt. eigenvalues --    2.76052   2.78073   2.78828   2.79998   2.82936
 Alpha virt. eigenvalues --    2.84671   2.85367   2.86425   2.87537   2.90047
 Alpha virt. eigenvalues --    2.92852   2.94489   2.97708   2.98415   2.99049
 Alpha virt. eigenvalues --    3.01918   3.02408   3.04440   3.05170   3.11186
 Alpha virt. eigenvalues --    3.13309   3.13884   3.17798   3.18403   3.21407
 Alpha virt. eigenvalues --    3.23538   3.26338   3.28277   3.29717   3.32848
 Alpha virt. eigenvalues --    3.35148   3.36130   3.38798   3.39447   3.41985
 Alpha virt. eigenvalues --    3.43481   3.44571   3.45548   3.47209   3.54173
 Alpha virt. eigenvalues --    3.57233   3.58900   3.67386   3.69385   3.70497
 Alpha virt. eigenvalues --    3.71331   3.73501   3.78241   3.83979   3.96486
 Alpha virt. eigenvalues --    3.96789   3.99744   4.02072   4.06369   4.40845
 Alpha virt. eigenvalues --    4.42683   4.44430   4.50755   4.55552   4.62261
 Alpha virt. eigenvalues --    4.64272   4.77032   4.89559   4.90142   4.90889
 Alpha virt. eigenvalues --    4.93917   4.95739   4.97692   5.02845   5.03625
 Alpha virt. eigenvalues --    5.07440   5.13195   5.26387   5.28389   5.35131
 Alpha virt. eigenvalues --    5.53251   5.60423   5.63702   9.72454   9.79006
 Alpha virt. eigenvalues --    9.82543   9.91716   9.94176   9.96827  10.04771
 Alpha virt. eigenvalues --   10.07501  10.11875  10.15260  10.19567  10.21765
 Alpha virt. eigenvalues --   10.24363  10.30217  10.31442  10.31926  10.37972
 Alpha virt. eigenvalues --   10.44026  10.51334  10.56900  10.62115  10.66308
 Alpha virt. eigenvalues --   10.83982  12.67841  12.80851  13.10663  13.14670
 Alpha virt. eigenvalues --   13.17621  13.21730  13.31437  13.43664  13.45097
 Alpha virt. eigenvalues --   13.57740  13.73645  13.90171  13.98002  17.49700
 Alpha virt. eigenvalues --   18.05423  18.19814  18.51534  23.92080  24.09477
 Alpha virt. eigenvalues --   24.14005  35.65325  35.70992  51.75341  51.76923
 Alpha virt. eigenvalues --   51.90439  69.17353 129.91474 137.14280 138.55143
 Alpha virt. eigenvalues --  139.67772 470.67431
          Condensed to atoms (all electrons):
               1          2          3          4          5          6
     1  C    5.253995   0.382099  -0.247390   0.477711  -0.045530   0.388624
     2  C    0.382099   5.162339  -0.018101  -0.229030   0.020139  -0.012978
     3  C   -0.247390  -0.018101   5.085149   0.312480  -0.017146   0.012836
     4  N    0.477711  -0.229030   0.312480   6.390487   0.367211  -0.035770
     5  H   -0.045530   0.020139  -0.017146   0.367211   0.401505  -0.002219
     6  H    0.388624  -0.012978   0.012836  -0.035770  -0.002219   0.506632
     7  H   -0.059704   0.432116   0.017239   0.006911  -0.000043  -0.000092
     8  H    0.003965   0.014185   0.430240  -0.055071  -0.000097  -0.000008
     9  N    0.009955   0.258284   0.392373   0.017618   0.001545   0.006668
    10  P   -0.001174   0.004203  -0.004719  -0.001293   0.000129   0.000020
    11  O    0.000612  -0.001116  -0.001188   0.001188  -0.000045  -0.000002
    12  O   -0.000372  -0.000264   0.001361  -0.000314   0.000001   0.000000
    13  H    0.000074   0.000040   0.000704   0.000019   0.000000  -0.000001
    14  O    0.002410  -0.004197  -0.002845   0.001714  -0.000050  -0.000008
    15  H   -0.005071   0.008573   0.008356  -0.003047   0.000084   0.000036
    16  O   -0.000058   0.000232  -0.000418  -0.000002   0.000000   0.000000
    17  H   -0.000001  -0.000002  -0.000006   0.000001   0.000000  -0.000000
               7          8          9         10         11         12
     1  C   -0.059704   0.003965   0.009955  -0.001174   0.000612  -0.000372
     2  C    0.432116   0.014185   0.258284   0.004203  -0.001116  -0.000264
     3  C    0.017239   0.430240   0.392373  -0.004719  -0.001188   0.001361
     4  N    0.006911  -0.055071   0.017618  -0.001293   0.001188  -0.000314
     5  H   -0.000043  -0.000097   0.001545   0.000129  -0.000045   0.000001
     6  H   -0.000092  -0.000008   0.006668   0.000020  -0.000002   0.000000
     7  H    0.525261  -0.000034  -0.047115  -0.000078   0.000001   0.000025
     8  H   -0.000034   0.500022  -0.044713   0.001946  -0.001757   0.000047
     9  N   -0.047115  -0.044713   6.780707  -0.021631   0.010759  -0.001842
    10  P   -0.000078   0.001946  -0.021631   0.011120  -0.004139  -0.001305
    11  O    0.000001  -0.001757   0.010759  -0.004139   0.004947  -0.000647
    12  O    0.000025   0.000047  -0.001842  -0.001305  -0.000647   0.003344
    13  H    0.000001   0.000010   0.000794   0.000002  -0.000067  -0.000634
    14  O    0.000017  -0.000819   0.042337  -0.003494   0.002033  -0.001383
    15  H    0.000097   0.001255  -0.076246   0.002729  -0.002474   0.001109
    16  O   -0.000001   0.000064  -0.000784  -0.002685  -0.000609  -0.000833
    17  H   -0.000000   0.000000   0.000010  -0.000039  -0.000020  -0.000006
              13         14         15         16         17
     1  C    0.000074   0.002410  -0.005071  -0.000058  -0.000001
     2  C    0.000040  -0.004197   0.008573   0.000232  -0.000002
     3  C    0.000704  -0.002845   0.008356  -0.000418  -0.000006
     4  N    0.000019   0.001714  -0.003047  -0.000002   0.000001
     5  H    0.000000  -0.000050   0.000084   0.000000   0.000000
     6  H   -0.000001  -0.000008   0.000036   0.000000  -0.000000
     7  H    0.000001   0.000017   0.000097  -0.000001  -0.000000
     8  H    0.000010  -0.000819   0.001255   0.000064   0.000000
     9  N    0.000794   0.042337  -0.076246  -0.000784   0.000010
    10  P    0.000002  -0.003494   0.002729  -0.002685  -0.000039
    11  O   -0.000067   0.002033  -0.002474  -0.000609  -0.000020
    12  O   -0.000634  -0.001383   0.001109  -0.000833  -0.000006
    13  H    0.000675   0.000230  -0.000047   0.000003  -0.000002
    14  O    0.000230   0.009090  -0.009293   0.000329   0.000045
    15  H   -0.000047  -0.009293   0.012832   0.000213  -0.000009
    16  O    0.000003   0.000329   0.000213   0.003978   0.000012
    17  H   -0.000002   0.000045  -0.000009   0.000012   0.000017
 Mulliken charges:
               1
     1  C   -0.160145
     2  C   -0.016521
     3  C    0.031071
     4  N   -0.250812
     5  H    0.274514
     6  H    0.136261
     7  H    0.125398
     8  H    0.150765
     9  N   -0.328719
    10  P    0.020407
    11  O   -0.007476
    12  O    0.001712
    13  H   -0.001801
    14  O   -0.036117
    15  H    0.060905
    16  O    0.000560
    17  H   -0.000001
 Sum of Mulliken charges =  -0.00000
 Mulliken charges with hydrogens summed into heavy atoms:
               1
     1  C   -0.023885
     2  C    0.108877
     3  C    0.181836
     4  N    0.023702
     9  N   -0.328719
    10  P    0.020407
    11  O   -0.007476
    12  O   -0.000089
    14  O    0.024788
    16  O    0.000559
         Mulliken charges condensed to fragments:
      1     -0.038189
      2      0.038189
 Electronic spatial extent (au):  <R**2>=          64409.8447
 Charge=             -0.0000 electrons
 Dipole moment (field-independent basis, Debye):
    X=             -1.6875    Y=             -2.3916    Z=              2.3422  Tot=              3.7488
 Quadrupole moment (field-independent basis, Debye-Ang):
   XX=            -72.0682   YY=            -93.2267   ZZ=             23.0966
   XY=            -55.0915   XZ=              7.1986   YZ=              7.3958
 Traceless Quadrupole moment (field-independent basis, Debye-Ang):
   XX=            -24.6688   YY=            -45.8273   ZZ=             70.4960
   XY=            -55.0915   XZ=              7.1986   YZ=              7.3958
 Octapole moment (field-independent basis, Debye-Ang**2):
  XXX=          -1876.8661  YYY=          -2574.2690  ZZZ=           -130.4154  XYY=          -1533.9746
  XXY=          -1449.0392  XXZ=           -525.4381  XZZ=             10.6535  YZZ=             25.7538
  YYZ=           -551.3090  XYZ=           -233.5948
 Hexadecapole moment (field-independent basis, Debye-Ang**3):
 XXXX=         -39588.0627 YYYY=         -61031.3980 ZZZZ=         -10206.8860 XXXY=         -32663.6008
 XXXZ=         -18074.2842 YYYX=         -37449.5223 YYYZ=         -21825.9103 ZZZX=          -4998.4573
 ZZZY=          -5648.9809 XXYY=         -30469.4178 XXZZ=          -7231.4176 YYZZ=          -7291.6779
 XXYZ=         -12054.4169 YYXZ=         -11614.5723 ZZXY=          -3745.7393
 N-N= 1.609886181114D+02 E-N=-8.484237374389D+02  KE= 2.249977442777D+02
 No NMR shielding tensors so no spin-rotation constants.
 Leave Link  601 at Fri Feb 17 21:23:31 2023, MaxMem=  6710886400 cpu:               2.4 elap:               0.1
 (Enter /data0/home/software/g16/l122.exe)
 CPIOFr:  IOpCl= 0 IRwI=-1 IRwCP=  731 ICalc=  1 LCPTot=      158204 Len1MO=      416108 IndFrg=      990420
 Counterpoise: doing calculation for fragment   2 using the basis set of the full-system, NewBq=T
 Leave Link  122 at Fri Feb 17 21:23:31 2023, MaxMem=  6710886400 cpu:               0.1 elap:               0.0
 (Enter /data0/home/software/g16/l301.exe)
 Basis read from rwf:  (5D, 7F)
 No pseudopotential information found on rwf file.
   320 basis functions,   490 primitive gaussians,   340 cartesian basis functions
    25 alpha electrons       25 beta electrons
       nuclear repulsion energy       280.0054138230 Hartrees.
 IExCor= 4336 DFT=T Ex+Corr=M062X ExCW=0 ScaHFX=  0.540000
 ScaDFX=  1.000000  1.000000  1.000000  1.000000 ScalE2=  1.000000  1.000000
 IRadAn=      5 IRanWt=     -1 IRanGd=            0 ICorTp=0 IEmpDi=131
 NAtoms=   17 NActive=   17 NUniq=   17 SFac= 1.00D+00 NAtFMM=   60 NAOKFM=F Big=F
 Integral buffers will be    131072 words long.
 Raffenetti 2 integral format.
 Two-electron integral symmetry is turned off.
 R6Disp:  Grimme-D3 Dispersion energy=       -0.0000450957 Hartrees.
 Nuclear repulsion after empirical dispersion term =      280.0053687272 Hartrees.
 No density basis found on file   718.
 Leave Link  301 at Fri Feb 17 21:23:31 2023, MaxMem=  6710886400 cpu:               1.3 elap:               0.1
 (Enter /data0/home/software/g16/l302.exe)
 NPDir=0 NMtPBC=     1 NCelOv=     1 NCel=       1 NClECP=     1 NCelD=      1
         NCelK=      1 NCelE2=     1 NClLst=     1 CellRange=     0.0.
 One-electron integrals computed using PRISM.
 NBasis=   320 RedAO= T EigKep=  4.24D-05  NBF=   320
 NBsUse=   320 1.00D-06 EigRej= -1.00D+00 NBFU=   320
 Precomputing XC quadrature grid using
 IXCGrd= 4 IRadAn=           5 IRanWt=          -1 IRanGd=           0 AccXCQ= 0.00D+00.
 Generated NRdTot=       0 NPtTot=           0 NUsed=           0 NTot=          32
 NSgBfM=   340   340   340   340   340 MxSgAt=    17 MxSgA2=    17.
 Leave Link  302 at Fri Feb 17 21:23:32 2023, MaxMem=  6710886400 cpu:               5.0 elap:               0.2
 (Enter /data0/home/software/g16/l303.exe)
 DipDrv:  MaxL=1.
 Leave Link  303 at Fri Feb 17 21:23:32 2023, MaxMem=  6710886400 cpu:               0.7 elap:               0.0
 (Enter /data0/home/software/g16/l401.exe)
 ExpMin= 3.48D-02 ExpMax= 7.75D+04 ExpMxC= 2.65D+03 IAcc=3 IRadAn=         5 AccDes= 0.00D+00
 Harris functional with IExCor= 1009 and IRadAn=       5 diagonalized for initial guess.
 HarFok:  IExCor= 1009 AccDes= 0.00D+00 IRadAn=         5 IDoV= 1 UseB2=F ITyADJ=14
 ICtDFT=  3500011 ScaDFX=  1.000000  1.000000  1.000000  1.000000
 FoFCou: FMM=F IPFlag=           0 FMFlag=      100000 FMFlg1=           0
         NFxFlg=           0 DoJE=T BraDBF=F KetDBF=T FulRan=T
         wScrn=  0.000000 ICntrl=       500 IOpCl=  0 I1Cent=   200000004 NGrid=           0
         NMat0=    1 NMatS0=      1 NMatT0=    0 NMatD0=    1 NMtDS0=    0 NMtDT0=    0
 Symmetry not used in FoFCou.
 Harris En= -643.942504957955    
 JPrj=0 DoOrth=F DoCkMO=F.
 Leave Link  401 at Fri Feb 17 21:23:32 2023, MaxMem=  6710886400 cpu:              16.6 elap:               0.7
 (Enter /data0/home/software/g16/l502.exe)
 Two-electron integral symmetry not used.
 Closed shell SCF:
 Using DIIS extrapolation, IDIIS=  1040.
 NGot=  6710886400 LenX=  6710644641 LenY=  6710528600
 Requested convergence on RMS density matrix=1.00D-08 within 128 cycles.
 Requested convergence on MAX density matrix=1.00D-06.
 Requested convergence on             energy=1.00D-06.
 No special actions if energy rises.
 Fock matrices will be formed incrementally for  20 cycles.

 Cycle   1  Pass 1  IDiag  1:
 FoFJK:  IHMeth= 1 ICntrl=       0 DoSepK=F KAlg= 0 I1Cent=           0 FoldK=F
 IRaf= 870000000 NMat=       1 IRICut=       1 DoRegI=T DoRafI=F ISym2E= 0 IDoP0=0 IntGTp=1.
 FoFCou: FMM=F IPFlag=           0 FMFlag=      100000 FMFlg1=           0
         NFxFlg=           0 DoJE=F BraDBF=F KetDBF=F FulRan=T
         wScrn=  0.000000 ICntrl=         0 IOpCl=  0 I1Cent=           0 NGrid=           0
         NMat0=    1 NMatS0=      1 NMatT0=    0 NMatD0=    1 NMtDS0=    0 NMtDT0=    0
 Symmetry not used in FoFCou.
 E= -643.859347927134    
 DIIS: error= 3.17D-02 at cycle   1 NSaved=   1.
 NSaved= 1 IEnMin= 1 EnMin= -643.859347927134     IErMin= 1 ErrMin= 3.17D-02
 ErrMax= 3.17D-02  0.00D+00 EMaxC= 1.00D-01 BMatC= 5.07D-01 BMatP= 5.07D-01
 IDIUse=3 WtCom= 6.83D-01 WtEn= 3.17D-01
 Coeff-Com:  0.100D+01
 Coeff-En:   0.100D+01
 Coeff:      0.100D+01
 Gap=     0.274 Goal=   None    Shift=    0.000
 GapD=    0.274 DampG=1.000 DampE=0.500 DampFc=0.5000 IDamp=-1.
 Damping current iteration by 5.00D-01
 RMSDP=4.17D-03 MaxDP=1.68D-01              OVMax= 2.65D-01

 Cycle   2  Pass 1  IDiag  1:
 RMSU=  2.09D-03    CP:  1.01D+00
 E= -643.975606887560     Delta-E=       -0.116258960426 Rises=F Damp=T
 DIIS: error= 6.86D-03 at cycle   2 NSaved=   2.
 NSaved= 2 IEnMin= 2 EnMin= -643.975606887560     IErMin= 2 ErrMin= 6.86D-03
 ErrMax= 6.86D-03  0.00D+00 EMaxC= 1.00D-01 BMatC= 2.71D-02 BMatP= 5.07D-01
 IDIUse=3 WtCom= 9.31D-01 WtEn= 6.86D-02
 Coeff-Com:  0.717D-01 0.928D+00
 Coeff-En:   0.203D+00 0.797D+00
 Coeff:      0.807D-01 0.919D+00
 Gap=     0.349 Goal=   None    Shift=    0.000
 RMSDP=9.77D-04 MaxDP=6.02D-02 DE=-1.16D-01 OVMax= 1.76D-01

 Cycle   3  Pass 1  IDiag  1:
 RMSU=  7.22D-04    CP:  9.96D-01  6.90D-01
 E= -644.140325757943     Delta-E=       -0.164718870383 Rises=F Damp=F
 DIIS: error= 4.94D-03 at cycle   3 NSaved=   3.
 NSaved= 3 IEnMin= 3 EnMin= -644.140325757943     IErMin= 3 ErrMin= 4.94D-03
 ErrMax= 4.94D-03  0.00D+00 EMaxC= 1.00D-01 BMatC= 1.05D-02 BMatP= 2.71D-02
 IDIUse=3 WtCom= 9.51D-01 WtEn= 4.94D-02
 Coeff-Com: -0.174D-01 0.343D+00 0.674D+00
 Coeff-En:   0.000D+00 0.000D+00 0.100D+01
 Coeff:     -0.166D-01 0.326D+00 0.690D+00
 Gap=     0.341 Goal=   None    Shift=    0.000
 RMSDP=3.88D-04 MaxDP=1.52D-02 DE=-1.65D-01 OVMax= 3.54D-02

 Cycle   4  Pass 1  IDiag  1:
 RMSU=  3.49D-04    CP:  9.94D-01  7.52D-01  8.49D-01
 E= -644.145189875645     Delta-E=       -0.004864117702 Rises=F Damp=F
 DIIS: error= 3.56D-03 at cycle   4 NSaved=   4.
 NSaved= 4 IEnMin= 4 EnMin= -644.145189875645     IErMin= 4 ErrMin= 3.56D-03
 ErrMax= 3.56D-03  0.00D+00 EMaxC= 1.00D-01 BMatC= 3.79D-03 BMatP= 1.05D-02
 IDIUse=3 WtCom= 9.64D-01 WtEn= 3.56D-02
 Coeff-Com: -0.229D-01 0.518D-01 0.400D+00 0.571D+00
 Coeff-En:   0.000D+00 0.000D+00 0.264D+00 0.736D+00
 Coeff:     -0.220D-01 0.500D-01 0.395D+00 0.577D+00
 Gap=     0.344 Goal=   None    Shift=    0.000
 RMSDP=1.50D-04 MaxDP=6.07D-03 DE=-4.86D-03 OVMax= 1.12D-02

 Cycle   5  Pass 1  IDiag  1:
 RMSU=  4.32D-05    CP:  9.94D-01  7.39D-01  9.37D-01  6.40D-01
 E= -644.147702602381     Delta-E=       -0.002512726736 Rises=F Damp=F
 DIIS: error= 1.94D-04 at cycle   5 NSaved=   5.
 NSaved= 5 IEnMin= 5 EnMin= -644.147702602381     IErMin= 5 ErrMin= 1.94D-04
 ErrMax= 1.94D-04  0.00D+00 EMaxC= 1.00D-01 BMatC= 1.60D-05 BMatP= 3.79D-03
 IDIUse=3 WtCom= 9.98D-01 WtEn= 1.94D-03
 Coeff-Com: -0.269D-02 0.939D-03 0.578D-01 0.120D+00 0.824D+00
 Coeff-En:   0.000D+00 0.000D+00 0.000D+00 0.000D+00 0.100D+01
 Coeff:     -0.268D-02 0.937D-03 0.577D-01 0.120D+00 0.824D+00
 Gap=     0.343 Goal=   None    Shift=    0.000
 RMSDP=1.71D-05 MaxDP=7.90D-04 DE=-2.51D-03 OVMax= 7.72D-04

 Cycle   6  Pass 1  IDiag  1:
 RMSU=  1.12D-05    CP:  9.94D-01  7.35D-01  9.39D-01  6.66D-01  1.08D+00
 E= -644.147713377494     Delta-E=       -0.000010775113 Rises=F Damp=F
 DIIS: error= 5.18D-05 at cycle   6 NSaved=   6.
 NSaved= 6 IEnMin= 6 EnMin= -644.147713377494     IErMin= 6 ErrMin= 5.18D-05
 ErrMax= 5.18D-05  0.00D+00 EMaxC= 1.00D-01 BMatC= 1.23D-06 BMatP= 1.60D-05
 IDIUse=1 WtCom= 1.00D+00 WtEn= 0.00D+00
 Coeff-Com: -0.826D-05-0.145D-02 0.221D-02 0.123D-01 0.227D+00 0.760D+00
 Coeff:     -0.826D-05-0.145D-02 0.221D-02 0.123D-01 0.227D+00 0.760D+00
 Gap=     0.343 Goal=   None    Shift=    0.000
 RMSDP=5.99D-06 MaxDP=2.12D-04 DE=-1.08D-05 OVMax= 2.72D-04

 Cycle   7  Pass 1  IDiag  1:
 RMSU=  3.21D-06    CP:  9.94D-01  7.33D-01  9.39D-01  6.69D-01  1.17D+00
                    CP:  9.22D-01
 E= -644.147714229006     Delta-E=       -0.000000851512 Rises=F Damp=F
 DIIS: error= 2.36D-05 at cycle   7 NSaved=   7.
 NSaved= 7 IEnMin= 7 EnMin= -644.147714229006     IErMin= 7 ErrMin= 2.36D-05
 ErrMax= 2.36D-05  0.00D+00 EMaxC= 1.00D-01 BMatC= 2.72D-07 BMatP= 1.23D-06
 IDIUse=1 WtCom= 1.00D+00 WtEn= 0.00D+00
 Coeff-Com:  0.411D-03-0.726D-03-0.846D-02-0.137D-01-0.232D-01 0.315D+00
 Coeff-Com:  0.731D+00
 Coeff:      0.411D-03-0.726D-03-0.846D-02-0.137D-01-0.232D-01 0.315D+00
 Coeff:      0.731D+00
 Gap=     0.343 Goal=   None    Shift=    0.000
 RMSDP=2.26D-06 MaxDP=8.78D-05 DE=-8.52D-07 OVMax= 1.15D-04

 Cycle   8  Pass 1  IDiag  1:
 RMSU=  1.54D-06    CP:  9.94D-01  7.33D-01  9.39D-01  6.70D-01  1.19D+00
                    CP:  9.87D-01  8.65D-01
 E= -644.147714411881     Delta-E=       -0.000000182875 Rises=F Damp=F
 DIIS: error= 9.26D-06 at cycle   8 NSaved=   8.
 NSaved= 8 IEnMin= 8 EnMin= -644.147714411881     IErMin= 8 ErrMin= 9.26D-06
 ErrMax= 9.26D-06  0.00D+00 EMaxC= 1.00D-01 BMatC= 3.37D-08 BMatP= 2.72D-07
 IDIUse=1 WtCom= 1.00D+00 WtEn= 0.00D+00
 Coeff-Com:  0.170D-03-0.234D-03-0.383D-02-0.630D-02-0.183D-01 0.947D-01
 Coeff-Com:  0.340D+00 0.594D+00
 Coeff:      0.170D-03-0.234D-03-0.383D-02-0.630D-02-0.183D-01 0.947D-01
 Coeff:      0.340D+00 0.594D+00
 Gap=     0.343 Goal=   None    Shift=    0.000
 RMSDP=5.29D-07 MaxDP=2.38D-05 DE=-1.83D-07 OVMax= 3.94D-05

 Cycle   9  Pass 1  IDiag  1:
 RMSU=  2.96D-07    CP:  9.94D-01  7.33D-01  9.39D-01  6.70D-01  1.19D+00
                    CP:  1.00D+00  9.51D-01  8.21D-01
 E= -644.147714436495     Delta-E=       -0.000000024614 Rises=F Damp=F
 DIIS: error= 9.82D-07 at cycle   9 NSaved=   9.
 NSaved= 9 IEnMin= 9 EnMin= -644.147714436495     IErMin= 9 ErrMin= 9.82D-07
 ErrMax= 9.82D-07  0.00D+00 EMaxC= 1.00D-01 BMatC= 7.35D-10 BMatP= 3.37D-08
 IDIUse=1 WtCom= 1.00D+00 WtEn= 0.00D+00
 Coeff-Com: -0.258D-04 0.492D-04 0.260D-03 0.554D-03-0.542D-03-0.189D-01
 Coeff-Com: -0.275D-01 0.666D-01 0.980D+00
 Coeff:     -0.258D-04 0.492D-04 0.260D-03 0.554D-03-0.542D-03-0.189D-01
 Coeff:     -0.275D-01 0.666D-01 0.980D+00
 Gap=     0.343 Goal=   None    Shift=    0.000
 RMSDP=1.96D-07 MaxDP=7.99D-06 DE=-2.46D-08 OVMax= 1.06D-05

 Cycle  10  Pass 1  IDiag  1:
 RMSU=  7.47D-08    CP:  9.94D-01  7.33D-01  9.39D-01  6.70D-01  1.19D+00
                    CP:  9.99D-01  9.74D-01  8.90D-01  1.16D+00
 E= -644.147714437404     Delta-E=       -0.000000000908 Rises=F Damp=F
 DIIS: error= 2.04D-07 at cycle  10 NSaved=  10.
 NSaved=10 IEnMin=10 EnMin= -644.147714437404     IErMin=10 ErrMin= 2.04D-07
 ErrMax= 2.04D-07  0.00D+00 EMaxC= 1.00D-01 BMatC= 1.46D-11 BMatP= 7.35D-10
 IDIUse=1 WtCom= 1.00D+00 WtEn= 0.00D+00
 Coeff-Com: -0.424D-05 0.696D-05 0.108D-03 0.179D-03 0.463D-03-0.386D-02
 Coeff-Com: -0.132D-01-0.155D-01 0.351D-01 0.997D+00
 Coeff:     -0.424D-05 0.696D-05 0.108D-03 0.179D-03 0.463D-03-0.386D-02
 Coeff:     -0.132D-01-0.155D-01 0.351D-01 0.997D+00
 Gap=     0.343 Goal=   None    Shift=    0.000
 RMSDP=3.70D-08 MaxDP=1.05D-06 DE=-9.08D-10 OVMax= 2.54D-06

 Cycle  11  Pass 1  IDiag  1:
 RMSU=  1.91D-08    CP:  9.94D-01  7.33D-01  9.39D-01  6.70D-01  1.19D+00
                    CP:  9.99D-01  9.76D-01  9.01D-01  1.22D+00  1.16D+00
 E= -644.147714437435     Delta-E=       -0.000000000031 Rises=F Damp=F
 DIIS: error= 1.49D-07 at cycle  11 NSaved=  11.
 NSaved=11 IEnMin=11 EnMin= -644.147714437435     IErMin=11 ErrMin= 1.49D-07
 ErrMax= 1.49D-07  0.00D+00 EMaxC= 1.00D-01 BMatC= 4.19D-12 BMatP= 1.46D-11
 IDIUse=1 WtCom= 1.00D+00 WtEn= 0.00D+00
 Coeff-Com:  0.113D-06-0.427D-06 0.251D-04 0.342D-04 0.191D-03-0.414D-03
 Coeff-Com: -0.316D-02-0.871D-02-0.417D-01 0.379D+00 0.675D+00
 Coeff:      0.113D-06-0.427D-06 0.251D-04 0.342D-04 0.191D-03-0.414D-03
 Coeff:     -0.316D-02-0.871D-02-0.417D-01 0.379D+00 0.675D+00
 Gap=     0.343 Goal=   None    Shift=    0.000
 RMSDP=8.19D-09 MaxDP=3.40D-07 DE=-3.08D-11 OVMax= 5.23D-07

 SCF Done:  E(RM062X) =  -644.147714437     A.U. after   11 cycles
            NFock= 11  Conv=0.82D-08     -V/T= 2.0025
 KE= 6.425174835177D+02 PE=-2.087691783808D+03 EE= 5.210212171253D+02
 Leave Link  502 at Fri Feb 17 21:23:52 2023, MaxMem=  6710886400 cpu:             477.9 elap:              20.0
 (Enter /data0/home/software/g16/l601.exe)
 Copying SCF densities to generalized density rwf, IOpCl= 0 IROHF=0.

 **********************************************************************

            Population analysis using the SCF density.

 **********************************************************************

 Alpha  occ. eigenvalues --  -78.16860 -19.68974 -19.68251 -19.68016 -19.58689
 Alpha  occ. eigenvalues --   -6.97635  -5.09544  -5.09512  -5.09336  -1.24381
 Alpha  occ. eigenvalues --   -1.17047  -1.16567  -1.08847  -0.72929  -0.65158
 Alpha  occ. eigenvalues --   -0.64154  -0.58191  -0.53003  -0.51250  -0.50593
 Alpha  occ. eigenvalues --   -0.46792  -0.45701  -0.43593  -0.38567  -0.37515
 Alpha virt. eigenvalues --   -0.03176   0.00484   0.01441   0.03350   0.03872
 Alpha virt. eigenvalues --    0.05787   0.06368   0.06512   0.07499   0.09078
 Alpha virt. eigenvalues --    0.09879   0.10002   0.10449   0.11793   0.12776
 Alpha virt. eigenvalues --    0.13294   0.13552   0.14782   0.14891   0.16263
 Alpha virt. eigenvalues --    0.17654   0.17870   0.18450   0.18666   0.18900
 Alpha virt. eigenvalues --    0.20116   0.21008   0.21466   0.21996   0.22198
 Alpha virt. eigenvalues --    0.24098   0.24724   0.25053   0.25509   0.26262
 Alpha virt. eigenvalues --    0.26931   0.27683   0.29168   0.29761   0.29959
 Alpha virt. eigenvalues --    0.30581   0.31016   0.32101   0.33385   0.34518
 Alpha virt. eigenvalues --    0.35050   0.36974   0.37338   0.38328   0.39144
 Alpha virt. eigenvalues --    0.40428   0.41584   0.42581   0.43099   0.44455
 Alpha virt. eigenvalues --    0.45667   0.46397   0.47760   0.48749   0.50622
 Alpha virt. eigenvalues --    0.52559   0.53059   0.54327   0.55756   0.56662
 Alpha virt. eigenvalues --    0.59204   0.61242   0.63067   0.64950   0.67067
 Alpha virt. eigenvalues --    0.67985   0.70156   0.74165   0.75560   0.76234
 Alpha virt. eigenvalues --    0.77810   0.79577   0.80774   0.83294   0.87661
 Alpha virt. eigenvalues --    0.88356   0.94339   0.95935   0.97500   0.99905
 Alpha virt. eigenvalues --    1.00662   1.04090   1.05833   1.06508   1.07810
 Alpha virt. eigenvalues --    1.10390   1.12338   1.13487   1.14740   1.17093
 Alpha virt. eigenvalues --    1.18917   1.19376   1.20883   1.21637   1.24069
 Alpha virt. eigenvalues --    1.24530   1.24757   1.25638   1.26969   1.28369
 Alpha virt. eigenvalues --    1.31117   1.31499   1.33916   1.35136   1.36172
 Alpha virt. eigenvalues --    1.39019   1.40024   1.40894   1.42122   1.43521
 Alpha virt. eigenvalues --    1.44057   1.44909   1.47407   1.49541   1.50243
 Alpha virt. eigenvalues --    1.52008   1.53229   1.54525   1.55438   1.57542
 Alpha virt. eigenvalues --    1.60274   1.62420   1.63195   1.64427   1.66466
 Alpha virt. eigenvalues --    1.66662   1.68340   1.71023   1.71628   1.73172
 Alpha virt. eigenvalues --    1.74002   1.77669   1.79028   1.81448   1.82893
 Alpha virt. eigenvalues --    1.86214   1.86921   1.89959   1.91950   1.94364
 Alpha virt. eigenvalues --    1.95062   1.96673   1.98139   2.00127   2.01949
 Alpha virt. eigenvalues --    2.02396   2.04975   2.08434   2.09053   2.10049
 Alpha virt. eigenvalues --    2.12017   2.13044   2.14956   2.15993   2.18639
 Alpha virt. eigenvalues --    2.21086   2.23761   2.25355   2.25707   2.28580
[...]
 IExCor= 4336 DFT=T Ex+Corr=M062X ExCW=0 ScaHFX=  0.540000
 ScaDFX=  1.000000  1.000000  1.000000  1.000000 ScalE2=  1.000000  1.000000
 IRadAn=      5 IRanWt=     -1 IRanGd=            0 ICorTp=0 IEmpDi=131
 NAtoms=   17 NActive=    8 NUniq=    8 SFac= 1.00D+00 NAtFMM=   60 NAOKFM=F Big=F
 Integral buffers will be    131072 words long.
 Raffenetti 2 integral format.
 Two-electron integral symmetry is turned off.
 R6Disp:  Grimme-D3 Dispersion energy=       -0.0000450957 Hartrees.
 Nuclear repulsion after empirical dispersion term =      280.0053687272 Hartrees.
 No density basis found on file   718.
 Leave Link  301 at Fri Feb 17 21:24:00 2023, MaxMem=  6710886400 cpu:               1.2 elap:               0.1
 (Enter /data0/home/software/g16/l302.exe)
 NPDir=0 NMtPBC=     1 NCelOv=     1 NCel=       1 NClECP=     1 NCelD=      1
         NCelK=      1 NCelE2=     1 NClLst=     1 CellRange=     0.0.
 One-electron integrals computed using PRISM.
 NBasis=   161 RedAO= T EigKep=  5.19D-04  NBF=   161
 NBsUse=   161 1.00D-06 EigRej= -1.00D+00 NBFU=   161
 Precomputing XC quadrature grid using
 IXCGrd= 4 IRadAn=           5 IRanWt=          -1 IRanGd=           0 AccXCQ= 0.00D+00.
 Generated NRdTot=       0 NPtTot=           0 NUsed=           0 NTot=          32
 NSgBfM=   171   171   171   171   171 MxSgAt=     8 MxSgA2=     8.
 Leave Link  302 at Fri Feb 17 21:24:00 2023, MaxMem=  6710886400 cpu:               2.9 elap:               0.1
 (Enter /data0/home/software/g16/l303.exe)
 DipDrv:  MaxL=1.
 Leave Link  303 at Fri Feb 17 21:24:00 2023, MaxMem=  6710886400 cpu:               0.5 elap:               0.0
 (Enter /data0/home/software/g16/l401.exe)
 ExpMin= 3.48D-02 ExpMax= 7.75D+04 ExpMxC= 2.65D+03 IAcc=3 IRadAn=         5 AccDes= 0.00D+00
 Harris functional with IExCor= 1009 and IRadAn=       5 diagonalized for initial guess.
 HarFok:  IExCor= 1009 AccDes= 0.00D+00 IRadAn=         5 IDoV= 1 UseB2=F ITyADJ=14
 ICtDFT=  3500011 ScaDFX=  1.000000  1.000000  1.000000  1.000000
 FoFCou: FMM=F IPFlag=           0 FMFlag=      100000 FMFlg1=           0
         NFxFlg=           0 DoJE=T BraDBF=F KetDBF=T FulRan=T
         wScrn=  0.000000 ICntrl=       500 IOpCl=  0 I1Cent=   200000004 NGrid=           0
         NMat0=    1 NMatS0=      1 NMatT0=    0 NMatD0=    1 NMtDS0=    0 NMtDT0=    0
 Symmetry not used in FoFCou.
 Harris En= -643.941655058556    
 JPrj=0 DoOrth=F DoCkMO=F.
 Leave Link  401 at Fri Feb 17 21:24:00 2023, MaxMem=  6710886400 cpu:               6.1 elap:               0.3
 (Enter /data0/home/software/g16/l502.exe)
 Keep R1 ints in memory in canonical form, NReq=108961853.
 FoFCou: FMM=F IPFlag=           0 FMFlag=           0 FMFlg1=           0
         NFxFlg=           0 DoJE=F BraDBF=F KetDBF=F FulRan=T
         wScrn=  0.000000 ICntrl=       600 IOpCl=  0 I1Cent=           0 NGrid=           0
         NMat0=    1 NMatS0=  13041 NMatT0=    0 NMatD0=    1 NMtDS0=    0 NMtDT0=    0
 Symmetry not used in FoFCou.
 Two-electron integral symmetry not used.
 Closed shell SCF:
 Using DIIS extrapolation, IDIIS=  1040.
 NGot=  6710886400 LenX=  6625781899 LenY=  6625752217
 Requested convergence on RMS density matrix=1.00D-08 within 128 cycles.
 Requested convergence on MAX density matrix=1.00D-06.
 Requested convergence on             energy=1.00D-06.
 No special actions if energy rises.

 Cycle   1  Pass 1  IDiag  1:
 E= -643.858460391867    
 DIIS: error= 4.09D-02 at cycle   1 NSaved=   1.
 NSaved= 1 IEnMin= 1 EnMin= -643.858460391867     IErMin= 1 ErrMin= 4.09D-02
 ErrMax= 4.09D-02  0.00D+00 EMaxC= 1.00D-01 BMatC= 5.07D-01 BMatP= 5.07D-01
 IDIUse=3 WtCom= 5.91D-01 WtEn= 4.09D-01
 Coeff-Com:  0.100D+01
 Coeff-En:   0.100D+01
 Coeff:      0.100D+01
 Gap=     0.276 Goal=   None    Shift=    0.000
 GapD=    0.276 DampG=1.000 DampE=0.500 DampFc=0.5000 IDamp=-1.
 Damping current iteration by 5.00D-01
 RMSDP=7.11D-03 MaxDP=1.58D-01              OVMax= 2.65D-01

 Cycle   2  Pass 1  IDiag  1:
 E= -643.974793129631     Delta-E=       -0.116332737764 Rises=F Damp=T
 DIIS: error= 8.85D-03 at cycle   2 NSaved=   2.
 NSaved= 2 IEnMin= 2 EnMin= -643.974793129631     IErMin= 2 ErrMin= 8.85D-03
 ErrMax= 8.85D-03  0.00D+00 EMaxC= 1.00D-01 BMatC= 2.70D-02 BMatP= 5.07D-01
 IDIUse=3 WtCom= 9.12D-01 WtEn= 8.85D-02
 Coeff-Com:  0.714D-01 0.929D+00
 Coeff-En:   0.203D+00 0.797D+00
 Coeff:      0.830D-01 0.917D+00
 Gap=     0.354 Goal=   None    Shift=    0.000
 RMSDP=1.67D-03 MaxDP=5.14D-02 DE=-1.16D-01 OVMax= 1.75D-01

 Cycle   3  Pass 1  IDiag  1:
 E= -644.139615237892     Delta-E=       -0.164822108262 Rises=F Damp=F
 DIIS: error= 6.28D-03 at cycle   3 NSaved=   3.
 NSaved= 3 IEnMin= 3 EnMin= -644.139615237892     IErMin= 3 ErrMin= 6.28D-03
 ErrMax= 6.28D-03  0.00D+00 EMaxC= 1.00D-01 BMatC= 1.03D-02 BMatP= 2.70D-02
 IDIUse=3 WtCom= 9.37D-01 WtEn= 6.28D-02
 Coeff-Com: -0.155D-01 0.341D+00 0.675D+00
 Coeff-En:   0.000D+00 0.000D+00 0.100D+01
 Coeff:     -0.145D-01 0.319D+00 0.695D+00
 Gap=     0.345 Goal=   None    Shift=    0.000
 RMSDP=6.59D-04 MaxDP=1.51D-02 DE=-1.65D-01 OVMax= 3.53D-02

 Cycle   4  Pass 1  IDiag  1:
 E= -644.144230017259     Delta-E=       -0.004614779367 Rises=F Damp=F
 DIIS: error= 3.83D-03 at cycle   4 NSaved=   4.
 NSaved= 4 IEnMin= 4 EnMin= -644.144230017259     IErMin= 4 ErrMin= 3.83D-03
 ErrMax= 3.83D-03  0.00D+00 EMaxC= 1.00D-01 BMatC= 3.92D-03 BMatP= 1.03D-02
 IDIUse=3 WtCom= 9.62D-01 WtEn= 3.83D-02
 Coeff-Com: -0.213D-01 0.488D-01 0.404D+00 0.569D+00
 Coeff-En:   0.000D+00 0.000D+00 0.277D+00 0.723D+00
 Coeff:     -0.205D-01 0.469D-01 0.399D+00 0.575D+00
 Gap=     0.349 Goal=   None    Shift=    0.000
 RMSDP=2.59D-04 MaxDP=6.22D-03 DE=-4.61D-03 OVMax= 1.15D-02

 Cycle   5  Pass 1  IDiag  1:
 E= -644.146827222306     Delta-E=       -0.002597205047 Rises=F Damp=F
 DIIS: error= 2.38D-04 at cycle   5 NSaved=   5.
 NSaved= 5 IEnMin= 5 EnMin= -644.146827222306     IErMin= 5 ErrMin= 2.38D-04
 ErrMax= 2.38D-04  0.00D+00 EMaxC= 1.00D-01 BMatC= 1.59D-05 BMatP= 3.92D-03
 IDIUse=3 WtCom= 9.98D-01 WtEn= 2.38D-03
 Coeff-Com: -0.240D-02 0.346D-03 0.591D-01 0.119D+00 0.824D+00
 Coeff-En:   0.000D+00 0.000D+00 0.000D+00 0.000D+00 0.100D+01
 Coeff:     -0.240D-02 0.345D-03 0.590D-01 0.119D+00 0.824D+00
 Gap=     0.347 Goal=   None    Shift=    0.000
 RMSDP=2.63D-05 MaxDP=8.13D-04 DE=-2.60D-03 OVMax= 7.63D-04

 Cycle   6  Pass 1  IDiag  1:
 E= -644.146837909734     Delta-E=       -0.000010687427 Rises=F Damp=F
 DIIS: error= 7.00D-05 at cycle   6 NSaved=   6.
 NSaved= 6 IEnMin= 6 EnMin= -644.146837909734     IErMin= 6 ErrMin= 7.00D-05
 ErrMax= 7.00D-05  0.00D+00 EMaxC= 1.00D-01 BMatC= 1.27D-06 BMatP= 1.59D-05
 IDIUse=1 WtCom= 1.00D+00 WtEn= 0.00D+00
 Coeff-Com:  0.786D-05-0.154D-02 0.283D-02 0.131D-01 0.234D+00 0.752D+00
 Coeff:      0.786D-05-0.154D-02 0.283D-02 0.131D-01 0.234D+00 0.752D+00
 Gap=     0.348 Goal=   None    Shift=    0.000
 RMSDP=9.75D-06 MaxDP=2.08D-04 DE=-1.07D-05 OVMax= 2.74D-04

 Cycle   7  Pass 1  IDiag  1:
 E= -644.146838783465     Delta-E=       -0.000000873731 Rises=F Damp=F
 DIIS: error= 3.43D-05 at cycle   7 NSaved=   7.
 NSaved= 7 IEnMin= 7 EnMin= -644.146838783465     IErMin= 7 ErrMin= 3.43D-05
 ErrMax= 3.43D-05  0.00D+00 EMaxC= 1.00D-01 BMatC= 2.71D-07 BMatP= 1.27D-06
 IDIUse=1 WtCom= 1.00D+00 WtEn= 0.00D+00
 Coeff-Com:  0.377D-03-0.668D-03-0.851D-02-0.135D-01-0.225D-01 0.310D+00
 Coeff-Com:  0.735D+00
 Coeff:      0.377D-03-0.668D-03-0.851D-02-0.135D-01-0.225D-01 0.310D+00
 Coeff:      0.735D+00
 Gap=     0.348 Goal=   None    Shift=    0.000
 RMSDP=3.83D-06 MaxDP=8.83D-05 DE=-8.74D-07 OVMax= 1.15D-04

 Cycle   8  Pass 1  IDiag  1:
 E= -644.146838965377     Delta-E=       -0.000000181912 Rises=F Damp=F
 DIIS: error= 1.06D-05 at cycle   8 NSaved=   8.
 NSaved= 8 IEnMin= 8 EnMin= -644.146838965377     IErMin= 8 ErrMin= 1.06D-05
 ErrMax= 1.06D-05  0.00D+00 EMaxC= 1.00D-01 BMatC= 3.42D-08 BMatP= 2.71D-07
 IDIUse=1 WtCom= 1.00D+00 WtEn= 0.00D+00
 Coeff-Com:  0.154D-03-0.203D-03-0.388D-02-0.628D-02-0.185D-01 0.922D-01
 Coeff-Com:  0.342D+00 0.595D+00
 Coeff:      0.154D-03-0.203D-03-0.388D-02-0.628D-02-0.185D-01 0.922D-01
 Coeff:      0.342D+00 0.595D+00
 Gap=     0.348 Goal=   None    Shift=    0.000
 RMSDP=8.90D-07 MaxDP=2.37D-05 DE=-1.82D-07 OVMax= 3.95D-05

 Cycle   9  Pass 1  IDiag  1:
 E= -644.146838990379     Delta-E=       -0.000000025002 Rises=F Damp=F
 DIIS: error= 1.39D-06 at cycle   9 NSaved=   9.
 NSaved= 9 IEnMin= 9 EnMin= -644.146838990379     IErMin= 9 ErrMin= 1.39D-06
 ErrMax= 1.39D-06  0.00D+00 EMaxC= 1.00D-01 BMatC= 7.28D-10 BMatP= 3.42D-08
 IDIUse=1 WtCom= 1.00D+00 WtEn= 0.00D+00
 Coeff-Com: -0.245D-04 0.477D-04 0.251D-03 0.538D-03-0.587D-03-0.183D-01
 Coeff-Com: -0.273D-01 0.641D-01 0.981D+00
 Coeff:     -0.245D-04 0.477D-04 0.251D-03 0.538D-03-0.587D-03-0.183D-01
 Coeff:     -0.273D-01 0.641D-01 0.981D+00
 Gap=     0.348 Goal=   None    Shift=    0.000
 RMSDP=3.24D-07 MaxDP=7.95D-06 DE=-2.50D-08 OVMax= 1.03D-05

 Cycle  10  Pass 1  IDiag  1:
 E= -644.146838991279     Delta-E=       -0.000000000900 Rises=F Damp=F
 DIIS: error= 2.79D-07 at cycle  10 NSaved=  10.
 NSaved=10 IEnMin=10 EnMin= -644.146838991279     IErMin=10 ErrMin= 2.79D-07
 ErrMax= 2.79D-07  0.00D+00 EMaxC= 1.00D-01 BMatC= 1.49D-11 BMatP= 7.28D-10
 IDIUse=1 WtCom= 1.00D+00 WtEn= 0.00D+00
 Coeff-Com: -0.370D-05 0.601D-05 0.108D-03 0.175D-03 0.466D-03-0.375D-02
 Coeff-Com: -0.131D-01-0.153D-01 0.353D-01 0.996D+00
 Coeff:     -0.370D-05 0.601D-05 0.108D-03 0.175D-03 0.466D-03-0.375D-02
 Coeff:     -0.131D-01-0.153D-01 0.353D-01 0.996D+00
 Gap=     0.348 Goal=   None    Shift=    0.000
 RMSDP=6.43D-08 MaxDP=8.11D-07 DE=-9.00D-10 OVMax= 2.53D-06

 Cycle  11  Pass 1  IDiag  1:
 E= -644.146838991317     Delta-E=       -0.000000000038 Rises=F Damp=F
 DIIS: error= 2.12D-07 at cycle  11 NSaved=  11.
 NSaved=11 IEnMin=11 EnMin= -644.146838991317     IErMin=11 ErrMin= 2.12D-07
 ErrMax= 2.12D-07  0.00D+00 EMaxC= 1.00D-01 BMatC= 5.04D-12 BMatP= 1.49D-11
 IDIUse=1 WtCom= 1.00D+00 WtEn= 0.00D+00
 Coeff-Com:  0.145D-06-0.584D-06 0.287D-04 0.387D-04 0.212D-03-0.498D-03
 Coeff-Com: -0.355D-02-0.916D-02-0.424D-01 0.411D+00 0.644D+00
 Coeff:      0.145D-06-0.584D-06 0.287D-04 0.387D-04 0.212D-03-0.498D-03
 Coeff:     -0.355D-02-0.916D-02-0.424D-01 0.411D+00 0.644D+00
 Gap=     0.348 Goal=   None    Shift=    0.000
 RMSDP=1.42D-08 MaxDP=3.66D-07 DE=-3.76D-11 OVMax= 5.15D-07

 Cycle  12  Pass 1  IDiag  1:
 E= -644.146838991311     Delta-E=        0.000000000005 Rises=F Damp=F
 DIIS: error= 7.74D-08 at cycle  12 NSaved=  12.
 NSaved=12 IEnMin=11 EnMin= -644.146838991317     IErMin=12 ErrMin= 7.74D-08
 ErrMax= 7.74D-08  0.00D+00 EMaxC= 1.00D-01 BMatC= 7.87D-13 BMatP= 5.04D-12
 IDIUse=1 WtCom= 1.00D+00 WtEn= 0.00D+00
 Coeff-Com:  0.749D-06-0.136D-05-0.566D-05-0.123D-04 0.119D-04 0.436D-03
 Coeff-Com:  0.866D-03-0.115D-02-0.258D-01 0.672D-02 0.289D+00 0.729D+00
 Coeff:      0.749D-06-0.136D-05-0.566D-05-0.123D-04 0.119D-04 0.436D-03
 Coeff:      0.866D-03-0.115D-02-0.258D-01 0.672D-02 0.289D+00 0.729D+00
 Gap=     0.348 Goal=   None    Shift=    0.000
 RMSDP=6.37D-09 MaxDP=1.18D-07 DE= 5.23D-12 OVMax= 2.56D-07

 SCF Done:  E(RM062X) =  -644.146838991     A.U. after   12 cycles
            NFock= 12  Conv=0.64D-08     -V/T= 2.0025
 KE= 6.425235136154D+02 PE=-2.087695457044D+03 EE= 5.210197357102D+02
 Leave Link  502 at Fri Feb 17 21:24:06 2023, MaxMem=  6710886400 cpu:             109.6 elap:               5.8
 (Enter /data0/home/software/g16/l601.exe)
 Copying SCF densities to generalized density rwf, IOpCl= 0 IROHF=0.

 **********************************************************************

            Population analysis using the SCF density.

 **********************************************************************

 Alpha  occ. eigenvalues --  -78.16859 -19.68972 -19.68246 -19.68003 -19.58696
 Alpha  occ. eigenvalues --   -6.97637  -5.09546  -5.09513  -5.09337  -1.24387
 Alpha  occ. eigenvalues --   -1.17056  -1.16565  -1.08857  -0.72934  -0.65167
 Alpha  occ. eigenvalues --   -0.64151  -0.58197  -0.53004  -0.51252  -0.50584
 Alpha  occ. eigenvalues --   -0.46785  -0.45706  -0.43590  -0.38572  -0.37521
 Alpha virt. eigenvalues --   -0.02757   0.01175   0.02453   0.04674   0.08565
 Alpha virt. eigenvalues --    0.10208   0.11140   0.12617   0.16214   0.16526
 Alpha virt. eigenvalues --    0.18049   0.18686   0.19846   0.20412   0.20980
 Alpha virt. eigenvalues --    0.22958   0.23247   0.25230   0.26215   0.27070
 Alpha virt. eigenvalues --    0.28111   0.29706   0.30027   0.31600   0.34313
 Alpha virt. eigenvalues --    0.34779   0.36259   0.36984   0.39721   0.42623
 Alpha virt. eigenvalues --    0.45330   0.48483   0.49970   0.56955   0.58225
 Alpha virt. eigenvalues --    0.74248   0.76689   0.77039   0.85868   0.96745
 Alpha virt. eigenvalues --    1.00165   1.02351   1.04964   1.07884   1.10994
 Alpha virt. eigenvalues --    1.11896   1.14974   1.17802   1.19442   1.20191
 Alpha virt. eigenvalues --    1.22283   1.24535   1.25602   1.26581   1.33023
 Alpha virt. eigenvalues --    1.35640   1.41744   1.43991   1.47781   1.51664
 Alpha virt. eigenvalues --    1.53540   1.56104   1.56536   1.61672   1.64583
 Alpha virt. eigenvalues --    1.65970   1.67862   1.70748   1.74974   1.80515
 Alpha virt. eigenvalues --    1.84787   1.85770   1.86501   1.93047   1.94884
 Alpha virt. eigenvalues --    1.98015   2.06148   2.09064   2.11675   2.12384
 Alpha virt. eigenvalues --    2.19168   2.23902   2.27331   2.37123   2.45213
 Alpha virt. eigenvalues --    2.47039   2.56175   2.61132   2.62535   2.72324
 Alpha virt. eigenvalues --    2.74009   2.78978   2.84661   2.91868   2.95548
 Alpha virt. eigenvalues --    5.01381   5.05634   5.06080   5.06632   5.10811
 Alpha virt. eigenvalues --    5.12383   5.17975   5.23056   5.34285   5.45187
 Alpha virt. eigenvalues --    5.50984   5.51379   6.72783   6.73451   6.74949
 Alpha virt. eigenvalues --    6.77408   6.78753   6.79785   6.82054   6.85470
 Alpha virt. eigenvalues --    6.91698   6.93258   6.95769   6.96779   6.99398
 Alpha virt. eigenvalues --    7.04602   7.10393   7.25022   7.25445   7.26586
 Alpha virt. eigenvalues --    7.31999   7.39746   7.64158  14.23042  14.24034
 Alpha virt. eigenvalues --   14.34535  49.98492  49.99978  50.00507  50.09505
 Alpha virt. eigenvalues --  163.85473
          Condensed to atoms (all electrons):
              10         11         12         13         14         15
    10  P   12.443606   0.541417   0.247678   0.003296   0.273521   0.000951
    11  O    0.541417   8.162051   0.001572  -0.011177  -0.028402  -0.009172
    12  O    0.247678   0.001572   8.017366   0.256726   0.026099  -0.004964
    13  H    0.003296  -0.011177   0.256726   0.437536  -0.004356  -0.002937
    14  O    0.273521  -0.028402   0.026099  -0.004356   8.043694   0.269520
    15  H    0.000951  -0.009172  -0.004964  -0.002937   0.269520   0.400955
    16  O    0.199958  -0.046348   0.003120   0.001727   0.004739   0.005713
    17  H    0.039961   0.001133  -0.012196   0.001515  -0.011713   0.000748
              16         17
    10  P    0.199958   0.039961
    11  O   -0.046348   0.001133
    12  O    0.003120  -0.012196
    13  H    0.001727   0.001515
    14  O    0.004739  -0.011713
    15  H    0.005713   0.000748
    16  O    8.097753   0.229597
    17  H    0.229597   0.441588
 Mulliken charges:
               1
     1  C    0.000000
     2  C    0.000000
     3  C    0.000000
     4  N    0.000000
     5  H    0.000000
     6  H    0.000000
     7  H    0.000000
     8  H    0.000000
     9  N    0.000000
    10  P    1.249612
    11  O   -0.611073
    12  O   -0.535401
    13  H    0.317671
    14  O   -0.573102
    15  H    0.339185
    16  O   -0.496260
    17  H    0.309368
 Sum of Mulliken charges =  -0.00000
 Mulliken charges with hydrogens summed into heavy atoms:
               1
     1  C    0.000000
     2  C    0.000000
     3  C    0.000000
     4  N    0.000000
     9  N    0.000000
    10  P    1.249612
    11  O   -0.611073
    12  O   -0.217730
    14  O   -0.233917
    16  O   -0.186892
         Mulliken charges condensed to fragments:
      1      0.000000
      2     -0.000000
 Electronic spatial extent (au):  <R**2>=          80659.3182
 Charge=              0.0000 electrons
 Dipole moment (field-independent basis, Debye):
    X=             -1.4609    Y=              4.2762    Z=              0.9964  Tot=              4.6274
 Quadrupole moment (field-independent basis, Debye-Ang):
   XX=            -71.8477   YY=             84.1166   ZZ=            -16.2962
   XY=             36.6197   XZ=             -0.6274   YZ=             47.2622
 Traceless Quadrupole moment (field-independent basis, Debye-Ang):
   XX=            -70.5053   YY=             85.4590   ZZ=            -14.9538
   XY=             36.6197   XZ=             -0.6274   YZ=             47.2622
 Octapole moment (field-independent basis, Debye-Ang**2):
  XXX=          -2134.3872  YYY=            958.6149  ZZZ=           -497.4924  XYY=            827.9489
  XXY=           -258.8293  XXZ=           -429.9686  XZZ=           -346.8195  YZZ=             23.9467
  YYZ=            868.8191  XYZ=            428.3120
 Hexadecapole moment (field-independent basis, Debye-Ang**3):
 XXXX=         -51199.7401 YYYY=           1459.1665 ZZZZ=          -7895.4110 XXXY=         -20328.4666
 XXXZ=         -14794.0287 YYYX=           8419.1647 YYYZ=          11000.5240 ZZZX=          -7814.0966
 ZZZY=          -5089.0198 XXYY=            207.6817 XXZZ=          -8099.6989 YYZZ=           1933.9377
 XXYZ=           -396.1114 YYXZ=           8582.6314 ZZXY=          -1593.5717
 N-N= 2.800053687272D+02 E-N=-2.087695459910D+03  KE= 6.425235136154D+02
 No NMR shielding tensors so no spin-rotation constants.
 Leave Link  601 at Fri Feb 17 21:24:06 2023, MaxMem=  6710886400 cpu:               1.9 elap:               0.1
 (Enter /data0/home/software/g16/l122.exe)
 CPIOFr:  IOpCl= 0 IRwI=-1 IRwCP=  731 ICalc=  4 LCPTot=      158204 Len1MO=      416108 IndFrg=     2238744
 Restoring MOs from calculation   1 to rwf.
 CPIOFr:  IOpCl= 0 IRwI=-2 IRwCP=  731 ICalc=  0 LCPTot=      158204 Len1MO=      416108 IndFrg=      574312
 Counterpoise corrected energy =    -870.367104741645
                   BSSE energy =       0.001088389374
              sum of fragments =    -870.334961629864
           complexation energy =     -20.85 kcal/mole (raw)
           complexation energy =     -20.17 kcal/mole (corrected)
 Leave Link  122 at Fri Feb 17 21:24:06 2023, MaxMem=  6710886400 cpu:               0.2 elap:               0.0
 (Enter /data0/home/software/g16/l9999.exe)
 1\1\GINC-LOCALHOST\SP\RM062X\6-311+G(2d,p)\C3H7N2O4P1\WUHANYU\17-Feb-2
 023\0\\#p M062X/6-311+G(2d,p) nosymm em=GD3 counterpoise=2\\Title Card
  Required\\0,1\C,0,11.376828,15.133632,12.410501\C,0,12.007084,15.9804
 77,11.495308\C,0,12.639553,13.929368,11.003689\N,0,11.786988,13.841842
 ,12.095201\H,0,11.457265,12.978891,12.522268\H,0,10.709418,15.350211,1
 3.217207\H,0,11.967356,17.048487,11.409313\H,0,13.119357,13.076171,10.
 541762\N,0,12.777943,15.218503,10.630494\P,0,13.595033,14.485382,7.253
 403\O,0,13.469032,13.16635,7.889227\O,0,12.2716,15.056797,6.576981\H,0
 ,11.518019,15.110099,7.289528\O,0,14.146044,15.667329,8.149646\H,0,13.
 769752,15.566849,9.136675\O,0,14.605633,14.443881,6.028753\H,0,14.6714
 92,15.410873,5.659704\\Version=ES64L-G16RevA.03\HF=-644.146839\RMSD=6.
 375e-09\Dipole=-1.5122206,0.5935245,2.0138587\Quadrupole=-85.479728,20
 .1593704,65.3203575,-24.9380294,16.9306872,56.8682862\PG=C01 [X(C3H7N2
 O4P1)]\\@


 MODELS ARE TO BE USED, NOT BELIEVED.

    -- PARAPHRASED BY H. THIEL IN "PRINCIPLES OF ECONOMETRICS"
 Job cpu time:       0 days  0 hours 31 minutes 31.9 seconds.
 Elapsed time:       0 days  0 hours  1 minutes 22.2 seconds.
 File lengths (MBytes):  RWF=     82 Int=      0 D2E=      0 Chk=     24 Scr=      1
 Normal termination of Gaussian 16 at Fri Feb 17 21:24:06 2023.
