 Entering Gaussian System, Link 0=g16
 Initial command:
 /data0/home/software/g16/l1.exe "/data0/home/software/g16/scratch/Gau-1517808.inp" -scrdir="/data0/home/software/g16/scratch/"
 Default is to use a total of  22 processors:
                               22 via shared-memory
                                1 via Linda
 Entering Link 1 = /data0/home/software/g16/l1.exe PID=   1517809.
  
 Copyright (c) 1988,1990,1992,1993,1995,1998,2003,2009,2016,
            Gaussian, Inc.  All Rights Reserved.
  
 This is part of the Gaussian(R) 16 program.  It is based on
 the Gaussian(R) 09 system (copyright 2009, Gaussian, Inc.),
 the Gaussian(R) 03 system (copyright 2003, Gaussian, Inc.),
 the Gaussian(R) 98 system (copyright 1998, Gaussian, Inc.),
 the Gaussian(R) 94 system (copyright 1995, Gaussian, Inc.),
 the Gaussian 92(TM) system (copyright 1992, Gaussian, Inc.),
 the Gaussian 90(TM) system (copyright 1990, Gaussian, Inc.),
 the Gaussian 88(TM) system (copyright 1988, Gaussian, Inc.),
 the Gaussian 86(TM) system (copyright 1986, Carnegie Mellon
 University), and the Gaussian 82(TM) system (copyright 1983,
 Carnegie Mellon University). Gaussian is a federally registered
 trademark of Gaussian, Inc.
  
 This software contains proprietary and confidential information,
 including trade secrets, belonging to Gaussian, Inc.
  
 This software is provided under written license and may be
 used, copied, transmitted, or stored only in accord with that
 written license.
  
 The following legend is applicable only to US Government
 contracts under FAR:
  
                    RESTRICTED RIGHTS LEGEND
  
 Use, reproduction and disclosure by the US Government is
 subject to restrictions as set forth in subparagraphs (a)
 and (c) of the Commercial Computer Software - Restricted
 Rights clause in FAR 52.227-19.
  
 Gaussian, Inc.
 340 Quinnipiac St., Bldg. 40, Wallingford CT 06492
  
  
 ---------------------------------------------------------------
 Warning -- This program may not be used in any manner that
 competes with the business of Gaussian, Inc. or will provide
 assistance to any competitor of Gaussian, Inc.  The licensee
 of this program is prohibited from giving any competitor of
 Gaussian, Inc. access to this program.  By using this program,
 the user acknowledges that Gaussian, Inc. is engaged in the
 business of creating and licensing software in the field of
 computational chemistry and represents and warrants to the
 licensee that it is not a competitor of Gaussian, Inc. and that
 it will not use this program in any manner prohibited above.
 ---------------------------------------------------------------
  

 Cite this work as:
 Gaussian 16, Revision A.03,
 M. J. Frisch, G. W. Trucks, H. B. Schlegel, G. E. Scuseria, 
 M. A. Robb, J. R. Cheeseman, G. Scalmani, V. Barone, 
 G. A. Petersson, H. Nakatsuji, X. Li, M. Caricato, A. V. Marenich, 
 J. Bloino, B. G. Janesko, R. Gomperts, B. Mennucci, H. P. Hratchian, 
 J. V. Ortiz, A. F. Izmaylov, J. L. Sonnenberg, D. Williams-Young, 
 F. Ding, F. Lipparini, F. Egidi, J. Goings, B. Peng, A. Petrone, 
 T. Henderson, D. Ranasinghe, V. G. Zakrzewski, J. Gao, N. Rega, 
 G. Zheng, W. Liang, M. Hada, M. Ehara, K. Toyota, R. Fukuda, 
 J. Hasegawa, M. Ishida, T. Nakajima, Y. Honda, O. Kitao, H. Nakai, 
 T. Vreven, K. Throssell, J. A. Montgomery, Jr., J. E. Peralta, 
 F. Ogliaro, M. J. Bearpark, J. J. Heyd, E. N. Brothers, K. N. Kudin, 
 V. N. Staroverov, T. A. Keith, R. Kobayashi, J. Normand, 
 K. Raghavachari, A. P. Rendell, J. C. Burant, S. S. Iyengar, 
 J. Tomasi, M. Cossi, J. M. Millam, M. Klene, C. Adamo, R. Cammi, 
 J. W. Ochterski, R. L. Martin, K. Morokuma, O. Farkas, 
 J. B. Foresman, and D. J. Fox, Gaussian, Inc., Wallingford CT, 2016.
 
 ******************************************
 Gaussian 16:  ES64L-G16RevA.03 25-Dec-2016
                11-Dec-2022 
 ******************************************
 %nprocshared=24
 Will use up to   24 processors via shared memory.
 %mem=50GB
 --------------------------------------------------------
 #p opt freq b3lyp/6-311+g(2d,p) scrf=(smd,solvent=water)
 --------------------------------------------------------
 1/18=20,19=15,26=3,38=1/1,3;
 2/9=110,12=2,17=6,18=5,40=1/2;
 3/5=4,6=6,7=112,11=2,25=1,30=1,70=32201,71=1,72=1,74=-5/1,2,3;
 4//1;
 5/5=2,38=5,53=1/2;
 6/7=2,8=2,9=2,10=2,28=1/1;
 7//1,2,3,16;
 1/18=20,19=15,26=3/3(2);
 2/9=110/2;
 99//99;
 2/9=110/2;
 3/5=4,6=6,7=112,11=2,25=1,30=1,70=32205,71=1,72=1,74=-5/1,2,3;
 4/5=5,16=3,69=1/1;
 5/5=2,38=5,53=1/2;
 7//1,2,3,16;
 1/18=20,19=15,26=3/3(-5);
 2/9=110/2;
 6/7=2,8=2,9=2,10=2,19=2,28=1/1;
 99/9=1/99;
 Leave Link    1 at Sun Dec 11 17:58:08 2022, MaxMem=  6710886400 cpu:               0.8 elap:               0.0
 (Enter /data0/home/software/g16/l101.exe)
 -------------------
 Title Card Required
 -------------------
 Symbolic Z-matrix:
 Charge =  0 Multiplicity = 1
 C                     3.85963  -0.55732  -0.65335 
 C                     2.67353  -1.21424  -0.726 
 C                     2.25592   0.83623  -0.03505 
 N                     3.57069   0.71955  -0.22008 
 H                     4.24213   1.46074  -0.06279 
 H                     4.86381  -0.87706  -0.8668 
 H                     2.44723  -2.22473  -1.01639 
 H                     1.74432   1.72092   0.30158 
 N                     1.69281  -0.3262   -0.33789 
 P                    -1.91954   0.10455  -0.78941 
 O                    -1.51915   1.54021  -0.64413 
 O                    -0.83756  -0.95361  -0.75991 
 H                     0.65281  -0.49497  -0.16646 
 O                    -3.03418  -0.18571   0.3461 
 H                    -3.26557  -1.12476   0.40682 
 O                    -2.8311   -0.1228   -2.11922 
 H                    -2.2889   -0.2157   -2.91676 
 
 Add virtual bond connecting atoms H13        and O12        Dist= 3.15D+00.
 ITRead=  0  0  0  0  0  0  0  0  0  0  0  0  0  0  0  0  0
 MicOpt= -1 -1 -1 -1 -1 -1 -1 -1 -1 -1 -1 -1 -1 -1 -1 -1 -1
 NAtoms=     17 NQM=       17 NQMF=       0 NMMI=      0 NMMIF=      0
                NMic=       0 NMicF=      0.
                    Isotopes and Nuclear Properties:
 (Nuclear quadrupole moments (NQMom) in fm**2, nuclear magnetic moments (NMagM)
  in nuclear magnetons)

  Atom         1           2           3           4           5           6           7           8           9          10
 IAtWgt=          12          12          12          14           1           1           1           1          14          31
 AtmWgt=  12.0000000  12.0000000  12.0000000  14.0030740   1.0078250   1.0078250   1.0078250   1.0078250  14.0030740  30.9737634
 NucSpn=           0           0           0           2           1           1           1           1           2           1
 AtZEff=  -0.0000000  -0.0000000  -0.0000000  -0.0000000  -0.0000000  -0.0000000  -0.0000000  -0.0000000  -0.0000000  -0.0000000
 NQMom=    0.0000000   0.0000000   0.0000000   2.0440000   0.0000000   0.0000000   0.0000000   0.0000000   2.0440000   0.0000000
 NMagM=    0.0000000   0.0000000   0.0000000   0.4037610   2.7928460   2.7928460   2.7928460   2.7928460   0.4037610   1.1316000
 AtZNuc=   6.0000000   6.0000000   6.0000000   7.0000000   1.0000000   1.0000000   1.0000000   1.0000000   7.0000000  15.0000000

  Atom        11          12          13          14          15          16          17
 IAtWgt=          16          16           1          16           1          16           1
 AtmWgt=  15.9949146  15.9949146   1.0078250  15.9949146   1.0078250  15.9949146   1.0078250
 NucSpn=           0           0           1           0           1           0           1
 AtZEff=  -0.0000000  -0.0000000  -0.0000000  -0.0000000  -0.0000000  -0.0000000  -0.0000000
 NQMom=    0.0000000   0.0000000   0.0000000   0.0000000   0.0000000   0.0000000   0.0000000
 NMagM=    0.0000000   0.0000000   2.7928460   0.0000000   2.7928460   0.0000000   2.7928460
 AtZNuc=   8.0000000   8.0000000   1.0000000   8.0000000   1.0000000   8.0000000   1.0000000
 Leave Link  101 at Sun Dec 11 17:58:08 2022, MaxMem=  6710886400 cpu:               7.7 elap:               0.3
 (Enter /data0/home/software/g16/l103.exe)

 GradGradGradGradGradGradGradGradGradGradGradGradGradGradGradGradGradGrad
 Berny optimization.
 Initialization pass.
                           ----------------------------
                           !    Initial Parameters    !
                           ! (Angstroms and Degrees)  !
 --------------------------                            --------------------------
 ! Name  Definition              Value          Derivative Info.                !
 --------------------------------------------------------------------------------
 ! R1    R(1,2)                  1.3578         estimate D2E/DX2                !
 ! R2    R(1,4)                  1.379          estimate D2E/DX2                !
 ! R3    R(1,6)                  1.0753         estimate D2E/DX2                !
 ! R4    R(2,7)                  1.0755         estimate D2E/DX2                !
 ! R5    R(2,9)                  1.3788         estimate D2E/DX2                !
 ! R6    R(3,4)                  1.3328         estimate D2E/DX2                !
 ! R7    R(3,8)                  1.076          estimate D2E/DX2                !
 ! R8    R(3,9)                  1.3267         estimate D2E/DX2                !
 ! R9    R(4,5)                  1.0124         estimate D2E/DX2                !
 ! R10   R(9,13)                 1.0675         estimate D2E/DX2                !
 ! R11   R(10,11)                1.4975         estimate D2E/DX2                !
 ! R12   R(10,12)                1.5137         estimate D2E/DX2                !
 ! R13   R(10,14)                1.6174         estimate D2E/DX2                !
 ! R14   R(10,16)                1.6282         estimate D2E/DX2                !
 ! R15   R(12,13)                1.6685         estimate D2E/DX2                !
 ! R16   R(14,15)                0.969          estimate D2E/DX2                !
 ! R17   R(16,17)                0.9689         estimate D2E/DX2                !
 ! A1    A(2,1,4)              106.3651         estimate D2E/DX2                !
 ! A2    A(2,1,6)              131.3997         estimate D2E/DX2                !
 ! A3    A(4,1,6)              122.2353         estimate D2E/DX2                !
 ! A4    A(1,2,7)              130.7553         estimate D2E/DX2                !
 ! A5    A(1,2,9)              107.138          estimate D2E/DX2                !
 ! A6    A(7,2,9)              122.1067         estimate D2E/DX2                !
 ! A7    A(4,3,8)              125.7634         estimate D2E/DX2                !
 ! A8    A(4,3,9)              108.0771         estimate D2E/DX2                !
 ! A9    A(8,3,9)              126.1595         estimate D2E/DX2                !
 ! A10   A(1,4,3)              109.3519         estimate D2E/DX2                !
 ! A11   A(1,4,5)              125.9979         estimate D2E/DX2                !
 ! A12   A(3,4,5)              124.6501         estimate D2E/DX2                !
 ! A13   A(2,9,3)              109.0678         estimate D2E/DX2                !
 ! A14   A(2,9,13)             129.5215         estimate D2E/DX2                !
 ! A15   A(3,9,13)             121.0245         estimate D2E/DX2                !
 ! A16   A(11,10,12)           118.5017         estimate D2E/DX2                !
 ! A17   A(11,10,14)           106.7495         estimate D2E/DX2                !
 ! A18   A(11,10,16)           111.2713         estimate D2E/DX2                !
 ! A19   A(12,10,14)           110.6996         estimate D2E/DX2                !
 ! A20   A(12,10,16)           108.5722         estimate D2E/DX2                !
 ! A21   A(14,10,16)            99.3522         estimate D2E/DX2                !
 ! A22   A(10,12,13)           116.9541         estimate D2E/DX2                !
 ! A23   A(9,13,12)            148.9397         estimate D2E/DX2                !
 ! A24   A(10,14,15)           112.4852         estimate D2E/DX2                !
 ! A25   A(10,16,17)           111.8631         estimate D2E/DX2                !
 ! D1    D(4,1,2,7)           -179.9153         estimate D2E/DX2                !
 ! D2    D(4,1,2,9)              0.0412         estimate D2E/DX2                !
 ! D3    D(6,1,2,7)              0.088          estimate D2E/DX2                !
 ! D4    D(6,1,2,9)           -179.9554         estimate D2E/DX2                !
 ! D5    D(2,1,4,3)              0.0176         estimate D2E/DX2                !
 ! D6    D(2,1,4,5)            179.9829         estimate D2E/DX2                !
 ! D7    D(6,1,4,3)           -179.9854         estimate D2E/DX2                !
 ! D8    D(6,1,4,5)             -0.0201         estimate D2E/DX2                !
 ! D9    D(1,2,9,3)             -0.0868         estimate D2E/DX2                !
 ! D10   D(1,2,9,13)          -172.877          estimate D2E/DX2                !
 ! D11   D(7,2,9,3)            179.8744         estimate D2E/DX2                !
 ! D12   D(7,2,9,13)             7.0841         estimate D2E/DX2                !
 ! D13   D(8,3,4,1)            179.9204         estimate D2E/DX2                !
 ! D14   D(8,3,4,5)             -0.0455         estimate D2E/DX2                !
 ! D15   D(9,3,4,1)             -0.0719         estimate D2E/DX2                !
 ! D16   D(9,3,4,5)            179.9622         estimate D2E/DX2                !
 ! D17   D(4,3,9,2)              0.0979         estimate D2E/DX2                !
 ! D18   D(4,3,9,13)           173.6113         estimate D2E/DX2                !
 ! D19   D(8,3,9,2)           -179.8943         estimate D2E/DX2                !
 ! D20   D(8,3,9,13)            -6.3809         estimate D2E/DX2                !
 ! D21   D(2,9,13,12)          -61.987          estimate D2E/DX2                !
 ! D22   D(3,9,13,12)          125.9692         estimate D2E/DX2                !
 ! D23   D(11,10,12,13)         15.955          estimate D2E/DX2                !
 ! D24   D(14,10,12,13)       -107.8066         estimate D2E/DX2                !
 ! D25   D(16,10,12,13)        144.1209         estimate D2E/DX2                !
 ! D26   D(11,10,14,15)       -172.1918         estimate D2E/DX2                !
 ! D27   D(12,10,14,15)        -41.9185         estimate D2E/DX2                !
 ! D28   D(16,10,14,15)         72.1166         estimate D2E/DX2                !
 ! D29   D(11,10,16,17)         82.4971         estimate D2E/DX2                !
 ! D30   D(12,10,16,17)        -49.6479         estimate D2E/DX2                !
 ! D31   D(14,10,16,17)       -165.3217         estimate D2E/DX2                !
 ! D32   D(10,12,13,9)        -115.015          estimate D2E/DX2                !
 --------------------------------------------------------------------------------
 Trust Radius=3.00D-01 FncErr=1.00D-07 GrdErr=1.00D-06 EigMax=2.50D+02 EigMin=1.00D-04
 Number of steps in this run=     84 maximum allowed number of steps=    102.
 GradGradGradGradGradGradGradGradGradGradGradGradGradGradGradGradGradGrad

 Leave Link  103 at Sun Dec 11 17:58:08 2022, MaxMem=  6710886400 cpu:               0.2 elap:               0.0
 (Enter /data0/home/software/g16/l202.exe)
                          Input orientation:                          
 ---------------------------------------------------------------------
 Center     Atomic      Atomic             Coordinates (Angstroms)
 Number     Number       Type             X           Y           Z
 ---------------------------------------------------------------------
      1          6           0        3.859631   -0.557318   -0.653350
      2          6           0        2.673526   -1.214237   -0.725998
      3          6           0        2.255919    0.836232   -0.035048
      4          7           0        3.570692    0.719548   -0.220084
      5          1           0        4.242134    1.460743   -0.062792
      6          1           0        4.863810   -0.877064   -0.866795
      7          1           0        2.447229   -2.224727   -1.016391
      8          1           0        1.744323    1.720919    0.301578
      9          7           0        1.692812   -0.326205   -0.337889
     10         15           0       -1.919536    0.104546   -0.789414
     11          8           0       -1.519154    1.540215   -0.644131
     12          8           0       -0.837558   -0.953606   -0.759915
     13          1           0        0.652815   -0.494975   -0.166461
     14          8           0       -3.034178   -0.185711    0.346098
     15          1           0       -3.265567   -1.124765    0.406815
     16          8           0       -2.831102   -0.122795   -2.119218
     17          1           0       -2.288898   -0.215702   -2.916762
 ---------------------------------------------------------------------
                    Distance matrix (angstroms):
                    1          2          3          4          5
     1  C    0.000000
     2  C    1.357817   0.000000
     3  C    2.212729   2.203686   0.000000
     4  N    1.378982   2.190977   1.332848   0.000000
     5  H    2.137203   3.171103   2.082267   1.012396   0.000000
     6  H    1.075255   2.220553   3.229285   2.153963   2.549166
     7  H    2.215160   1.075467   3.220109   3.250389   4.208768
     8  H    3.252196   3.245685   1.075974   2.147208   2.537620
     9  N    2.201824   1.378778   1.326673   2.152652   3.125364
    10  P    5.818534   4.779061   4.305677   5.553824   6.350860
    11  O    5.773305   5.017197   3.888155   5.172991   5.791088
    12  O    4.715080   3.520907   3.646717   4.745896   5.667303
    13  H    3.244166   2.216685   2.087899   3.161005   4.088862
    14  O    6.975786   5.897893   5.401367   6.690618   7.471460
    15  H    7.225952   6.046824   5.876015   7.108370   7.954304
    16  O    6.863198   5.782148   5.580437   6.730469   7.534397
    17  H    6.560803   5.515630   5.483266   6.517788   7.321884
                    6          7          8          9         10
     6  H    0.000000
     7  H    2.771000   0.000000
     8  H    4.224431   4.218915   0.000000
     9  N    3.261658   2.152649   2.145295   0.000000
    10  P    6.854438   4.954358   4.150516   3.665853   0.000000
    11  O    6.828985   5.481383   3.402543   3.727470   1.497517
    12  O    5.702883   3.531480   3.866001   2.640930   1.513682
    13  H    4.285900   2.633315   2.514088   1.067458   2.713758
    14  O    8.020430   6.004980   5.145026   4.778286   1.617425
    15  H    8.232266   5.989279   5.762637   5.077185   2.180360
    16  O    7.832570   5.787497   5.494911   4.866242   1.628194
    17  H    7.470007   5.484386   5.511360   4.745189   2.182796
                   11         12         13         14         15
    11  O    0.000000
    12  O    2.587879   0.000000
    13  H    3.014567   1.668454   0.000000
    14  O    2.500934   2.576445   3.735275   0.000000
    15  H    3.355080   2.699219   4.009862   0.969046   0.000000
    16  O    2.581219   2.551895   4.011166   2.474465   2.752007
    17  H    2.973315   2.702385   4.036809   3.347028   3.581403
                   16         17
    16  O    0.000000
    17  H    0.968862   0.000000
 Stoichiometry    C3H7N2O4P
 Framework group  C1[X(C3H7N2O4P)]
 Deg. of freedom    45
 Full point group                 C1      NOp   1
 Largest Abelian subgroup         C1      NOp   1
 Largest concise Abelian subgroup C1      NOp   1
                         Standard orientation:                         
 ---------------------------------------------------------------------
 Center     Atomic      Atomic             Coordinates (Angstroms)
 Number     Number       Type             X           Y           Z
 ---------------------------------------------------------------------
      1          6           0       -3.818412   -0.540755    0.143660
      2          6           0       -2.644873   -1.180747   -0.094839
      3          6           0       -2.235458    0.984525   -0.109216
      4          7           0       -3.534888    0.808692    0.129628
      5          1           0       -4.199840    1.557986    0.275723
      6          1           0       -4.810515   -0.916579    0.318762
      7          1           0       -2.419620   -2.229764   -0.168684
      8          1           0       -1.731298    1.932613   -0.177562
      9          7           0       -1.676818   -0.210859   -0.247204
     10         15           0        1.967786    0.062422    0.036790
     11          8           0        1.589177    1.465109    0.399665
     12          8           0        0.863728   -0.932048   -0.251856
     13          1           0       -0.656555   -0.310288   -0.544933
     14          8           0        2.987494    0.163760   -1.214606
     15          1           0        3.193053   -0.702905   -1.596295
     16          8           0        2.971329   -0.583803    1.144179
     17          1           0        2.488568   -0.934507    1.907489
 ---------------------------------------------------------------------
 Rotational constants (GHZ):           3.0463975           0.4543282           0.4337092
 Leave Link  202 at Sun Dec 11 17:58:08 2022, MaxMem=  6710886400 cpu:               0.1 elap:               0.0
 (Enter /data0/home/software/g16/l301.exe)
 Standard basis: 6-311+G(2d,p) (5D, 7F)
 Ernie: Thresh=  0.10000D-02 Tol=  0.10000D-05 Strict=F.
 There are   340 symmetry adapted cartesian basis functions of A   symmetry.
 There are   320 symmetry adapted basis functions of A   symmetry.
   320 basis functions,   490 primitive gaussians,   340 cartesian basis functions
    43 alpha electrons       43 beta electrons
       nuclear repulsion energy       641.8843870233 Hartrees.
 IExCor=  402 DFT=T Ex+Corr=B3LYP ExCW=0 ScaHFX=  0.200000
 ScaDFX=  0.800000  0.720000  1.000000  0.810000 ScalE2=  1.000000  1.000000
 IRadAn=      5 IRanWt=     -1 IRanGd=            0 ICorTp=0 IEmpDi=  4
 NAtoms=   17 NActive=   17 NUniq=   17 SFac= 1.00D+00 NAtFMM=   60 NAOKFM=F Big=F
 Integral buffers will be    131072 words long.
 Raffenetti 2 integral format.
 Two-electron integral symmetry is turned on.
 ------------------------------------------------------------------------------
 Polarizable Continuum Model (PCM)
 =================================
 Model                : PCM.
 Atomic radii         : SMD-Coulomb.
 Polarization charges : Total charges.
 Charge compensation  : None.
 Solution method      : On-the-fly selection.
 Cavity type          : VdW (van der Waals Surface) (Alpha=1.000).
 Cavity algorithm     : GePol (No added spheres)
                        Default sphere list used, NSphG=   17.
                        Lebedev-Laikov grids with approx.  5.0 points / Ang**2.
                        Smoothing algorithm: York/Karplus (Gamma=1.0000).
                        Polarization charges: spherical gaussians, with
                                              point-specific exponents (IZeta= 3).
                        Self-potential: point-specific (ISelfS= 7).
                        Self-field    : sphere-specific E.n sum rule (ISelfD= 2).
 1st derivatives      : Analytical E(r).r(x)/FMM algorithm (CHGder, D1EAlg=3).
                        Cavity 1st derivative terms included.
 Solvent              : Water, Eps=  78.355300 Eps(inf)=   1.777849
 ------------------------------------------------------------------------------
 Spheres list:
 ISph  on   Nord     Re0    Alpha      Xe            Ye            Ze
    1   C      1    1.8500  1.000     -3.818412     -0.540755      0.143660
    2   C      2    1.8500  1.000     -2.644873     -1.180747     -0.094839
    3   C      3    1.8500  1.000     -2.235458      0.984525     -0.109216
    4   N      4    1.8900  1.000     -3.534888      0.808692      0.129628
    5   H      5    1.2000  1.000     -4.199840      1.557986      0.275723
    6   H      6    1.2000  1.000     -4.810515     -0.916579      0.318762
    7   H      7    1.2000  1.000     -2.419620     -2.229764     -0.168684
    8   H      8    1.2000  1.000     -1.731298      1.932613     -0.177562
    9   N      9    1.8900  1.000     -1.676818     -0.210859     -0.247204
   10   P     10    2.1200  1.000      1.967786      0.062422      0.036790
   11   O     11    1.5200  1.000      1.589177      1.465109      0.399665
   12   O     12    1.5200  1.000      0.863728     -0.932048     -0.251856
   13   H     13    1.2000  1.000     -0.656555     -0.310288     -0.544933
   14   O     14    1.5200  1.000      2.987494      0.163760     -1.214606
   15   H     15    1.2000  1.000      3.193053     -0.702905     -1.596295
   16   O     16    1.5200  1.000      2.971329     -0.583803      1.144179
   17   H     17    1.2000  1.000      2.488568     -0.934507      1.907489
 ------------------------------------------------------------------------------
 GePol: Number of generator spheres                  =      17
 GePol: Total number of spheres                      =      17
 GePol: Number of exposed spheres                    =      17 (100.00%)
 GePol: Number of points                             =    1383
 GePol: Average weight of points                     =       0.13
 GePol: Minimum weight of points                     =   0.49D-10
 GePol: Maximum weight of points                     =    0.21991
 GePol: Number of points with low weight             =      72
 GePol: Fraction of low-weight points (<1% of avg)   =       5.21%
 GePol: Cavity surface area                          =    176.735 Ang**2
 GePol: Cavity volume                                =    142.999 Ang**3
 ------------------------------------------------------------------------------
 Atomic radii for non-electrostatic terms: SMD-CDS.
 ------------------------------------------------------------------------------
 PCM non-electrostatic energy =         0.0133773409 Hartrees.
 Nuclear repulsion after PCM non-electrostatic terms =      641.8977643642 Hartrees.
 Leave Link  301 at Sun Dec 11 17:58:08 2022, MaxMem=  6710886400 cpu:               1.6 elap:               0.1
 (Enter /data0/home/software/g16/l302.exe)
 NPDir=0 NMtPBC=     1 NCelOv=     1 NCel=       1 NClECP=     1 NCelD=      1
         NCelK=      1 NCelE2=     1 NClLst=     1 CellRange=     0.0.
 One-electron integrals computed using PRISM.
 One-electron integral symmetry used in STVInt
 NBasis=   320 RedAO= T EigKep=  3.45D-05  NBF=   320
 NBsUse=   320 1.00D-06 EigRej= -1.00D+00 NBFU=   320
 Precomputing XC quadrature grid using
 IXCGrd= 4 IRadAn=           5 IRanWt=          -1 IRanGd=           0 AccXCQ= 0.00D+00.
 Generated NRdTot=       0 NPtTot=           0 NUsed=           0 NTot=          32
 NSgBfM=   340   340   340   340   340 MxSgAt=    17 MxSgA2=    17.
 Leave Link  302 at Sun Dec 11 17:58:08 2022, MaxMem=  6710886400 cpu:               5.0 elap:               0.2
 (Enter /data0/home/software/g16/l303.exe)
 DipDrv:  MaxL=1.
 Leave Link  303 at Sun Dec 11 17:58:09 2022, MaxMem=  6710886400 cpu:               0.7 elap:               0.1
 (Enter /data0/home/software/g16/l401.exe)
 ExpMin= 3.48D-02 ExpMax= 7.75D+04 ExpMxC= 2.65D+03 IAcc=3 IRadAn=         5 AccDes= 0.00D+00
 Harris functional with IExCor=  402 and IRadAn=       5 diagonalized for initial guess.
 HarFok:  IExCor=  402 AccDes= 0.00D+00 IRadAn=         5 IDoV= 1 UseB2=F ITyADJ=14
 ICtDFT=  3500011 ScaDFX=  1.000000  1.000000  1.000000  1.000000
 FoFCou: FMM=F IPFlag=           0 FMFlag=      100000 FMFlg1=           0
         NFxFlg=           0 DoJE=T BraDBF=F KetDBF=T FulRan=T
         wScrn=  0.000000 ICntrl=       500 IOpCl=  0 I1Cent=   200000004 NGrid=           0
         NMat0=    1 NMatS0=      1 NMatT0=    0 NMatD0=    1 NMtDS0=    0 NMtDT0=    0
 Petite list used in FoFCou.
 Harris En= -870.708258488740    
 JPrj=0 DoOrth=F DoCkMO=F.
 Leave Link  401 at Sun Dec 11 17:58:09 2022, MaxMem=  6710886400 cpu:              15.3 elap:               0.7
 (Enter /data0/home/software/g16/l502.exe)
 Integral symmetry usage will be decided dynamically.
 Closed shell SCF:
 Using DIIS extrapolation, IDIIS=  1040.
 NGot=  6710886400 LenX=  6710643876 LenY=  6710527835
 Requested convergence on RMS density matrix=1.00D-08 within 128 cycles.
 Requested convergence on MAX density matrix=1.00D-06.
 Requested convergence on             energy=1.00D-06.
 No special actions if energy rises.
 Fock matrices will be formed incrementally for  20 cycles.

 Cycle   1  Pass 1  IDiag  1:
 FoFJK:  IHMeth= 1 ICntrl=       0 DoSepK=F KAlg= 0 I1Cent=           0 FoldK=F
 IRaf= 860000000 NMat=       1 IRICut=       1 DoRegI=T DoRafI=F ISym2E= 0 IDoP0=0 IntGTp=1.
 FoFCou: FMM=F IPFlag=           0 FMFlag=      100000 FMFlg1=           0
         NFxFlg=           0 DoJE=F BraDBF=F KetDBF=F FulRan=T
         wScrn=  0.000000 ICntrl=         0 IOpCl=  0 I1Cent=           0 NGrid=           0
         NMat0=    1 NMatS0=      1 NMatT0=    0 NMatD0=    1 NMtDS0=    0 NMtDT0=    0
 Symmetry not used in FoFCou.
 Inv3:  Mode=1 IEnd=     5738067.
 Iteration    1 A*A^-1 deviation from unit magnitude is 4.66D-15 for   1378.
 Iteration    1 A*A^-1 deviation from orthogonality  is 2.64D-15 for   1212    635.
 Iteration    1 A^-1*A deviation from unit magnitude is 4.55D-15 for   1378.
 Iteration    1 A^-1*A deviation from orthogonality  is 1.54D-14 for    957    956.
 E= -870.238251843250    
 DIIS: error= 4.01D-02 at cycle   1 NSaved=   1.
 NSaved= 1 IEnMin= 1 EnMin= -870.238251843250     IErMin= 1 ErrMin= 4.01D-02
 ErrMax= 4.01D-02  0.00D+00 EMaxC= 1.00D-01 BMatC= 6.77D-01 BMatP= 6.77D-01
 IDIUse=3 WtCom= 5.99D-01 WtEn= 4.01D-01
 Coeff-Com:  0.100D+01
 Coeff-En:   0.100D+01
 Coeff:      0.100D+01
 Gap=     0.226 Goal=   None    Shift=    0.000
 GapD=    0.226 DampG=1.000 DampE=0.500 DampFc=0.5000 IDamp=-1.
 Damping current iteration by 5.00D-01
 RMSDP=5.17D-03 MaxDP=3.48D-01              OVMax= 2.69D-01

 Cycle   2  Pass 1  IDiag  1:
 RMSU=  2.58D-03    CP:  1.00D+00
 E= -870.344614928259     Delta-E=       -0.106363085008 Rises=F Damp=T
 DIIS: error= 1.71D-02 at cycle   2 NSaved=   2.
 NSaved= 2 IEnMin= 2 EnMin= -870.344614928259     IErMin= 2 ErrMin= 1.71D-02
 ErrMax= 1.71D-02  0.00D+00 EMaxC= 1.00D-01 BMatC= 6.50D-02 BMatP= 6.77D-01
 IDIUse=3 WtCom= 8.29D-01 WtEn= 1.71D-01
 Coeff-Com:  0.201D+00 0.799D+00
 Coeff-En:   0.373D+00 0.627D+00
 Coeff:      0.231D+00 0.769D+00
 Gap=     0.265 Goal=   None    Shift=    0.000
 RMSDP=1.90D-03 MaxDP=1.63D-01 DE=-1.06D-01 OVMax= 1.86D-01

 Cycle   3  Pass 1  IDiag  1:
 RMSU=  1.09D-03    CP:  9.84D-01  4.02D-01
 E= -870.652061515994     Delta-E=       -0.307446587736 Rises=F Damp=F
 DIIS: error= 6.54D-03 at cycle   3 NSaved=   3.
 NSaved= 3 IEnMin= 3 EnMin= -870.652061515994     IErMin= 3 ErrMin= 6.54D-03
 ErrMax= 6.54D-03  0.00D+00 EMaxC= 1.00D-01 BMatC= 1.35D-02 BMatP= 6.50D-02
 IDIUse=3 WtCom= 9.35D-01 WtEn= 6.54D-02
 Coeff-Com:  0.639D-01 0.336D+00 0.600D+00
 Coeff-En:   0.000D+00 0.000D+00 0.100D+01
 Coeff:      0.597D-01 0.314D+00 0.626D+00
 Gap=     0.255 Goal=   None    Shift=    0.000
 RMSDP=3.69D-04 MaxDP=1.35D-02 DE=-3.07D-01 OVMax= 2.96D-02

 Cycle   4  Pass 1  IDiag  1:
 RMSU=  3.55D-04    CP:  9.84D-01  4.31D-01  9.39D-01
 E= -870.657999090939     Delta-E=       -0.005937574945 Rises=F Damp=F
 DIIS: error= 3.43D-03 at cycle   4 NSaved=   4.
 NSaved= 4 IEnMin= 4 EnMin= -870.657999090939     IErMin= 4 ErrMin= 3.43D-03
 ErrMax= 3.43D-03  0.00D+00 EMaxC= 1.00D-01 BMatC= 5.92D-03 BMatP= 1.35D-02
 IDIUse=3 WtCom= 9.66D-01 WtEn= 3.43D-02
 Coeff-Com: -0.512D-03 0.728D-01 0.399D+00 0.529D+00
 Coeff-En:   0.000D+00 0.000D+00 0.308D+00 0.692D+00
 Coeff:     -0.494D-03 0.703D-01 0.395D+00 0.535D+00
 Gap=     0.256 Goal=   None    Shift=    0.000
 RMSDP=1.56D-04 MaxDP=7.63D-03 DE=-5.94D-03 OVMax= 1.18D-02

 Cycle   5  Pass 1  IDiag  1:
 RMSU=  8.59D-05    CP:  9.83D-01  4.17D-01  9.88D-01  6.86D-01
 E= -870.661879082627     Delta-E=       -0.003879991688 Rises=F Damp=F
 DIIS: error= 4.88D-04 at cycle   5 NSaved=   5.
 NSaved= 5 IEnMin= 5 EnMin= -870.661879082627     IErMin= 5 ErrMin= 4.88D-04
 ErrMax= 4.88D-04  0.00D+00 EMaxC= 1.00D-01 BMatC= 1.24D-04 BMatP= 5.92D-03
 IDIUse=3 WtCom= 9.95D-01 WtEn= 4.88D-03
 Coeff-Com: -0.332D-02 0.113D-01 0.133D+00 0.228D+00 0.631D+00
 Coeff-En:   0.000D+00 0.000D+00 0.000D+00 0.000D+00 0.100D+01
 Coeff:     -0.330D-02 0.113D-01 0.132D+00 0.227D+00 0.633D+00
 Gap=     0.252 Goal=   None    Shift=    0.000
 RMSDP=2.89D-05 MaxDP=1.82D-03 DE=-3.88D-03 OVMax= 2.73D-03

 Cycle   6  Pass 1  IDiag  1:
 RMSU=  2.08D-05    CP:  9.83D-01  4.17D-01  9.96D-01  7.07D-01  8.11D-01
 E= -870.661972812587     Delta-E=       -0.000093729960 Rises=F Damp=F
 DIIS: error= 2.15D-04 at cycle   6 NSaved=   6.
 NSaved= 6 IEnMin= 6 EnMin= -870.661972812587     IErMin= 6 ErrMin= 2.15D-04
 ErrMax= 2.15D-04  0.00D+00 EMaxC= 1.00D-01 BMatC= 9.90D-06 BMatP= 1.24D-04
 IDIUse=3 WtCom= 9.98D-01 WtEn= 2.15D-03
 Coeff-Com: -0.992D-03 0.107D-02 0.380D-01 0.710D-01 0.294D+00 0.597D+00
 Coeff-En:   0.000D+00 0.000D+00 0.000D+00 0.000D+00 0.000D+00 0.100D+01
 Coeff:     -0.989D-03 0.107D-02 0.379D-01 0.708D-01 0.293D+00 0.598D+00
 Gap=     0.252 Goal=   None    Shift=    0.000
 RMSDP=7.23D-06 MaxDP=3.36D-04 DE=-9.37D-05 OVMax= 6.43D-04

 Cycle   7  Pass 1  IDiag  1:
 RMSU=  4.84D-06    CP:  9.83D-01  4.16D-01  9.97D-01  7.08D-01  8.27D-01
                    CP:  7.74D-01
 E= -870.661980886644     Delta-E=       -0.000008074057 Rises=F Damp=F
 DIIS: error= 3.12D-05 at cycle   7 NSaved=   7.
 NSaved= 7 IEnMin= 7 EnMin= -870.661980886644     IErMin= 7 ErrMin= 3.12D-05
 ErrMax= 3.12D-05  0.00D+00 EMaxC= 1.00D-01 BMatC= 5.54D-07 BMatP= 9.90D-06
 IDIUse=1 WtCom= 1.00D+00 WtEn= 0.00D+00
 Coeff-Com: -0.161D-03-0.131D-03 0.116D-01 0.217D-01 0.106D+00 0.258D+00
 Coeff-Com:  0.603D+00
 Coeff:     -0.161D-03-0.131D-03 0.116D-01 0.217D-01 0.106D+00 0.258D+00
 Coeff:      0.603D+00
 Gap=     0.252 Goal=   None    Shift=    0.000
 RMSDP=2.53D-06 MaxDP=1.19D-04 DE=-8.07D-06 OVMax= 2.10D-04

 Cycle   8  Pass 1  IDiag  1:
 RMSU=  1.94D-06    CP:  9.83D-01  4.16D-01  9.98D-01  7.08D-01  8.30D-01
                    CP:  7.91D-01  7.63D-01
 E= -870.661981131456     Delta-E=       -0.000000244812 Rises=F Damp=F
 DIIS: error= 2.29D-05 at cycle   8 NSaved=   8.
 NSaved= 8 IEnMin= 8 EnMin= -870.661981131456     IErMin= 8 ErrMin= 2.29D-05
 ErrMax= 2.29D-05  0.00D+00 EMaxC= 1.00D-01 BMatC= 2.30D-07 BMatP= 5.54D-07
 IDIUse=1 WtCom= 1.00D+00 WtEn= 0.00D+00
 Coeff-Com:  0.125D-03-0.311D-03 0.491D-03 0.749D-03 0.144D-01 0.537D-01
 Coeff-Com:  0.411D+00 0.520D+00
 Coeff:      0.125D-03-0.311D-03 0.491D-03 0.749D-03 0.144D-01 0.537D-01
 Coeff:      0.411D+00 0.520D+00
 Gap=     0.252 Goal=   None    Shift=    0.000
 RMSDP=1.04D-06 MaxDP=4.08D-05 DE=-2.45D-07 OVMax= 9.26D-05

 Cycle   9  Pass 1  IDiag  1:
 RMSU=  4.41D-07    CP:  9.83D-01  4.16D-01  9.98D-01  7.08D-01  8.31D-01
                    CP:  7.90D-01  8.60D-01  6.03D-01
 E= -870.661981296561     Delta-E=       -0.000000165105 Rises=F Damp=F
 DIIS: error= 1.58D-06 at cycle   9 NSaved=   9.
 NSaved= 9 IEnMin= 9 EnMin= -870.661981296561     IErMin= 9 ErrMin= 1.58D-06
 ErrMax= 1.58D-06  0.00D+00 EMaxC= 1.00D-01 BMatC= 1.25D-09 BMatP= 2.30D-07
 IDIUse=1 WtCom= 1.00D+00 WtEn= 0.00D+00
 Coeff-Com:  0.427D-04-0.102D-03 0.196D-04-0.165D-04 0.353D-02 0.146D-01
 Coeff-Com:  0.129D+00 0.178D+00 0.675D+00
 Coeff:      0.427D-04-0.102D-03 0.196D-04-0.165D-04 0.353D-02 0.146D-01
 Coeff:      0.129D+00 0.178D+00 0.675D+00
 Gap=     0.252 Goal=   None    Shift=    0.000
 RMSDP=1.30D-07 MaxDP=5.53D-06 DE=-1.65D-07 OVMax= 1.35D-05

 Cycle  10  Pass 1  IDiag  1:
 RMSU=  1.15D-07    CP:  9.83D-01  4.16D-01  9.98D-01  7.08D-01  8.31D-01
                    CP:  7.92D-01  8.61D-01  6.17D-01  9.69D-01
 E= -870.661981296997     Delta-E=       -0.000000000436 Rises=F Damp=F
 DIIS: error= 1.51D-06 at cycle  10 NSaved=  10.
 NSaved=10 IEnMin=10 EnMin= -870.661981296997     IErMin=10 ErrMin= 1.51D-06
 ErrMax= 1.51D-06  0.00D+00 EMaxC= 1.00D-01 BMatC= 6.97D-10 BMatP= 1.25D-09
 IDIUse=1 WtCom= 1.00D+00 WtEn= 0.00D+00
 Coeff-Com:  0.556D-05-0.149D-04-0.558D-04-0.110D-03-0.223D-04 0.681D-03
 Coeff-Com:  0.169D-01 0.306D-01 0.432D+00 0.520D+00
 Coeff:      0.556D-05-0.149D-04-0.558D-04-0.110D-03-0.223D-04 0.681D-03
 Coeff:      0.169D-01 0.306D-01 0.432D+00 0.520D+00
 Gap=     0.252 Goal=   None    Shift=    0.000
 RMSDP=5.95D-08 MaxDP=2.62D-06 DE=-4.36D-10 OVMax= 8.02D-06

 Cycle  11  Pass 1  IDiag  1:
 RMSU=  3.53D-08    CP:  9.83D-01  4.16D-01  9.98D-01  7.08D-01  8.31D-01
                    CP:  7.92D-01  8.64D-01  6.18D-01  1.02D+00  6.64D-01
 E= -870.661981297551     Delta-E=       -0.000000000555 Rises=F Damp=F
 DIIS: error= 2.81D-07 at cycle  11 NSaved=  11.
 NSaved=11 IEnMin=11 EnMin= -870.661981297551     IErMin=11 ErrMin= 2.81D-07
 ErrMax= 2.81D-07  0.00D+00 EMaxC= 1.00D-01 BMatC= 2.64D-11 BMatP= 6.97D-10
 IDIUse=1 WtCom= 1.00D+00 WtEn= 0.00D+00
 Coeff-Com: -0.122D-05 0.171D-05-0.334D-04-0.570D-04-0.317D-03-0.945D-03
 Coeff-Com: -0.210D-02 0.870D-03 0.145D+00 0.239D+00 0.618D+00
 Coeff:     -0.122D-05 0.171D-05-0.334D-04-0.570D-04-0.317D-03-0.945D-03
 Coeff:     -0.210D-02 0.870D-03 0.145D+00 0.239D+00 0.618D+00
 Gap=     0.252 Goal=   None    Shift=    0.000
 RMSDP=1.45D-08 MaxDP=9.27D-07 DE=-5.55D-10 OVMax= 1.80D-06

 Cycle  12  Pass 1  IDiag  1:
 RMSU=  1.22D-08    CP:  9.83D-01  4.16D-01  9.98D-01  7.08D-01  8.31D-01
                    CP:  7.92D-01  8.64D-01  6.19D-01  1.03D+00  6.94D-01
                    CP:  9.01D-01
 E= -870.661981297573     Delta-E=       -0.000000000021 Rises=F Damp=F
 DIIS: error= 1.02D-07 at cycle  12 NSaved=  12.
 NSaved=12 IEnMin=12 EnMin= -870.661981297573     IErMin=12 ErrMin= 1.02D-07
 ErrMax= 1.02D-07  0.00D+00 EMaxC= 1.00D-01 BMatC= 4.83D-12 BMatP= 2.64D-11
 IDIUse=1 WtCom= 1.00D+00 WtEn= 0.00D+00
 Coeff-Com: -0.125D-05 0.259D-05-0.135D-04-0.199D-04-0.151D-03-0.536D-03
 Coeff-Com: -0.246D-02-0.222D-02 0.261D-01 0.682D-01 0.345D+00 0.566D+00
 Coeff:     -0.125D-05 0.259D-05-0.135D-04-0.199D-04-0.151D-03-0.536D-03
 Coeff:     -0.246D-02-0.222D-02 0.261D-01 0.682D-01 0.345D+00 0.566D+00
 Gap=     0.252 Goal=   None    Shift=    0.000
 RMSDP=5.29D-09 MaxDP=2.89D-07 DE=-2.14D-11 OVMax= 7.97D-07

 Error on total polarization charges =  0.05289
 SCF Done:  E(RB3LYP) =  -870.661981298     A.U. after   12 cycles
            NFock= 12  Conv=0.53D-08     -V/T= 2.0029
 KE= 8.681704803957D+02 PE=-3.340846944197D+03 EE= 9.601167181391D+02
 SMD-CDS (non-electrostatic) energy       (kcal/mol) =       8.39
 (included in total energy above)
 Leave Link  502 at Sun Dec 11 17:58:28 2022, MaxMem=  6710886400 cpu:             436.1 elap:              18.6
 (Enter /data0/home/software/g16/l601.exe)
 Copying SCF densities to generalized density rwf, IOpCl= 0 IROHF=0.

 **********************************************************************

            Population analysis using the SCF density.

 **********************************************************************

 Orbital symmetries:
       Occupied  (A) (A) (A) (A) (A) (A) (A) (A) (A) (A) (A) (A)
                 (A) (A) (A) (A) (A) (A) (A) (A) (A) (A) (A) (A)
                 (A) (A) (A) (A) (A) (A) (A) (A) (A) (A) (A) (A)
                 (A) (A) (A) (A) (A) (A) (A)
       Virtual   (A) (A) (A) (A) (A) (A) (A) (A) (A) (A) (A) (A)
                 (A) (A) (A) (A) (A) (A) (A) (A) (A) (A) (A) (A)
                 (A) (A) (A) (A) (A) (A) (A) (A) (A) (A) (A) (A)
                 (A) (A) (A) (A) (A) (A) (A) (A) (A) (A) (A) (A)
                 (A) (A) (A) (A) (A) (A) (A) (A) (A) (A) (A) (A)
                 (A) (A) (A) (A) (A) (A) (A) (A) (A) (A) (A) (A)
                 (A) (A) (A) (A) (A) (A) (A) (A) (A) (A) (A) (A)
                 (A) (A) (A) (A) (A) (A) (A) (A) (A) (A) (A) (A)
                 (A) (A) (A) (A) (A) (A) (A) (A) (A) (A) (A) (A)
                 (A) (A) (A) (A) (A) (A) (A) (A) (A) (A) (A) (A)
                 (A) (A) (A) (A) (A) (A) (A) (A) (A) (A) (A) (A)
                 (A) (A) (A) (A) (A) (A) (A) (A) (A) (A) (A) (A)
                 (A) (A) (A) (A) (A) (A) (A) (A) (A) (A) (A) (A)
                 (A) (A) (A) (A) (A) (A) (A) (A) (A) (A) (A) (A)
                 (A) (A) (A) (A) (A) (A) (A) (A) (A) (A) (A) (A)
                 (A) (A) (A) (A) (A) (A) (A) (A) (A) (A) (A) (A)
                 (A) (A) (A) (A) (A) (A) (A) (A) (A) (A) (A) (A)
                 (A) (A) (A) (A) (A) (A) (A) (A) (A) (A) (A) (A)
                 (A) (A) (A) (A) (A) (A) (A) (A) (A) (A) (A) (A)
                 (A) (A) (A) (A) (A) (A) (A) (A) (A) (A) (A) (A)
                 (A) (A) (A) (A) (A) (A) (A) (A) (A) (A) (A) (A)
                 (A) (A) (A) (A) (A) (A) (A) (A) (A) (A) (A) (A)
                 (A) (A) (A) (A) (A) (A) (A) (A) (A) (A) (A) (A)
                 (A)
 The electronic state is 1-A.
 Alpha  occ. eigenvalues --  -77.16088 -19.14468 -19.14227 -19.08312 -19.07648
 Alpha  occ. eigenvalues --  -14.40116 -14.38730 -10.27113 -10.22649 -10.22452
 Alpha  occ. eigenvalues --   -6.63889  -4.80243  -4.80129  -4.79909  -1.07657
 Alpha  occ. eigenvalues --   -1.07244  -1.01999  -0.97436  -0.94482  -0.93180
 Alpha  occ. eigenvalues --   -0.79269  -0.67496  -0.64469  -0.61222  -0.60062
 Alpha  occ. eigenvalues --   -0.54051  -0.52544  -0.48087  -0.47491  -0.46910
 Alpha  occ. eigenvalues --   -0.46432  -0.45455  -0.43862  -0.41255  -0.39059
 Alpha  occ. eigenvalues --   -0.36478  -0.35411  -0.34506  -0.32952  -0.31094
 Alpha  occ. eigenvalues --   -0.29334  -0.27886  -0.27352
 Alpha virt. eigenvalues --   -0.02108  -0.00638   0.00912   0.01308   0.03015
 Alpha virt. eigenvalues --    0.03032   0.04122   0.04480   0.05437   0.05905
 Alpha virt. eigenvalues --    0.06542   0.07378   0.09197   0.09658   0.10681
 Alpha virt. eigenvalues --    0.11756   0.12589   0.13088   0.13213   0.14020
 Alpha virt. eigenvalues --    0.14528   0.15244   0.16237   0.16424   0.16884
 Alpha virt. eigenvalues --    0.17418   0.17831   0.18594   0.18852   0.19186
 Alpha virt. eigenvalues --    0.19945   0.20417   0.21037   0.21122   0.22353
 Alpha virt. eigenvalues --    0.22671   0.23174   0.24181   0.25168   0.25761
 Alpha virt. eigenvalues --    0.26275   0.26577   0.26960   0.27613   0.28216
 Alpha virt. eigenvalues --    0.28380   0.28912   0.29764   0.30135   0.31157
 Alpha virt. eigenvalues --    0.33580   0.34273   0.35623   0.36475   0.37778
 Alpha virt. eigenvalues --    0.38344   0.40254   0.40918   0.41414   0.43260
 Alpha virt. eigenvalues --    0.45085   0.46170   0.47412   0.49266   0.51191
 Alpha virt. eigenvalues --    0.53313   0.54580   0.55321   0.56971   0.58117
 Alpha virt. eigenvalues --    0.58575   0.60254   0.61612   0.62312   0.64144
 Alpha virt. eigenvalues --    0.66411   0.68617   0.70554   0.71662   0.72703
 Alpha virt. eigenvalues --    0.73195   0.74107   0.75144   0.75784   0.77822
 Alpha virt. eigenvalues --    0.80073   0.80875   0.82111   0.82290   0.83969
 Alpha virt. eigenvalues --    0.85154   0.88034   0.90298   0.91064   0.91519
 Alpha virt. eigenvalues --    0.95612   0.97364   0.99061   0.99635   1.02567
 Alpha virt. eigenvalues --    1.04585   1.06681   1.08246   1.10847   1.12175
 Alpha virt. eigenvalues --    1.13335   1.13482   1.15354   1.17433   1.18146
 Alpha virt. eigenvalues --    1.18756   1.21088   1.21830   1.23041   1.25114
 Alpha virt. eigenvalues --    1.27757   1.28855   1.30976   1.32525   1.33329
 Alpha virt. eigenvalues --    1.33994   1.35368   1.38098   1.38456   1.39996
 Alpha virt. eigenvalues --    1.40857   1.41905   1.42378   1.43110   1.44994
 Alpha virt. eigenvalues --    1.46472   1.51052   1.51228   1.55000   1.56390
 Alpha virt. eigenvalues --    1.57335   1.61654   1.63240   1.63674   1.66029
 Alpha virt. eigenvalues --    1.66414   1.67655   1.68559   1.69383   1.72310
 Alpha virt. eigenvalues --    1.73039   1.75016   1.77448   1.81796   1.83460
 Alpha virt. eigenvalues --    1.85284   1.85550   1.87781   1.90176   1.90987
 Alpha virt. eigenvalues --    1.92825   2.00278   2.02293   2.06611   2.10467
 Alpha virt. eigenvalues --    2.10909   2.13894   2.15177   2.16842   2.20072
 Alpha virt. eigenvalues --    2.22754   2.25961   2.28497   2.37541   2.39536
 Alpha virt. eigenvalues --    2.42456   2.45522   2.47716   2.50153   2.52482
 Alpha virt. eigenvalues --    2.58861   2.59447   2.65196   2.66080   2.69163
 Alpha virt. eigenvalues --    2.71354   2.73893   2.76425   2.79099   2.80097
 Alpha virt. eigenvalues --    2.81620   2.84399   2.86092   2.90173   2.91929
 Alpha virt. eigenvalues --    2.95211   3.04142   3.06459   3.09616   3.20492
 Alpha virt. eigenvalues --    3.22076   3.23936   3.26479   3.29430   3.33620
 Alpha virt. eigenvalues --    3.39019   3.41013   3.42178   3.46049   3.51323
 Alpha virt. eigenvalues --    3.58429   3.59911   3.65020   3.65813   3.69835
 Alpha virt. eigenvalues --    3.71470   3.86679   3.90556   3.91705   3.99249
 Alpha virt. eigenvalues --    4.01536   4.53954   4.86248   4.87205   4.91802
 Alpha virt. eigenvalues --    4.94534   4.96558   4.96838   4.97425   4.99968
 Alpha virt. eigenvalues --    5.00558   5.00963   5.03984   5.04110   5.08750
 Alpha virt. eigenvalues --    5.11134   5.13687   5.13871   5.22494   5.27476
 Alpha virt. eigenvalues --    5.29407   5.31288   5.42157   5.53683   5.56967
 Alpha virt. eigenvalues --    5.60954   5.66873   5.80698   6.75375   6.75800
 Alpha virt. eigenvalues --    6.76676   6.79749   6.81963   6.82290   6.84451
 Alpha virt. eigenvalues --    6.86523   6.90625   6.96517   6.98577   7.00976
 Alpha virt. eigenvalues --    7.03999   7.08718   7.10935   7.25527   7.29529
 Alpha virt. eigenvalues --    7.33775   7.40396   7.43345   7.59734  14.06127
 Alpha virt. eigenvalues --   14.14374  14.18618  23.82134  24.07788  24.15678
 Alpha virt. eigenvalues --   35.54255  35.59991  49.93782  49.94980  49.98021
 Alpha virt. eigenvalues --   50.00598 163.61476
          Condensed to atoms (all electrons):
               1          2          3          4          5          6
     1  C    5.355171   0.078146  -0.107078   0.394558  -0.041950   0.425755
     2  C    0.078146   5.450522  -0.069059  -0.075301   0.019407  -0.045970
     3  C   -0.107078  -0.069059   4.899640   0.377357  -0.032593   0.007177
     4  N    0.394558  -0.075301   0.377357   6.193832   0.374845  -0.029596
     5  H   -0.041950   0.019407  -0.032593   0.374845   0.316746  -0.003088
     6  H    0.425755  -0.045970   0.007177  -0.029596  -0.003088   0.457191
     7  H   -0.052063   0.436182   0.007003   0.008342  -0.000068  -0.001415
     8  H    0.006865   0.007811   0.411664  -0.027339  -0.002293  -0.000058
     9  N    0.033522   0.221228   0.347501   0.015188   0.001245   0.009209
    10  P   -0.002112   0.003079  -0.003935   0.000221   0.000028   0.000006
    11  O    0.008331  -0.010998   0.017884  -0.000470  -0.000042  -0.000001
    12  O   -0.011645   0.020712  -0.009265   0.003117   0.000004   0.000016
    13  H    0.013647  -0.033743  -0.033536   0.003937  -0.000022  -0.000065
    14  O   -0.000175   0.000017  -0.000268   0.000003   0.000000   0.000000
    15  H   -0.000001   0.000101  -0.000204   0.000001  -0.000000  -0.000000
    16  O   -0.000930   0.001032   0.000230   0.000124   0.000000   0.000000
    17  H    0.000044   0.000049  -0.000075   0.000019  -0.000000  -0.000000
               7          8          9         10         11         12
     1  C   -0.052063   0.006865   0.033522  -0.002112   0.008331  -0.011645
     2  C    0.436182   0.007811   0.221228   0.003079  -0.010998   0.020712
     3  C    0.007003   0.411664   0.347501  -0.003935   0.017884  -0.009265
     4  N    0.008342  -0.027339   0.015188   0.000221  -0.000470   0.003117
     5  H   -0.000068  -0.002293   0.001245   0.000028  -0.000042   0.000004
     6  H   -0.001415  -0.000058   0.009209   0.000006  -0.000001   0.000016
     7  H    0.462267  -0.000066  -0.034861   0.000014  -0.000012   0.000726
     8  H   -0.000066   0.422752  -0.034846  -0.000717   0.000210   0.000872
     9  N   -0.034861  -0.034846   6.453680  -0.014350  -0.016385  -0.002821
    10  P    0.000014  -0.000717  -0.014350  12.163960   0.473798   0.380962
    11  O   -0.000012   0.000210  -0.016385   0.473798   8.541746  -0.056845
    12  O    0.000726   0.000872  -0.002821   0.380962  -0.056845   8.605118
    13  H   -0.002729  -0.001112   0.314574   0.007421   0.005969   0.009816
    14  O    0.000011   0.000042  -0.003159   0.207265  -0.023545   0.008702
    15  H    0.000000  -0.000001   0.000571   0.013297   0.004555  -0.010458
    16  O    0.000016   0.000011  -0.000626   0.203724  -0.008716   0.010932
    17  H    0.000002   0.000001  -0.000380   0.002347  -0.004824  -0.008010
              13         14         15         16         17
     1  C    0.013647  -0.000175  -0.000001  -0.000930   0.000044
     2  C   -0.033743   0.000017   0.000101   0.001032   0.000049
     3  C   -0.033536  -0.000268  -0.000204   0.000230  -0.000075
     4  N    0.003937   0.000003   0.000001   0.000124   0.000019
     5  H   -0.000022   0.000000  -0.000000   0.000000  -0.000000
     6  H   -0.000065   0.000000  -0.000000   0.000000  -0.000000
     7  H   -0.002729   0.000011   0.000000   0.000016   0.000002
     8  H   -0.001112   0.000042  -0.000001   0.000011   0.000001
     9  N    0.314574  -0.003159   0.000571  -0.000626  -0.000380
    10  P    0.007421   0.207265   0.013297   0.203724   0.002347
    11  O    0.005969  -0.023545   0.004555  -0.008716  -0.004824
    12  O    0.009816   0.008702  -0.010458   0.010932  -0.008010
    13  H    0.308516  -0.000557  -0.000482   0.001063   0.000180
    14  O   -0.000557   8.149316   0.277696   0.005590   0.002518
    15  H   -0.000482   0.277696   0.387345  -0.009138   0.001059
    16  O    0.001063   0.005590  -0.009138   8.174659   0.278862
    17  H    0.000180   0.002518   0.001059   0.278862   0.380702
 Mulliken charges:
               1
     1  C   -0.100085
     2  C   -0.003215
     3  C    0.187558
     4  N   -0.238838
     5  H    0.367780
     6  H    0.180838
     7  H    0.176651
     8  H    0.216204
     9  N   -0.289292
    10  P    1.564991
    11  O   -0.930656
    12  O   -0.941932
    13  H    0.407123
    14  O   -0.623459
    15  H    0.335659
    16  O   -0.656834
    17  H    0.347505
 Sum of Mulliken charges =  -0.00000
 Mulliken charges with hydrogens summed into heavy atoms:
               1
     1  C    0.080753
     2  C    0.173435
     3  C    0.403763
     4  N    0.128942
     9  N    0.117832
    10  P    1.564991
    11  O   -0.930656
    12  O   -0.941932
    14  O   -0.287799
    16  O   -0.309328
 Electronic spatial extent (au):  <R**2>=           2449.1847
 Charge=             -0.0000 electrons
 Dipole moment (field-independent basis, Debye):
    X=            -16.8271    Y=             -2.3110    Z=             -0.0313  Tot=             16.9851
 Quadrupole moment (field-independent basis, Debye-Ang):
   XX=            -35.0459   YY=            -63.5575   ZZ=            -62.4760
   XY=            -18.1990   XZ=             -4.1184   YZ=             -1.2110
 Traceless Quadrupole moment (field-independent basis, Debye-Ang):
   XX=             18.6472   YY=             -9.8643   ZZ=             -8.7829
   XY=            -18.1990   XZ=             -4.1184   YZ=             -1.2110
 Octapole moment (field-independent basis, Debye-Ang**2):
  XXX=           -214.1974  YYY=             -6.2922  ZZZ=              7.8265  XYY=            -40.7162
  XXY=             -2.3711  XXZ=              1.6842  XZZ=             19.8726  YZZ=            -11.1003
  YYZ=             -2.2789  XYZ=              0.3566
 Hexadecapole moment (field-independent basis, Debye-Ang**3):
 XXXX=          -1891.3220 YYYY=           -319.7975 ZZZZ=           -166.8923 XXXY=           -186.4337
 XXXZ=           -129.2739 YYYX=            -60.5409 YYYZ=             -5.8546 ZZZX=             10.7869
 ZZZY=             -7.3389 XXYY=           -388.9161 XXZZ=           -455.3352 YYZZ=            -86.4059
 XXYZ=             28.6960 YYXZ=             -9.8455 ZZXY=            -41.7380
 N-N= 6.418977643642D+02 E-N=-3.340846947964D+03  KE= 8.681704803957D+02
 No NMR shielding tensors so no spin-rotation constants.
 Leave Link  601 at Sun Dec 11 17:58:28 2022, MaxMem=  6710886400 cpu:               2.9 elap:               0.2
 (Enter /data0/home/software/g16/l701.exe)
 ... and contract with generalized density number  0.
 Compute integral first derivatives.
 D1PCM: PCM CHGder 1st derivatives, ID1Alg=3 FixD1E=F DoIter=F DoCFld=F I1PDM=0.
 GePol: Maximum number of non-zero 1st derivatives   =     236
 Leave Link  701 at Sun Dec 11 17:58:29 2022, MaxMem=  6710886400 cpu:              15.7 elap:               0.7
 (Enter /data0/home/software/g16/l702.exe)
 L702 exits ... SP integral derivatives will be done elsewhere.
 Leave Link  702 at Sun Dec 11 17:58:29 2022, MaxMem=  6710886400 cpu:               0.4 elap:               0.0
 (Enter /data0/home/software/g16/l703.exe)
 Integral derivatives from FoFJK, PRISM(SPDF).
 Compute integral first derivatives, UseDBF=F ICtDFT=           0.
 Calling FoFJK, ICntrl=      2127 FMM=F ISym2X=0 I1Cent= 0 IOpClX= 0 NMat=1 NMatS=1 NMatT=0.
 FoFJK:  IHMeth= 1 ICntrl=    2127 DoSepK=F KAlg= 0 I1Cent=           0 FoldK=F
 IRaf=         0 NMat=       1 IRICut=       1 DoRegI=T DoRafI=F ISym2E= 0 IDoP0=0 IntGTp=1.
 FoFCou: FMM=F IPFlag=           0 FMFlag=      100000 FMFlg1=         800
         NFxFlg=           0 DoJE=F BraDBF=F KetDBF=F FulRan=T
         wScrn=  0.000000 ICntrl=      2127 IOpCl=  0 I1Cent=           0 NGrid=           0
         NMat0=    1 NMatS0=      1 NMatT0=    0 NMatD0=    1 NMtDS0=    0 NMtDT0=    0
 Symmetry not used in FoFCou.
 Leave Link  703 at Sun Dec 11 17:58:32 2022, MaxMem=  6710886400 cpu:              85.9 elap:               3.6
 (Enter /data0/home/software/g16/l716.exe)
 Dipole        =-6.62030013D+00-9.09225005D-01-1.23314622D-02
 ***** Axes restored to original set *****
 -------------------------------------------------------------------
 Center     Atomic                   Forces (Hartrees/Bohr)
 Number     Number              X              Y              Z
 -------------------------------------------------------------------
      1        6          -0.000680605    0.000840380   -0.000411990
      2        6          -0.002687160   -0.001983705    0.000965528
      3        6           0.003377292   -0.000987435    0.000044741
      4        7           0.000867682    0.001238761   -0.000632423
      5        1           0.000114204    0.000025171   -0.000489123
      6        1          -0.000065885   -0.000025962   -0.000313543
      7        1           0.000162800   -0.000172323    0.000215086
      8        1          -0.000080176   -0.000166361    0.000457814
      9        7          -0.009721006    0.006760710    0.014878059
     10       15           0.000296246   -0.000814410    0.000660572
     11        8           0.000144410    0.000174491    0.000082026
     12        8          -0.004898572    0.000183966    0.002818045
     13        1           0.013928652   -0.005190452   -0.018121778
     14        8          -0.000695532    0.000291628    0.000271715
     15        1           0.000096273   -0.000038274   -0.000065975
     16        8           0.000017599    0.000059993   -0.000242935
     17        1          -0.000176222   -0.000196179   -0.000115818
 -------------------------------------------------------------------
 Cartesian Forces:  Max     0.018121778 RMS     0.004370420
 Leave Link  716 at Sun Dec 11 17:58:32 2022, MaxMem=  6710886400 cpu:               0.5 elap:               0.0
 (Enter /data0/home/software/g16/l103.exe)

 GradGradGradGradGradGradGradGradGradGradGradGradGradGradGradGradGradGrad
 Berny optimization.
 FormGI is forming the generalized inverse of G from B-inverse, IUseBI=4.
 Internal  Forces:  Max     0.016346650 RMS     0.002573012
 Search for a local minimum.
 Step number   1 out of a maximum of   84
 All quantities printed in internal units (Hartrees-Bohrs-Radians)
 RMS Force = .25730D-02 SwitMx=.10000D-02 MixMth= 1
 Mixed Optimization -- RFO/linear search
 Second derivative matrix not updated -- first step.
 ITU=  0
     Eigenvalues ---    0.00230   0.00230   0.01866   0.02184   0.02236
     Eigenvalues ---    0.02305   0.02454   0.02487   0.02622   0.03040
     Eigenvalues ---    0.03182   0.04555   0.07891   0.12244   0.13368
     Eigenvalues ---    0.15832   0.15956   0.16000   0.16000   0.16000
     Eigenvalues ---    0.16000   0.16000   0.16000   0.16000   0.21182
     Eigenvalues ---    0.21979   0.22000   0.22342   0.25000   0.36485
     Eigenvalues ---    0.36548   0.36574   0.37553   0.43488   0.45574
     Eigenvalues ---    0.46131   0.46883   0.47991   0.50261   0.53572
     Eigenvalues ---    0.53610   0.56783   0.58247   0.72318   0.77505
 RFO step:  Lambda=-2.60141003D-03 EMin= 2.30000000D-03
 Linear search not attempted -- first point.
 Iteration  1 RMS(Cart)=  0.09799727 RMS(Int)=  0.00303414
 Iteration  2 RMS(Cart)=  0.00622641 RMS(Int)=  0.00025285
 Iteration  3 RMS(Cart)=  0.00001612 RMS(Int)=  0.00025269
 Iteration  4 RMS(Cart)=  0.00000001 RMS(Int)=  0.00025269
 ITry= 1 IFail=0 DXMaxC= 2.75D-01 DCOld= 1.00D+10 DXMaxT= 3.00D-01 DXLimC= 3.00D+00 Rises=F
 Variable       Old X    -DE/DX   Delta X   Delta X   Delta X     New X
                                 (Linear)    (Quad)   (Total)
    R1        2.56590   0.00046   0.00000   0.00074   0.00072   2.56663
    R2        2.60590  -0.00015   0.00000  -0.00023  -0.00025   2.60565
    R3        2.03194   0.00001   0.00000   0.00002   0.00002   2.03196
    R4        2.03234   0.00007   0.00000   0.00019   0.00019   2.03253
    R5        2.60551  -0.00101   0.00000  -0.00217  -0.00215   2.60336
    R6        2.51872   0.00018   0.00000   0.00045   0.00044   2.51916
    R7        2.03330   0.00004   0.00000   0.00012   0.00012   2.03342
    R8        2.50705   0.00138   0.00000   0.00231   0.00232   2.50937
    R9        1.91315   0.00002   0.00000   0.00004   0.00004   1.91319
   R10        2.01720  -0.00998   0.00000  -0.02640  -0.02640   1.99081
   R11        2.82990   0.00021   0.00000   0.00028   0.00028   2.83017
   R12        2.86044  -0.00014   0.00000  -0.00020  -0.00020   2.86025
   R13        3.05649   0.00051   0.00000   0.00105   0.00105   3.05754
   R14        3.07684   0.00040   0.00000   0.00086   0.00086   3.07770
   R15        3.15292   0.00354   0.00000   0.04343   0.04343   3.19635
   R16        1.83123   0.00001   0.00000   0.00002   0.00002   1.83125
   R17        1.83088   0.00002   0.00000   0.00003   0.00003   1.83092
    A1        1.85642   0.00075   0.00000   0.00305   0.00300   1.85942
    A2        2.29336  -0.00050   0.00000  -0.00229  -0.00227   2.29108
    A3        2.13341  -0.00025   0.00000  -0.00075  -0.00073   2.13268
    A4        2.28211  -0.00016   0.00000  -0.00059  -0.00070   2.28141
    A5        1.86991   0.00001   0.00000  -0.00071  -0.00083   1.86908
    A6        2.13116   0.00015   0.00000   0.00132   0.00118   2.13235
    A7        2.19499  -0.00013   0.00000  -0.00044  -0.00057   2.19442
    A8        1.88630   0.00051   0.00000   0.00248   0.00234   1.88864
    A9        2.20190  -0.00039   0.00000  -0.00203  -0.00213   2.19977
   A10        1.90855  -0.00090   0.00000  -0.00380  -0.00384   1.90471
   A11        2.19908   0.00026   0.00000   0.00070   0.00072   2.19980
   A12        2.17556   0.00065   0.00000   0.00310   0.00312   2.17867
   A13        1.90359  -0.00037   0.00000  -0.00107  -0.00126   1.90234
   A14        2.26058  -0.00649   0.00000  -0.03927  -0.03961   2.22097
   A15        2.11228   0.00694   0.00000   0.04451   0.04440   2.15667
   A16        2.06824  -0.00029   0.00000  -0.00140  -0.00140   2.06684
   A17        1.86313  -0.00015   0.00000  -0.00050  -0.00050   1.86263
   A18        1.94205   0.00020   0.00000   0.00038   0.00038   1.94243
   A19        1.93207   0.00077   0.00000   0.00398   0.00398   1.93606
   A20        1.89494  -0.00017   0.00000  -0.00094  -0.00094   1.89400
   A21        1.73402  -0.00035   0.00000  -0.00139  -0.00139   1.73263
   A22        2.04123   0.00039   0.00000   0.00242   0.00242   2.04366
   A23        2.59949   0.01635   0.00000   0.06471   0.06471   2.66420
   A24        1.96324  -0.00022   0.00000  -0.00138  -0.00138   1.96186
   A25        1.95238   0.00042   0.00000   0.00260   0.00260   1.95498
    D1       -3.14011  -0.00051   0.00000  -0.01231  -0.01193   3.13115
    D2        0.00072   0.00042   0.00000   0.01711   0.01723   0.01795
    D3        0.00154  -0.00029   0.00000  -0.00761  -0.00740  -0.00587
    D4       -3.14081   0.00064   0.00000   0.02181   0.02175  -3.11906
    D5        0.00031   0.00014   0.00000   0.00116   0.00101   0.00132
    D6        3.14129   0.00012   0.00000   0.00519   0.00520  -3.13669
    D7       -3.14134  -0.00005   0.00000  -0.00301  -0.00300   3.13884
    D8       -0.00035  -0.00007   0.00000   0.00102   0.00118   0.00083
    D9       -0.00151  -0.00085   0.00000  -0.02983  -0.02983  -0.03134
   D10       -3.01727  -0.00218   0.00000  -0.07241  -0.07137  -3.08865
   D11        3.13940  -0.00001   0.00000  -0.00353  -0.00372   3.13568
   D12        0.12364  -0.00135   0.00000  -0.04611  -0.04526   0.07838
   D13        3.14020  -0.00004   0.00000   0.00755   0.00795  -3.13503
   D14       -0.00079  -0.00002   0.00000   0.00360   0.00383   0.00303
   D15       -0.00125  -0.00067   0.00000  -0.01977  -0.01965  -0.02090
   D16        3.14093  -0.00065   0.00000  -0.02373  -0.02377   3.11716
   D17        0.00171   0.00094   0.00000   0.03061   0.03059   0.03229
   D18        3.03009   0.00105   0.00000   0.06215   0.06329   3.09338
   D19       -3.13975   0.00031   0.00000   0.00314   0.00288  -3.13687
   D20       -0.11137   0.00042   0.00000   0.03469   0.03558  -0.07579
   D21       -1.08188   0.00037   0.00000   0.00911   0.00908  -1.07280
   D22        2.19858  -0.00050   0.00000  -0.03414  -0.03410   2.16448
   D23        0.27847   0.00013   0.00000   0.00127   0.00127   0.27974
   D24       -1.88158  -0.00012   0.00000  -0.00049  -0.00049  -1.88207
   D25        2.51538   0.00001   0.00000  -0.00028  -0.00028   2.51510
   D26       -3.00531   0.00000   0.00000   0.00011   0.00011  -3.00521
   D27       -0.73161   0.00007   0.00000   0.00078   0.00078  -0.73084
   D28        1.25867  -0.00002   0.00000   0.00043   0.00043   1.25910
   D29        1.43985   0.00006   0.00000   0.00239   0.00239   1.44224
   D30       -0.86652   0.00043   0.00000   0.00475   0.00475  -0.86177
   D31       -2.88541  -0.00021   0.00000   0.00128   0.00128  -2.88413
   D32       -2.00739  -0.00070   0.00000  -0.14368  -0.14368  -2.15107
         Item               Value     Threshold  Converged?
 Maximum Force            0.016347     0.000450     NO 
 RMS     Force            0.002573     0.000300     NO 
 Maximum Displacement     0.275092     0.001800     NO 
 RMS     Displacement     0.101099     0.001200     NO 
 Predicted change in Energy=-1.361380D-03
 Lowest energy point so far.  Saving SCF results.
 GradGradGradGradGradGradGradGradGradGradGradGradGradGradGradGradGradGrad

 Leave Link  103 at Sun Dec 11 17:58:32 2022, MaxMem=  6710886400 cpu:               0.6 elap:               0.1
 (Enter /data0/home/software/g16/l202.exe)
                          Input orientation:                          
 ---------------------------------------------------------------------
 Center     Atomic      Atomic             Coordinates (Angstroms)
 Number     Number       Type             X           Y           Z
 ---------------------------------------------------------------------
      1          6           0        3.873853   -0.589533   -0.592477
      2          6           0        2.675077   -1.226456   -0.636892
      3          6           0        2.295507    0.873661   -0.091396
      4          7           0        3.610066    0.720035   -0.250906
      5          1           0        4.295989    1.456302   -0.139524
      6          1           0        4.872596   -0.944231   -0.773862
      7          1           0        2.431395   -2.247604   -0.870819
      8          1           0        1.797269    1.790588    0.171016
      9          7           0        1.707864   -0.289692   -0.345578
     10         15           0       -1.956663    0.097309   -0.776534
     11          8           0       -1.601472    1.530514   -0.526023
     12          8           0       -0.837827   -0.919035   -0.855046
     13          1           0        0.671241   -0.451697   -0.250672
     14          8           0       -3.037243   -0.318858    0.353520
     15          1           0       -3.235172   -1.267436    0.343788
     16          8           0       -2.890224   -0.057672   -2.102034
     17          1           0       -2.365359   -0.071094   -2.916321
 ---------------------------------------------------------------------
                    Distance matrix (angstroms):
                    1          2          3          4          5
     1  C    0.000000
     2  C    1.358200   0.000000
     3  C    2.209795   2.202756   0.000000
     4  N    1.378849   2.193631   1.333082   0.000000
     5  H    2.137477   3.173630   2.084158   1.012416   0.000000
     6  H    1.075267   2.219798   3.226744   2.153427   2.549004
     7  H    2.215256   1.075568   3.219979   3.252759   4.210751
     8  H    3.249630   3.244352   1.076037   2.147169   2.540036
     9  N    2.200539   1.377641   1.327902   2.155663   3.128793
    10  P    5.873717   4.819219   4.376424   5.626059   6.430265
    11  O    5.871813   5.089405   3.975777   5.281353   5.910578
    12  O    4.730480   3.533071   3.689811   4.778628   5.701778
    13  H    3.223748   2.182836   2.102423   3.163802   4.097757
    14  O    6.980789   5.868155   5.482542   6.755097   7.561123
    15  H    7.202387   5.991198   5.946604   7.152691   8.023138
    16  O    6.950854   5.872417   5.639314   6.803328   7.601660
    17  H    6.678083   5.651252   5.531404   6.590601   7.376795
                    6          7          8          9         10
     6  H    0.000000
     7  H    2.769051   0.000000
     8  H    4.222519   4.218357   0.000000
     9  N    3.259966   2.152393   2.145327   0.000000
    10  P    6.908227   4.976200   4.225761   3.710020   0.000000
    11  O    6.935369   5.536883   3.479216   3.781192   1.497663
    12  O    5.711055   3.528903   3.916451   2.671361   1.513577
    13  H    4.262358   2.589982   2.544328   1.053489   2.735658
    14  O    8.014214   5.926640   5.277838   4.796418   1.617983
    15  H    8.190818   5.877583   5.891250   5.085746   2.179962
    16  O    7.925365   5.884839   5.527695   4.927615   1.628651
    17  H    7.598716   5.650674   5.506812   4.821581   2.184966
                   11         12         13         14         15
    11  O    0.000000
    12  O    2.586832   0.000000
    13  H    3.028235   1.691437   0.000000
    14  O    2.501042   2.580363   3.759727   0.000000
    15  H    3.354710   2.702934   4.034709   0.969057   0.000000
    16  O    2.582059   2.551325   4.033217   2.473778   2.750375
    17  H    2.976944   2.702075   4.058507   3.347338   3.579961
                   16         17
    16  O    0.000000
    17  H    0.968879   0.000000
 Stoichiometry    C3H7N2O4P
 Framework group  C1[X(C3H7N2O4P)]
 Deg. of freedom    45
 Full point group                 C1      NOp   1
 RotChk:  IX=0 Diff= 1.06D-01
 Largest Abelian subgroup         C1      NOp   1
 Largest concise Abelian subgroup C1      NOp   1
                         Standard orientation:                         
 ---------------------------------------------------------------------
 Center     Atomic      Atomic             Coordinates (Angstroms)
 Number     Number       Type             X           Y           Z
 ---------------------------------------------------------------------
      1          6           0       -3.846600   -0.553517    0.126313
      2          6           0       -2.660444   -1.180038   -0.086320
      3          6           0       -2.282407    0.989941   -0.106562
      4          7           0       -3.583957    0.799990    0.110220
      5          1           0       -4.261929    1.539929    0.243754
      6          1           0       -4.835538   -0.943294    0.288405
      7          1           0       -2.419670   -2.226937   -0.139943
      8          1           0       -1.787669    1.943734   -0.164612
      9          7           0       -1.699941   -0.199443   -0.203626
     10         15           0        1.993436    0.066462    0.025535
     11          8           0        1.648222    1.515922    0.176821
     12          8           0        0.864208   -0.936775   -0.070764
     13          1           0       -0.676737   -0.331296   -0.416948
     14          8           0        2.977621   -0.046606   -1.253708
     15          1           0        3.157312   -0.966085   -1.501382
     16          8           0        3.020946   -0.421573    1.191103
     17          1           0        2.558703   -0.642871    2.013347
 ---------------------------------------------------------------------
 Rotational constants (GHZ):           3.0570387           0.4450982           0.4253638
 Leave Link  202 at Sun Dec 11 17:58:32 2022, MaxMem=  6710886400 cpu:               0.1 elap:               0.0
 (Enter /data0/home/software/g16/l301.exe)
 Standard basis: 6-311+G(2d,p) (5D, 7F)
 Ernie: Thresh=  0.10000D-02 Tol=  0.10000D-05 Strict=F.
 There are   340 symmetry adapted cartesian basis functions of A   symmetry.
 There are   320 symmetry adapted basis functions of A   symmetry.
   320 basis functions,   490 primitive gaussians,   340 cartesian basis functions
    43 alpha electrons       43 beta electrons
       nuclear repulsion energy       639.7002517846 Hartrees.
 IExCor=  402 DFT=T Ex+Corr=B3LYP ExCW=0 ScaHFX=  0.200000
 ScaDFX=  0.800000  0.720000  1.000000  0.810000 ScalE2=  1.000000  1.000000
 IRadAn=      5 IRanWt=     -1 IRanGd=            0 ICorTp=0 IEmpDi=  4
 NAtoms=   17 NActive=   17 NUniq=   17 SFac= 1.00D+00 NAtFMM=   60 NAOKFM=F Big=F
 Integral buffers will be    131072 words long.
 Raffenetti 2 integral format.
 Two-electron integral symmetry is turned on.
 ------------------------------------------------------------------------------
 Polarizable Continuum Model (PCM)
 =================================
 Model                : PCM.
 Atomic radii         : SMD-Coulomb.
 Polarization charges : Total charges.
 Charge compensation  : None.
 Solution method      : On-the-fly selection.
 Cavity type          : VdW (van der Waals Surface) (Alpha=1.000).
 Cavity algorithm     : GePol (No added spheres)
                        Default sphere list used, NSphG=   17.
                        Lebedev-Laikov grids with approx.  5.0 points / Ang**2.
                        Smoothing algorithm: York/Karplus (Gamma=1.0000).
                        Polarization charges: spherical gaussians, with
                                              point-specific exponents (IZeta= 3).
                        Self-potential: point-specific (ISelfS= 7).
                        Self-field    : sphere-specific E.n sum rule (ISelfD= 2).
 1st derivatives      : Analytical E(r).r(x)/FMM algorithm (CHGder, D1EAlg=3).
                        Cavity 1st derivative terms included.
 Solvent              : Water, Eps=  78.355300 Eps(inf)=   1.777849
 ------------------------------------------------------------------------------
 Spheres list:
 ISph  on   Nord     Re0    Alpha      Xe            Ye            Ze
    1   C      1    1.8500  1.000     -3.846600     -0.553517      0.126313
    2   C      2    1.8500  1.000     -2.660444     -1.180038     -0.086320
    3   C      3    1.8500  1.000     -2.282407      0.989941     -0.106562
    4   N      4    1.8900  1.000     -3.583957      0.799990      0.110220
    5   H      5    1.2000  1.000     -4.261929      1.539929      0.243754
    6   H      6    1.2000  1.000     -4.835538     -0.943294      0.288405
    7   H      7    1.2000  1.000     -2.419670     -2.226937     -0.139943
    8   H      8    1.2000  1.000     -1.787669      1.943734     -0.164612
    9   N      9    1.8900  1.000     -1.699941     -0.199443     -0.203626
   10   P     10    2.1200  1.000      1.993436      0.066462      0.025535
   11   O     11    1.5200  1.000      1.648222      1.515922      0.176821
   12   O     12    1.5200  1.000      0.864208     -0.936775     -0.070764
   13   H     13    1.2000  1.000     -0.676737     -0.331296     -0.416948
   14   O     14    1.5200  1.000      2.977621     -0.046606     -1.253708
   15   H     15    1.2000  1.000      3.157312     -0.966085     -1.501382
   16   O     16    1.5200  1.000      3.020946     -0.421573      1.191103
   17   H     17    1.2000  1.000      2.558703     -0.642871      2.013347
 ------------------------------------------------------------------------------
 GePol: Number of generator spheres                  =      17
 GePol: Total number of spheres                      =      17
 GePol: Number of exposed spheres                    =      17 (100.00%)
 GePol: Number of points                             =    1378
 GePol: Average weight of points                     =       0.13
 GePol: Minimum weight of points                     =   0.11D-06
 GePol: Maximum weight of points                     =    0.21991
 GePol: Number of points with low weight             =      51
 GePol: Fraction of low-weight points (<1% of avg)   =       3.70%
 GePol: Cavity surface area                          =    177.027 Ang**2
 GePol: Cavity volume                                =    142.820 Ang**3
 ------------------------------------------------------------------------------
 Atomic radii for non-electrostatic terms: SMD-CDS.
 ------------------------------------------------------------------------------
 PCM non-electrostatic energy =         0.0134189614 Hartrees.
 Nuclear repulsion after PCM non-electrostatic terms =      639.7136707460 Hartrees.
 Leave Link  301 at Sun Dec 11 17:58:32 2022, MaxMem=  6710886400 cpu:               1.6 elap:               0.1
 (Enter /data0/home/software/g16/l302.exe)
 NPDir=0 NMtPBC=     1 NCelOv=     1 NCel=       1 NClECP=     1 NCelD=      1
         NCelK=      1 NCelE2=     1 NClLst=     1 CellRange=     0.0.
 One-electron integrals computed using PRISM.
 One-electron integral symmetry used in STVInt
 NBasis=   320 RedAO= T EigKep=  3.47D-05  NBF=   320
 NBsUse=   320 1.00D-06 EigRej= -1.00D+00 NBFU=   320
 Precomputing XC quadrature grid using
 IXCGrd= 4 IRadAn=           5 IRanWt=          -1 IRanGd=           0 AccXCQ= 0.00D+00.
 Generated NRdTot=       0 NPtTot=           0 NUsed=           0 NTot=          32
 NSgBfM=   340   340   340   340   340 MxSgAt=    17 MxSgA2=    17.
 Leave Link  302 at Sun Dec 11 17:58:33 2022, MaxMem=  6710886400 cpu:               5.0 elap:               0.2
 (Enter /data0/home/software/g16/l303.exe)
 DipDrv:  MaxL=1.
 Leave Link  303 at Sun Dec 11 17:58:33 2022, MaxMem=  6710886400 cpu:               0.7 elap:               0.0
 (Enter /data0/home/software/g16/l401.exe)
 Initial guess from the checkpoint file:  "/data0/home/software/g16/scratch/Gau-1517809.chk"
 B after Tr=     0.000000    0.000000    0.000000
         Rot=    0.998731    0.050333   -0.001526    0.000006 Ang=   5.77 deg.
 Guess basis will be translated and rotated to current coordinates.
 JPrj=2 DoOrth=T DoCkMO=T.
 Generating alternative initial guess.
 ExpMin= 3.48D-02 ExpMax= 7.75D+04 ExpMxC= 2.65D+03 IAcc=3 IRadAn=         5 AccDes= 0.00D+00
 Harris functional with IExCor=  402 and IRadAn=       5 diagonalized for initial guess.
 HarFok:  IExCor=  402 AccDes= 0.00D+00 IRadAn=         5 IDoV= 1 UseB2=F ITyADJ=14
 ICtDFT=  3500011 ScaDFX=  1.000000  1.000000  1.000000  1.000000
 FoFCou: FMM=F IPFlag=           0 FMFlag=      100000 FMFlg1=           0
         NFxFlg=           0 DoJE=T BraDBF=F KetDBF=T FulRan=T
         wScrn=  0.000000 ICntrl=       500 IOpCl=  0 I1Cent=   200000004 NGrid=           0
         NMat0=    1 NMatS0=      1 NMatT0=    0 NMatD0=    1 NMtDS0=    0 NMtDT0=    0
 Petite list used in FoFCou.
 Harris En= -870.710578333825    
 Leave Link  401 at Sun Dec 11 17:58:34 2022, MaxMem=  6710886400 cpu:              19.1 elap:               0.8
 (Enter /data0/home/software/g16/l502.exe)
 Integral symmetry usage will be decided dynamically.
 Closed shell SCF:
 Using DIIS extrapolation, IDIIS=  1040.
 NGot=  6710886400 LenX=  6710643876 LenY=  6710527835
 Requested convergence on RMS density matrix=1.00D-08 within 128 cycles.
 Requested convergence on MAX density matrix=1.00D-06.
 Requested convergence on             energy=1.00D-06.
 No special actions if energy rises.
 Fock matrices will be formed incrementally for  20 cycles.

 Cycle   1  Pass 1  IDiag  1:
 FoFJK:  IHMeth= 1 ICntrl=       0 DoSepK=F KAlg= 0 I1Cent=           0 FoldK=F
 IRaf= 860000000 NMat=       1 IRICut=       1 DoRegI=T DoRafI=F ISym2E= 0 IDoP0=0 IntGTp=1.
 FoFCou: FMM=F IPFlag=           0 FMFlag=      100000 FMFlg1=           0
         NFxFlg=           0 DoJE=F BraDBF=F KetDBF=F FulRan=T
         wScrn=  0.000000 ICntrl=         0 IOpCl=  0 I1Cent=           0 NGrid=           0
         NMat0=    1 NMatS0=      1 NMatT0=    0 NMatD0=    1 NMtDS0=    0 NMtDT0=    0
 Symmetry not used in FoFCou.
 Inv3:  Mode=1 IEnd=     5696652.
 Iteration    1 A*A^-1 deviation from unit magnitude is 4.00D-15 for    406.
 Iteration    1 A*A^-1 deviation from orthogonality  is 2.43D-15 for   1367    402.
 Iteration    1 A^-1*A deviation from unit magnitude is 4.44D-15 for    406.
 Iteration    1 A^-1*A deviation from orthogonality  is 2.94D-15 for   1171    952.
 E= -870.641908583839    
 DIIS: error= 8.10D-03 at cycle   1 NSaved=   1.
 NSaved= 1 IEnMin= 1 EnMin= -870.641908583839     IErMin= 1 ErrMin= 8.10D-03
 ErrMax= 8.10D-03  0.00D+00 EMaxC= 1.00D-01 BMatC= 1.42D-02 BMatP= 1.42D-02
 IDIUse=3 WtCom= 9.19D-01 WtEn= 8.10D-02
 Coeff-Com:  0.100D+01
 Coeff-En:   0.100D+01
 Coeff:      0.100D+01
 Gap=     0.460 Goal=   None    Shift=    0.000
 GapD=    0.460 DampG=2.000 DampE=1.000 DampFc=2.0000 IDamp=-1.
 RMSDP=5.93D-04 MaxDP=2.31D-02              OVMax= 3.83D-02

 Cycle   2  Pass 1  IDiag  1:
 RMSU=  5.90D-04    CP:  9.95D-01
 E= -870.663633145480     Delta-E=       -0.021724561641 Rises=F Damp=F
 DIIS: error= 1.04D-03 at cycle   2 NSaved=   2.
 NSaved= 2 IEnMin= 2 EnMin= -870.663633145480     IErMin= 2 ErrMin= 1.04D-03
 ErrMax= 1.04D-03  0.00D+00 EMaxC= 1.00D-01 BMatC= 1.45D-04 BMatP= 1.42D-02
 IDIUse=3 WtCom= 9.90D-01 WtEn= 1.04D-02
 Coeff-Com: -0.564D-01 0.106D+01
 Coeff-En:   0.000D+00 0.100D+01
 Coeff:     -0.558D-01 0.106D+01
 Gap=     0.252 Goal=   None    Shift=    0.000
 RMSDP=6.92D-05 MaxDP=1.79D-03 DE=-2.17D-02 OVMax= 5.54D-03

 Cycle   3  Pass 1  IDiag  1:
 RMSU=  5.81D-05    CP:  9.94D-01  1.06D+00
 E= -870.663795574580     Delta-E=       -0.000162429101 Rises=F Damp=F
 DIIS: error= 6.11D-04 at cycle   3 NSaved=   3.
 NSaved= 3 IEnMin= 3 EnMin= -870.663795574580     IErMin= 3 ErrMin= 6.11D-04
 ErrMax= 6.11D-04  0.00D+00 EMaxC= 1.00D-01 BMatC= 1.65D-04 BMatP= 1.45D-04
 IDIUse=3 WtCom= 2.88D-01 WtEn= 7.12D-01
 Coeff-Com: -0.380D-01 0.601D+00 0.437D+00
 Coeff-En:   0.000D+00 0.000D+00 0.100D+01
 Coeff:     -0.109D-01 0.173D+00 0.838D+00
 Gap=     0.252 Goal=   None    Shift=    0.000
 RMSDP=5.09D-05 MaxDP=2.24D-03 DE=-1.62D-04 OVMax= 7.12D-03

 Cycle   4  Pass 1  IDiag  1:
 RMSU=  4.28D-05    CP:  9.95D-01  1.06D+00  5.28D-01
 E= -870.663707503704     Delta-E=        0.000088070876 Rises=F Damp=F
 DIIS: error= 9.12D-04 at cycle   4 NSaved=   4.
 NSaved= 4 IEnMin= 3 EnMin= -870.663795574580     IErMin= 3 ErrMin= 6.11D-04
[...]
   yy         0.123297D+03      0.182708D+02      0.203290D+02
   zx        -0.308629D+01     -0.457341D+00     -0.508860D+00
   zy        -0.379840D+00     -0.562865D-01     -0.626271D-01
   zz         0.127032D+03      0.188243D+02      0.209448D+02

 ----------------------------------------------------------------------
 1\1\GINC-LOCALHOST\Freq\RB3LYP\6-311+G(2d,p)\C3H7N2O4P1\WUHANYU\11-Dec
 -2022\0\\#P Geom=AllCheck Guess=TCheck SCRF=Check GenChk RB3LYP/6-311+
 G(2d,p) Freq\\Title Card Required\\0,1\C,3.9050021679,-0.5896514186,-0
 .3591033028\C,2.7649810056,-1.266217418,-0.6524690211\C,2.2172787792,0
 .8404771586,-0.3084696286\N,3.5351725121,0.7220379848,-0.1488641961\H,
 4.156987941,1.4847481305,0.089125961\H,4.926280989,-0.917085035,-0.282
 0829987\H,2.6039181667,-2.3044884576,-0.8818582099\H,1.6500149041,1.74
 89481996,-0.2050446378\N,1.7307952538,-0.3551803908,-0.6149492281\P,-1
 .9218549173,0.1414177317,-0.7714750357\O,-1.4843895145,1.5493371675,-0
 .5116595556\O,-0.8730909585,-0.8961173129,-1.1087739704\H,0.7151123915
 ,-0.5560647823,-0.7943839484\O,-2.7875440546,-0.3128670229,0.518885039
 5\H,-3.041060338,-1.2474987478,0.4824668357\O,-3.0815478579,0.08738894
 32,-1.9133717167\H,-2.7091586304,-0.04408586,-2.7977317662\\Version=ES
 64L-G16RevA.03\State=1-A\HF=-870.6670855\RMSD=1.967e-09\RMSF=2.628e-05
 \ZeroPoint=0.1214787\Thermal=0.1328116\Dipole=6.4374568,-1.1128916,-0.
 0100353\DipoleDeriv=-0.0229776,-0.064082,0.0031759,0.2479388,0.1937079
 ,0.0977428,0.0645205,0.0542035,-0.106576,0.2230455,0.1125348,0.0692993
 ,-0.2124659,-0.0066564,-0.0032466,0.0059859,0.0396591,-0.1110758,0.556
 6297,0.4071142,0.1394552,0.4577111,0.1124967,0.0544847,0.1478868,0.050
 1684,0.1724951,-0.5201758,-0.3311688,-0.1002096,-0.4493165,-0.395958,-
 0.0880482,-0.1258241,-0.0726539,-0.2889711,0.398342,0.1114689,0.021262
 3,0.1129622,0.402327,0.0147097,0.0213485,0.0148661,0.4112971,0.1361803
 ,0.0146808,-0.0129881,-0.0022557,0.1366726,-0.0231458,-0.0166877,-0.02
 07345,0.2448671,0.1401532,0.0046199,-0.0138591,0.0182589,0.126244,-0.0
 216037,-0.011599,-0.0235753,0.2406595,0.1715991,-0.0331538,-0.0165812,
 -0.0351527,0.1965627,-0.0128995,-0.0165691,-0.0133505,0.2319892,-1.250
 0106,-0.32785,-0.1995334,-0.3135889,-0.1526164,-0.0274769,-0.1983619,-
 0.0272298,-0.2700024,3.3667741,0.0217601,0.0209345,-0.1628483,3.344471
 2,0.1019255,-0.0937406,0.0789136,3.0663398,-1.1553075,-0.1504306,-0.03
 50192,-0.1785379,-1.7803239,-0.1511578,-0.0440018,-0.1815764,-1.060999
 3,-2.1139056,0.3176171,0.0132426,0.4135426,-1.4678851,-0.1488743,0.084
 1821,-0.1240235,-1.0755307,1.7056907,0.1484186,0.1951111,0.2787323,0.3
 064241,0.0216705,0.2325195,0.0044941,0.3998841,-1.1737268,-0.1827355,0
 .435569,-0.1980841,-0.9370311,0.3157496,0.4197756,0.2899774,-1.3142999
 ,0.4499158,-0.0125,0.0044311,0.0243755,0.3722518,-0.0775153,0.0094757,
 -0.0414041,0.3987043,-1.2651099,-0.0390236,-0.5617365,0.0020822,-0.886
 8116,-0.070076,-0.5646998,-0.0250718,-1.3875864,0.3528834,0.0027298,0.
 037446,-0.0033536,0.4361245,0.0177612,0.0857893,-0.0026622,0.4488055\P
 olar=126.5906407,-1.7190268,122.240334,4.1010554,6.5773964,90.6925767\
 Quadrupole=14.6306104,-7.4056506,-7.2249598,12.4775099,6.4463466,-0.47
 68089\PG=C01 [X(C3H7N2O4P1)]\NImag=0\\0.92222040,-0.04938134,0.5572295
 1,0.10088015,0.07945026,0.15411175,-0.32202434,-0.12450626,-0.05978324
 ,0.60819293,-0.13085522,-0.18285979,-0.04057705,0.10638738,0.85434620,
 -0.06117507,-0.03979300,-0.08659970,0.08816023,0.15999938,0.17105770,-
 0.04887569,0.07835442,0.00663121,0.00587581,0.00115752,-0.00116137,0.7
 3577936,0.02549734,-0.03585869,-0.00671198,0.05530597,-0.08632699,-0.0
 1249362,-0.13612803,0.86025650,-0.00385244,0.00070022,0.01525676,0.009
 66176,-0.02017407,0.01262610,0.05508879,0.12440857,0.17567626,-0.14021
 264,0.03586077,-0.00412950,0.00200104,-0.00590179,-0.00260992,-0.36922
 892,0.02969987,-0.03574657,0.81224939,0.04483843,-0.25703469,-0.033397
 82,-0.06325843,-0.07121343,-0.02556040,0.02831197,-0.12440298,-0.00711
 883,0.16303557,0.77507118,-0.00233922,-0.03457431,-0.06597159,-0.01417
 895,-0.01761090,0.00771278,-0.03598423,-0.00695652,-0.07506321,0.13088
 250,0.15699828,0.15037036,0.01479995,0.00557994,0.00389391,0.00042268,
 0.00532519,0.00069557,-0.01032090,-0.02568948,-0.00581142,-0.21325041,
 -0.17191909,-0.06205489,0.21144690,-0.01847179,-0.01069497,-0.00366233
 ,0.00308255,-0.00460553,-0.00109772,0.00036927,0.01011977,0.00315709,-
 0.17496960,-0.28313113,-0.07841831,0.18473919,0.28220976,-0.00091981,-
 0.00034887,-0.00535480,0.00025846,-0.00079724,0.00295595,-0.00061909,-
 0.00046571,-0.00564363,-0.06263975,-0.07797763,-0.03589021,0.06382853,
 0.07881597,0.04008793,-0.34303178,0.09075624,-0.02570112,-0.00728539,0
 .00895332,0.00064058,0.00130360,-0.00097325,-0.00040031,0.00262357,-0.
 00102257,0.00047487,-0.00008553,0.00035670,0.00030577,0.34796241,0.081
 86319,-0.08386232,-0.00007310,-0.01196999,0.01266776,0.00068787,-0.001
 50807,-0.00626444,-0.00201608,0.03210168,-0.00621818,0.00366639,-0.000
 65175,0.00107418,0.00047526,-0.09651466,0.08169471,-0.02749646,0.00116
 402,-0.02993486,-0.00351693,0.00359824,0.00107667,-0.00049938,-0.00193
 441,0.00231954,0.00708155,-0.00093170,-0.00145547,0.00010281,0.0006110
 1,-0.00162382,0.02598804,-0.00132488,0.02437880,0.00726192,-0.01988113
 ,-0.00308560,-0.06750992,-0.05338095,-0.01621537,-0.00590864,0.0024165
 0,-0.00077063,-0.00404729,-0.00359631,-0.00202510,0.00102179,-0.000807
 89,-0.00022586,0.00011691,0.00062300,0.00053645,0.05871523,0.00152878,
 -0.00190376,-0.00035586,-0.04548435,-0.34498559,-0.06980813,0.00284272
 ,0.00065298,-0.00009032,-0.00090212,0.00130154,-0.00093729,0.00009245,
 0.00022607,-0.00023660,-0.00027538,-0.00018965,0.00048977,0.04612432,0
 .35675498,0.00118725,-0.00331664,0.00041441,-0.01464360,-0.07094988,-0
 .04317391,-0.00068896,-0.00015780,0.00295373,-0.00148456,-0.00131646,0
 .00489134,-0.00004312,-0.00036191,0.00139863,0.00035753,0.00061327,-0.
 00266429,0.01432388,0.07336997,0.03804263,-0.00437282,-0.00297719,-0.0
 0165755,-0.00131039,-0.00320442,-0.00133665,-0.14748926,0.13743947,0.0
 1103861,-0.00880553,0.02700652,0.00397406,0.00074926,-0.00028004,0.000
 41743,0.00026729,0.00117591,0.00004398,0.00099817,-0.00033674,-0.00014
 233,0.14444629,-0.00172603,0.00158764,-0.00058245,-0.00420992,-0.00125
 448,-0.00159212,0.13837561,-0.28311046,-0.03159056,-0.00289207,0.00885
 564,0.00109311,0.00061743,-0.00001523,0.00062177,0.00004353,0.00060259
 ,-0.00020403,0.00084462,-0.00011722,-0.00021924,-0.14591454,0.28760985
 ,-0.00141626,-0.00077418,0.00292884,-0.00152360,-0.00144019,0.00326242
 ,0.01126641,-0.03173450,-0.03461101,-0.00203976,0.00526614,0.00222023,
 0.00059507,0.00049072,-0.00249897,-0.00018334,-0.00004191,0.00160382,0
 .00008876,-0.00038085,0.00149928,-0.01210290,0.03297884,0.02705688,-0.
 08723213,-0.01666389,-0.01741559,-0.20888229,0.07267013,-0.00601364,-0
 .15827452,-0.08044692,-0.02796139,-0.08960803,-0.02597265,-0.01988127,
 -0.00515786,0.00669804,-0.00003996,-0.00209395,-0.00513993,-0.00210303
 ,0.00851153,-0.00339639,0.00082912,0.01532285,0.01469892,0.00488232,0.
 86068957,0.04149212,0.01681106,0.00645245,0.06800016,-0.18860701,-0.01
 596428,-0.08498340,-0.33691541,-0.06476936,-0.07462716,-0.03798112,-0.
 02119955,0.00262252,0.00410557,0.00026758,-0.00187160,-0.00059154,-0.0
 0151925,0.02864466,-0.01191049,0.00210533,-0.01381688,-0.01452930,-0.0
 0507832,0.08599403,0.64809852,-0.00569600,-0.00165380,0.01224544,-0.00
 692614,-0.01525012,-0.06581975,-0.02883979,-0.06413673,-0.08884217,-0.
 02961518,-0.01442475,0.00935522,-0.00083580,0.00081636,0.00471295,-0.0
 0144705,-0.00195641,0.00507165,0.00722529,-0.00239429,-0.00177279,-0.0
 0082132,-0.00112731,0.00098887,0.12016717,0.11800963,0.15587797,0.0010
 2023,-0.00000379,0.00016328,-0.00047464,0.00195523,0.00028239,-0.00117
 589,-0.00246671,-0.00065921,0.00196330,0.00059956,0.00039854,0.0000062
 7,-0.00024801,-0.00003574,0.00010637,0.00014031,0.00004560,0.00003309,
 -0.00003226,-0.00000501,0.00000503,-0.00003884,-0.00002183,0.00740618,
 0.00134949,0.00106795,0.55073159,-0.00106067,-0.00016382,-0.00018317,0
 .00063438,-0.00230761,-0.00035233,0.00086885,0.00326163,0.00075155,-0.
 00232209,-0.00096698,-0.00051451,-0.00010345,0.00026580,0.00003534,-0.
 00014520,-0.00018299,-0.00005214,0.00000571,0.00008210,0.00000870,-0.0
 0024336,-0.00021875,-0.00006224,-0.01342484,-0.00257636,-0.00250716,-0
 .01958711,0.76908491,-0.00036593,-0.00005053,-0.00004723,0.00024314,-0
 .00075928,-0.00013518,0.00019642,0.00105183,0.00030694,-0.00079779,-0.
 00031238,-0.00023774,-0.00003653,0.00008813,0.00001116,-0.00005176,-0.
 00005829,-0.00001831,0.00000276,0.00003045,0.00002108,-0.00005943,-0.0
 0006144,0.00001930,-0.00507057,-0.00115548,-0.00036451,-0.03463383,0.0
 8648722,0.44468152,-0.00017473,0.00006079,-0.00001555,0.00003804,-0.00
 016589,-0.00001814,0.00028734,-0.00012932,0.00001106,-0.00024659,0.000
 06684,-0.00000508,0.00002219,0.00004081,0.00001040,-0.00000476,0.00000
 289,-0.00000150,-0.00001284,0.00000908,0.00000051,-0.00030332,0.000122
 51,0.00000135,-0.00023024,-0.00014107,-0.00009328,-0.08875363,-0.10816
 589,-0.01981835,0.09506737,0.00024090,0.00005996,0.00004697,-0.0002131
 8,0.00055738,0.00007434,-0.00042026,-0.00084124,-0.00018671,0.00058749
 ,0.00029339,0.00014200,0.00003148,-0.00007064,-0.00000915,0.00003168,0
 .00004749,0.00001434,-0.00000274,-0.00001534,-0.00000183,0.00022443,0.
 00006635,0.00002744,0.00265834,0.00060746,0.00046622,-0.10834708,-0.41
 292502,-0.06635323,0.13547319,0.47868694,0.00005296,0.00002288,-0.0000
 0039,-0.00005307,0.00012571,0.00004035,-0.00003791,-0.00019717,-0.0001
 2240,0.00013887,0.00006830,0.00005934,0.00000839,-0.00001417,-0.000005
 12,0.00000912,0.00001332,-0.00000357,-0.00000118,-0.00000181,-0.000006
 12,0.00000946,0.00002039,-0.00000785,0.00068323,0.00013631,0.00015800,
 -0.02111688,-0.06925816,-0.06745724,0.02338797,0.07704667,0.06318311,-
 0.00307895,-0.00018320,-0.00044909,0.00127125,-0.00611713,-0.00107608,
 0.00089046,0.00790205,0.00167653,-0.00607892,-0.00230020,-0.00131181,-
 0.00019138,0.00074634,0.00013010,-0.00033199,-0.00044047,-0.00012206,-
 0.00009426,0.00024957,0.00003049,-0.00021161,-0.00020068,-0.00006202,-
 0.03916579,-0.00891458,-0.00787528,-0.22090406,0.16004105,0.05141622,0
 .00649281,0.00422719,0.00167516,0.28132463,-0.00026133,0.00023881,0.00
 003012,-0.00089107,-0.00044095,-0.00028086,0.00065872,-0.00037620,-0.0
 0005728,0.00035304,0.00032552,0.00013315,0.00006150,-0.00003521,0.0000
 2416,-0.00000819,-0.00004619,0.00000286,-0.00001637,-0.00002196,-0.000
 01037,0.00005506,0.00002531,0.00000730,0.00033612,0.00556468,0.0002947
 8,0.16762476,-0.22705000,-0.05454253,0.02147186,-0.03529838,-0.0125310
 7,-0.19827248,0.25859668,-0.00032739,0.00004324,-0.00014061,-0.0001205
 2,-0.00072137,0.00011139,0.00018174,0.00059725,0.00042572,-0.00047499,
 -0.00010653,-0.00016949,0.00001856,0.00008817,-0.00008548,-0.00001712,
 -0.00003522,-0.00007699,-0.00002738,0.00000851,0.00003282,-0.00001489,
 -0.00001934,0.00002766,-0.00349899,-0.00044549,0.00348475,0.05362782,-
 0.05510724,-0.07536546,0.00524084,-0.01019339,0.01016569,-0.06066645,0
 .07031768,0.07139831,0.00424210,0.00301955,0.00075548,-0.01070431,0.00
 422058,-0.00002841,-0.00313224,-0.01384056,-0.00261721,0.01381574,0.00
 461804,0.00229939,0.00055712,-0.00140051,-0.00048989,0.00051209,0.0003
 9013,-0.00003305,0.00092331,-0.00046108,0.00026830,0.00070234,0.000261
 81,0.00052072,-0.29613524,-0.04218856,-0.04542571,-0.02446712,0.025460
 74,0.00849711,0.00211364,-0.00728541,-0.00162864,0.03068348,-0.0064641
 3,0.00042688,0.26937316,0.00601096,-0.00359692,-0.00048302,0.01731255,
 0.01440267,0.00608828,-0.02771410,0.00073128,-0.00280884,-0.00065158,-
 0.00519280,-0.00196505,-0.00073723,0.00062778,-0.00039493,0.00063196,0
 .00121825,0.00007231,-0.00097249,0.00015206,0.00023781,0.00079350,0.00
 043184,0.00072059,-0.04141200,-0.08281971,-0.01682896,0.00125530,0.004
 01567,0.00219354,-0.00026075,-0.00098484,-0.00027849,0.00335064,-0.010
 56965,-0.00152693,0.03978142,0.08295650,0.00138427,-0.00088953,0.00308
 109,0.00249994,0.00438646,-0.00315344,-0.00544840,-0.00100577,-0.00523
 327,0.00124855,-0.00125147,0.00413694,-0.00036940,-0.00049466,0.001952
 07,0.00001270,0.00003564,0.00132986,0.00017376,0.00031268,-0.00163014,
 0.00063828,0.00066262,-0.00247841,-0.04543827,-0.01700246,-0.03541889,
 -0.00150444,0.00434078,0.00106916,0.00020372,-0.00102276,-0.00046000,0
 .00561087,-0.00206787,-0.00687194,0.03931943,0.01527769,0.04441723,-0.
 00022684,-0.00001707,-0.00002971,0.00016874,-0.00043098,-0.00007306,0.
 00016327,0.00059225,0.00013150,-0.00049588,-0.00016679,-0.00009628,-0.
 00000575,0.00005985,0.00001884,-0.00002475,-0.00003116,-0.00000614,-0.
 00000204,0.00001304,0.00000297,0.00000401,0.00001139,-0.00000269,-0.00
 203592,-0.00051600,-0.00055087,-0.08927367,-0.01898035,0.07469073,-0.0
 0578406,-0.01493303,0.01162446,-0.02088348,0.00195205,0.02713509,0.004
 85700,0.00081942,0.00128169,0.14850564,0.00005150,0.00002280,0.0000058
 4,-0.00004706,0.00013074,0.00002841,-0.00005629,-0.00023184,-0.0000451
 4,0.00012706,0.00007595,0.00002293,0.00000911,-0.00001545,-0.00000323,
 0.00000817,0.00001184,0.00000170,-0.00000365,-0.00000488,0.00000287,0.
 00003606,0.00003061,0.00001672,0.00072118,0.00010430,0.00025723,-0.031
 51507,-0.07193051,0.03871686,-0.02709149,-0.02746045,0.02470713,0.0119
 7198,0.00740977,-0.00958191,-0.00110735,-0.00026841,-0.00060623,0.1593
 8431,0.55107658,0.00023873,0.00001834,0.00003591,-0.00015702,0.0004622
 9,0.00007117,-0.00012415,-0.00061634,-0.00012210,0.00050130,0.00017009
 ,0.00009454,0.00001447,-0.00005816,-0.00002267,0.00002719,0.00003377,0
 .00000324,0.00000484,-0.00001772,-0.00000535,0.00001237,-0.00000103,-0
 .00000379,0.00215671,0.00052786,0.00065470,0.06556070,0.01628307,-0.14
 371022,0.00531549,0.00606019,0.00035895,0.02154513,-0.00042891,-0.0104
 3157,-0.00480352,-0.00083585,-0.00143887,-0.10298391,-0.02228126,0.222
 96454,0.00003428,0.00000361,0.00000112,-0.00002737,0.00006890,0.000017
 25,-0.00002830,-0.00009949,-0.00002764,0.00007925,0.00003075,0.0000188
 8,0.00000134,-0.00001012,-0.00000257,0.00000367,0.00000521,0.00000171,
 -0.00000180,-0.00000111,0.00000026,0.00000314,-0.00000032,0.00000416,0
 .00035186,0.00008095,0.00008123,-0.01025445,-0.01933912,0.00392192,0.0
 0048731,-0.00211494,0.00302655,0.00341924,0.00172724,-0.00227729,-0.00
 072817,-0.00012123,-0.00019963,-0.04145060,-0.11181489,0.00924909,0.04
 833538,0.00003966,0.00000302,0.00000627,-0.00002321,0.00007980,0.00001
 059,-0.00002553,-0.00010559,-0.00002050,0.00008302,0.00002960,0.000014
 04,0.00000217,-0.00000949,-0.00000283,0.00000445,0.00000598,0.00000141
 ,0.00000210,-0.00000269,-0.00000040,0.00000102,0.00000123,0.00000268,0
 .00037870,0.00008225,0.00009990,-0.00530884,-0.01346819,0.00363134,0.0
 0018546,0.00349331,0.00015866,0.00390531,-0.00017778,-0.00278024,-0.00
 084904,-0.00011913,-0.00020192,-0.12953619,-0.46536515,-0.00881327,0.1
 3121551,0.47426205,-0.00003021,-0.00000328,-0.00000541,0.00001804,-0.0
 0006062,-0.00001169,0.00001913,0.00008519,0.00002122,-0.00006146,-0.00
 002438,-0.00000635,-0.00000261,0.00000659,0.00000189,-0.00000386,-0.00
 000482,-0.00000029,-0.00000014,0.00000223,0.00000238,-0.00000474,-0.00
 000520,-0.00000225,-0.00031086,-0.00005438,-0.00010559,0.01140975,0.02
 805508,-0.00767768,0.00356035,0.00272129,-0.00096968,-0.00250459,-0.00
 109333,0.00084013,0.00062461,0.00008754,0.00018376,-0.00000411,-0.0395
 2316,-0.02416625,-0.01247953,0.01163617,0.03146416,-0.00036610,-0.0000
 2314,-0.00006123,0.00026349,-0.00071785,-0.00009493,0.00015086,0.00097
 575,0.00025470,-0.00079669,-0.00028717,-0.00018286,-0.00001612,0.00010
 040,0.00000416,-0.00003967,-0.00004895,-0.00002231,-0.00000469,0.00002
 979,0.00000878,-0.00000783,0.00000395,-0.00000297,-0.00364153,-0.00117
 880,-0.00042623,-0.12820009,0.00057601,-0.05173423,-0.00636902,-0.0088
 9037,-0.01757698,-0.03357612,0.01211917,-0.02137978,0.00778661,0.00200
 395,0.00060275,0.00610042,-0.00202094,0.00773178,-0.00014583,0.0001127
 5,-0.00011969,0.25889080,0.00019848,0.00002281,0.00003772,-0.00012367,
 0.00042777,0.00005171,-0.00010173,-0.00059863,-0.00014130,0.00043629,0
 .00019784,0.00010743,0.00002086,-0.00005410,-0.00000245,0.00002519,0.0
 0003323,0.00001148,-0.00000088,-0.00001828,-0.00000411,0.00004409,0.00
 003160,0.00000188,0.00237310,0.00058202,0.00034122,-0.00501154,-0.0427
 6534,-0.00655521,-0.01918911,-0.00555334,-0.02022103,0.02427264,0.0023
 5444,0.01026715,-0.00430719,-0.00103252,-0.00044147,0.00072543,0.00536
 484,0.00430202,0.00052391,0.00080490,-0.00115868,-0.03045494,0.0491977
 7,-0.00019189,0.00000021,-0.00002840,0.00010904,-0.00036281,-0.0000479
 2,0.00005059,0.00044213,0.00009856,-0.00039746,-0.00013192,-0.00007837
 ,-0.00000708,0.00005139,0.00000285,-0.00001860,-0.00002393,-0.00001042
 ,-0.00000554,0.00001437,-0.00000302,0.00000428,0.00002651,-0.00000600,
 -0.00167179,-0.00051156,-0.00028949,-0.07711907,-0.00443574,-0.1205682
 6,-0.01896675,-0.01096643,-0.00755478,-0.01357406,0.00237935,0.0021597
 6,0.00378536,0.00077972,0.00061004,-0.00928364,0.00826048,-0.04374468,
 -0.00136531,-0.00364830,0.00054952,-0.06868242,0.07434871,0.58745716,0
 .00001712,0.00000168,0.00000304,-0.00001533,0.00003599,0.00000664,-0.0
 0001634,-0.00005542,-0.00001612,0.00003859,0.00001551,0.00001146,0.000
 00043,-0.00000521,-0.00000102,0.00000192,0.00000266,0.00000071,-0.0000
 0049,-0.00000033,-0.00000151,0.00000237,0.00000262,-0.00000344,0.00017
 549,0.00005411,0.00001101,0.00223149,-0.00421466,-0.02639988,-0.002629
 49,-0.00126768,-0.00020152,0.00043468,-0.00044597,0.00217386,-0.000399
 53,-0.00009031,-0.00001582,0.00038392,0.00134736,-0.00428921,-0.000078
 96,-0.00018733,-0.00011009,-0.10002850,0.03056907,0.18733433,0.0998826
 3,-0.00000499,-0.00000065,-0.00000286,0.00000414,-0.00001096,0.0000018
 7,-0.00000166,0.00001032,0.00000156,-0.00001840,-0.00000933,-0.0000009
 0,-0.00000085,0.00000283,-0.00000142,-0.00000038,-0.00000071,-0.000000
 73,0.00000151,0.00000014,0.00000068,-0.00000288,0.00000278,-0.00000011
 ,-0.00007196,-0.00002494,-0.00000581,-0.00036542,-0.00215454,-0.002350
 99,-0.00228990,-0.00066301,0.00020252,-0.00023803,-0.00049889,-0.00080
 435,0.00015154,0.00004791,-0.00003173,0.00105384,0.00104925,0.00519492
 ,-0.00015487,0.00048589,-0.00066624,0.02770041,-0.00899501,-0.06622219
 ,-0.02576209,0.01075891,0.00006732,0.00000498,0.00000877,-0.00004755,0
 .00013144,0.00002707,-0.00003101,-0.00017443,-0.00004702,0.00014418,0.
 00005145,0.00003167,0.00000354,-0.00001817,0.00000126,0.00000736,0.000
 00912,0.00000443,0.00000107,-0.00000511,-0.00000069,0.00000135,-0.0000
 0053,0.00000096,0.00068681,0.00020099,0.00006364,0.00253997,-0.0034890
 4,-0.03052731,0.00118695,0.00213404,0.00262169,0.00555695,-0.00217717,
 0.00449533,-0.00147086,-0.00033542,-0.00009519,-0.00185488,0.00002076,
 -0.00053756,0.00002978,-0.00009360,-0.00011790,0.15168145,-0.06094508,
 -0.41854655,-0.15850243,0.06468578,0.44261743\\-0.00000878,0.00000681,
 -0.00001777,0.00002705,-0.00000389,0.00000308,-0.00000838,-0.00000280,
 -0.00002290,-0.00000240,-0.00000085,0.00004653,0.00000380,0.00000544,-
 0.00002221,-0.00000014,-0.00000028,0.00000928,-0.00000328,0.00000363,-
 0.00000509,-0.00000008,0.00000017,0.00000641,-0.00001573,0.00005206,-0
 .00005720,-0.00000659,0.00000335,-0.00002394,-0.00000155,0.00000045,-0
 .00000518,-0.00001943,0.00004901,-0.00003126,0.00002508,-0.00009565,0.
 00009486,-0.00000719,-0.00000171,0.00002428,0.00000323,-0.00001257,-0.
 00000934,0.00000933,0.00000288,0.00000394,0.00000505,-0.00000606,0.000
 00648\\\@


 Everywhere is walking distance if you have the time.
                                    -- Steven Wright
 Job cpu time:       0 days  1 hours  8 minutes 45.9 seconds.
 Elapsed time:       0 days  0 hours  2 minutes 53.3 seconds.
 File lengths (MBytes):  RWF=    207 Int=      0 D2E=      0 Chk=     15 Scr=      1
 Normal termination of Gaussian 16 at Sun Dec 11 18:12:21 2022.
