 Entering Gaussian System, Link 0=g16
 Initial command:
 /data0/home/software/g16/l1.exe "/data0/home/software/g16/scratch/Gau-305008.inp" -scrdir="/data0/home/software/g16/scratch/"
 Default is to use a total of  22 processors:
                               22 via shared-memory
                                1 via Linda
 Entering Link 1 = /data0/home/software/g16/l1.exe PID=    305009.
  
 Copyright (c) 1988,1990,1992,1993,1995,1998,2003,2009,2016,
            Gaussian, Inc.  All Rights Reserved.
  
 This is part of the Gaussian(R) 16 program.  It is based on
 the Gaussian(R) 09 system (copyright 2009, Gaussian, Inc.),
 the Gaussian(R) 03 system (copyright 2003, Gaussian, Inc.),
 the Gaussian(R) 98 system (copyright 1998, Gaussian, Inc.),
 the Gaussian(R) 94 system (copyright 1995, Gaussian, Inc.),
 the Gaussian 92(TM) system (copyright 1992, Gaussian, Inc.),
 the Gaussian 90(TM) system (copyright 1990, Gaussian, Inc.),
 the Gaussian 88(TM) system (copyright 1988, Gaussian, Inc.),
 the Gaussian 86(TM) system (copyright 1986, Carnegie Mellon
 University), and the Gaussian 82(TM) system (copyright 1983,
 Carnegie Mellon University). Gaussian is a federally registered
 trademark of Gaussian, Inc.
  
 This software contains proprietary and confidential information,
 including trade secrets, belonging to Gaussian, Inc.
  
 This software is provided under written license and may be
 used, copied, transmitted, or stored only in accord with that
 written license.
  
 The following legend is applicable only to US Government
 contracts under FAR:
  
                    RESTRICTED RIGHTS LEGEND
  
 Use, reproduction and disclosure by the US Government is
 subject to restrictions as set forth in subparagraphs (a)
 and (c) of the Commercial Computer Software - Restricted
 Rights clause in FAR 52.227-19.
  
 Gaussian, Inc.
 340 Quinnipiac St., Bldg. 40, Wallingford CT 06492
  
  
 ---------------------------------------------------------------
 Warning -- This program may not be used in any manner that
 competes with the business of Gaussian, Inc. or will provide
 assistance to any competitor of Gaussian, Inc.  The licensee
 of this program is prohibited from giving any competitor of
 Gaussian, Inc. access to this program.  By using this program,
 the user acknowledges that Gaussian, Inc. is engaged in the
 business of creating and licensing software in the field of
 computational chemistry and represents and warrants to the
 licensee that it is not a competitor of Gaussian, Inc. and that
 it will not use this program in any manner prohibited above.
 ---------------------------------------------------------------
  

 Cite this work as:
 Gaussian 16, Revision A.03,
 M. J. Frisch, G. W. Trucks, H. B. Schlegel, G. E. Scuseria, 
 M. A. Robb, J. R. Cheeseman, G. Scalmani, V. Barone, 
 G. A. Petersson, H. Nakatsuji, X. Li, M. Caricato, A. V. Marenich, 
 J. Bloino, B. G. Janesko, R. Gomperts, B. Mennucci, H. P. Hratchian, 
 J. V. Ortiz, A. F. Izmaylov, J. L. Sonnenberg, D. Williams-Young, 
 F. Ding, F. Lipparini, F. Egidi, J. Goings, B. Peng, A. Petrone, 
 T. Henderson, D. Ranasinghe, V. G. Zakrzewski, J. Gao, N. Rega, 
 G. Zheng, W. Liang, M. Hada, M. Ehara, K. Toyota, R. Fukuda, 
 J. Hasegawa, M. Ishida, T. Nakajima, Y. Honda, O. Kitao, H. Nakai, 
 T. Vreven, K. Throssell, J. A. Montgomery, Jr., J. E. Peralta, 
 F. Ogliaro, M. J. Bearpark, J. J. Heyd, E. N. Brothers, K. N. Kudin, 
 V. N. Staroverov, T. A. Keith, R. Kobayashi, J. Normand, 
 K. Raghavachari, A. P. Rendell, J. C. Burant, S. S. Iyengar, 
 J. Tomasi, M. Cossi, J. M. Millam, M. Klene, C. Adamo, R. Cammi, 
 J. W. Ochterski, R. L. Martin, K. Morokuma, O. Farkas, 
 J. B. Foresman, and D. J. Fox, Gaussian, Inc., Wallingford CT, 2016.
 
 ******************************************
 Gaussian 16:  ES64L-G16RevA.03 25-Dec-2016
                19-Feb-2023 
 ******************************************
 %nproc=24
 Will use up to   24 processors via shared memory.
 %mem=50GB
 ---------------------------------------------------
 #p M062X/6-311+G(2d,p) nosymm em=GD3 counterpoise=2
 ---------------------------------------------------
 1/38=1,62=2,172=1/1;
 2/12=2,15=1,17=6,18=5,40=1/2;
 1/38=1,53=2,62=2,63=1/22;
 3/5=4,6=6,7=112,11=2,25=1,30=1,74=-55,124=31/1,2,3;
 4//1;
 5/5=2,38=5/2;
 6/7=2,8=2,9=2,10=2,28=1/1;
 1/53=2,62=2,63=1/22;
 3/5=7,6=11,7=112,11=2,25=1,30=1,74=-55,82=7,124=31/1,2,3;
 4//1;
 5/5=2,38=5/2;
 6/7=2,8=2,9=2,10=2,28=1/1;
 1/53=2,62=2,63=1/22(-4);
 99/5=1,9=1/99;
 Leave Link    1 at Sun Feb 19 14:25:43 2023, MaxMem=  6710886400 cpu:               0.6 elap:               0.0
 (Enter /data0/home/software/g16/l101.exe)
 -------------------
 Title Card Required
 -------------------
 Symbolic Z-matrix:
 Charge =  0 Multiplicity = 1 in supermolecule
 Charge =  0 Multiplicity = 1 in fragment      1.
 Charge =  0 Multiplicity = 1 in fragment      2.
 C                     10.9962   7.95437   11.13808    
 C                     11.59988   9.16004   11.47835    
 C                     9.37383   9.40329   11.71809    
 N                     9.62395   8.12302   11.30453    
 H                     11.43522   7.0419    10.76169    
 H                     12.63471   9.4391    11.44811    
 H                     8.38421   9.84706   11.86913    
 C                     8.60022   7.12648   11.05403    
 H                     8.99418   6.28713   10.44546    
 H                     8.19298   6.72873   11.99762    
 H                     7.75184   7.57622   10.46896    
 N                     10.58122   10.04198   11.84601    
 C                     10.75795   11.44132   12.23808    
 H                     11.34045   11.4653   13.18836    
 H                     9.75175   11.88437   12.45663    
 C                     11.47537   12.27877   11.15693    
 H                     12.09408   13.04899   11.6617    
 H                     12.20032   11.64446   10.59509    
 C                     10.52034   12.96047   10.183     
 H                     11.08151   13.59771   9.4747     
 H                     9.82484   13.63969   10.70546    
 S                     9.57044   11.74302   9.24776    
 O                     8.97071   12.41118   8.08444    
 O                     10.57737   10.70653   8.87859    
 O                     8.59431   11.23182   10.25024    
 P                     10.13086   7.44911   7.47456    
 O                     11.15321   6.81341   8.29833    
 O                     8.73998   7.40761   8.23734    
 H                     8.01817   7.96195   7.73662    
 O                     10.38225   8.91622   6.94903    
 H                     10.55828   9.58684   7.77861    
 O                     9.77018   6.69905   6.10435    
 H                     10.4622   6.98263   5.4023     
 
 ITRead=  0  0  0  0  0  0  0  0  0  0  0  0  0  0  0  0  0  0  0  0
 ITRead=  0  0  0  0  0  0  0  0  0  0  0  0  0
 MicOpt= -1 -1 -1 -1 -1 -1 -1 -1 -1 -1 -1 -1 -1 -1 -1 -1 -1 -1 -1 -1
 MicOpt= -1 -1 -1 -1 -1 -1 -1 -1 -1 -1 -1 -1 -1
 NAtoms=     33 NQM=       33 NQMF=       0 NMMI=      0 NMMIF=      0
                NMic=       0 NMicF=      0.
                    Isotopes and Nuclear Properties:
 (Nuclear quadrupole moments (NQMom) in fm**2, nuclear magnetic moments (NMagM)
  in nuclear magnetons)

  Atom         1           2           3           4           5           6           7           8           9          10
 IAtWgt=          12          12          12          14           1           1           1          12           1           1
 AtmWgt=  12.0000000  12.0000000  12.0000000  14.0030740   1.0078250   1.0078250   1.0078250  12.0000000   1.0078250   1.0078250
 NucSpn=           0           0           0           2           1           1           1           0           1           1
 AtZEff=  -0.0000000  -0.0000000  -0.0000000  -0.0000000  -0.0000000  -0.0000000  -0.0000000  -0.0000000  -0.0000000  -0.0000000
 NQMom=    0.0000000   0.0000000   0.0000000   2.0440000   0.0000000   0.0000000   0.0000000   0.0000000   0.0000000   0.0000000
 NMagM=    0.0000000   0.0000000   0.0000000   0.4037610   2.7928460   2.7928460   2.7928460   0.0000000   2.7928460   2.7928460
 AtZNuc=   6.0000000   6.0000000   6.0000000   7.0000000   1.0000000   1.0000000   1.0000000   6.0000000   1.0000000   1.0000000

  Atom        11          12          13          14          15          16          17          18          19          20
 IAtWgt=           1          14          12           1           1          12           1           1          12           1
 AtmWgt=   1.0078250  14.0030740  12.0000000   1.0078250   1.0078250  12.0000000   1.0078250   1.0078250  12.0000000   1.0078250
 NucSpn=           1           2           0           1           1           0           1           1           0           1
 AtZEff=  -0.0000000  -0.0000000  -0.0000000  -0.0000000  -0.0000000  -0.0000000  -0.0000000  -0.0000000  -0.0000000  -0.0000000
 NQMom=    0.0000000   2.0440000   0.0000000   0.0000000   0.0000000   0.0000000   0.0000000   0.0000000   0.0000000   0.0000000
 NMagM=    2.7928460   0.4037610   0.0000000   2.7928460   2.7928460   0.0000000   2.7928460   2.7928460   0.0000000   2.7928460
 AtZNuc=   1.0000000   7.0000000   6.0000000   1.0000000   1.0000000   6.0000000   1.0000000   1.0000000   6.0000000   1.0000000

  Atom        21          22          23          24          25          26          27          28          29          30
 IAtWgt=           1          32          16          16          16          31          16          16           1          16
 AtmWgt=   1.0078250  31.9720718  15.9949146  15.9949146  15.9949146  30.9737634  15.9949146  15.9949146   1.0078250  15.9949146
 NucSpn=           1           0           0           0           0           1           0           0           1           0
 AtZEff=  -0.0000000  -0.0000000  -0.0000000  -0.0000000  -0.0000000  -0.0000000  -0.0000000  -0.0000000  -0.0000000  -0.0000000
 NQMom=    0.0000000   0.0000000   0.0000000   0.0000000   0.0000000   0.0000000   0.0000000   0.0000000   0.0000000   0.0000000
 NMagM=    2.7928460   0.0000000   0.0000000   0.0000000   0.0000000   1.1316000   0.0000000   0.0000000   2.7928460   0.0000000
 AtZNuc=   1.0000000  16.0000000   8.0000000   8.0000000   8.0000000  15.0000000   8.0000000   8.0000000   1.0000000   8.0000000

  Atom        31          32          33
 IAtWgt=           1          16           1
 AtmWgt=   1.0078250  15.9949146   1.0078250
 NucSpn=           1           0           1
 AtZEff=  -0.0000000  -0.0000000  -0.0000000
 NQMom=    0.0000000   0.0000000   0.0000000
 NMagM=    2.7928460   0.0000000   2.7928460
 AtZNuc=   1.0000000   8.0000000   1.0000000
 Leave Link  101 at Sun Feb 19 14:25:43 2023, MaxMem=  6710886400 cpu:               2.2 elap:               0.1
 (Enter /data0/home/software/g16/l202.exe)
                          Input orientation:                          
 ---------------------------------------------------------------------
 Center     Atomic      Atomic             Coordinates (Angstroms)
 Number     Number       Type             X           Y           Z
 ---------------------------------------------------------------------
      1          6           0       10.996203    7.954371   11.138083
      2          6           0       11.599877    9.160041   11.478352
      3          6           0        9.373827    9.403292   11.718093
      4          7           0        9.623953    8.123020   11.304530
      5          1           0       11.435224    7.041895   10.761688
      6          1           0       12.634707    9.439103   11.448111
      7          1           0        8.384206    9.847057   11.869127
      8          6           0        8.600223    7.126480   11.054029
      9          1           0        8.994181    6.287131   10.445456
     10          1           0        8.192975    6.728727   11.997619
     11          1           0        7.751843    7.576215   10.468959
     12          7           0       10.581225   10.041981   11.846007
     13          6           0       10.757954   11.441316   12.238075
     14          1           0       11.340451   11.465300   13.188364
     15          1           0        9.751752   11.884365   12.456632
     16          6           0       11.475371   12.278767   11.156927
     17          1           0       12.094080   13.048990   11.661704
     18          1           0       12.200320   11.644459   10.595085
     19          6           0       10.520343   12.960470   10.182997
     20          1           0       11.081507   13.597710    9.474696
     21          1           0        9.824844   13.639694   10.705462
     22         16           0        9.570444   11.743016    9.247762
     23          8           0        8.970711   12.411181    8.084441
     24          8           0       10.577371   10.706526    8.878586
     25          8           0        8.594315   11.231815   10.250245
     26         15           0       10.130861    7.449115    7.474560
     27          8           0       11.153215    6.813412    8.298325
     28          8           0        8.739975    7.407611    8.237345
     29          1           0        8.018170    7.961954    7.736617
     30          8           0       10.382252    8.916224    6.949025
     31          1           0       10.558283    9.586841    7.778612
     32          8           0        9.770184    6.699050    6.104347
     33          1           0       10.462198    6.982634    5.402295
 ---------------------------------------------------------------------
                    Distance matrix (angstroms):
                    1          2          3          4          5
     1  C    0.000000
     2  C    1.390628   0.000000
     3  C    2.251197   2.252098   0.000000
     4  N    1.392558   2.238281   1.368464   0.000000
     5  H    1.080289   2.242155   3.277234   2.178121   0.000000
     6  H    2.232766   1.072224   3.272233   3.288971   2.767046
     7  H    3.307448   3.311380   1.095029   2.197281   4.289996
     8  C    2.536373   3.648746   2.494658   1.450471   2.851289
     9  H    2.695833   4.013744   3.387358   2.122524   2.574561
    10  H    3.177907   4.217571   2.936979   2.114740   3.483931
    11  H    3.334157   4.281909   2.743971   2.121785   3.733428
    12  N    2.243096   1.396653   1.371895   2.211782   3.302359
    13  C    3.664087   2.547593   2.517882   3.628850   4.689703
    14  H    4.080292   2.881955   3.206429   4.203098   5.046211
    15  H    4.328058   3.434318   2.616102   3.935910   5.399669
    16  C    4.350903   3.137717   3.605517   4.551897   5.251919
    17  H    5.237810   3.924510   4.549074   5.522163   6.109772
    18  H    3.919374   2.704261   3.777968   4.420578   4.668696
    19  C    5.118560   4.157716   4.040363   5.046016   6.016762
    20  H    5.883996   4.896555   5.053924   5.953569   6.690305
    21  H    5.820837   4.880102   4.379034   5.552741   6.791718
    22  S    4.467654   3.970628   3.408152   4.163836   5.279196
    23  O    5.769792   5.385263   4.734271   5.402224   6.486194
    24  O    3.585402   3.193105   3.348095   3.669975   4.208504
    25  O    4.159202   3.851480   2.470974   3.440389   5.088002
    26  P    3.798092   4.595174   4.732809   3.921705   3.559832
    27  O    3.064419   3.977279   4.644191   3.618146   2.489958
    28  O    3.715346   4.664137   4.062034   3.271216   3.710852
    29  H    4.520919   5.316448   4.446056   3.915927   4.655515
    30  O    4.341694   4.696473   4.898792   4.491616   4.377015
    31  H    3.760688   3.867189   4.117783   3.930374   4.018024
    32  O    5.330802   6.187421   6.243730   5.393605   4.957895
    33  H    5.841977   6.553921   6.850799   6.069556   5.447328
                    6          7          8          9         10
     6  H    0.000000
     7  H    4.290739   0.000000
     8  C    4.666968   2.848260   0.000000
     9  H    4.918707   3.882265   1.109086   0.000000
    10  H    5.232311   3.126829   1.102007   1.801707   0.000000
    11  H    5.317090   2.741729   1.124419   1.790445   1.802674
    12  N    2.176826   2.205770   3.612720   4.310354   4.087099
    13  C    2.855714   2.883134   4.967452   5.734980   5.370794
    14  H    2.968005   3.619182   5.557841   6.312049   5.810301
    15  H    3.912525   2.523087   5.092228   5.995646   5.405653
    16  C    3.080997   3.996967   5.901112   6.523971   6.502602
    17  H    3.656389   4.904953   6.903074   7.537332   7.434863
    18  H    2.404151   4.406423   5.795124   6.245213   6.495409
    19  C    4.297799   4.135149   6.203305   6.850658   6.895224
    20  H    4.858066   5.203473   7.108297   7.664455   7.867127
    21  H    5.108016   4.220622   6.636501   7.403903   7.217626
    22  S    4.420323   3.445776   5.051370   5.615446   5.882366
    23  O    5.794169   4.608966   6.073202   6.563454   6.943207
    24  O    3.527244   3.806835   4.632321   4.949002   5.588971
    25  O    4.579680   2.140673   4.183286   4.964665   4.846874
    26  P    5.100824   5.302183   3.906347   3.386513   4.973170
    27  O    4.360072   5.442521   3.769573   3.090076   4.738667
    28  O    5.441040   4.389454   2.834127   2.489147   3.860020
    29  H    6.104881   4.556889   3.470162   3.330982   4.439318
    30  O    5.058530   5.391293   4.819737   4.589543   5.921687
    31  H    4.218837   4.639681   4.540455   4.521787   5.618142
    32  O    6.653510   6.712941   5.104004   4.429118   6.100748
    33  H    6.877930   7.371763   5.952289   5.298327   6.979408
                   11         12         13         14         15
    11  H    0.000000
    12  N    3.997708   0.000000
    13  C    5.206292   1.463929   0.000000
    14  H    5.949643   2.098615   1.114866   0.000000
    15  H    5.148848   2.110750   1.120938   1.798614   0.000000
    16  C    6.037546   2.505502   1.544310   2.192412   2.194459
    17  H    7.087237   3.371172   2.168422   2.325236   2.734001
    18  H    6.029549   2.598886   2.195701   2.737986   3.085190
    19  C    6.061070   3.359596   2.566639   3.455480   2.630238
    20  H    6.952239   4.303093   3.520083   4.290170   3.687240
    21  H    6.412413   3.849220   2.837686   3.631784   2.480548
    22  S    4.707533   3.265896   3.231590   4.328787   3.217095
    23  O    5.527066   4.728239   4.624668   5.706171   4.472540
    24  O    4.506855   3.040925   3.443645   4.442096   3.856341
    25  O    3.757793   2.812467   2.945623   4.028439   2.575583
    26  P    3.826527   5.102483   6.246758   7.088047   6.681033
    27  O    4.106440   4.830826   6.090596   6.751859   6.705981
    28  O    2.446412   4.832447   6.029001   6.909407   6.234373
    29  H    2.772259   5.270944   6.314705   7.282344   6.377237
    30  O    4.593976   5.028653   5.872929   6.807737   6.288174
    31  H    4.376836   4.092845   4.833814   5.779776   5.273801
    32  O    4.888042   6.693253   7.815843   8.681369   8.199961
    33  H    5.776629   7.134087   8.166713   9.027098   8.619476
                   16         17         18         19         20
    16  C    0.000000
    17  H    1.109434   0.000000
    18  H    1.115152   1.766825   0.000000
    19  C    1.524906   2.161263   2.173482   0.000000
    20  H    2.173624   2.471720   2.514399   1.105744   0.000000
    21  H    2.186363   2.532343   3.104196   1.103646   1.759474
    22  S    2.749670   3.728461   2.956559   1.805316   2.403061
    23  O    3.966236   4.791560   4.161919   2.665899   2.792153
    24  O    2.910186   3.941229   2.541663   2.604804   2.994736
    25  O    3.196665   4.188400   3.645883   2.588891   3.519241
    26  P    6.220376   7.262576   5.623277   6.153240   6.535250
    27  O    6.176204   7.147026   5.450739   6.460560   6.885905
    28  O    6.303532   7.402798   5.956829   6.147318   6.732840
    29  H    6.502740   7.609027   6.262752   6.101705   6.645803
    30  O    5.496184   6.497650   4.903304   5.180113   5.365099
    31  H    4.415940   5.424348   3.855204   4.142931   4.386061
    32  O    7.718126   8.752511   7.108401   7.510227   7.789116
    33  H    7.886148   8.868140   7.191575   7.654607   7.792767
                   21         22         23         24         25
    21  H    0.000000
    22  S    2.405618   0.000000
    23  O    3.018036   1.469503   0.000000
    24  O    3.536559   1.491477   2.473433   0.000000
    25  O    2.742135   1.489673   2.494651   2.467770   0.000000
    26  P    6.989681   4.679305   5.132251   3.575107   4.937025
    27  O    7.359144   5.263800   6.011995   3.978019   5.466283
    28  O    6.790243   4.528395   5.011221   3.830151   4.324063
    29  H    6.656939   4.357699   4.563325   3.922535   4.164404
    30  O    6.060750   3.732824   3.936539   2.639405   4.410979
    31  H    5.052722   2.789860   3.254353   1.569714   3.559786
    32  O    8.327412   5.946642   6.098227   4.940427   6.254366
    33  H    8.535001   6.184180   6.235989   5.095609   6.711717
                   26         27         28         29         30
    26  P    0.000000
    27  O    1.458737   0.000000
    28  O    1.586861   2.486065   0.000000
    29  H    2.189781   3.385731   1.038762   0.000000
    30  O    1.578542   2.614730   2.575414   2.668298   0.000000
    31  H    2.201138   2.883740   2.875017   3.015658   1.081170
    32  O    1.603175   2.596034   2.472462   2.707173   2.450300
    33  H    2.149807   2.982135   3.344274   3.518721   2.477405
                   31         32         33
    31  H    0.000000
    32  O    3.429811   0.000000
    33  H    3.526756   1.025758   0.000000
 Symmetry turned off by external request.
 Stoichiometry    C7H15N2O7PS
 Framework group  C1[X(C7H15N2O7PS)]
 Deg. of freedom    93
 Full point group                 C1      NOp   1
 Rotational constants (GHZ):           0.5086568           0.2737984           0.2163261
 Leave Link  202 at Sun Feb 19 14:25:43 2023, MaxMem=  6710886400 cpu:               0.1 elap:               0.0
 (Enter /data0/home/software/g16/l122.exe)
 Counterpoise: doing full-system calculation.
 Leave Link  122 at Sun Feb 19 14:25:43 2023, MaxMem=  6710886400 cpu:               0.0 elap:               0.0
 (Enter /data0/home/software/g16/l301.exe)
 Standard basis: 6-311+G(2d,p) (5D, 7F)
 Ernie: Thresh=  0.10000D-02 Tol=  0.10000D-05 Strict=F.
   592 basis functions,   904 primitive gaussians,   628 cartesian basis functions
    79 alpha electrons       79 beta electrons
       nuclear repulsion energy      1909.7821851620 Hartrees.
 IExCor= 4336 DFT=T Ex+Corr=M062X ExCW=0 ScaHFX=  0.540000
 ScaDFX=  1.000000  1.000000  1.000000  1.000000 ScalE2=  1.000000  1.000000
 IRadAn=      5 IRanWt=     -1 IRanGd=            0 ICorTp=0 IEmpDi=131
 NAtoms=   33 NActive=   33 NUniq=   33 SFac= 1.00D+00 NAtFMM=   60 NAOKFM=F Big=F
 Integral buffers will be    131072 words long.
 Raffenetti 2 integral format.
 Two-electron integral symmetry is turned off.
 R6Disp:  Grimme-D3 Dispersion energy=       -0.0024295925 Hartrees.
 Nuclear repulsion after empirical dispersion term =     1909.7797555695 Hartrees.
 Leave Link  301 at Sun Feb 19 14:25:44 2023, MaxMem=  6710886400 cpu:               1.1 elap:               0.1
 (Enter /data0/home/software/g16/l302.exe)
 NPDir=0 NMtPBC=     1 NCelOv=     1 NCel=       1 NClECP=     1 NCelD=      1
         NCelK=      1 NCelE2=     1 NClLst=     1 CellRange=     0.0.
 One-electron integrals computed using PRISM.
 NBasis=   592 RedAO= T EigKep=  7.47D-06  NBF=   592
 NBsUse=   592 1.00D-06 EigRej= -1.00D+00 NBFU=   592
 Precomputing XC quadrature grid using
 IXCGrd= 4 IRadAn=           5 IRanWt=          -1 IRanGd=           0 AccXCQ= 0.00D+00.
 Generated NRdTot=       0 NPtTot=           0 NUsed=           0 NTot=          32
 NSgBfM=   627   627   627   627   627 MxSgAt=    33 MxSgA2=    33.
 Leave Link  302 at Sun Feb 19 14:25:44 2023, MaxMem=  6710886400 cpu:              15.6 elap:               0.7
 (Enter /data0/home/software/g16/l303.exe)
 DipDrv:  MaxL=1.
 Leave Link  303 at Sun Feb 19 14:25:44 2023, MaxMem=  6710886400 cpu:               1.5 elap:               0.1
 (Enter /data0/home/software/g16/l401.exe)
 ExpMin= 3.48D-02 ExpMax= 9.34D+04 ExpMxC= 3.17D+03 IAcc=3 IRadAn=         5 AccDes= 0.00D+00
 Harris functional with IExCor= 1009 and IRadAn=       5 diagonalized for initial guess.
 HarFok:  IExCor= 1009 AccDes= 0.00D+00 IRadAn=         5 IDoV= 1 UseB2=F ITyADJ=14
 ICtDFT=  3500011 ScaDFX=  1.000000  1.000000  1.000000  1.000000
 FoFCou: FMM=F IPFlag=           0 FMFlag=      100000 FMFlg1=           0
         NFxFlg=           0 DoJE=T BraDBF=F KetDBF=T FulRan=T
         wScrn=  0.000000 ICntrl=       500 IOpCl=  0 I1Cent=   200000004 NGrid=           0
         NMat0=    1 NMatS0=      1 NMatT0=    0 NMatD0=    1 NMtDS0=    0 NMtDT0=    0
 Symmetry not used in FoFCou.
 Harris En= -1650.75807327938    
 JPrj=0 DoOrth=F DoCkMO=F.
 Leave Link  401 at Sun Feb 19 14:25:47 2023, MaxMem=  6710886400 cpu:              57.7 elap:               2.4
 (Enter /data0/home/software/g16/l502.exe)
 Two-electron integral symmetry not used.
 Closed shell SCF:
 Using DIIS extrapolation, IDIIS=  1040.
 NGot=  6710886400 LenX=  6710078225 LenY=  6709683213
 Requested convergence on RMS density matrix=1.00D-08 within 128 cycles.
 Requested convergence on MAX density matrix=1.00D-06.
 Requested convergence on             energy=1.00D-06.
 No special actions if energy rises.
 Fock matrices will be formed incrementally for  20 cycles.

 Cycle   1  Pass 1  IDiag  1:
 FoFJK:  IHMeth= 1 ICntrl=       0 DoSepK=F KAlg= 0 I1Cent=           0 FoldK=F
 IRaf= 840000000 NMat=       1 IRICut=       1 DoRegI=T DoRafI=F ISym2E= 0 IDoP0=0 IntGTp=1.
 FoFCou: FMM=F IPFlag=           0 FMFlag=      100000 FMFlg1=           0
         NFxFlg=           0 DoJE=F BraDBF=F KetDBF=F FulRan=T
         wScrn=  0.000000 ICntrl=         0 IOpCl=  0 I1Cent=           0 NGrid=           0
         NMat0=    1 NMatS0=      1 NMatT0=    0 NMatD0=    1 NMtDS0=    0 NMtDT0=    0
 Symmetry not used in FoFCou.
 E= -1650.71146174751    
 DIIS: error= 2.95D-02 at cycle   1 NSaved=   1.
 NSaved= 1 IEnMin= 1 EnMin= -1650.71146174751     IErMin= 1 ErrMin= 2.95D-02
 ErrMax= 2.95D-02  0.00D+00 EMaxC= 1.00D-01 BMatC= 1.20D+00 BMatP= 1.20D+00
 IDIUse=3 WtCom= 7.05D-01 WtEn= 2.95D-01
 Coeff-Com:  0.100D+01
 Coeff-En:   0.100D+01
 Coeff:      0.100D+01
 Gap=     0.273 Goal=   None    Shift=    0.000
 GapD=    0.273 DampG=1.000 DampE=0.500 DampFc=0.5000 IDamp=-1.
 Damping current iteration by 5.00D-01
 RMSDP=4.38D-03 MaxDP=2.37D-01              OVMax= 2.34D-01

 Cycle   2  Pass 1  IDiag  1:
 RMSU=  2.19D-03    CP:  1.00D+00
 E= -1651.01596561118     Delta-E=       -0.304503863672 Rises=F Damp=T
 DIIS: error= 5.06D-03 at cycle   2 NSaved=   2.
 NSaved= 2 IEnMin= 2 EnMin= -1651.01596561118     IErMin= 2 ErrMin= 5.06D-03
 ErrMax= 5.06D-03  0.00D+00 EMaxC= 1.00D-01 BMatC= 7.30D-02 BMatP= 1.20D+00
 IDIUse=3 WtCom= 9.49D-01 WtEn= 5.06D-02
 Coeff-Com:  0.365D-01 0.963D+00
 Coeff-En:   0.133D+00 0.867D+00
 Coeff:      0.414D-01 0.959D+00
 Gap=     0.290 Goal=   None    Shift=    0.000
 RMSDP=2.04D-03 MaxDP=3.95D-01 DE=-3.05D-01 OVMax= 1.26D-01

 Cycle   3  Pass 1  IDiag  1:
 RMSU=  1.60D-03    CP:  9.01D-01  8.01D-01
 E= -1651.39245196945     Delta-E=       -0.376486358271 Rises=F Damp=F
 DIIS: error= 4.02D-03 at cycle   3 NSaved=   3.
 NSaved= 3 IEnMin= 3 EnMin= -1651.39245196945     IErMin= 3 ErrMin= 4.02D-03
 ErrMax= 4.02D-03  0.00D+00 EMaxC= 1.00D-01 BMatC= 2.72D-02 BMatP= 7.30D-02
 IDIUse=3 WtCom= 9.60D-01 WtEn= 4.02D-02
 Coeff-Com: -0.486D-01 0.343D+00 0.706D+00
 Coeff-En:   0.000D+00 0.000D+00 0.100D+01
 Coeff:     -0.467D-01 0.329D+00 0.718D+00
 Gap=     0.285 Goal=   None    Shift=    0.000
 RMSDP=4.81D-04 MaxDP=2.47D-02 DE=-3.76D-01 OVMax= 3.29D-02

 Cycle   4  Pass 1  IDiag  1:
 RMSU=  4.37D-04    CP:  8.97D-01  8.88D-01  9.73D-01
 E= -1651.40744575687     Delta-E=       -0.014993787421 Rises=F Damp=F
 DIIS: error= 1.66D-03 at cycle   4 NSaved=   4.
 NSaved= 4 IEnMin= 4 EnMin= -1651.40744575687     IErMin= 4 ErrMin= 1.66D-03
 ErrMax= 1.66D-03  0.00D+00 EMaxC= 1.00D-01 BMatC= 7.06D-03 BMatP= 2.72D-02
 IDIUse=3 WtCom= 9.83D-01 WtEn= 1.66D-02
 Coeff-Com: -0.283D-01 0.810D-01 0.384D+00 0.563D+00
 Coeff-En:   0.000D+00 0.000D+00 0.188D+00 0.812D+00
 Coeff:     -0.278D-01 0.797D-01 0.381D+00 0.567D+00
 Gap=     0.284 Goal=   None    Shift=    0.000
 RMSDP=2.05D-04 MaxDP=2.41D-02 DE=-1.50D-02 OVMax= 1.17D-02

 Cycle   5  Pass 1  IDiag  1:
 RMSU=  1.24D-04    CP:  8.92D-01  8.66D-01  1.02D+00  7.10D-01
 E= -1651.41260375791     Delta-E=       -0.005158001036 Rises=F Damp=F
 DIIS: error= 3.03D-04 at cycle   5 NSaved=   5.
 NSaved= 5 IEnMin= 5 EnMin= -1651.41260375791     IErMin= 5 ErrMin= 3.03D-04
 ErrMax= 3.03D-04  0.00D+00 EMaxC= 1.00D-01 BMatC= 2.23D-04 BMatP= 7.06D-03
 IDIUse=3 WtCom= 9.97D-01 WtEn= 3.03D-03
 Coeff-Com: -0.865D-02 0.172D-01 0.123D+00 0.241D+00 0.627D+00
 Coeff-En:   0.000D+00 0.000D+00 0.000D+00 0.000D+00 0.100D+01
 Coeff:     -0.862D-02 0.172D-01 0.123D+00 0.240D+00 0.628D+00
 Gap=     0.283 Goal=   None    Shift=    0.000
 RMSDP=4.28D-05 MaxDP=1.75D-03 DE=-5.16D-03 OVMax= 2.47D-03

 Cycle   6  Pass 1  IDiag  1:
 RMSU=  3.20D-05    CP:  8.92D-01  8.68D-01  1.02D+00  7.38D-01  8.00D-01
 E= -1651.41275599210     Delta-E=       -0.000152234190 Rises=F Damp=F
 DIIS: error= 1.08D-04 at cycle   6 NSaved=   6.
 NSaved= 6 IEnMin= 6 EnMin= -1651.41275599210     IErMin= 6 ErrMin= 1.08D-04
 ErrMax= 1.08D-04  0.00D+00 EMaxC= 1.00D-01 BMatC= 2.80D-05 BMatP= 2.23D-04
 IDIUse=3 WtCom= 9.99D-01 WtEn= 1.08D-03
 Coeff-Com: -0.185D-02 0.178D-02 0.276D-01 0.712D-01 0.315D+00 0.586D+00
 Coeff-En:   0.000D+00 0.000D+00 0.000D+00 0.000D+00 0.438D-02 0.996D+00
 Coeff:     -0.185D-02 0.178D-02 0.275D-01 0.711D-01 0.315D+00 0.587D+00
 Gap=     0.283 Goal=   None    Shift=    0.000
 RMSDP=1.36D-05 MaxDP=6.23D-04 DE=-1.52D-04 OVMax= 9.94D-04

 Cycle   7  Pass 1  IDiag  1:
 RMSU=  1.15D-05    CP:  8.92D-01  8.67D-01  1.02D+00  7.46D-01  8.20D-01
                    CP:  8.44D-01
 E= -1651.41277718066     Delta-E=       -0.000021188567 Rises=F Damp=F
 DIIS: error= 2.75D-05 at cycle   7 NSaved=   7.
 NSaved= 7 IEnMin= 7 EnMin= -1651.41277718066     IErMin= 7 ErrMin= 2.75D-05
 ErrMax= 2.75D-05  0.00D+00 EMaxC= 1.00D-01 BMatC= 2.29D-06 BMatP= 2.80D-05
 IDIUse=1 WtCom= 1.00D+00 WtEn= 0.00D+00
 Coeff-Com:  0.150D-03-0.112D-02-0.222D-02 0.431D-02 0.746D-01 0.254D+00
 Coeff-Com:  0.670D+00
 Coeff:      0.150D-03-0.112D-02-0.222D-02 0.431D-02 0.746D-01 0.254D+00
 Coeff:      0.670D+00
 Gap=     0.283 Goal=   None    Shift=    0.000
 RMSDP=4.85D-06 MaxDP=4.10D-04 DE=-2.12D-05 OVMax= 2.97D-04

 Cycle   8  Pass 1  IDiag  1:
 RMSU=  3.72D-06    CP:  8.92D-01  8.67D-01  1.02D+00  7.50D-01  8.26D-01
                    CP:  8.85D-01  9.41D-01
 E= -1651.41277896726     Delta-E=       -0.000001786599 Rises=F Damp=F
 DIIS: error= 1.22D-05 at cycle   8 NSaved=   8.
 NSaved= 8 IEnMin= 8 EnMin= -1651.41277896726     IErMin= 8 ErrMin= 1.22D-05
 ErrMax= 1.22D-05  0.00D+00 EMaxC= 1.00D-01 BMatC= 2.93D-07 BMatP= 2.29D-06
 IDIUse=1 WtCom= 1.00D+00 WtEn= 0.00D+00
 Coeff-Com:  0.321D-03-0.701D-03-0.520D-02-0.869D-02-0.131D-01 0.157D-01
 Coeff-Com:  0.279D+00 0.732D+00
 Coeff:      0.321D-03-0.701D-03-0.520D-02-0.869D-02-0.131D-01 0.157D-01
 Coeff:      0.279D+00 0.732D+00
 Gap=     0.283 Goal=   None    Shift=    0.000
 RMSDP=3.14D-06 MaxDP=7.04D-04 DE=-1.79D-06 OVMax= 1.50D-04

 Cycle   9  Pass 1  IDiag  1:
 RMSU=  1.81D-06    CP:  8.92D-01  8.66D-01  1.02D+00  7.50D-01  8.40D-01
                    CP:  9.01D-01  9.54D-01  8.37D-01
 E= -1651.41277922908     Delta-E=       -0.000000261819 Rises=F Damp=F
 DIIS: error= 4.18D-06 at cycle   9 NSaved=   9.
 NSaved= 9 IEnMin= 9 EnMin= -1651.41277922908     IErMin= 9 ErrMin= 4.18D-06
 ErrMax= 4.18D-06  0.00D+00 EMaxC= 1.00D-01 BMatC= 4.33D-08 BMatP= 2.93D-07
 IDIUse=1 WtCom= 1.00D+00 WtEn= 0.00D+00
 Coeff-Com:  0.129D-03-0.216D-03-0.232D-02-0.449D-02-0.125D-01-0.141D-01
 Coeff-Com:  0.753D-01 0.353D+00 0.605D+00
 Coeff:      0.129D-03-0.216D-03-0.232D-02-0.449D-02-0.125D-01-0.141D-01
 Coeff:      0.753D-01 0.353D+00 0.605D+00
 Gap=     0.283 Goal=   None    Shift=    0.000
 RMSDP=7.11D-07 MaxDP=8.47D-05 DE=-2.62D-07 OVMax= 5.13D-05

 Cycle  10  Pass 1  IDiag  1:
 RMSU=  5.11D-07    CP:  8.91D-01  8.66D-01  1.02D+00  7.51D-01  8.40D-01
                    CP:  9.07D-01  9.75D-01  8.97D-01  9.26D-01
 E= -1651.41277926732     Delta-E=       -0.000000038233 Rises=F Damp=F
 DIIS: error= 1.36D-06 at cycle  10 NSaved=  10.
 NSaved=10 IEnMin=10 EnMin= -1651.41277926732     IErMin=10 ErrMin= 1.36D-06
 ErrMax= 1.36D-06  0.00D+00 EMaxC= 1.00D-01 BMatC= 3.56D-09 BMatP= 4.33D-08
 IDIUse=1 WtCom= 1.00D+00 WtEn= 0.00D+00
 Coeff-Com:  0.783D-05 0.203D-05-0.261D-03-0.611D-03-0.309D-02-0.716D-02
 Coeff-Com: -0.623D-02 0.400D-01 0.229D+00 0.748D+00
 Coeff:      0.783D-05 0.203D-05-0.261D-03-0.611D-03-0.309D-02-0.716D-02
 Coeff:     -0.623D-02 0.400D-01 0.229D+00 0.748D+00
 Gap=     0.283 Goal=   None    Shift=    0.000
 RMSDP=2.56D-07 MaxDP=2.34D-05 DE=-3.82D-08 OVMax= 1.82D-05

 Cycle  11  Pass 1  IDiag  1:
 RMSU=  2.00D-07    CP:  8.91D-01  8.66D-01  1.02D+00  7.51D-01  8.40D-01
                    CP:  9.07D-01  9.75D-01  9.20D-01  9.78D-01  9.62D-01
 E= -1651.41277927144     Delta-E=       -0.000000004127 Rises=F Damp=F
 DIIS: error= 5.41D-07 at cycle  11 NSaved=  11.
 NSaved=11 IEnMin=11 EnMin= -1651.41277927144     IErMin=11 ErrMin= 5.41D-07
 ErrMax= 5.41D-07  0.00D+00 EMaxC= 1.00D-01 BMatC= 4.89D-10 BMatP= 3.56D-09
 IDIUse=1 WtCom= 1.00D+00 WtEn= 0.00D+00
 Coeff-Com: -0.153D-04 0.321D-04 0.235D-03 0.406D-03 0.504D-03-0.916D-03
 Coeff-Com: -0.136D-01-0.382D-01-0.703D-02 0.282D+00 0.777D+00
 Coeff:     -0.153D-04 0.321D-04 0.235D-03 0.406D-03 0.504D-03-0.916D-03
 Coeff:     -0.136D-01-0.382D-01-0.703D-02 0.282D+00 0.777D+00
 Gap=     0.283 Goal=   None    Shift=    0.000
 RMSDP=1.58D-07 MaxDP=3.58D-05 DE=-4.13D-09 OVMax= 9.01D-06

 Cycle  12  Pass 1  IDiag  1:
 RMSU=  5.57D-08    CP:  8.91D-01  8.66D-01  1.02D+00  7.51D-01  8.41D-01
                    CP:  9.08D-01  9.73D-01  9.20D-01  1.02D+00  1.08D+00
                    CP:  1.03D+00
 E= -1651.41277927207     Delta-E=       -0.000000000629 Rises=F Damp=F
 DIIS: error= 1.51D-07 at cycle  12 NSaved=  12.
 NSaved=12 IEnMin=12 EnMin= -1651.41277927207     IErMin=12 ErrMin= 1.51D-07
 ErrMax= 1.51D-07  0.00D+00 EMaxC= 1.00D-01 BMatC= 5.38D-11 BMatP= 4.89D-10
 IDIUse=1 WtCom= 1.00D+00 WtEn= 0.00D+00
 Coeff-Com: -0.543D-05 0.102D-04 0.105D-03 0.195D-03 0.481D-03 0.426D-03
 Coeff-Com: -0.397D-02-0.171D-01-0.260D-01 0.293D-01 0.286D+00 0.731D+00
 Coeff:     -0.543D-05 0.102D-04 0.105D-03 0.195D-03 0.481D-03 0.426D-03
 Coeff:     -0.397D-02-0.171D-01-0.260D-01 0.293D-01 0.286D+00 0.731D+00
 Gap=     0.283 Goal=   None    Shift=    0.000
 RMSDP=2.84D-08 MaxDP=4.47D-06 DE=-6.29D-10 OVMax= 3.14D-06

 Cycle  13  Pass 1  IDiag  1:
 RMSU=  1.97D-08    CP:  8.91D-01  8.66D-01  1.02D+00  7.51D-01  8.41D-01
                    CP:  9.08D-01  9.73D-01  9.20D-01  1.03D+00  1.09D+00
                    CP:  1.07D+00  1.04D+00
 E= -1651.41277927217     Delta-E=       -0.000000000099 Rises=F Damp=F
 DIIS: error= 7.75D-08 at cycle  13 NSaved=  13.
 NSaved=13 IEnMin=13 EnMin= -1651.41277927217     IErMin=13 ErrMin= 7.75D-08
 ErrMax= 7.75D-08  0.00D+00 EMaxC= 1.00D-01 BMatC= 1.04D-11 BMatP= 5.38D-11
 IDIUse=1 WtCom= 1.00D+00 WtEn= 0.00D+00
 Coeff-Com: -0.181D-06-0.820D-07 0.154D-04 0.304D-04 0.140D-03 0.288D-03
 Coeff-Com:  0.585D-04-0.210D-02-0.105D-01-0.262D-01 0.194D-01 0.332D+00
 Coeff-Com:  0.686D+00
 Coeff:     -0.181D-06-0.820D-07 0.154D-04 0.304D-04 0.140D-03 0.288D-03
 Coeff:      0.585D-04-0.210D-02-0.105D-01-0.262D-01 0.194D-01 0.332D+00
 Coeff:      0.686D+00
 Gap=     0.283 Goal=   None    Shift=    0.000
 RMSDP=1.24D-08 MaxDP=7.30D-07 DE=-9.91D-11 OVMax= 1.43D-06

 Cycle  14  Pass 1  IDiag  1:
 RMSU=  7.89D-09    CP:  8.91D-01  8.66D-01  1.02D+00  7.51D-01  8.41D-01
                    CP:  9.08D-01  9.72D-01  9.20D-01  1.03D+00  1.10D+00
                    CP:  1.10D+00  1.14D+00  9.55D-01
 E= -1651.41277927216     Delta-E=        0.000000000010 Rises=F Damp=F
 DIIS: error= 3.18D-08 at cycle  14 NSaved=  14.
 NSaved=14 IEnMin=13 EnMin= -1651.41277927217     IErMin=14 ErrMin= 3.18D-08
 ErrMax= 3.18D-08  0.00D+00 EMaxC= 1.00D-01 BMatC= 1.74D-12 BMatP= 1.04D-11
 IDIUse=1 WtCom= 1.00D+00 WtEn= 0.00D+00
 Coeff-Com:  0.674D-06-0.145D-05-0.658D-05-0.119D-04 0.249D-05 0.773D-04
 Coeff-Com:  0.558D-03 0.135D-02-0.157D-02-0.177D-01-0.324D-01 0.625D-01
 Coeff-Com:  0.347D+00 0.640D+00
 Coeff:      0.674D-06-0.145D-05-0.658D-05-0.119D-04 0.249D-05 0.773D-04
 Coeff:      0.558D-03 0.135D-02-0.157D-02-0.177D-01-0.324D-01 0.625D-01
 Coeff:      0.347D+00 0.640D+00
 Gap=     0.283 Goal=   None    Shift=    0.000
 RMSDP=4.20D-09 MaxDP=3.53D-07 DE= 1.05D-11 OVMax= 5.17D-07

 SCF Done:  E(RM062X) =  -1651.41277927     A.U. after   14 cycles
            NFock= 14  Conv=0.42D-08     -V/T= 2.0031
 KE= 1.646346737625D+03 PE=-7.717272343373D+03 EE= 2.509733070906D+03
 Leave Link  502 at Sun Feb 19 14:28:03 2023, MaxMem=  6710886400 cpu:            3264.9 elap:             136.5
 (Enter /data0/home/software/g16/l601.exe)
 Copying SCF densities to generalized density rwf, IOpCl= 0 IROHF=0.

 **********************************************************************

            Population analysis using the SCF density.

 **********************************************************************

 Alpha  occ. eigenvalues --  -90.07278 -78.14177 -19.66316 -19.65136 -19.62655
 Alpha  occ. eigenvalues --  -19.59134 -19.57706 -19.57051 -19.57007 -14.86743
 Alpha  occ. eigenvalues --  -14.86432 -10.67333 -10.62481 -10.61938 -10.61762
 Alpha  occ. eigenvalues --  -10.61188 -10.57418 -10.56466  -8.40716  -6.94939
 Alpha  occ. eigenvalues --   -6.33011  -6.32958  -6.32929  -5.06881  -5.06820
 Alpha  occ. eigenvalues --   -5.06626  -1.21705  -1.21269  -1.19282  -1.14426
 Alpha  occ. eigenvalues --   -1.12016  -1.08361  -1.08142  -1.07559  -1.07136
 Alpha  occ. eigenvalues --   -0.93247  -0.90099  -0.86418  -0.81736  -0.75645
 Alpha  occ. eigenvalues --   -0.72617  -0.70834  -0.69893  -0.66336  -0.65158
 Alpha  occ. eigenvalues --   -0.62616  -0.60774  -0.60184  -0.58111  -0.57345
 Alpha  occ. eigenvalues --   -0.56828  -0.55853  -0.54875  -0.54420  -0.53528
 Alpha  occ. eigenvalues --   -0.53313  -0.51659  -0.50929  -0.50525  -0.49154
 Alpha  occ. eigenvalues --   -0.48738  -0.48227  -0.46841  -0.45549  -0.44841
 Alpha  occ. eigenvalues --   -0.44388  -0.43420  -0.43196  -0.41415  -0.40191
 Alpha  occ. eigenvalues --   -0.39461  -0.38355  -0.37040  -0.36043  -0.35884
 Alpha  occ. eigenvalues --   -0.34855  -0.33860  -0.33334  -0.30619
 Alpha virt. eigenvalues --   -0.02315  -0.00188   0.00001   0.01118   0.01237
 Alpha virt. eigenvalues --    0.01817   0.02068   0.02692   0.03483   0.03639
 Alpha virt. eigenvalues --    0.03933   0.05097   0.05448   0.05902   0.06291
 Alpha virt. eigenvalues --    0.06652   0.07279   0.08036   0.08567   0.08945
 Alpha virt. eigenvalues --    0.09622   0.09996   0.10055   0.10592   0.10856
 Alpha virt. eigenvalues --    0.12062   0.12425   0.12727   0.13283   0.13660
 Alpha virt. eigenvalues --    0.14170   0.14407   0.14721   0.15147   0.15445
 Alpha virt. eigenvalues --    0.15890   0.16238   0.16621   0.16893   0.17421
 Alpha virt. eigenvalues --    0.17567   0.17882   0.17986   0.18781   0.18982
 Alpha virt. eigenvalues --    0.19227   0.19353   0.19879   0.20606   0.20845
 Alpha virt. eigenvalues --    0.21040   0.21352   0.22143   0.22387   0.22859
 Alpha virt. eigenvalues --    0.22942   0.23458   0.24007   0.24397   0.24673
 Alpha virt. eigenvalues --    0.25312   0.25787   0.26264   0.26700   0.26828
 Alpha virt. eigenvalues --    0.27287   0.27750   0.28266   0.28418   0.29118
 Alpha virt. eigenvalues --    0.29363   0.29707   0.30011   0.30359   0.30795
 Alpha virt. eigenvalues --    0.31078   0.31558   0.31850   0.32587   0.32754
 Alpha virt. eigenvalues --    0.33328   0.33442   0.33602   0.34088   0.34707
 Alpha virt. eigenvalues --    0.35188   0.35898   0.36367   0.36841   0.37094
 Alpha virt. eigenvalues --    0.37485   0.38244   0.38780   0.39157   0.39977
 Alpha virt. eigenvalues --    0.40705   0.41205   0.41624   0.41930   0.42468
 Alpha virt. eigenvalues --    0.43318   0.44006   0.44081   0.44741   0.45125
 Alpha virt. eigenvalues --    0.46204   0.46507   0.47639   0.48086   0.48464
 Alpha virt. eigenvalues --    0.48850   0.49299   0.50390   0.50879   0.51958
 Alpha virt. eigenvalues --    0.52392   0.53608   0.54714   0.55757   0.56050
 Alpha virt. eigenvalues --    0.57337   0.57584   0.58256   0.59154   0.60108
 Alpha virt. eigenvalues --    0.60417   0.60809   0.61611   0.62257   0.62815
 Alpha virt. eigenvalues --    0.64373   0.64825   0.66043   0.66408   0.66458
 Alpha virt. eigenvalues --    0.67455   0.67486   0.68625   0.69052   0.69777
 Alpha virt. eigenvalues --    0.70513   0.70741   0.70939   0.72733   0.74283
 Alpha virt. eigenvalues --    0.74749   0.75072   0.76471   0.76979   0.77339
 Alpha virt. eigenvalues --    0.77491   0.78539   0.79162   0.80711   0.80904
 Alpha virt. eigenvalues --    0.81849   0.82721   0.83341   0.84642   0.86009
 Alpha virt. eigenvalues --    0.87005   0.87214   0.87991   0.90252   0.90515
 Alpha virt. eigenvalues --    0.91128   0.92134   0.92553   0.93122   0.93836
 Alpha virt. eigenvalues --    0.95071   0.95755   0.98255   0.99782   1.00478
 Alpha virt. eigenvalues --    1.01683   1.03957   1.05599   1.05998   1.07599
 Alpha virt. eigenvalues --    1.08242   1.09245   1.10845   1.11638   1.12587
 Alpha virt. eigenvalues --    1.13704   1.13966   1.14741   1.15402   1.15870
 Alpha virt. eigenvalues --    1.17898   1.18327   1.19184   1.19761   1.21033
 Alpha virt. eigenvalues --    1.21681   1.21786   1.22512   1.22721   1.23710
 Alpha virt. eigenvalues --    1.24439   1.25596   1.26019   1.26573   1.27383
 Alpha virt. eigenvalues --    1.27802   1.28563   1.28797   1.29742   1.30224
 Alpha virt. eigenvalues --    1.31273   1.32277   1.33136   1.33663   1.34428
 Alpha virt. eigenvalues --    1.35285   1.35797   1.36214   1.37150   1.37701
 Alpha virt. eigenvalues --    1.38910   1.40130   1.41511   1.41711   1.42621
 Alpha virt. eigenvalues --    1.43007   1.43949   1.44150   1.45422   1.46005
 Alpha virt. eigenvalues --    1.46242   1.47720   1.48784   1.49443   1.49862
 Alpha virt. eigenvalues --    1.51207   1.51874   1.52348   1.52993   1.54162
 Alpha virt. eigenvalues --    1.55529   1.56702   1.58433   1.59185   1.60051
 Alpha virt. eigenvalues --    1.60353   1.62164   1.63177   1.63699   1.64963
 Alpha virt. eigenvalues --    1.66794   1.67292   1.67672   1.69086   1.70083
 Alpha virt. eigenvalues --    1.71041   1.71969   1.72713   1.75081   1.75692
 Alpha virt. eigenvalues --    1.76602   1.77197   1.77965   1.78566   1.79111
 Alpha virt. eigenvalues --    1.80234   1.82353   1.84000   1.84704   1.86391
 Alpha virt. eigenvalues --    1.87716   1.87890   1.88350   1.89611   1.90499
 Alpha virt. eigenvalues --    1.91292   1.92383   1.93474   1.95110   1.95346
 Alpha virt. eigenvalues --    1.96192   1.97629   1.98158   1.99422   2.00084
 Alpha virt. eigenvalues --    2.02395   2.03833   2.04805   2.05430   2.06815
 Alpha virt. eigenvalues --    2.07233   2.09451   2.10352   2.11632   2.12412
 Alpha virt. eigenvalues --    2.13933   2.15421   2.15901   2.16686   2.18385
 Alpha virt. eigenvalues --    2.19819   2.20964   2.21924   2.22823   2.24615
 Alpha virt. eigenvalues --    2.26170   2.26445   2.27329   2.27890   2.29167
 Alpha virt. eigenvalues --    2.31296   2.32084   2.33540   2.34529   2.35324
 Alpha virt. eigenvalues --    2.36243   2.36378   2.38946   2.40390   2.41559
 Alpha virt. eigenvalues --    2.42601   2.43436   2.44522   2.45898   2.46691
 Alpha virt. eigenvalues --    2.48783   2.50575   2.52422   2.53326   2.55640
 Alpha virt. eigenvalues --    2.58245   2.67063   2.69644   2.70969   2.72419
 Alpha virt. eigenvalues --    2.73231   2.74149   2.76694   2.77050   2.78937
 Alpha virt. eigenvalues --    2.79417   2.80571   2.82625   2.84773   2.86674
 Alpha virt. eigenvalues --    2.87696   2.88850   2.89595   2.90843   2.92139
 Alpha virt. eigenvalues --    2.93803   2.95690   2.96814   2.98534   2.98966
 Alpha virt. eigenvalues --    2.99586   3.00288   3.02107   3.04510   3.06748
 Alpha virt. eigenvalues --    3.08944   3.10684   3.15626   3.18228   3.18528
 Alpha virt. eigenvalues --    3.22058   3.24465   3.25916   3.29976   3.31426
 Alpha virt. eigenvalues --    3.32966   3.34604   3.36164   3.37499   3.39163
 Alpha virt. eigenvalues --    3.41287   3.43866   3.46440   3.46745   3.48866
 Alpha virt. eigenvalues --    3.49986   3.50929   3.51307   3.52789   3.55535
 Alpha virt. eigenvalues --    3.56104   3.58606   3.58931   3.62077   3.62598
 Alpha virt. eigenvalues --    3.63472   3.64455   3.65153   3.67535   3.68414
 Alpha virt. eigenvalues --    3.70578   3.71566   3.73393   3.80911   3.84100
 Alpha virt. eigenvalues --    3.86643   3.89848   3.90523   3.92905   3.96886
 Alpha virt. eigenvalues --    4.03572   4.04957   4.06525   4.15182   4.15300
 Alpha virt. eigenvalues --    4.16383   4.18797   4.20232   4.24295   4.38414
 Alpha virt. eigenvalues --    4.49400   4.53829   4.95724   5.00854   5.03617
 Alpha virt. eigenvalues --    5.06812   5.08153   5.10755   5.11926   5.12678
 Alpha virt. eigenvalues --    5.14751   5.15392   5.17560   5.18968   5.20151
 Alpha virt. eigenvalues --    5.20758   5.23637   5.24103   5.26823   5.29970
 Alpha virt. eigenvalues --    5.30739   5.31703   5.32070   5.34157   5.38559
 Alpha virt. eigenvalues --    5.41849   5.43798   5.45572   5.46851   5.53581
 Alpha virt. eigenvalues --    5.55173   5.57240   5.57844   5.59048   5.64108
 Alpha virt. eigenvalues --    5.70178   5.85378   6.76459   6.77346   6.79519
 Alpha virt. eigenvalues --    6.80619   6.81072   6.81367   6.82482   6.83609
 Alpha virt. eigenvalues --    6.85083   6.87011   6.87650   6.89624   6.90117
 Alpha virt. eigenvalues --    6.92182   6.93718   6.96686   6.97898   6.99053
 Alpha virt. eigenvalues --    7.00901   7.02595   7.03381   7.06189   7.07094
 Alpha virt. eigenvalues --    7.12230   7.15545   7.19447   7.23571   7.28526
 Alpha virt. eigenvalues --    7.30179   7.31208   7.37513   7.39088   7.42724
 Alpha virt. eigenvalues --    7.44100   7.44853   7.71488   8.61242  14.28397
 Alpha virt. eigenvalues --   14.30692  14.41485  17.77317  17.78936  17.86076
 Alpha virt. eigenvalues --   23.91684  23.95431  24.00499  24.02970  24.04250
 Alpha virt. eigenvalues --   24.10081  24.17353  35.59515  35.69335  50.04605
 Alpha virt. eigenvalues --   50.05251  50.08957  50.10052  50.12665  50.14185
 Alpha virt. eigenvalues --   50.19440 163.95732 189.92065
          Condensed to atoms (all electrons):
               1          2          3          4          5          6
     1  C    8.623456  -2.023165  -0.474533  -0.090782   0.384328  -0.022781
     2  C   -2.023165   7.444497  -0.108948   0.242537   0.001233   0.388462
     3  C   -0.474533  -0.108948   6.569098   0.150956   0.005114   0.010124
     4  N   -0.090782   0.242537   0.150956   6.335949  -0.039561   0.009779
     5  H    0.384328   0.001233   0.005114  -0.039561   0.436358  -0.001248
     6  H   -0.022781   0.388462   0.010124   0.009779  -0.001248   0.478423
     7  H    0.013404   0.002027   0.419816  -0.036438   0.000001  -0.000079
     8  C   -0.065861  -0.031125  -0.214872   0.142166  -0.001355  -0.001550
     9  H    0.007299   0.014241  -0.012704  -0.043554   0.001964  -0.000009
    10  H   -0.012336   0.009623  -0.005435  -0.050067   0.000366   0.000005
    11  H   -0.023608   0.002889   0.030533  -0.043533  -0.000009   0.000013
    12  N    0.147044   0.183916   0.124463  -0.013063   0.007687  -0.035008
    13  C   -0.221337   0.091544  -0.161455   0.007411   0.001626   0.005983
    14  H    0.008665  -0.010641  -0.000911  -0.003218  -0.000019  -0.000035
    15  H   -0.002429  -0.004314   0.001738   0.006209   0.000008  -0.000105
    16  C    0.108897  -0.250371   0.182726  -0.017686  -0.001049   0.006882
    17  H    0.002440   0.004804  -0.003688  -0.000267   0.000001  -0.000394
    18  H   -0.012697   0.009577  -0.002418   0.000970   0.000050   0.000435
    19  C   -0.054860   0.162198  -0.062520   0.010607   0.000286  -0.002591
    20  H   -0.000713   0.003253  -0.001227  -0.000021   0.000000  -0.000017
    21  H    0.000366  -0.003657   0.003567  -0.000031  -0.000000   0.000013
    22  S    0.039531  -0.046748  -0.078937  -0.006298   0.000120   0.000382
    23  O   -0.009140   0.011554  -0.001939  -0.000967   0.000006  -0.000021
    24  O    0.036838  -0.019566  -0.006517  -0.005423   0.000399  -0.001551
    25  O    0.004205  -0.000087  -0.086250   0.036905   0.000017  -0.000056
    26  P   -0.082317   0.054670  -0.005409   0.020075   0.006474  -0.000194
    27  O    0.122174  -0.064107  -0.001014   0.000534  -0.012790  -0.000193
    28  O   -0.033787  -0.006112   0.004488   0.023573   0.000309  -0.000020
    29  H    0.003913   0.003578  -0.003240  -0.002039  -0.000021  -0.000002
    30  O   -0.023002   0.001609   0.010556  -0.003356   0.000158   0.000285
    31  H    0.007215   0.004998  -0.010456   0.002379  -0.000054  -0.000342
    32  O   -0.002484   0.001143  -0.002070  -0.000569   0.000141  -0.000000
    33  H    0.002212  -0.000449  -0.000092  -0.000164  -0.000021  -0.000000
               7          8          9         10         11         12
     1  C    0.013404  -0.065861   0.007299  -0.012336  -0.023608   0.147044
     2  C    0.002027  -0.031125   0.014241   0.009623   0.002889   0.183916
     3  C    0.419816  -0.214872  -0.012704  -0.005435   0.030533   0.124463
     4  N   -0.036438   0.142166  -0.043554  -0.050067  -0.043533  -0.013063
     5  H    0.000001  -0.001355   0.001964   0.000366  -0.000009   0.007687
     6  H   -0.000079  -0.001550  -0.000009   0.000005   0.000013  -0.035008
     7  H    0.423740   0.003381   0.000028   0.000180   0.000775  -0.031716
     8  C    0.003381   5.450572   0.412460   0.422145   0.407695   0.002988
     9  H    0.000028   0.412460   0.445322  -0.018921  -0.017457  -0.000590
    10  H    0.000180   0.422145  -0.018921   0.504094  -0.030504  -0.007398
    11  H    0.000775   0.407695  -0.017457  -0.030504   0.470386   0.006295
    12  N   -0.031716   0.002988  -0.000590  -0.007398   0.006295   6.306406
    13  C   -0.007229  -0.007184   0.000728  -0.000815   0.000550   0.060866
    14  H    0.000326  -0.000012  -0.000002  -0.000014   0.000006  -0.047963
    15  H    0.003266   0.001180   0.000001  -0.000004   0.000006  -0.048717
    16  C    0.000370  -0.010897   0.000172   0.000087   0.000090  -0.011365
    17  H   -0.000029   0.000057  -0.000000  -0.000000   0.000000  -0.002264
    18  H    0.000108  -0.000183   0.000001  -0.000000   0.000000  -0.001726
    19  C    0.000657   0.009397  -0.000162  -0.000058  -0.000054   0.049840
    20  H   -0.000002  -0.000004  -0.000000   0.000000  -0.000000   0.000607
    21  H    0.000063  -0.000136   0.000000   0.000000  -0.000000  -0.000962
    22  S    0.003164  -0.019170   0.000384  -0.000058  -0.000166  -0.035891
    23  O   -0.000218   0.000780   0.000000   0.000000  -0.000007  -0.008883
    24  O    0.000856   0.002552   0.000105  -0.000011  -0.000038   0.020594
    25  O   -0.023892   0.009714   0.000088  -0.000087  -0.000701   0.037147
    26  P    0.000194  -0.004049   0.004106   0.000749   0.000781   0.001022
    27  O   -0.000049  -0.011265   0.000749   0.000305  -0.000118  -0.002089
    28  O   -0.000223   0.008981  -0.008572   0.002451  -0.012090  -0.010069
    29  H   -0.000002  -0.001417   0.000097   0.000087   0.001100   0.000504
    30  O   -0.000042   0.002534   0.000308  -0.000000   0.000477  -0.001337
    31  H    0.000046  -0.000065  -0.000065  -0.000002  -0.000141   0.000557
    32  O    0.000006   0.002192  -0.000090   0.000017  -0.000118   0.000102
    33  H   -0.000000   0.000011   0.000007   0.000000  -0.000001   0.000010
              13         14         15         16         17         18
     1  C   -0.221337   0.008665  -0.002429   0.108897   0.002440  -0.012697
     2  C    0.091544  -0.010641  -0.004314  -0.250371   0.004804   0.009577
     3  C   -0.161455  -0.000911   0.001738   0.182726  -0.003688  -0.002418
     4  N    0.007411  -0.003218   0.006209  -0.017686  -0.000267   0.000970
     5  H    0.001626  -0.000019   0.000008  -0.001049   0.000001   0.000050
     6  H    0.005983  -0.000035  -0.000105   0.006882  -0.000394   0.000435
     7  H   -0.007229   0.000326   0.003266   0.000370  -0.000029   0.000108
     8  C   -0.007184  -0.000012   0.001180  -0.010897   0.000057  -0.000183
     9  H    0.000728  -0.000002   0.000001   0.000172  -0.000000   0.000001
    10  H   -0.000815  -0.000014  -0.000004   0.000087  -0.000000  -0.000000
    11  H    0.000550   0.000006   0.000006   0.000090   0.000000   0.000000
    12  N    0.060866  -0.047963  -0.048717  -0.011365  -0.002264  -0.001726
    13  C    6.232078   0.434851   0.444777  -0.399756  -0.007540  -0.049247
    14  H    0.434851   0.516227  -0.023408  -0.065241  -0.007453  -0.000213
    15  H    0.444777  -0.023408   0.452881  -0.029215   0.000627   0.003266
    16  C   -0.399756  -0.065241  -0.029215   6.383016   0.401588   0.470272
    17  H   -0.007540  -0.007453   0.000627   0.401588   0.525312  -0.030732
    18  H   -0.049247  -0.000213   0.003266   0.470272  -0.030732   0.480567
    19  C   -0.031781   0.015693  -0.012138  -0.515624  -0.045288  -0.042364
    20  H    0.026762  -0.000108  -0.000087  -0.106448  -0.003048  -0.004631
    21  H   -0.020087  -0.000118   0.002002  -0.013127  -0.004783   0.004478
    22  S    0.017808   0.000117   0.000868   0.062562   0.002941   0.009840
    23  O    0.003604  -0.000047  -0.000515  -0.002491  -0.000562   0.000717
    24  O    0.010357   0.000558   0.000307  -0.024445   0.002298  -0.016384
    25  O   -0.031259   0.002614   0.002022  -0.016578  -0.000930   0.001958
    26  P   -0.000119   0.000015   0.000019  -0.004545  -0.000021   0.000226
    27  O   -0.002199   0.000000   0.000002   0.003218  -0.000002   0.000003
    28  O   -0.001490  -0.000002  -0.000006   0.000553  -0.000001   0.000001
    29  H    0.000871   0.000000  -0.000000  -0.000432   0.000000   0.000001
    30  O   -0.002684   0.000002   0.000002   0.004209  -0.000021  -0.000025
    31  H    0.003013   0.000003   0.000010  -0.007412   0.000070  -0.000146
    32  O    0.000311  -0.000000  -0.000000  -0.000500   0.000000   0.000001
    33  H    0.000022   0.000000  -0.000000   0.000001   0.000000   0.000000
              19         20         21         22         23         24
     1  C   -0.054860  -0.000713   0.000366   0.039531  -0.009140   0.036838
     2  C    0.162198   0.003253  -0.003657  -0.046748   0.011554  -0.019566
     3  C   -0.062520  -0.001227   0.003567  -0.078937  -0.001939  -0.006517
     4  N    0.010607  -0.000021  -0.000031  -0.006298  -0.000967  -0.005423
     5  H    0.000286   0.000000  -0.000000   0.000120   0.000006   0.000399
     6  H   -0.002591  -0.000017   0.000013   0.000382  -0.000021  -0.001551
     7  H    0.000657  -0.000002   0.000063   0.003164  -0.000218   0.000856
     8  C    0.009397  -0.000004  -0.000136  -0.019170   0.000780   0.002552
     9  H   -0.000162  -0.000000   0.000000   0.000384   0.000000   0.000105
    10  H   -0.000058   0.000000   0.000000  -0.000058   0.000000  -0.000011
    11  H   -0.000054  -0.000000  -0.000000  -0.000166  -0.000007  -0.000038
    12  N    0.049840   0.000607  -0.000962  -0.035891  -0.008883   0.020594
    13  C   -0.031781   0.026762  -0.020087   0.017808   0.003604   0.010357
    14  H    0.015693  -0.000108  -0.000118   0.000117  -0.000047   0.000558
    15  H   -0.012138  -0.000087   0.002002   0.000868  -0.000515   0.000307
    16  C   -0.515624  -0.106448  -0.013127   0.062562  -0.002491  -0.024445
    17  H   -0.045288  -0.003048  -0.004783   0.002941  -0.000562   0.002298
    18  H   -0.042364  -0.004631   0.004478   0.009840   0.000717  -0.016384
    19  C    6.482179   0.485226   0.424060  -0.121364  -0.115499  -0.087865
    20  H    0.485226   0.464182  -0.027957  -0.061013   0.009186   0.006806
    21  H    0.424060  -0.027957   0.466562  -0.043444   0.001216  -0.004314
    22  S   -0.121364  -0.061013  -0.043444  14.118279   0.572328   0.215750
    23  O   -0.115499   0.009186   0.001216   0.572328   8.148446  -0.098522
    24  O   -0.087865   0.006806  -0.004314   0.215750  -0.098522   8.687426
    25  O   -0.061918  -0.002679   0.013301   0.290122  -0.065282  -0.030321
    26  P    0.004568   0.000080   0.000042  -0.021247  -0.002083   0.028370
    27  O   -0.000962  -0.000007   0.000002   0.001980  -0.000467  -0.018343
    28  O   -0.000562  -0.000001  -0.000001   0.009290  -0.001671   0.002292
    29  H   -0.000576   0.000000   0.000000   0.002587   0.000330  -0.000215
    30  O    0.001713   0.000026  -0.000024  -0.017399   0.001156   0.056739
    31  H    0.000940  -0.000218   0.000107   0.029384   0.006382   0.006795
    32  O    0.000108   0.000001  -0.000000  -0.003841   0.000501   0.006018
    33  H   -0.000013   0.000000  -0.000000   0.000295   0.000016   0.000293
              25         26         27         28         29         30
     1  C    0.004205  -0.082317   0.122174  -0.033787   0.003913  -0.023002
     2  C   -0.000087   0.054670  -0.064107  -0.006112   0.003578   0.001609
     3  C   -0.086250  -0.005409  -0.001014   0.004488  -0.003240   0.010556
     4  N    0.036905   0.020075   0.000534   0.023573  -0.002039  -0.003356
     5  H    0.000017   0.006474  -0.012790   0.000309  -0.000021   0.000158
     6  H   -0.000056  -0.000194  -0.000193  -0.000020  -0.000002   0.000285
     7  H   -0.023892   0.000194  -0.000049  -0.000223  -0.000002  -0.000042
     8  C    0.009714  -0.004049  -0.011265   0.008981  -0.001417   0.002534
     9  H    0.000088   0.004106   0.000749  -0.008572   0.000097   0.000308
    10  H   -0.000087   0.000749   0.000305   0.002451   0.000087  -0.000000
    11  H   -0.000701   0.000781  -0.000118  -0.012090   0.001100   0.000477
    12  N    0.037147   0.001022  -0.002089  -0.010069   0.000504  -0.001337
    13  C   -0.031259  -0.000119  -0.002199  -0.001490   0.000871  -0.002684
    14  H    0.002614   0.000015   0.000000  -0.000002   0.000000   0.000002
    15  H    0.002022   0.000019   0.000002  -0.000006  -0.000000   0.000002
    16  C   -0.016578  -0.004545   0.003218   0.000553  -0.000432   0.004209
    17  H   -0.000930  -0.000021  -0.000002  -0.000001   0.000000  -0.000021
    18  H    0.001958   0.000226   0.000003   0.000001   0.000001  -0.000025
    19  C   -0.061918   0.004568  -0.000962  -0.000562  -0.000576   0.001713
    20  H   -0.002679   0.000080  -0.000007  -0.000001   0.000000   0.000026
    21  H    0.013301   0.000042   0.000002  -0.000001   0.000000  -0.000024
    22  S    0.290122  -0.021247   0.001980   0.009290   0.002587  -0.017399
    23  O   -0.065282  -0.002083  -0.000467  -0.001671   0.000330   0.001156
    24  O   -0.030321   0.028370  -0.018343   0.002292  -0.000215   0.056739
    25  O    8.611900   0.000201   0.000657   0.000050   0.000032  -0.004818
    26  P    0.000201  12.558991   0.482174   0.158082   0.019273   0.326408
    27  O    0.000657   0.482174   8.211241  -0.013916   0.007568  -0.042938
    28  O    0.000050   0.158082  -0.013916   8.204976   0.211215   0.019786
    29  H    0.000032   0.019273   0.007568   0.211215   0.471213  -0.014519
    30  O   -0.004818   0.326408  -0.042938   0.019786  -0.014519   8.200717
    31  H    0.005271   0.028902   0.015004  -0.004400  -0.003878   0.149373
    32  O   -0.000130   0.216513  -0.026720   0.013798  -0.011220  -0.002280
    33  H   -0.000001  -0.004979  -0.004009  -0.004627   0.002600  -0.003629
              31         32         33
     1  C    0.007215  -0.002484   0.002212
     2  C    0.004998   0.001143  -0.000449
     3  C   -0.010456  -0.002070  -0.000092
     4  N    0.002379  -0.000569  -0.000164
     5  H   -0.000054   0.000141  -0.000021
     6  H   -0.000342  -0.000000  -0.000000
     7  H    0.000046   0.000006  -0.000000
     8  C   -0.000065   0.002192   0.000011
     9  H   -0.000065  -0.000090   0.000007
    10  H   -0.000002   0.000017   0.000000
    11  H   -0.000141  -0.000118  -0.000001
    12  N    0.000557   0.000102   0.000010
    13  C    0.003013   0.000311   0.000022
    14  H    0.000003  -0.000000   0.000000
    15  H    0.000010  -0.000000  -0.000000
    16  C   -0.007412  -0.000500   0.000001
    17  H    0.000070   0.000000   0.000000
    18  H   -0.000146   0.000001   0.000000
    19  C    0.000940   0.000108  -0.000013
    20  H   -0.000218   0.000001   0.000000
    21  H    0.000107  -0.000000  -0.000000
    22  S    0.029384  -0.003841   0.000295
    23  O    0.006382   0.000501   0.000016
    24  O    0.006795   0.006018   0.000293
    25  O    0.005271  -0.000130  -0.000001
    26  P    0.028902   0.216513  -0.004979
    27  O    0.015004  -0.026720  -0.004009
    28  O   -0.004400   0.013798  -0.004627
    29  H   -0.003878  -0.011220   0.002600
    30  O    0.149373  -0.002280  -0.003629
    31  H    0.219932  -0.006022  -0.000953
    32  O   -0.006022   8.040355   0.260732
    33  H   -0.000953   0.260732   0.432449
 Mulliken charges:
               1
     1  C   -0.356157
     2  C   -0.069063
     3  C   -0.268543
     4  N    0.366985
     5  H    0.209479
     6  H    0.165410
     7  H    0.227513
     8  C   -0.509659
     9  H    0.214065
    10  H    0.185601
    11  H    0.206950
    12  N    0.308994
    13  C   -0.398982
    14  H    0.180329
    15  H    0.201746
    16  C   -0.147461
    17  H    0.166888
    18  H    0.178294
    19  C   -0.491275
    20  H    0.212052
    21  H    0.202862
    22  S    1.077841
    23  O   -0.447910
    24  O   -0.771837
    25  O   -0.691215
    26  P    1.213027
    27  O   -0.644422
    28  O   -0.562295
    29  H    0.312593
    30  O   -0.659981
    31  H    0.553775
    32  O   -0.485893
    33  H    0.320289
 Sum of Mulliken charges =  -0.00000
 Mulliken charges with hydrogens summed into heavy atoms:
               1
     1  C   -0.146678
     2  C    0.096348
     3  C   -0.041030
     4  N    0.366985
     8  C    0.096956
    12  N    0.308994
    13  C   -0.016907
    16  C    0.197721
    19  C   -0.076361
    22  S    1.077841
    23  O   -0.447910
    24  O   -0.771837
    25  O   -0.691215
    26  P    1.213027
    27  O   -0.644422
    28  O   -0.249702
    30  O   -0.106207
    32  O   -0.165603
         Mulliken charges condensed to fragments:
      1     -0.047093
      2      0.047093
 Electronic spatial extent (au):  <R**2>=         164617.4534
 Charge=              0.0000 electrons
 Dipole moment (field-independent basis, Debye):
    X=              1.3393    Y=             -1.2954    Z=              8.1738  Tot=              8.3835
 Quadrupole moment (field-independent basis, Debye-Ang):
   XX=            -87.9768   YY=           -150.8777   ZZ=             50.0809
   XY=             17.1656   XZ=             94.6261   YZ=             74.6220
 Traceless Quadrupole moment (field-independent basis, Debye-Ang):
   XX=            -25.0523   YY=            -87.9532   ZZ=            113.0055
   XY=             17.1656   XZ=             94.6261   YZ=             74.6220
 Octapole moment (field-independent basis, Debye-Ang**2):
  XXX=          -3058.5197  YYY=          -3939.8208  ZZZ=           -837.5335  XYY=          -1042.7848
  XXY=           -639.0615  XXZ=            -15.9779  XZZ=            631.5871  YZZ=            510.9348
  YYZ=           -468.6078  XYZ=           1041.7821
 Hexadecapole moment (field-independent basis, Debye-Ang**3):
 XXXX=         -64941.7809 YYYY=         -75829.1688 ZZZZ=         -33198.3754 XXXY=         -25799.0271
 XXXZ=         -20934.0650 YYYX=         -33073.0061 YYYZ=         -26907.1861 ZZZX=          -7192.5432
 ZZZY=          -7522.3292 XXYY=         -17249.0412 XXZZ=          -3257.6456 YYZZ=          -6199.4394
 XXYZ=           2656.3552 YYXZ=           -170.8470 ZZXY=           8044.2197
 N-N= 1.909779755569D+03 E-N=-7.717272353175D+03  KE= 1.646346737625D+03
 No NMR shielding tensors so no spin-rotation constants.
 Leave Link  601 at Sun Feb 19 14:28:03 2023, MaxMem=  6710886400 cpu:               3.7 elap:               0.2
 (Enter /data0/home/software/g16/l122.exe)
 CPIOFr:  IOpCl= 0 IRwI=-1 IRwCP=  731 ICalc= -1 LCPTot=      536908 Len1MO=     1413956 IndFrg=      536908
 CPIOFr:  IOpCl= 0 IRwI=-1 IRwCP=  731 ICalc=  0 LCPTot=      536908 Len1MO=     1413956 IndFrg=     1950864
 Counterpoise: doing calculation for fragment   1 using the basis set of the full-system, NewBq=T
 Leave Link  122 at Sun Feb 19 14:28:04 2023, MaxMem=  6710886400 cpu:               0.6 elap:               0.0
 (Enter /data0/home/software/g16/l301.exe)
 Basis read from rwf:  (5D, 7F)
 No pseudopotential information found on rwf file.
   592 basis functions,   904 primitive gaussians,   628 cartesian basis functions
    54 alpha electrons       54 beta electrons
       nuclear repulsion energy      1028.6139287044 Hartrees.
 IExCor= 4336 DFT=T Ex+Corr=M062X ExCW=0 ScaHFX=  0.540000
 ScaDFX=  1.000000  1.000000  1.000000  1.000000 ScalE2=  1.000000  1.000000
 IRadAn=      5 IRanWt=     -1 IRanGd=            0 ICorTp=0 IEmpDi=131
 NAtoms=   33 NActive=   33 NUniq=   33 SFac= 1.00D+00 NAtFMM=   60 NAOKFM=F Big=F
 Integral buffers will be    131072 words long.
 Raffenetti 2 integral format.
 Two-electron integral symmetry is turned off.
 R6Disp:  Grimme-D3 Dispersion energy=       -0.0011930143 Hartrees.
 Nuclear repulsion after empirical dispersion term =     1028.6127356901 Hartrees.
 No density basis found on file   718.
 Leave Link  301 at Sun Feb 19 14:28:04 2023, MaxMem=  6710886400 cpu:               1.3 elap:               0.1
 (Enter /data0/home/software/g16/l302.exe)
 NPDir=0 NMtPBC=     1 NCelOv=     1 NCel=       1 NClECP=     1 NCelD=      1
         NCelK=      1 NCelE2=     1 NClLst=     1 CellRange=     0.0.
 One-electron integrals computed using PRISM.
 NBasis=   592 RedAO= T EigKep=  7.47D-06  NBF=   592
 NBsUse=   592 1.00D-06 EigRej= -1.00D+00 NBFU=   592
 Precomputing XC quadrature grid using
 IXCGrd= 4 IRadAn=           5 IRanWt=          -1 IRanGd=           0 AccXCQ= 0.00D+00.
 Generated NRdTot=       0 NPtTot=           0 NUsed=           0 NTot=          32
 NSgBfM=   627   627   627   627   627 MxSgAt=    33 MxSgA2=    33.
 Leave Link  302 at Sun Feb 19 14:28:04 2023, MaxMem=  6710886400 cpu:              15.7 elap:               0.7
 (Enter /data0/home/software/g16/l303.exe)
 DipDrv:  MaxL=1.
 Leave Link  303 at Sun Feb 19 14:28:04 2023, MaxMem=  6710886400 cpu:               1.5 elap:               0.1
 (Enter /data0/home/software/g16/l401.exe)
 ExpMin= 3.48D-02 ExpMax= 9.34D+04 ExpMxC= 3.17D+03 IAcc=3 IRadAn=         5 AccDes= 0.00D+00
 Harris functional with IExCor= 1009 and IRadAn=       5 diagonalized for initial guess.
 HarFok:  IExCor= 1009 AccDes= 0.00D+00 IRadAn=         5 IDoV= 1 UseB2=F ITyADJ=14
 ICtDFT=  3500011 ScaDFX=  1.000000  1.000000  1.000000  1.000000
 FoFCou: FMM=F IPFlag=           0 FMFlag=      100000 FMFlg1=           0
         NFxFlg=           0 DoJE=T BraDBF=F KetDBF=T FulRan=T
         wScrn=  0.000000 ICntrl=       500 IOpCl=  0 I1Cent=   200000004 NGrid=           0
         NMat0=    1 NMatS0=      1 NMatT0=    0 NMatD0=    1 NMtDS0=    0 NMtDT0=    0
 Symmetry not used in FoFCou.
 Harris En= -1006.80960227958    
 JPrj=0 DoOrth=F DoCkMO=F.
 Leave Link  401 at Sun Feb 19 14:28:07 2023, MaxMem=  6710886400 cpu:              59.3 elap:               2.5
 (Enter /data0/home/software/g16/l502.exe)
 Two-electron integral symmetry not used.
 Closed shell SCF:
 Using DIIS extrapolation, IDIIS=  1040.
 NGot=  6710886400 LenX=  6710078225 LenY=  6709683213
 Requested convergence on RMS density matrix=1.00D-08 within 128 cycles.
 Requested convergence on MAX density matrix=1.00D-06.
 Requested convergence on             energy=1.00D-06.
 No special actions if energy rises.
 Fock matrices will be formed incrementally for  20 cycles.

 Cycle   1  Pass 1  IDiag  1:
 FoFJK:  IHMeth= 1 ICntrl=       0 DoSepK=F KAlg= 0 I1Cent=           0 FoldK=F
 IRaf= 840000000 NMat=       1 IRICut=       1 DoRegI=T DoRafI=F ISym2E= 0 IDoP0=0 IntGTp=1.
 FoFCou: FMM=F IPFlag=           0 FMFlag=      100000 FMFlg1=           0
         NFxFlg=           0 DoJE=F BraDBF=F KetDBF=F FulRan=T
         wScrn=  0.000000 ICntrl=         0 IOpCl=  0 I1Cent=           0 NGrid=           0
         NMat0=    1 NMatS0=      1 NMatT0=    0 NMatD0=    1 NMtDS0=    0 NMtDT0=    0
 Symmetry not used in FoFCou.
 E= -1006.77394426500    
 DIIS: error= 1.38D-02 at cycle   1 NSaved=   1.
 NSaved= 1 IEnMin= 1 EnMin= -1006.77394426500     IErMin= 1 ErrMin= 1.38D-02
 ErrMax= 1.38D-02  0.00D+00 EMaxC= 1.00D-01 BMatC= 7.13D-01 BMatP= 7.13D-01
 IDIUse=3 WtCom= 8.62D-01 WtEn= 1.38D-01
 Coeff-Com:  0.100D+01
 Coeff-En:   0.100D+01
 Coeff:      0.100D+01
 Gap=     0.282 Goal=   None    Shift=    0.000
 GapD=    0.282 DampG=1.000 DampE=0.500 DampFc=0.5000 IDamp=-1.
 Damping current iteration by 5.00D-01
 RMSDP=4.76D-03 MaxDP=5.88D-01              OVMax= 1.90D-01

 Cycle   2  Pass 1  IDiag  1:
 RMSU=  2.38D-03    CP:  1.01D+00
 E= -1006.96689875941     Delta-E=       -0.192954494415 Rises=F Damp=T
 DIIS: error= 4.24D-03 at cycle   2 NSaved=   2.
 NSaved= 2 IEnMin= 2 EnMin= -1006.96689875941     IErMin= 2 ErrMin= 4.24D-03
 ErrMax= 4.24D-03  0.00D+00 EMaxC= 1.00D-01 BMatC= 5.00D-02 BMatP= 7.13D-01
 IDIUse=3 WtCom= 9.58D-01 WtEn= 4.24D-02
 Coeff-Com:  0.311D-01 0.969D+00
 Coeff-En:   0.111D+00 0.889D+00
 Coeff:      0.345D-01 0.965D+00
 Gap=     0.256 Goal=   None    Shift=    0.000
 RMSDP=2.00D-03 MaxDP=3.38D-01 DE=-1.93D-01 OVMax= 1.20D-01

 Cycle   3  Pass 1  IDiag  1:
 RMSU=  1.55D-03    CP:  8.88D-01  7.30D-01
 E= -1007.19974598493     Delta-E=       -0.232847225518 Rises=F Damp=F
 DIIS: error= 3.44D-03 at cycle   3 NSaved=   3.
 NSaved= 3 IEnMin= 3 EnMin= -1007.19974598493     IErMin= 3 ErrMin= 3.44D-03
 ErrMax= 3.44D-03  0.00D+00 EMaxC= 1.00D-01 BMatC= 1.90D-02 BMatP= 5.00D-02
 IDIUse=3 WtCom= 9.66D-01 WtEn= 3.44D-02
 Coeff-Com: -0.631D-01 0.352D+00 0.711D+00
 Coeff-En:   0.000D+00 0.000D+00 0.100D+01
 Coeff:     -0.610D-01 0.340D+00 0.721D+00
 Gap=     0.252 Goal=   None    Shift=    0.000
 RMSDP=4.58D-04 MaxDP=3.06D-02 DE=-2.33D-01 OVMax= 3.28D-02

 Cycle   4  Pass 1  IDiag  1:
 RMSU=  4.10D-04    CP:  8.85D-01  8.14D-01  9.95D-01
 E= -1007.21147874264     Delta-E=       -0.011732757711 Rises=F Damp=F
 DIIS: error= 1.46D-03 at cycle   4 NSaved=   4.
 NSaved= 4 IEnMin= 4 EnMin= -1007.21147874264     IErMin= 4 ErrMin= 1.46D-03
 ErrMax= 1.46D-03  0.00D+00 EMaxC= 1.00D-01 BMatC= 2.95D-03 BMatP= 1.90D-02
 IDIUse=3 WtCom= 9.85D-01 WtEn= 1.46D-02
 Coeff-Com: -0.293D-01 0.826D-01 0.344D+00 0.603D+00
 Coeff-En:   0.000D+00 0.000D+00 0.100D+00 0.900D+00
 Coeff:     -0.289D-01 0.814D-01 0.341D+00 0.607D+00
 Gap=     0.252 Goal=   None    Shift=    0.000
 RMSDP=1.74D-04 MaxDP=2.55D-02 DE=-1.17D-02 OVMax= 1.17D-02

 Cycle   5  Pass 1  IDiag  1:
 RMSU=  1.09D-04    CP:  8.79D-01  7.93D-01  1.03D+00  7.53D-01
 E= -1007.21405046053     Delta-E=       -0.002571717889 Rises=F Damp=F
 DIIS: error= 2.70D-04 at cycle   5 NSaved=   5.
 NSaved= 5 IEnMin= 5 EnMin= -1007.21405046053     IErMin= 5 ErrMin= 2.70D-04
 ErrMax= 2.70D-04  0.00D+00 EMaxC= 1.00D-01 BMatC= 1.29D-04 BMatP= 2.95D-03
 IDIUse=3 WtCom= 9.97D-01 WtEn= 2.70D-03
 Coeff-Com: -0.876D-02 0.177D-01 0.107D+00 0.258D+00 0.626D+00
 Coeff-En:   0.000D+00 0.000D+00 0.000D+00 0.000D+00 0.100D+01
 Coeff:     -0.874D-02 0.177D-01 0.107D+00 0.258D+00 0.627D+00
 Gap=     0.251 Goal=   None    Shift=    0.000
 RMSDP=4.31D-05 MaxDP=2.48D-03 DE=-2.57D-03 OVMax= 2.48D-03

 Cycle   6  Pass 1  IDiag  1:
 RMSU=  2.88D-05    CP:  8.79D-01  7.99D-01  1.03D+00  7.93D-01  7.77D-01
 E= -1007.21414073799     Delta-E=       -0.000090277455 Rises=F Damp=F
 DIIS: error= 1.32D-04 at cycle   6 NSaved=   6.
 NSaved= 6 IEnMin= 6 EnMin= -1007.21414073799     IErMin= 6 ErrMin= 1.32D-04
 ErrMax= 1.32D-04  0.00D+00 EMaxC= 1.00D-01 BMatC= 2.19D-05 BMatP= 1.29D-04
 IDIUse=3 WtCom= 9.99D-01 WtEn= 1.32D-03
 Coeff-Com: -0.166D-02 0.127D-02 0.215D-01 0.769D-01 0.336D+00 0.566D+00
 Coeff-En:   0.000D+00 0.000D+00 0.000D+00 0.000D+00 0.386D-01 0.961D+00
 Coeff:     -0.166D-02 0.127D-02 0.215D-01 0.768D-01 0.336D+00 0.566D+00
 Gap=     0.251 Goal=   None    Shift=    0.000
 RMSDP=1.42D-05 MaxDP=1.47D-03 DE=-9.03D-05 OVMax= 8.96D-04

 Cycle   7  Pass 1  IDiag  1:
 RMSU=  1.15D-05    CP:  8.79D-01  7.97D-01  1.03D+00  8.02D-01  7.91D-01
                    CP:  9.27D-01
 E= -1007.21415715550     Delta-E=       -0.000016417508 Rises=F Damp=F
 DIIS: error= 2.63D-05 at cycle   7 NSaved=   7.
 NSaved= 7 IEnMin= 7 EnMin= -1007.21415715550     IErMin= 7 ErrMin= 2.63D-05
 ErrMax= 2.63D-05  0.00D+00 EMaxC= 1.00D-01 BMatC= 1.35D-06 BMatP= 2.19D-05
 IDIUse=1 WtCom= 1.00D+00 WtEn= 0.00D+00
 Coeff-Com:  0.507D-03-0.183D-02-0.604D-02-0.289D-02 0.540D-01 0.220D+00
 Coeff-Com:  0.736D+00
 Coeff:      0.507D-03-0.183D-02-0.604D-02-0.289D-02 0.540D-01 0.220D+00
 Coeff:      0.736D+00
 Gap=     0.251 Goal=   None    Shift=    0.000
 RMSDP=6.02D-06 MaxDP=9.89D-04 DE=-1.64D-05 OVMax= 3.08D-04

 Cycle   8  Pass 1  IDiag  1:
 RMSU=  3.34D-06    CP:  8.79D-01  7.96D-01  1.03D+00  8.06D-01  8.13D-01
                    CP:  9.56D-01  9.06D-01
 E= -1007.21415841242     Delta-E=       -0.000001256927 Rises=F Damp=F
 DIIS: error= 9.63D-06 at cycle   8 NSaved=   8.
 NSaved= 8 IEnMin= 8 EnMin= -1007.21415841242     IErMin= 8 ErrMin= 9.63D-06
 ErrMax= 9.63D-06  0.00D+00 EMaxC= 1.00D-01 BMatC= 1.24D-07 BMatP= 1.35D-06
 IDIUse=1 WtCom= 1.00D+00 WtEn= 0.00D+00
 Coeff-Com:  0.347D-03-0.723D-03-0.484D-02-0.101D-01-0.210D-01 0.824D-02
 Coeff-Com:  0.252D+00 0.776D+00
 Coeff:      0.347D-03-0.723D-03-0.484D-02-0.101D-01-0.210D-01 0.824D-02
 Coeff:      0.252D+00 0.776D+00
 Gap=     0.252 Goal=   None    Shift=    0.000
 RMSDP=2.00D-06 MaxDP=3.55D-04 DE=-1.26D-06 OVMax= 1.93D-04

 Cycle   9  Pass 1  IDiag  1:
 RMSU=  1.28D-06    CP:  8.79D-01  7.96D-01  1.03D+00  8.07D-01  8.23D-01
                    CP:  9.72D-01  9.32D-01  1.00D+00
 E= -1007.21415856128     Delta-E=       -0.000000148854 Rises=F Damp=F
 DIIS: error= 4.96D-06 at cycle   9 NSaved=   9.
 NSaved= 9 IEnMin= 9 EnMin= -1007.21415856128     IErMin= 9 ErrMin= 4.96D-06
 ErrMax= 4.96D-06  0.00D+00 EMaxC= 1.00D-01 BMatC= 1.68D-08 BMatP= 1.24D-07
 IDIUse=1 WtCom= 1.00D+00 WtEn= 0.00D+00
 Coeff-Com:  0.108D-03-0.176D-03-0.172D-02-0.423D-02-0.130D-01-0.111D-01
 Coeff-Com:  0.533D-01 0.329D+00 0.648D+00
 Coeff:      0.108D-03-0.176D-03-0.172D-02-0.423D-02-0.130D-01-0.111D-01
 Coeff:      0.533D-01 0.329D+00 0.648D+00
 Gap=     0.252 Goal=   None    Shift=    0.000
 RMSDP=5.52D-07 MaxDP=7.39D-05 DE=-1.49D-07 OVMax= 4.78D-05

 Cycle  10  Pass 1  IDiag  1:
 RMSU=  3.70D-07    CP:  8.79D-01  7.96D-01  1.03D+00  8.08D-01  8.22D-01
                    CP:  9.76D-01  9.46D-01  1.06D+00  9.44D-01
 E= -1007.21415857857     Delta-E=       -0.000000017291 Rises=F Damp=F
 DIIS: error= 1.01D-06 at cycle  10 NSaved=  10.
 NSaved=10 IEnMin=10 EnMin= -1007.21415857857     IErMin=10 ErrMin= 1.01D-06
 ErrMax= 1.01D-06  0.00D+00 EMaxC= 1.00D-01 BMatC= 2.03D-09 BMatP= 1.68D-08
 IDIUse=1 WtCom= 1.00D+00 WtEn= 0.00D+00
 Coeff-Com: -0.953D-05 0.363D-04 0.293D-05-0.261D-03-0.236D-02-0.574D-02
 Coeff-Com: -0.160D-01 0.205D-01 0.259D+00 0.744D+00
 Coeff:     -0.953D-05 0.363D-04 0.293D-05-0.261D-03-0.236D-02-0.574D-02
 Coeff:     -0.160D-01 0.205D-01 0.259D+00 0.744D+00
 Gap=     0.252 Goal=   None    Shift=    0.000
 RMSDP=2.36D-07 MaxDP=3.24D-05 DE=-1.73D-08 OVMax= 2.57D-05

 Cycle  11  Pass 1  IDiag  1:
 RMSU=  1.34D-07    CP:  8.79D-01  7.95D-01  1.03D+00  8.07D-01  8.22D-01
                    CP:  9.75D-01  9.43D-01  1.08D+00  1.02D+00  1.10D+00
 E= -1007.21415858100     Delta-E=       -0.000000002432 Rises=F Damp=F
 DIIS: error= 5.25D-07 at cycle  11 NSaved=  11.
 NSaved=11 IEnMin=11 EnMin= -1007.21415858100     IErMin=11 ErrMin= 5.25D-07
 ErrMax= 5.25D-07  0.00D+00 EMaxC= 1.00D-01 BMatC= 3.50D-10 BMatP= 2.03D-09
 IDIUse=1 WtCom= 1.00D+00 WtEn= 0.00D+00
 Coeff-Com: -0.173D-04 0.372D-04 0.222D-03 0.428D-03 0.679D-03-0.830D-03
 Coeff-Com: -0.137D-01-0.355D-01 0.132D-01 0.327D+00 0.708D+00
 Coeff:     -0.173D-04 0.372D-04 0.222D-03 0.428D-03 0.679D-03-0.830D-03
 Coeff:     -0.137D-01-0.355D-01 0.132D-01 0.327D+00 0.708D+00
 Gap=     0.252 Goal=   None    Shift=    0.000
 RMSDP=8.51D-08 MaxDP=1.06D-05 DE=-2.43D-09 OVMax= 8.89D-06

 Cycle  12  Pass 1  IDiag  1:
 RMSU=  4.73D-08    CP:  8.79D-01  7.95D-01  1.03D+00  8.07D-01  8.23D-01
                    CP:  9.75D-01  9.43D-01  1.09D+00  1.06D+00  1.20D+00
                    CP:  9.20D-01
 E= -1007.21415858134     Delta-E=       -0.000000000335 Rises=F Damp=F
 DIIS: error= 1.93D-07 at cycle  12 NSaved=  12.
 NSaved=12 IEnMin=12 EnMin= -1007.21415858134     IErMin=12 ErrMin= 1.93D-07
 ErrMax= 1.93D-07  0.00D+00 EMaxC= 1.00D-01 BMatC= 6.36D-11 BMatP= 3.50D-10
 IDIUse=1 WtCom= 1.00D+00 WtEn= 0.00D+00
 Coeff-Com: -0.728D-05 0.146D-04 0.113D-03 0.244D-03 0.609D-03 0.277D-03
 Coeff-Com: -0.519D-02-0.200D-01-0.242D-01 0.868D-01 0.371D+00 0.590D+00
 Coeff:     -0.728D-05 0.146D-04 0.113D-03 0.244D-03 0.609D-03 0.277D-03
 Coeff:     -0.519D-02-0.200D-01-0.242D-01 0.868D-01 0.371D+00 0.590D+00
 Gap=     0.252 Goal=   None    Shift=    0.000
 RMSDP=2.61D-08 MaxDP=3.06D-06 DE=-3.35D-10 OVMax= 2.86D-06

 Cycle  13  Pass 1  IDiag  1:
 RMSU=  1.82D-08    CP:  8.79D-01  7.95D-01  1.03D+00  8.07D-01  8.23D-01
                    CP:  9.75D-01  9.42D-01  1.09D+00  1.06D+00  1.21D+00
                    CP:  9.73D-01  9.02D-01
 E= -1007.21415858142     Delta-E=       -0.000000000082 Rises=F Damp=F
 DIIS: error= 6.37D-08 at cycle  13 NSaved=  13.
 NSaved=13 IEnMin=13 EnMin= -1007.21415858142     IErMin=13 ErrMin= 6.37D-08
 ErrMax= 6.37D-08  0.00D+00 EMaxC= 1.00D-01 BMatC= 4.48D-12 BMatP= 6.36D-11
 IDIUse=1 WtCom= 1.00D+00 WtEn= 0.00D+00
 Coeff-Com:  0.459D-06-0.122D-05 0.443D-05 0.146D-04 0.969D-04 0.218D-03
 Coeff-Com:  0.237D-03-0.914D-03-0.117D-01-0.211D-01 0.251D-01 0.217D+00
 Coeff-Com:  0.791D+00
 Coeff:      0.459D-06-0.122D-05 0.443D-05 0.146D-04 0.969D-04 0.218D-03
 Coeff:      0.237D-03-0.914D-03-0.117D-01-0.211D-01 0.251D-01 0.217D+00
 Coeff:      0.791D+00
 Gap=     0.252 Goal=   None    Shift=    0.000
 RMSDP=1.29D-08 MaxDP=1.65D-06 DE=-8.19D-11 OVMax= 1.57D-06

 Cycle  14  Pass 1  IDiag  1:
 RMSU=  7.47D-09    CP:  8.79D-01  7.95D-01  1.03D+00  8.07D-01  8.23D-01
                    CP:  9.75D-01  9.42D-01  1.09D+00  1.06D+00  1.22D+00
                    CP:  9.98D-01  1.01D+00  9.34D-01
 E= -1007.21415858143     Delta-E=       -0.000000000011 Rises=F Damp=F
 DIIS: error= 1.60D-08 at cycle  14 NSaved=  14.
 NSaved=14 IEnMin=14 EnMin= -1007.21415858143     IErMin=14 ErrMin= 1.60D-08
 ErrMax= 1.60D-08  0.00D+00 EMaxC= 1.00D-01 BMatC= 3.81D-13 BMatP= 4.48D-12
 IDIUse=1 WtCom= 1.00D+00 WtEn= 0.00D+00
 Coeff-Com:  0.720D-06-0.158D-05-0.669D-05-0.126D-04-0.109D-04 0.559D-04
 Coeff-Com:  0.456D-03 0.127D-02-0.246D-02-0.146D-01-0.229D-01 0.123D-01
 Coeff-Com:  0.257D+00 0.769D+00
 Coeff:      0.720D-06-0.158D-05-0.669D-05-0.126D-04-0.109D-04 0.559D-04
 Coeff:      0.456D-03 0.127D-02-0.246D-02-0.146D-01-0.229D-01 0.123D-01
 Coeff:      0.257D+00 0.769D+00
 Gap=     0.252 Goal=   None    Shift=    0.000
 RMSDP=3.59D-09 MaxDP=5.55D-07 DE=-1.09D-11 OVMax= 2.69D-07

 SCF Done:  E(RM062X) =  -1007.21415858     A.U. after   14 cycles
[...]
 NBasis=   161 RedAO= T EigKep=  5.47D-04  NBF=   161
 NBsUse=   161 1.00D-06 EigRej= -1.00D+00 NBFU=   161
 Precomputing XC quadrature grid using
 IXCGrd= 4 IRadAn=           5 IRanWt=          -1 IRanGd=           0 AccXCQ= 0.00D+00.
 Generated NRdTot=       0 NPtTot=           0 NUsed=           0 NTot=          32
 NSgBfM=   171   171   171   171   171 MxSgAt=     8 MxSgA2=     8.
 Leave Link  302 at Sun Feb 19 14:33:17 2023, MaxMem=  6710886400 cpu:               2.9 elap:               0.1
 (Enter /data0/home/software/g16/l303.exe)
 DipDrv:  MaxL=1.
 Leave Link  303 at Sun Feb 19 14:33:17 2023, MaxMem=  6710886400 cpu:               0.5 elap:               0.0
 (Enter /data0/home/software/g16/l401.exe)
 ExpMin= 3.48D-02 ExpMax= 7.75D+04 ExpMxC= 2.65D+03 IAcc=3 IRadAn=         5 AccDes= 0.00D+00
 Harris functional with IExCor= 1009 and IRadAn=       5 diagonalized for initial guess.
 HarFok:  IExCor= 1009 AccDes= 0.00D+00 IRadAn=         5 IDoV= 1 UseB2=F ITyADJ=14
 ICtDFT=  3500011 ScaDFX=  1.000000  1.000000  1.000000  1.000000
 FoFCou: FMM=F IPFlag=           0 FMFlag=      100000 FMFlg1=           0
         NFxFlg=           0 DoJE=T BraDBF=F KetDBF=T FulRan=T
         wScrn=  0.000000 ICntrl=       500 IOpCl=  0 I1Cent=   200000004 NGrid=           0
         NMat0=    1 NMatS0=      1 NMatT0=    0 NMatD0=    1 NMtDS0=    0 NMtDT0=    0
 Symmetry not used in FoFCou.
 Harris En= -643.941317982750    
 JPrj=0 DoOrth=F DoCkMO=F.
 Leave Link  401 at Sun Feb 19 14:33:18 2023, MaxMem=  6710886400 cpu:               6.1 elap:               0.3
 (Enter /data0/home/software/g16/l502.exe)
 Keep R1 ints in memory in canonical form, NReq=108966253.
 FoFCou: FMM=F IPFlag=           0 FMFlag=           0 FMFlg1=           0
         NFxFlg=           0 DoJE=F BraDBF=F KetDBF=F FulRan=T
         wScrn=  0.000000 ICntrl=       600 IOpCl=  0 I1Cent=           0 NGrid=           0
         NMat0=    1 NMatS0=  13041 NMatT0=    0 NMatD0=    1 NMtDS0=    0 NMtDT0=    0
 Symmetry not used in FoFCou.
 Two-electron integral symmetry not used.
 Closed shell SCF:
 Using DIIS extrapolation, IDIIS=  1040.
 NGot=  6710886400 LenX=  6625781403 LenY=  6625751721
 Requested convergence on RMS density matrix=1.00D-08 within 128 cycles.
 Requested convergence on MAX density matrix=1.00D-06.
 Requested convergence on             energy=1.00D-06.
 No special actions if energy rises.

 Cycle   1  Pass 1  IDiag  1:
 E= -643.856212089495    
 DIIS: error= 4.39D-02 at cycle   1 NSaved=   1.
 NSaved= 1 IEnMin= 1 EnMin= -643.856212089495     IErMin= 1 ErrMin= 4.39D-02
 ErrMax= 4.39D-02  0.00D+00 EMaxC= 1.00D-01 BMatC= 5.08D-01 BMatP= 5.08D-01
 IDIUse=3 WtCom= 5.61D-01 WtEn= 4.39D-01
 Coeff-Com:  0.100D+01
 Coeff-En:   0.100D+01
 Coeff:      0.100D+01
 Gap=     0.257 Goal=   None    Shift=    0.000
 GapD=    0.257 DampG=1.000 DampE=0.500 DampFc=0.5000 IDamp=-1.
 Damping current iteration by 5.00D-01
 RMSDP=7.30D-03 MaxDP=1.60D-01              OVMax= 2.58D-01

 Cycle   2  Pass 1  IDiag  1:
 E= -643.972695306653     Delta-E=       -0.116483217158 Rises=F Damp=T
 DIIS: error= 1.05D-02 at cycle   2 NSaved=   2.
 NSaved= 2 IEnMin= 2 EnMin= -643.972695306653     IErMin= 2 ErrMin= 1.05D-02
 ErrMax= 1.05D-02  0.00D+00 EMaxC= 1.00D-01 BMatC= 2.71D-02 BMatP= 5.08D-01
 IDIUse=3 WtCom= 8.95D-01 WtEn= 1.05D-01
 Coeff-Com:  0.718D-01 0.928D+00
 Coeff-En:   0.203D+00 0.797D+00
 Coeff:      0.855D-01 0.914D+00
 Gap=     0.352 Goal=   None    Shift=    0.000
 RMSDP=1.69D-03 MaxDP=5.36D-02 DE=-1.16D-01 OVMax= 1.68D-01

 Cycle   3  Pass 1  IDiag  1:
 E= -644.138514480894     Delta-E=       -0.165819174240 Rises=F Damp=F
 DIIS: error= 7.76D-03 at cycle   3 NSaved=   3.
 NSaved= 3 IEnMin= 3 EnMin= -644.138514480894     IErMin= 3 ErrMin= 7.76D-03
 ErrMax= 7.76D-03  0.00D+00 EMaxC= 1.00D-01 BMatC= 1.01D-02 BMatP= 2.71D-02
 IDIUse=3 WtCom= 9.22D-01 WtEn= 7.76D-02
 Coeff-Com: -0.142D-01 0.337D+00 0.677D+00
 Coeff-En:   0.000D+00 0.000D+00 0.100D+01
 Coeff:     -0.131D-01 0.311D+00 0.702D+00
 Gap=     0.343 Goal=   None    Shift=    0.000
 RMSDP=6.56D-04 MaxDP=1.52D-02 DE=-1.66D-01 OVMax= 3.45D-02

 Cycle   4  Pass 1  IDiag  1:
 E= -644.142929828282     Delta-E=       -0.004415347389 Rises=F Damp=F
 DIIS: error= 4.60D-03 at cycle   4 NSaved=   4.
 NSaved= 4 IEnMin= 4 EnMin= -644.142929828282     IErMin= 4 ErrMin= 4.60D-03
 ErrMax= 4.60D-03  0.00D+00 EMaxC= 1.00D-01 BMatC= 4.00D-03 BMatP= 1.01D-02
 IDIUse=3 WtCom= 9.54D-01 WtEn= 4.60D-02
 Coeff-Com: -0.201D-01 0.463D-01 0.407D+00 0.566D+00
 Coeff-En:   0.000D+00 0.000D+00 0.286D+00 0.714D+00
 Coeff:     -0.192D-01 0.442D-01 0.402D+00 0.573D+00
 Gap=     0.349 Goal=   None    Shift=    0.000
 RMSDP=2.60D-04 MaxDP=6.40D-03 DE=-4.42D-03 OVMax= 1.15D-02

 Cycle   5  Pass 1  IDiag  1:
 E= -644.145575315733     Delta-E=       -0.002645487450 Rises=F Damp=F
 DIIS: error= 2.83D-04 at cycle   5 NSaved=   5.
 NSaved= 5 IEnMin= 5 EnMin= -644.145575315733     IErMin= 5 ErrMin= 2.83D-04
 ErrMax= 2.83D-04  0.00D+00 EMaxC= 1.00D-01 BMatC= 1.67D-05 BMatP= 4.00D-03
 IDIUse=3 WtCom= 9.97D-01 WtEn= 2.83D-03
 Coeff-Com: -0.216D-02-0.284D-03 0.603D-01 0.121D+00 0.821D+00
 Coeff-En:   0.000D+00 0.000D+00 0.000D+00 0.000D+00 0.100D+01
 Coeff:     -0.216D-02-0.283D-03 0.602D-01 0.120D+00 0.822D+00
 Gap=     0.348 Goal=   None    Shift=    0.000
 RMSDP=2.49D-05 MaxDP=8.26D-04 DE=-2.65D-03 OVMax= 7.27D-04

 Cycle   6  Pass 1  IDiag  1:
 E= -644.145586465077     Delta-E=       -0.000011149344 Rises=F Damp=F
 DIIS: error= 6.35D-05 at cycle   6 NSaved=   6.
 NSaved= 6 IEnMin= 6 EnMin= -644.145586465077     IErMin= 6 ErrMin= 6.35D-05
 ErrMax= 6.35D-05  0.00D+00 EMaxC= 1.00D-01 BMatC= 1.26D-06 BMatP= 1.67D-05
 IDIUse=1 WtCom= 1.00D+00 WtEn= 0.00D+00
 Coeff-Com:  0.513D-04-0.162D-02 0.280D-02 0.130D-01 0.229D+00 0.756D+00
 Coeff:      0.513D-04-0.162D-02 0.280D-02 0.130D-01 0.229D+00 0.756D+00
 Gap=     0.348 Goal=   None    Shift=    0.000
 RMSDP=9.54D-06 MaxDP=2.15D-04 DE=-1.11D-05 OVMax= 2.45D-04

 Cycle   7  Pass 1  IDiag  1:
 E= -644.145587346128     Delta-E=       -0.000000881051 Rises=F Damp=F
 DIIS: error= 2.88D-05 at cycle   7 NSaved=   7.
 NSaved= 7 IEnMin= 7 EnMin= -644.145587346128     IErMin= 7 ErrMin= 2.88D-05
 ErrMax= 2.88D-05  0.00D+00 EMaxC= 1.00D-01 BMatC= 2.66D-07 BMatP= 1.26D-06
 IDIUse=1 WtCom= 1.00D+00 WtEn= 0.00D+00
 Coeff-Com:  0.342D-03-0.605D-03-0.833D-02-0.131D-01-0.202D-01 0.309D+00
 Coeff-Com:  0.733D+00
 Coeff:      0.342D-03-0.605D-03-0.833D-02-0.131D-01-0.202D-01 0.309D+00
 Coeff:      0.733D+00
 Gap=     0.348 Goal=   None    Shift=    0.000
 RMSDP=3.23D-06 MaxDP=7.91D-05 DE=-8.81D-07 OVMax= 1.00D-04

 Cycle   8  Pass 1  IDiag  1:
 E= -644.145587525014     Delta-E=       -0.000000178886 Rises=F Damp=F
 DIIS: error= 1.12D-05 at cycle   8 NSaved=   8.
 NSaved= 8 IEnMin= 8 EnMin= -644.145587525014     IErMin= 8 ErrMin= 1.12D-05
 ErrMax= 1.12D-05  0.00D+00 EMaxC= 1.00D-01 BMatC= 3.64D-08 BMatP= 2.66D-07
 IDIUse=1 WtCom= 1.00D+00 WtEn= 0.00D+00
 Coeff-Com:  0.139D-03-0.168D-03-0.392D-02-0.631D-02-0.187D-01 0.922D-01
 Coeff-Com:  0.346D+00 0.591D+00
 Coeff:      0.139D-03-0.168D-03-0.392D-02-0.631D-02-0.187D-01 0.922D-01
 Coeff:      0.346D+00 0.591D+00
 Gap=     0.348 Goal=   None    Shift=    0.000
 RMSDP=8.33D-07 MaxDP=2.36D-05 DE=-1.79D-07 OVMax= 3.72D-05

 Cycle   9  Pass 1  IDiag  1:
 E= -644.145587551231     Delta-E=       -0.000000026216 Rises=F Damp=F
 DIIS: error= 1.73D-06 at cycle   9 NSaved=   9.
 NSaved= 9 IEnMin= 9 EnMin= -644.145587551231     IErMin= 9 ErrMin= 1.73D-06
 ErrMax= 1.73D-06  0.00D+00 EMaxC= 1.00D-01 BMatC= 7.83D-10 BMatP= 3.64D-08
 IDIUse=1 WtCom= 1.00D+00 WtEn= 0.00D+00
 Coeff-Com: -0.265D-04 0.515D-04 0.286D-03 0.576D-03-0.519D-03-0.203D-01
 Coeff-Com: -0.314D-01 0.588D-01 0.992D+00
 Coeff:     -0.265D-04 0.515D-04 0.286D-03 0.576D-03-0.519D-03-0.203D-01
 Coeff:     -0.314D-01 0.588D-01 0.992D+00
 Gap=     0.348 Goal=   None    Shift=    0.000
 RMSDP=3.15D-07 MaxDP=8.35D-06 DE=-2.62D-08 OVMax= 9.76D-06

 Cycle  10  Pass 1  IDiag  1:
 E= -644.145587552206     Delta-E=       -0.000000000976 Rises=F Damp=F
 DIIS: error= 3.76D-07 at cycle  10 NSaved=  10.
 NSaved=10 IEnMin=10 EnMin= -644.145587552206     IErMin=10 ErrMin= 3.76D-07
 ErrMax= 3.76D-07  0.00D+00 EMaxC= 1.00D-01 BMatC= 4.43D-11 BMatP= 7.83D-10
 IDIUse=1 WtCom= 1.00D+00 WtEn= 0.00D+00
 Coeff-Com: -0.885D-05 0.157D-04 0.176D-03 0.303D-03 0.462D-03-0.788D-02
 Coeff-Com: -0.189D-01-0.524D-02 0.227D+00 0.804D+00
 Coeff:     -0.885D-05 0.157D-04 0.176D-03 0.303D-03 0.462D-03-0.788D-02
 Coeff:     -0.189D-01-0.524D-02 0.227D+00 0.804D+00
 Gap=     0.348 Goal=   None    Shift=    0.000
 RMSDP=6.14D-08 MaxDP=1.25D-06 DE=-9.76D-10 OVMax= 2.18D-06

 Cycle  11  Pass 1  IDiag  1:
 E= -644.145587552238     Delta-E=       -0.000000000032 Rises=F Damp=F
 DIIS: error= 2.98D-07 at cycle  11 NSaved=  11.
 NSaved=11 IEnMin=11 EnMin= -644.145587552238     IErMin=11 ErrMin= 2.98D-07
 ErrMax= 2.98D-07  0.00D+00 EMaxC= 1.00D-01 BMatC= 2.23D-11 BMatP= 4.43D-11
 IDIUse=1 WtCom= 1.00D+00 WtEn= 0.00D+00
 Coeff-Com:  0.448D-06-0.123D-05 0.397D-04 0.520D-04 0.326D-03-0.729D-03
 Coeff-Com: -0.452D-02-0.124D-01-0.512D-01 0.439D+00 0.629D+00
 Coeff:      0.448D-06-0.123D-05 0.397D-04 0.520D-04 0.326D-03-0.729D-03
 Coeff:     -0.452D-02-0.124D-01-0.512D-01 0.439D+00 0.629D+00
 Gap=     0.348 Goal=   None    Shift=    0.000
 RMSDP=2.74D-08 MaxDP=6.36D-07 DE=-3.19D-11 OVMax= 1.04D-06

 Cycle  12  Pass 1  IDiag  1:
 E= -644.145587552264     Delta-E=       -0.000000000026 Rises=F Damp=F
 DIIS: error= 3.16D-08 at cycle  12 NSaved=  12.
 NSaved=12 IEnMin=12 EnMin= -644.145587552264     IErMin=12 ErrMin= 3.16D-08
 ErrMax= 3.16D-08  0.00D+00 EMaxC= 1.00D-01 BMatC= 3.30D-13 BMatP= 2.23D-11
 IDIUse=1 WtCom= 1.00D+00 WtEn= 0.00D+00
 Coeff-Com:  0.666D-06-0.126D-05-0.461D-05-0.104D-04 0.134D-04 0.379D-03
 Coeff-Com:  0.798D-03-0.897D-03-0.227D-01-0.220D-02 0.950D-01 0.930D+00
 Coeff:      0.666D-06-0.126D-05-0.461D-05-0.104D-04 0.134D-04 0.379D-03
 Coeff:      0.798D-03-0.897D-03-0.227D-01-0.220D-02 0.950D-01 0.930D+00
 Gap=     0.348 Goal=   None    Shift=    0.000
 RMSDP=7.05D-09 MaxDP=1.16D-07 DE=-2.61D-11 OVMax= 2.41D-07

 SCF Done:  E(RM062X) =  -644.145587552     A.U. after   12 cycles
            NFock= 12  Conv=0.70D-08     -V/T= 2.0025
 KE= 6.425361194101D+02 PE=-2.088077916909D+03 EE= 5.212320540829D+02
 Leave Link  502 at Sun Feb 19 14:33:23 2023, MaxMem=  6710886400 cpu:             110.2 elap:               5.8
 (Enter /data0/home/software/g16/l601.exe)
 Copying SCF densities to generalized density rwf, IOpCl= 0 IROHF=0.

 **********************************************************************

            Population analysis using the SCF density.

 **********************************************************************

 Alpha  occ. eigenvalues --  -78.16601 -19.69848 -19.67870 -19.67615 -19.58278
 Alpha  occ. eigenvalues --   -6.97403  -5.09332  -5.09301  -5.09059  -1.24359
 Alpha  occ. eigenvalues --   -1.17104  -1.16186  -1.08907  -0.72654  -0.66491
 Alpha  occ. eigenvalues --   -0.63387  -0.56732  -0.55125  -0.51401  -0.47838
 Alpha  occ. eigenvalues --   -0.47330  -0.45316  -0.44700  -0.38103  -0.37434
 Alpha virt. eigenvalues --   -0.02634   0.01393   0.01768   0.04762   0.08130
 Alpha virt. eigenvalues --    0.10497   0.12022   0.14632   0.15268   0.15630
 Alpha virt. eigenvalues --    0.17623   0.18485   0.18775   0.20291   0.21397
 Alpha virt. eigenvalues --    0.22870   0.23853   0.25596   0.26275   0.27413
 Alpha virt. eigenvalues --    0.28274   0.28782   0.31033   0.31563   0.32035
 Alpha virt. eigenvalues --    0.34994   0.35690   0.36651   0.38071   0.43790
 Alpha virt. eigenvalues --    0.46596   0.48323   0.52624   0.57656   0.58035
 Alpha virt. eigenvalues --    0.74017   0.76429   0.76659   0.86656   0.97140
 Alpha virt. eigenvalues --    0.98456   1.02675   1.05694   1.06816   1.10725
 Alpha virt. eigenvalues --    1.11946   1.16513   1.18136   1.19778   1.20779
 Alpha virt. eigenvalues --    1.22079   1.22570   1.26414   1.28174   1.32052
 Alpha virt. eigenvalues --    1.37380   1.39770   1.44425   1.48429   1.48808
 Alpha virt. eigenvalues --    1.51513   1.56001   1.59594   1.60536   1.66432
 Alpha virt. eigenvalues --    1.67579   1.69627   1.71214   1.73536   1.80326
 Alpha virt. eigenvalues --    1.82129   1.84340   1.88924   1.90517   1.98794
 Alpha virt. eigenvalues --    2.02323   2.02876   2.05632   2.12239   2.15138
 Alpha virt. eigenvalues --    2.22202   2.23365   2.25466   2.36340   2.43623
 Alpha virt. eigenvalues --    2.45509   2.56181   2.58230   2.64490   2.70745
 Alpha virt. eigenvalues --    2.71608   2.82914   2.87008   2.91807   2.96274
 Alpha virt. eigenvalues --    5.01124   5.04244   5.06619   5.07572   5.10145
 Alpha virt. eigenvalues --    5.13704   5.18616   5.22333   5.36290   5.41854
 Alpha virt. eigenvalues --    5.51451   5.53930   6.72640   6.73065   6.75163
 Alpha virt. eigenvalues --    6.76485   6.76854   6.79791   6.83728   6.86079
 Alpha virt. eigenvalues --    6.89163   6.94812   6.96709   6.98962   7.01721
 Alpha virt. eigenvalues --    7.02992   7.08655   7.19917   7.26390   7.29557
 Alpha virt. eigenvalues --    7.33404   7.40233   7.64759  14.21218  14.25736
 Alpha virt. eigenvalues --   14.36468  49.97078  50.00224  50.00791  50.10527
 Alpha virt. eigenvalues --  163.85832
          Condensed to atoms (all electrons):
              26         27         28         29         30         31
    26  P   12.431715   0.571724   0.179765   0.039860   0.238295  -0.005318
    27  O    0.571724   8.100961  -0.039564   0.006936  -0.009134  -0.013446
    28  O    0.179765  -0.039564   8.133215   0.217598   0.040242  -0.006931
    29  H    0.039860   0.006936   0.217598   0.455179  -0.020167   0.000447
    30  O    0.238295  -0.009134   0.040242  -0.020167   8.097441   0.257979
    31  H   -0.005318  -0.013446  -0.006931   0.000447   0.257979   0.416029
    32  O    0.258680  -0.009438   0.005026  -0.013158  -0.003852   0.005152
    33  H    0.009778  -0.008746  -0.002101   0.001983  -0.010494   0.000892
              32         33
    26  P    0.258680   0.009778
    27  O   -0.009438  -0.008746
    28  O    0.005026  -0.002101
    29  H   -0.013158   0.001983
    30  O   -0.003852  -0.010494
    31  H    0.005152   0.000892
    32  O    8.033521   0.257960
    33  H    0.257960   0.431999
 Mulliken charges:
               1
     1  C    0.000000
     2  C    0.000000
     3  C    0.000000
     4  N    0.000000
     5  H    0.000000
     6  H    0.000000
     7  H    0.000000
     8  C    0.000000
     9  H    0.000000
    10  H    0.000000
    11  H    0.000000
    12  N    0.000000
    13  C    0.000000
    14  H    0.000000
    15  H    0.000000
    16  C    0.000000
    17  H    0.000000
    18  H    0.000000
    19  C    0.000000
    20  H    0.000000
    21  H    0.000000
    22  S    0.000000
    23  O    0.000000
    24  O    0.000000
    25  O    0.000000
    26  P    1.275500
    27  O   -0.599293
    28  O   -0.527250
    29  H    0.311323
    30  O   -0.590310
    31  H    0.345195
    32  O   -0.533892
    33  H    0.318728
 Sum of Mulliken charges =  -0.00000
 Mulliken charges with hydrogens summed into heavy atoms:
               1
     1  C    0.000000
     2  C    0.000000
     3  C    0.000000
     4  N    0.000000
     8  C    0.000000
    12  N    0.000000
    13  C    0.000000
    16  C    0.000000
    19  C    0.000000
    22  S    0.000000
    23  O    0.000000
    24  O    0.000000
    25  O    0.000000
    26  P    1.275500
    27  O   -0.599293
    28  O   -0.215927
    30  O   -0.245115
    32  O   -0.215164
         Mulliken charges condensed to fragments:
      1      0.000000
      2     -0.000000
 Electronic spatial extent (au):  <R**2>=          38165.6107
 Charge=             -0.0000 electrons
 Dipole moment (field-independent basis, Debye):
    X=             -1.7242    Y=              4.0413    Z=             -2.2423  Tot=              4.9329
 Quadrupole moment (field-independent basis, Debye-Ang):
   XX=            -69.1955   YY=             27.3127   ZZ=            -68.5394
   XY=             27.8089   XZ=            -38.5876   YZ=             17.8800
 Traceless Quadrupole moment (field-independent basis, Debye-Ang):
   XX=            -32.3881   YY=             64.1201   ZZ=            -31.7320
   XY=             27.8089   XZ=            -38.5876   YZ=             17.8800
 Octapole moment (field-independent basis, Debye-Ang**2):
  XXX=          -1578.2661  YYY=            -51.8317  ZZZ=          -1168.2429  XYY=            181.1370
  XXY=           -100.5207  XXZ=           -809.3415  XZZ=           -826.5078  YZZ=           -220.4615
  YYZ=            154.6219  XYZ=             64.4227
 Hexadecapole moment (field-independent basis, Debye-Ang**3):
 XXXX=         -28645.2749 YYYY=          -4079.6416 ZZZZ=         -15835.5198 XXXY=          -7470.6550
 XXXZ=         -15097.7696 YYYX=          -1178.9991 YYYZ=           -354.2200 ZZZX=         -12870.1326
 ZZZY=          -6297.6296 XXYY=           -994.6819 XXZZ=         -11707.3597 YYZZ=          -1229.9802
 XXYZ=          -2400.0920 YYXZ=            741.2887 ZZXY=          -3180.8692
 N-N= 2.801641558639D+02 E-N=-2.088077921017D+03  KE= 6.425361194101D+02
 No NMR shielding tensors so no spin-rotation constants.
 Leave Link  601 at Sun Feb 19 14:33:24 2023, MaxMem=  6710886400 cpu:               2.0 elap:               0.1
 (Enter /data0/home/software/g16/l122.exe)
 CPIOFr:  IOpCl= 0 IRwI=-1 IRwCP=  731 ICalc=  4 LCPTot=      536908 Len1MO=     1413956 IndFrg=     7606688
 Restoring MOs from calculation   1 to rwf.
 CPIOFr:  IOpCl= 0 IRwI=-2 IRwCP=  731 ICalc=  0 LCPTot=      536908 Len1MO=     1413956 IndFrg=     1950864
 Counterpoise corrected energy =   -1651.410207446479
                   BSSE energy =       0.002571825682
              sum of fragments =   -1651.358923066144
           complexation energy =     -33.80 kcal/mole (raw)
           complexation energy =     -32.18 kcal/mole (corrected)
 Leave Link  122 at Sun Feb 19 14:33:24 2023, MaxMem=  6710886400 cpu:               0.6 elap:               0.0
 (Enter /data0/home/software/g16/l9999.exe)
 1\1\GINC-LOCALHOST\SP\RM062X\6-311+G(2d,p)\C7H15N2O7P1S1\WUHANYU\19-Fe
 b-2023\0\\#p M062X/6-311+G(2d,p) nosymm em=GD3 counterpoise=2\\Title C
 ard Required\\0,1\C,0,10.996203,7.954371,11.138083\C,0,11.599877,9.160
 041,11.478352\C,0,9.373827,9.403292,11.718093\N,0,9.623953,8.12302,11.
 30453\H,0,11.435224,7.041895,10.761688\H,0,12.634707,9.439103,11.44811
 1\H,0,8.384206,9.847057,11.869127\C,0,8.600223,7.12648,11.054029\H,0,8
 .994181,6.287131,10.445456\H,0,8.192975,6.728727,11.997619\H,0,7.75184
 3,7.576215,10.468959\N,0,10.581225,10.041981,11.846007\C,0,10.757954,1
 1.441316,12.238075\H,0,11.340451,11.4653,13.188364\H,0,9.751752,11.884
 365,12.456632\C,0,11.475371,12.278767,11.156927\H,0,12.09408,13.04899,
 11.661704\H,0,12.20032,11.644459,10.595085\C,0,10.520343,12.96047,10.1
 82997\H,0,11.081507,13.59771,9.474696\H,0,9.824844,13.639694,10.705462
 \S,0,9.570444,11.743016,9.247762\O,0,8.970711,12.411181,8.084441\O,0,1
 0.577371,10.706526,8.878586\O,0,8.594315,11.231815,10.250245\P,0,10.13
 0861,7.449115,7.47456\O,0,11.153215,6.813412,8.298325\O,0,8.739975,7.4
 07611,8.237345\H,0,8.01817,7.961954,7.736617\O,0,10.382252,8.916224,6.
 949025\H,0,10.558283,9.586841,7.778612\O,0,9.770184,6.69905,6.104347\H
 ,0,10.462198,6.982634,5.402295\\Version=ES64L-G16RevA.03\HF=-644.14558
 76\RMSD=7.047e-09\Dipole=0.5270174,-0.4956313,3.2280681\Quadrupole=-18
 .8809608,-65.2279488,84.1089096,13.0502404,70.6346763,55.9266067\PG=C0
 1 [X(C7H15N2O7P1S1)]\\@


 FRICTION IS A DRAG,
 AND ENTROPY AIN'T WHAT IT USED TO BE.
 Job cpu time:       0 days  3 hours  2 minutes 38.9 seconds.
 Elapsed time:       0 days  0 hours  7 minutes 40.2 seconds.
 File lengths (MBytes):  RWF=    264 Int=      0 D2E=      0 Chk=     79 Scr=      1
 Normal termination of Gaussian 16 at Sun Feb 19 14:33:24 2023.
