
    -----------------------------------------------------------------------
          Psi4: An Open-Source Ab Initio Electronic Structure Package
                               Psi4 1.3.2 release

                         Git: Rev {HEAD} ecbda83 


    R. M. Parrish, L. A. Burns, D. G. A. Smith, A. C. Simmonett,
    A. E. DePrince III, E. G. Hohenstein, U. Bozkaya, A. Yu. Sokolov,
    R. Di Remigio, R. M. Richard, J. F. Gonthier, A. M. James,
    H. R. McAlexander, A. Kumar, M. Saitow, X. Wang, B. P. Pritchard,
    P. Verma, H. F. Schaefer III, K. Patkowski, R. A. King, E. F. Valeev,
    F. A. Evangelista, J. M. Turney, T. D. Crawford, and C. D. Sherrill,
    J. Chem. Theory Comput. 13(7) pp 3185--3197 (2017).
    (doi: 10.1021/acs.jctc.7b00174)


                         Additional Contributions by
    P. Kraus, H. Kruse, M. H. Lechner, M. C. Schieber, R. A. Shaw,
    A. Alenaizan, R. Galvelis, Z. L. Glick, S. Lehtola, and J. P. Misiewicz

    -----------------------------------------------------------------------


    Psi4 started on: Friday, 03 June 2022 04:16PM

    Process ID: 3035394
    Host:       localhost.localdomain
    PSIDATADIR: /data0/home/wuhanyu/software/psi4_132/share/psi4
    Memory:     500.0 MiB
    Threads:    24
    
  ==> Input File <==

--------------------------------------------------------------------------
memory 200 GB

molecule dimer {
0 1
C     13.80800000    5.54300000    8.39600000
C     14.75200000    5.59600000    7.37800000
C     14.79900000    6.70800000    6.53200000
C     13.83100000    7.69900000    6.65500000
C     12.83900000    7.57300000    7.64700000
H     15.60600000    6.80500000    5.80400000
H     13.80100000    4.72600000    9.13100000
H     15.50000000    4.80500000    7.29700000
H     12.02100000    8.30900000    7.71800000
C     13.84100000    8.93400000    5.83400000
H     14.62100000    8.93700000    5.06300000
H     12.88200000    9.13200000    5.34000000
H     14.04400000    9.80700000    6.50000000
N     12.87600000    6.54100000    8.52800000
C     11.94500000    6.46500000    9.68000000
H     11.08000000    5.83400000    9.37500000
H     12.47500000    5.93100000   10.51600000
C     11.44400000    7.81900000   10.21900000
H     11.10100000    8.48500000    9.40100000
H     10.51800000    7.61700000   10.80500000
C     12.45200000    8.52000000   11.11800000
H     13.16600000    7.80400000   11.56800000
H     11.94200000    8.98800000   11.98100000
S     13.39900000    9.83600000   10.29000000
O     14.56100000   10.05300000   11.18200000
O     12.45800000   10.93300000   10.10400000
O     13.83500000    9.21300000    8.97900000
--
0 1
P     16.21299900    7.13600000   10.24000000
O     15.07700000    6.25900000   10.55900000
O     17.54200000    6.25900000   10.10500000
H     18.32600000    6.91300000    9.96200000
O     16.12100000    7.85000000    8.82700000
H     15.23800000    8.47300000    8.82000000
O     16.60899900    8.23100000   11.30600000
H     15.85400000    8.99700000   11.30900000
}

set {
    scf_type DF
    freeze_core True
    basis aug-cc-pVTZ
}

energy('sapt2+(3)dmp2')
--------------------------------------------------------------------------

  Memory set to 186.265 GiB by Python driver.

  //>>>>>>>>>>>>>>>>>>>>>>>>>>>>>>>>>>>//
  //              Dimer HF             //
  //<<<<<<<<<<<<<<<<<<<<<<<<<<<<<<<<<<<//


*** tstart() called on localhost.localdomain
*** at Fri Jun  3 16:16:16 2022

   => Loading Basis Set <=

    Name: AUG-CC-PVTZ
    Role: ORBITAL
    Keyword: BASIS
    atoms 1-5, 10, 15, 18, 21                         entry C          line   235 file /data0/home/wuhanyu/software/psi4_132/share/psi4/basis/aug-cc-pvtz.gbs 
    atoms 6-9, 11-13, 16-17, 19-20, 22-23, 31, 33, 35 entry H          line    36 file /data0/home/wuhanyu/software/psi4_132/share/psi4/basis/aug-cc-pvtz.gbs 
    atoms 14                                          entry N          line   281 file /data0/home/wuhanyu/software/psi4_132/share/psi4/basis/aug-cc-pvtz.gbs 
    atoms 24                                          entry S          line   902 file /data0/home/wuhanyu/software/psi4_132/share/psi4/basis/aug-cc-pvtz.gbs 
    atoms 25-27, 29-30, 32, 34                        entry O          line   327 file /data0/home/wuhanyu/software/psi4_132/share/psi4/basis/aug-cc-pvtz.gbs 
    atoms 28                                          entry P          line   820 file /data0/home/wuhanyu/software/psi4_132/share/psi4/basis/aug-cc-pvtz.gbs 


         ---------------------------------------------------------
                                   SCF
               by Justin Turney, Rob Parrish, Andy Simmonett
                          and Daniel G. A. Smith
                              RHF Reference
                       24 Threads, 190734 MiB Core
         ---------------------------------------------------------

  ==> Geometry <==

    Molecular point group: c1
    Full point group: C1

    Geometry (in Angstrom), charge = 0, multiplicity = 1:

       Center              X                  Y                   Z               Mass       
    ------------   -----------------  -----------------  -----------------  -----------------
         C           -0.458605927113    -2.342187636223    -0.949210894518    12.000000000000
         C            0.485394072887    -2.289187636223    -1.967210894518    12.000000000000
         C            0.532394072887    -1.177187636223    -2.813210894518    12.000000000000
         C           -0.435605927113    -0.186187636223    -2.690210894518    12.000000000000
         C           -1.427605927113    -0.312187636223    -1.698210894518    12.000000000000
         H            1.339394072887    -1.080187636223    -3.541210894518     1.007825032230
         H           -0.465605927113    -3.159187636223    -0.214210894518     1.007825032230
         H            1.233394072887    -3.080187636223    -2.048210894518     1.007825032230
         H           -2.245605927113     0.423812363777    -1.627210894518     1.007825032230
         C           -0.425605927113     1.048812363777    -3.511210894518    12.000000000000
         H            0.354394072887     1.051812363777    -4.282210894518     1.007825032230
         H           -1.384605927113     1.246812363777    -4.005210894518     1.007825032230
         H           -0.222605927113     1.921812363777    -2.845210894518     1.007825032230
         N           -1.390605927113    -1.344187636223    -0.817210894518    14.003074004430
         C           -2.321605927113    -1.420187636223     0.334789105482    12.000000000000
         H           -3.186605927113    -2.051187636223     0.029789105482     1.007825032230
         H           -1.791605927113    -1.954187636223     1.170789105482     1.007825032230
         C           -2.822605927113    -0.066187636223     0.873789105482    12.000000000000
         H           -3.165605927113     0.599812363777     0.055789105482     1.007825032230
         H           -3.748605927113    -0.268187636223     1.459789105482     1.007825032230
         C           -1.814605927113     0.634812363777     1.772789105482    12.000000000000
         H           -1.100605927113    -0.081187636223     2.222789105482     1.007825032230
         H           -2.324605927113     1.102812363777     2.635789105482     1.007825032230
         S           -0.867605927113     1.950812363777     0.944789105482    31.972071174400
         O            0.294394072887     2.167812363777     1.836789105482    15.994914619570
         O           -1.808605927113     3.047812363777     0.758789105482    15.994914619570
         O           -0.431605927113     1.327812363777    -0.366210894518    15.994914619570
         P            1.946393072887    -0.749187636223     0.894789105482    30.973761998420
         O            0.810394072887    -1.626187636223     1.213789105482    15.994914619570
         O            3.275394072887    -1.626187636223     0.759789105482    15.994914619570
         H            4.059394072887    -0.972187636223     0.616789105482     1.007825032230
         O            1.854394072887    -0.035187636223    -0.518210894518    15.994914619570
         H            0.971394072887     0.587812363777    -0.525210894518     1.007825032230
         O            2.342393072887     0.345812363777     1.960789105482    15.994914619570
         H            1.587394072887     1.111812363777     1.963789105482     1.007825032230

  Running in c1 symmetry.

  Rotational constants: A =      0.01276  B =      0.01144  C =      0.00864 [cm^-1]
  Rotational constants: A =    382.45735  B =    342.94984  C =    258.94065 [MHz]
  Nuclear repulsion = 2101.068593945799421

  Charge       = 0
  Multiplicity = 1
  Electrons    = 164
  Nalpha       = 82
  Nbeta        = 82

  ==> Algorithm <==

  SCF Algorithm Type is DF.
  DIIS enabled.
  MOM disabled.
  Fractional occupation disabled.
  Guess Type is SAD.
  Energy threshold   = 1.00e-08
  Density threshold  = 1.00e-08
  Integral threshold = 0.00e+00

  ==> Primary Basis <==

  Basis Set: AUG-CC-PVTZ
    Blend: AUG-CC-PVTZ
    Number of shells: 414
    Number of basis function: 1250
    Number of Cartesian functions: 1453
    Spherical Harmonics?: true
    Max angular momentum: 3

   => Loading Basis Set <=

    Name: (AUG-CC-PVTZ AUX)
    Role: JKFIT
    Keyword: DF_BASIS_SCF
    atoms 1-5, 10, 15, 18, 21                         entry C          line   162 file /data0/home/wuhanyu/software/psi4_132/share/psi4/basis/aug-cc-pvtz-jkfit.gbs 
    atoms 6-9, 11-13, 16-17, 19-20, 22-23, 31, 33, 35 entry H          line    70 file /data0/home/wuhanyu/software/psi4_132/share/psi4/basis/aug-cc-pvtz-jkfit.gbs 
    atoms 14                                          entry N          line   224 file /data0/home/wuhanyu/software/psi4_132/share/psi4/basis/aug-cc-pvtz-jkfit.gbs 
    atoms 24                                          entry S          line   730 file /data0/home/wuhanyu/software/psi4_132/share/psi4/basis/aug-cc-pvtz-jkfit.gbs 
    atoms 25-27, 29-30, 32, 34                        entry O          line   286 file /data0/home/wuhanyu/software/psi4_132/share/psi4/basis/aug-cc-pvtz-jkfit.gbs 
    atoms 28                                          entry P          line   644 file /data0/home/wuhanyu/software/psi4_132/share/psi4/basis/aug-cc-pvtz-jkfit.gbs 

  ==> Pre-Iterations <==

   -------------------------------------------------------
    Irrep   Nso     Nmo     Nalpha   Nbeta   Ndocc  Nsocc
   -------------------------------------------------------
     A       1250    1250       0       0       0       0
   -------------------------------------------------------
    Total    1250    1250      82      82      82       0
   -------------------------------------------------------

  ==> Integral Setup <==

  ==> DiskDFJK: Density-Fitted J/K Matrices <==

    J tasked:                  Yes
    K tasked:                  Yes
    wK tasked:                  No
    OpenMP threads:             24
    Integrals threads:          24
    Memory [MiB]:           143051
    Algorithm:                Core
    Integral Cache:           SAVE
    Schwarz Cutoff:          1E-12
    Fitting Condition:       1E-10

   => Auxiliary Basis Set <=

  Basis Set: (AUG-CC-PVTZ AUX)
    Blend: AUG-CC-PVTZ-JKFIT
    Number of shells: 818
    Number of basis function: 2796
    Number of Cartesian functions: 3467
    Spherical Harmonics?: true
    Max angular momentum: 4

  Minimum eigenvalue in the overlap matrix is 6.1740363765E-07.
  Using Symmetric Orthogonalization.

  SCF Guess: Superposition of Atomic Densities via on-the-fly atomic UHF.

  ==> Iterations <==

                           Total Energy        Delta E     RMS |[F,P]|

   @DF-RHF iter SAD: -1667.14372164537144   -1.66714e+03   0.00000e+00 
   @DF-RHF iter   1: -1666.64459971349493    4.99122e-01   9.97740e-04 DIIS
   @DF-RHF iter   2: -1667.12858360275141   -4.83984e-01   6.15734e-04 DIIS
   @DF-RHF iter   3: -1667.32996768368571   -2.01384e-01   8.98163e-05 DIIS
   @DF-RHF iter   4: -1667.33754762907415   -7.57995e-03   3.68044e-05 DIIS
   @DF-RHF iter   5: -1667.33870874968966   -1.16112e-03   8.98575e-06 DIIS
   @DF-RHF iter   6: -1667.33881904334203   -1.10294e-04   3.87370e-06 DIIS
   @DF-RHF iter   7: -1667.33884735247807   -2.83091e-05   1.72840e-06 DIIS
   @DF-RHF iter   8: -1667.33885593031869   -8.57784e-06   9.08505e-07 DIIS
   @DF-RHF iter   9: -1667.33885919791442   -3.26760e-06   3.88481e-07 DIIS
   @DF-RHF iter  10: -1667.33885979496404   -5.97050e-07   1.27550e-07 DIIS
   @DF-RHF iter  11: -1667.33885983865275   -4.36887e-08   4.64260e-08 DIIS
   @DF-RHF iter  12: -1667.33885984241965   -3.76690e-09   1.77839e-08 DIIS
   @DF-RHF iter  13: -1667.33885984284552   -4.25871e-10   5.98715e-09 DIIS
  Energy and wave function converged.


  ==> Post-Iterations <==

    Orbital Energies [Eh]
    ---------------------

    Doubly Occupied:                                                      

       1A    -92.183991     2A    -80.078058     3A    -20.588713  
       4A    -20.565869     5A    -20.563795     6A    -20.535738  
       7A    -20.530138     8A    -20.519428     9A    -20.494873  
      10A    -15.697598    11A    -11.354099    12A    -11.341590  
      13A    -11.321610    14A    -11.301954    15A    -11.282169  
      16A    -11.275810    17A    -11.274310    18A    -11.261843  
      19A    -11.247915    20A     -9.146087    21A     -7.595626  
      22A     -6.831407    23A     -6.831044    24A     -6.830804  
      25A     -5.494322    26A     -5.493485    27A     -5.492839  
      28A     -1.454220    29A     -1.422578    30A     -1.364972  
      31A     -1.344548    32A     -1.335872    33A     -1.312066  
      34A     -1.308291    35A     -1.284530    36A     -1.164632  
      37A     -1.106013    38A     -1.092309    39A     -1.004310  
      40A     -0.984793    41A     -0.924301    42A     -0.880265  
      43A     -0.856184    44A     -0.816800    45A     -0.786393  
      46A     -0.762927    47A     -0.730569    48A     -0.726891  
      49A     -0.710532    50A     -0.700030    51A     -0.692010  
      52A     -0.685570    53A     -0.664373    54A     -0.662984  
      55A     -0.652247    56A     -0.638915    57A     -0.632492  
      58A     -0.602475    59A     -0.600997    60A     -0.595632  
      61A     -0.587490    62A     -0.583193    63A     -0.576962  
      64A     -0.575087    65A     -0.564797    66A     -0.548703  
      67A     -0.545976    68A     -0.539384    69A     -0.532228  
      70A     -0.531375    71A     -0.520865    72A     -0.509767  
      73A     -0.507032    74A     -0.503048    75A     -0.475256  
      76A     -0.464854    77A     -0.459220    78A     -0.451323  
      79A     -0.432672    80A     -0.430086    81A     -0.421162  
      82A     -0.360098  

    Virtual:                                                              

      83A      0.011559    84A      0.020806    85A      0.026174  
      86A      0.030925    87A      0.037271    88A      0.039372  
      89A      0.041440    90A      0.044358    91A      0.051478  
      92A      0.057581    93A      0.058465    94A      0.063439  
      95A      0.068088    96A      0.072497    97A      0.076849  
      98A      0.082096    99A      0.082928   100A      0.085470  
     101A      0.092650   102A      0.094048   103A      0.098040  
     104A      0.102510   105A      0.104403   106A      0.107165  
     107A      0.109182   108A      0.112789   109A      0.116167  
     110A      0.120479   111A      0.121588   112A      0.123221  
     113A      0.124382   114A      0.128972   115A      0.130215  
     116A      0.133687   117A      0.138254   118A      0.142692  
     119A      0.146387   120A      0.148493   121A      0.154983  
     122A      0.156499   123A      0.159829   124A      0.162290  
     125A      0.164213   126A      0.167473   127A      0.173519  
     128A      0.174485   129A      0.178872   130A      0.182460  
     131A      0.185088   132A      0.189151   133A      0.191305  
     134A      0.194895   135A      0.203666   136A      0.204735  
     137A      0.213590   138A      0.215129   139A      0.218552  
     140A      0.220828   141A      0.226341   142A      0.228514  
     143A      0.234677   144A      0.235609   145A      0.240083  
     146A      0.242003   147A      0.244194   148A      0.245746  
     149A      0.246454   150A      0.249457   151A      0.253179  
     152A      0.258351   153A      0.261572   154A      0.262525  
     155A      0.264568   156A      0.268310   157A      0.270567  
     158A      0.273774   159A      0.278355   160A      0.279886  
     161A      0.281186   162A      0.285237   163A      0.289379  
     164A      0.292065   165A      0.293135   166A      0.295744  
     167A      0.299552   168A      0.301992   169A      0.306772  
     170A      0.309370   171A      0.312688   172A      0.314873  
     173A      0.317605   174A      0.321955   175A      0.326027  
     176A      0.330208   177A      0.331043   178A      0.334069  
     179A      0.335886   180A      0.337653   181A      0.339706  
     182A      0.343445   183A      0.345745   184A      0.349101  
     185A      0.354393   186A      0.356049   187A      0.357605  
     188A      0.360518   189A      0.368996   190A      0.371842  
     191A      0.375503   192A      0.376806   193A      0.378450  
     194A      0.379802   195A      0.384587   196A      0.388897  
     197A      0.389644   198A      0.392573   199A      0.394843  
     200A      0.400055   201A      0.402708   202A      0.406252  
     203A      0.407099   204A      0.409142   205A      0.415431  
     206A      0.418337   207A      0.419901   208A      0.423158  
     209A      0.425170   210A      0.428588   211A      0.436106  
     212A      0.440546   213A      0.441761   214A      0.443537  
     215A      0.444400   216A      0.446164   217A      0.453678  
     218A      0.456251   219A      0.458450   220A      0.461348  
     221A      0.465588   222A      0.469596   223A      0.471538  
     224A      0.474335   225A      0.476249   226A      0.478227  
     227A      0.481123   228A      0.484617   229A      0.487903  
     230A      0.491004   231A      0.492285   232A      0.494746  
     233A      0.496744   234A      0.502265   235A      0.503479  
     236A      0.504318   237A      0.508589   238A      0.510991  
     239A      0.513230   240A      0.517292   241A      0.518046  
     242A      0.521059   243A      0.522575   244A      0.526896  
     245A      0.529479   246A      0.535585   247A      0.537132  
     248A      0.541590   249A      0.544475   250A      0.546512  
     251A      0.550047   252A      0.554699   253A      0.555379  
     254A      0.557266   255A      0.560693   256A      0.561796  
     257A      0.565143   258A      0.565386   259A      0.570943  
     260A      0.576556   261A      0.579432   262A      0.580574  
     263A      0.582886   264A      0.584071   265A      0.587136  
     266A      0.591986   267A      0.599319   268A      0.603851  
     269A      0.608919   270A      0.611418   271A      0.616098  
     272A      0.617957   273A      0.621809   274A      0.626618  
     275A      0.628309   276A      0.630410   277A      0.631960  
     278A      0.636046   279A      0.642860   280A      0.644962  
     281A      0.646453   282A      0.651828   283A      0.654077  
     284A      0.661609   285A      0.664426   286A      0.666190  
     287A      0.674089   288A      0.676229   289A      0.681633  
     290A      0.686018   291A      0.686691   292A      0.689841  
     293A      0.694870   294A      0.697734   295A      0.706002  
     296A      0.707218   297A      0.714439   298A      0.718011  
     299A      0.719972   300A      0.723463   301A      0.726882  
     302A      0.730605   303A      0.736211   304A      0.738364  
     305A      0.743857   306A      0.747065   307A      0.748410  
     308A      0.757220   309A      0.761073   310A      0.762143  
     311A      0.768107   312A      0.771661   313A      0.775169  
     314A      0.778346   315A      0.784355   316A      0.786363  
     317A      0.791456   318A      0.795220   319A      0.798504  
     320A      0.803247   321A      0.811145   322A      0.813866  
     323A      0.820629   324A      0.821829   325A      0.827619  
     326A      0.831677   327A      0.835803   328A      0.839103  
     329A      0.840968   330A      0.851511   331A      0.853123  
     332A      0.859797   333A      0.861316   334A      0.865226  
     335A      0.866228   336A      0.868128   337A      0.878622  
     338A      0.882429   339A      0.886648   340A      0.889598  
     341A      0.893490   342A      0.900885   343A      0.903336  
     344A      0.905654   345A      0.906471   346A      0.913051  
     347A      0.917542   348A      0.921151   349A      0.925584  
     350A      0.927402   351A      0.928794   352A      0.936510  
     353A      0.939204   354A      0.941688   355A      0.943329  
     356A      0.949155   357A      0.951116   358A      0.954853  
     359A      0.957390   360A      0.960991   361A      0.962940  
     362A      0.965947   363A      0.973383   364A      0.976027  
     365A      0.982098   366A      0.985931   367A      0.988197  
     368A      0.991538   369A      0.993365   370A      0.994534  
     371A      0.997254   372A      1.004580   373A      1.008870  
     374A      1.011769   375A      1.016426   376A      1.018487  
     377A      1.021505   378A      1.024058   379A      1.028176  
     380A      1.035114   381A      1.039786   382A      1.040571  
     383A      1.045293   384A      1.049682   385A      1.052412  
     386A      1.057711   387A      1.059594   388A      1.066838  
     389A      1.068337   390A      1.068926   391A      1.074787  
     392A      1.074919   393A      1.085571   394A      1.086848  
     395A      1.092665   396A      1.096232   397A      1.098062  
     398A      1.098905   399A      1.105842   400A      1.110436  
     401A      1.112047   402A      1.119818   403A      1.121913  
     404A      1.124549   405A      1.129031   406A      1.130766  
     407A      1.135037   408A      1.136526   409A      1.138633  
     410A      1.143374   411A      1.150282   412A      1.152618  
     413A      1.154753   414A      1.161693   415A      1.165389  
     416A      1.166824   417A      1.169518   418A      1.171025  
     419A      1.178901   420A      1.182223   421A      1.182763  
     422A      1.192008   423A      1.193444   424A      1.199556  
     425A      1.202005   426A      1.207759   427A      1.208902  
     428A      1.212804   429A      1.214961   430A      1.219370  
     431A      1.222218   432A      1.227624   433A      1.230203  
     434A      1.235252   435A      1.240710   436A      1.243053  
     437A      1.246046   438A      1.250495   439A      1.254084  
     440A      1.257828   441A      1.260344   442A      1.265886  
     443A      1.266347   444A      1.271503   445A      1.275998  
     446A      1.283505   447A      1.285962   448A      1.290266  
     449A      1.297331   450A      1.298873   451A      1.304380  
     452A      1.305302   453A      1.311294   454A      1.312755  
     455A      1.320244   456A      1.322507   457A      1.325225  
     458A      1.333680   459A      1.338019   460A      1.343889  
     461A      1.345127   462A      1.349397   463A      1.351939  
     464A      1.352635   465A      1.355057   466A      1.357566  
     467A      1.369303   468A      1.371813   469A      1.377287  
     470A      1.382601   471A      1.384810   472A      1.391877  
     473A      1.395451   474A      1.398268   475A      1.402843  
     476A      1.408613   477A      1.414272   478A      1.417989  
     479A      1.423433   480A      1.425789   481A      1.431861  
     482A      1.437343   483A      1.442252   484A      1.445460  
     485A      1.447224   486A      1.452314   487A      1.456330  
     488A      1.460563   489A      1.464556   490A      1.467640  
     491A      1.478969   492A      1.480382   493A      1.481926  
     494A      1.488433   495A      1.492671   496A      1.498271  
     497A      1.500909   498A      1.509454   499A      1.511204  
     500A      1.513490   501A      1.517170   502A      1.522363  
     503A      1.524817   504A      1.531692   505A      1.535726  
     506A      1.539862   507A      1.544582   508A      1.545516  
     509A      1.547002   510A      1.553675   511A      1.557096  
     512A      1.568016   513A      1.569733   514A      1.576115  
     515A      1.580220   516A      1.584324   517A      1.587488  
     518A      1.593089   519A      1.597597   520A      1.599718  
     521A      1.609932   522A      1.611360   523A      1.616534  
     524A      1.619807   525A      1.628951   526A      1.634342  
     527A      1.635543   528A      1.636402   529A      1.641308  
     530A      1.644848   531A      1.649604   532A      1.653094  
     533A      1.667715   534A      1.670360   535A      1.671366  
     536A      1.674036   537A      1.676930   538A      1.680813  
     539A      1.684834   540A      1.691585   541A      1.696362  
     542A      1.698012   543A      1.707775   544A      1.713276  
     545A      1.718971   546A      1.720038   547A      1.720189  
     548A      1.722604   549A      1.727267   550A      1.732096  
     551A      1.736412   552A      1.742430   553A      1.748853  
     554A      1.751332   555A      1.756054   556A      1.761942  
     557A      1.766039   558A      1.770514   559A      1.778215  
     560A      1.783413   561A      1.789648   562A      1.791113  
     563A      1.793230   564A      1.800573   565A      1.805344  
     566A      1.811144   567A      1.818353   568A      1.822202  
     569A      1.823795   570A      1.829439   571A      1.834073  
     572A      1.837989   573A      1.847739   574A      1.849537  
     575A      1.862867   576A      1.868126   577A      1.868850  
     578A      1.871566   579A      1.876004   580A      1.876513  
     581A      1.882445   582A      1.884823   583A      1.890249  
     584A      1.893348   585A      1.902465   586A      1.907446  
     587A      1.912552   588A      1.912954   589A      1.922660  
     590A      1.924792   591A      1.931549   592A      1.939045  
     593A      1.942916   594A      1.945556   595A      1.950690  
     596A      1.957229   597A      1.967157   598A      1.971136  
     599A      1.973394   600A      1.983085   601A      1.989714  
     602A      2.000531   603A      2.003189   604A      2.003598  
     605A      2.008962   606A      2.015428   607A      2.019166  
     608A      2.023288   609A      2.032243   610A      2.036153  
     611A      2.047031   612A      2.051211   613A      2.053983  
     614A      2.060464   615A      2.065800   616A      2.068037  
     617A      2.072918   618A      2.083026   619A      2.085826  
     620A      2.092736   621A      2.100461   622A      2.102436  
     623A      2.108939   624A      2.111089   625A      2.118128  
     626A      2.120038   627A      2.126610   628A      2.135997  
     629A      2.139457   630A      2.145936   631A      2.150404  
     632A      2.157119   633A      2.163492   634A      2.167080  
     635A      2.176550   636A      2.184038   637A      2.190160  
     638A      2.193119   639A      2.200343   640A      2.205331  
     641A      2.209852   642A      2.216380   643A      2.218849  
     644A      2.222913   645A      2.228539   646A      2.234650  
     647A      2.242190   648A      2.243344   649A      2.259892  
     650A      2.267038   651A      2.268985   652A      2.271173  
     653A      2.277151   654A      2.279429   655A      2.284788  
     656A      2.285534   657A      2.293526   658A      2.303458  
     659A      2.314488   660A      2.316938   661A      2.319478  
     662A      2.325319   663A      2.327262   664A      2.345500  
     665A      2.348438   666A      2.356996   667A      2.359536  
     668A      2.364052   669A      2.368926   670A      2.375334  
     671A      2.382590   672A      2.385058   673A      2.392944  
     674A      2.395188   675A      2.406135   676A      2.419501  
     677A      2.421452   678A      2.430022   679A      2.433302  
     680A      2.440586   681A      2.441476   682A      2.453778  
     683A      2.456880   684A      2.460343   685A      2.463396  
     686A      2.465944   687A      2.473533   688A      2.480783  
     689A      2.492602   690A      2.497134   691A      2.498992  
     692A      2.506305   693A      2.512271   694A      2.517582  
     695A      2.523934   696A      2.529950   697A      2.536593  
     698A      2.543584   699A      2.546670   700A      2.554348  
     701A      2.557292   702A      2.558075   703A      2.565695  
     704A      2.577455   705A      2.581874   706A      2.588115  
     707A      2.593057   708A      2.601959   709A      2.603911  
     710A      2.615233   711A      2.617991   712A      2.622519  
     713A      2.628796   714A      2.635820   715A      2.636923  
     716A      2.642708   717A      2.656805   718A      2.664674  
     719A      2.671124   720A      2.674278   721A      2.678355  
     722A      2.686964   723A      2.689842   724A      2.696840  
     725A      2.700075   726A      2.713801   727A      2.719139  
     728A      2.725864   729A      2.729924   730A      2.731734  
     731A      2.743300   732A      2.748731   733A      2.753376  
     734A      2.757748   735A      2.762610   736A      2.773109  
     737A      2.778275   738A      2.781827   739A      2.793634  
     740A      2.797593   741A      2.801509   742A      2.813880  
     743A      2.819085   744A      2.824778   745A      2.829048  
     746A      2.833023   747A      2.847615   748A      2.853202  
     749A      2.857431   750A      2.866484   751A      2.871953  
     752A      2.875524   753A      2.882377   754A      2.889211  
     755A      2.894923   756A      2.901805   757A      2.906031  
     758A      2.914330   759A      2.932943   760A      2.942044  
     761A      2.954847   762A      2.956807   763A      2.963496  
     764A      2.977095   765A      2.992624   766A      2.998033  
     767A      3.004926   768A      3.010531   769A      3.015344  
     770A      3.020548   771A      3.030193   772A      3.033917  
     773A      3.045475   774A      3.051146   775A      3.072024  
     776A      3.083268   777A      3.089731   778A      3.093741  
     779A      3.111372   780A      3.119897   781A      3.133612  
     782A      3.137721   783A      3.148445   784A      3.158235  
     785A      3.167408   786A      3.178136   787A      3.190676  
     788A      3.197851   789A      3.208507   790A      3.229262  
     791A      3.240462   792A      3.244475   793A      3.258661  
     794A      3.267458   795A      3.274708   796A      3.283193  
     797A      3.291168   798A      3.317723   799A      3.321480  
     800A      3.334695   801A      3.343801   802A      3.356853  
     803A      3.379820   804A      3.396071   805A      3.398415  
     806A      3.409155   807A      3.414888   808A      3.425036  
     809A      3.432042   810A      3.439262   811A      3.449653  
     812A      3.460833   813A      3.470596   814A      3.480268  
     815A      3.485121   816A      3.495887   817A      3.501806  
     818A      3.505910   819A      3.519267   820A      3.524730  
     821A      3.531244   822A      3.536027   823A      3.540904  
     824A      3.555195   825A      3.561408   826A      3.571316  
     827A      3.579249   828A      3.586822   829A      3.592977  
     830A      3.599885   831A      3.613211   832A      3.620336  
     833A      3.632183   834A      3.633599   835A      3.642418  
     836A      3.648753   837A      3.650192   838A      3.651692  
     839A      3.667903   840A      3.671298   841A      3.676489  
     842A      3.686391   843A      3.695858   844A      3.706690  
     845A      3.709610   846A      3.714406   847A      3.722350  
     848A      3.728298   849A      3.734952   850A      3.738984  
     851A      3.750193   852A      3.752350   853A      3.756259  
     854A      3.761537   855A      3.772136   856A      3.780791  
     857A      3.783711   858A      3.797086   859A      3.801860  
     860A      3.813149   861A      3.823079   862A      3.831807  
     863A      3.835052   864A      3.844589   865A      3.845136  
     866A      3.854073   867A      3.856248   868A      3.870027  
     869A      3.883641   870A      3.884705   871A      3.897685  
     872A      3.905030   873A      3.909057   874A      3.923281  
     875A      3.927741   876A      3.930951   877A      3.933073  
     878A      3.944276   879A      3.952609   880A      3.962045  
     881A      3.971912   882A      3.974101   883A      3.981687  
     884A      3.987540   885A      3.990606   886A      3.999515  
     887A      4.007829   888A      4.010244   889A      4.015396  
     890A      4.021351   891A      4.023902   892A      4.038094  
     893A      4.045463   894A      4.048887   895A      4.050599  
     896A      4.060960   897A      4.064458   898A      4.073165  
     899A      4.082177   900A      4.083929   901A      4.089455  
     902A      4.099635   903A      4.102864   904A      4.110540  
     905A      4.118086   906A      4.120276   907A      4.121395  
     908A      4.136905   909A      4.143057   910A      4.154795  
     911A      4.161684   912A      4.167024   913A      4.176121  
     914A      4.183550   915A      4.190270   916A      4.200259  
     917A      4.209936   918A      4.211747   919A      4.219750  
     920A      4.222084   921A      4.228641   922A      4.233948  
     923A      4.243800   924A      4.252878   925A      4.262508  
     926A      4.267283   927A      4.273888   928A      4.280211  
     929A      4.296157   930A      4.299190   931A      4.306266  
     932A      4.312360   933A      4.315146   934A      4.330356  
     935A      4.335716   936A      4.342870   937A      4.350176  
     938A      4.354703   939A      4.362640   940A      4.375106  
     941A      4.388088   942A      4.390006   943A      4.392485  
     944A      4.398309   945A      4.410614   946A      4.416191  
     947A      4.425286   948A      4.432803   949A      4.436594  
     950A      4.449067   951A      4.455841   952A      4.460053  
     953A      4.466110   954A      4.478926   955A      4.486017  
     956A      4.505057   957A      4.506248   958A      4.518314  
     959A      4.527023   960A      4.532744   961A      4.543118  
     962A      4.549479   963A      4.553045   964A      4.554385  
     965A      4.572950   966A      4.577269   967A      4.587112  
     968A      4.600861   969A      4.612095   970A      4.618269  
     971A      4.624387   972A      4.629735   973A      4.633703  
     974A      4.641915   975A      4.648476   976A      4.654233  
     977A      4.673146   978A      4.681667   979A      4.689551  
     980A      4.699115   981A      4.712474   982A      4.722095  
     983A      4.722774   984A      4.737111   985A      4.743287  
     986A      4.747068   987A      4.758842   988A      4.761807  
     989A      4.764999   990A      4.773043   991A      4.795157  
     992A      4.804910   993A      4.808109   994A      4.824679  
     995A      4.841279   996A      4.843785   997A      4.858337  
     998A      4.867140   999A      4.881035  1000A      4.894453  
    1001A      4.897540  1002A      4.900086  1003A      4.915378  
    1004A      4.919714  1005A      4.933144  1006A      4.937306  
    1007A      4.940678  1008A      4.947840  1009A      4.964124  
    1010A      4.967711  1011A      4.980218  1012A      4.988227  
    1013A      5.006801  1014A      5.010496  1015A      5.020038  
    1016A      5.025547  1017A      5.042256  1018A      5.046137  
    1019A      5.049866  1020A      5.063931  1021A      5.072906  
    1022A      5.086997  1023A      5.095781  1024A      5.102391  
    1025A      5.109162  1026A      5.111250  1027A      5.125084  
    1028A      5.138245  1029A      5.146071  1030A      5.151371  
    1031A      5.158172  1032A      5.176081  1033A      5.180974  
    1034A      5.191073  1035A      5.205517  1036A      5.219243  
    1037A      5.224633  1038A      5.232080  1039A      5.239990  
    1040A      5.244669  1041A      5.257177  1042A      5.263154  
    1043A      5.270476  1044A      5.279338  1045A      5.285386  
    1046A      5.289590  1047A      5.294975  1048A      5.297571  
    1049A      5.303301  1050A      5.307362  1051A      5.325193  
    1052A      5.329614  1053A      5.344897  1054A      5.355342  
    1055A      5.368397  1056A      5.371688  1057A      5.382514  
    1058A      5.390651  1059A      5.408759  1060A      5.413262  
    1061A      5.420861  1062A      5.433146  1063A      5.445107  
    1064A      5.455807  1065A      5.458478  1066A      5.464980  
    1067A      5.475320  1068A      5.484034  1069A      5.497500  
    1070A      5.510932  1071A      5.524203  1072A      5.542689  
    1073A      5.545942  1074A      5.560569  1075A      5.570056  
    1076A      5.582455  1077A      5.585604  1078A      5.592768  
    1079A      5.600768  1080A      5.632671  1081A      5.653879  
    1082A      5.658143  1083A      5.663288  1084A      5.689148  
    1085A      5.707883  1086A      5.732128  1087A      5.743956  
    1088A      5.763830  1089A      5.775951  1090A      5.781574  
    1091A      5.798699  1092A      5.816565  1093A      5.826887  
    1094A      5.839486  1095A      5.852609  1096A      5.866309  
    1097A      5.880383  1098A      5.893681  1099A      5.925179  
    1100A      5.935551  1101A      5.961038  1102A      5.976482  
    1103A      6.001327  1104A      6.007366  1105A      6.024317  
    1106A      6.033603  1107A      6.045384  1108A      6.070179  
    1109A      6.083346  1110A      6.104941  1111A      6.118744  
    1112A      6.138178  1113A      6.158034  1114A      6.174486  
    1115A      6.193735  1116A      6.211624  1117A      6.223347  
    1118A      6.266956  1119A      6.281698  1120A      6.289979  
    1121A      6.334144  1122A      6.340459  1123A      6.368562  
    1124A      6.461557  1125A      6.473443  1126A      6.499610  
    1127A      6.527152  1128A      6.546483  1129A      6.585673  
    1130A      6.599529  1131A      6.633362  1132A      6.662501  
    1133A      6.689240  1134A      6.772491  1135A      6.777766  
    1136A      6.787575  1137A      6.793483  1138A      6.823812  
    1139A      6.828162  1140A      6.840597  1141A      6.858440  
    1142A      6.872440  1143A      6.884628  1144A      6.887764  
    1145A      6.897602  1146A      6.899849  1147A      6.900522  
    1148A      6.912437  1149A      6.920116  1150A      6.925072  
    1151A      6.939554  1152A      6.953242  1153A      6.969954  
    1154A      6.972603  1155A      6.984351  1156A      6.994020  
    1157A      6.998277  1158A      7.000943  1159A      7.009893  
    1160A      7.020041  1161A      7.026570  1162A      7.038102  
    1163A      7.043529  1164A      7.046180  1165A      7.052044  
    1166A      7.064859  1167A      7.075783  1168A      7.088942  
    1169A      7.101964  1170A      7.109963  1171A      7.120537  
    1172A      7.124398  1173A      7.134496  1174A      7.144224  
    1175A      7.151925  1176A      7.157573  1177A      7.169077  
    1178A      7.183265  1179A      7.207805  1180A      7.214144  
    1181A      7.229166  1182A      7.252373  1183A      7.261107  
    1184A      7.276121  1185A      7.299975  1186A      7.320426  
    1187A      7.326787  1188A      7.341081  1189A      7.360812  
    1190A      7.370975  1191A      7.390806  1192A      7.398376  
    1193A      7.417063  1194A      7.431009  1195A      7.435125  
    1196A      7.449852  1197A      7.468366  1198A      7.483606  
    1199A      7.506133  1200A      7.512692  1201A      7.537047  
    1202A      7.540789  1203A      7.555803  1204A      7.576368  
    1205A      7.600977  1206A      7.616237  1207A      7.644526  
    1208A      7.667852  1209A      7.688985  1210A      7.728715  
    1211A      7.745224  1212A      7.763547  1213A      7.798041  
    1214A      7.806374  1215A      7.815884  1216A      7.834438  
    1217A      7.850924  1218A      7.867992  1219A      7.903417  
    1220A      7.908956  1221A      7.958137  1222A      7.990450  
    1223A      8.001447  1224A      8.038497  1225A      8.057340  
    1226A      8.165076  1227A      8.178547  1228A      8.186236  
    1229A      8.372214  1230A      8.552397  1231A      8.683630  
    1232A     11.922067  1233A     13.793271  1234A     14.154951  
    1235A     14.322488  1236A     14.697097  1237A     14.838175  
    1238A     15.304692  1239A     15.763757  1240A     16.388864  
    1241A     17.001992  1242A     17.089637  1243A     18.576864  
    1244A     18.642621  1245A     18.823818  1246A     19.364656  
    1247A     19.468237  1248A     20.620841  1249A     21.758218  
    1250A     21.868053  

    Final Occupation by Irrep:
              A 
    DOCC [    82 ]

  @DF-RHF Final Energy: -1667.33885984284552

   => Energetics <=

    Nuclear Repulsion Energy =           2101.0685939457994209
    One-Electron Energy =               -6479.3000735041669031
    Two-Electron Energy =                2710.8926197155224145
    Total Energy =                      -1667.3388598428455225

Computation Completed


Properties will be evaluated at   0.000000,   0.000000,   0.000000 [a0]

Properties computed using the SCF density matrix

  Nuclear Dipole Moment: [e a0]
     X:   -11.2389      Y:    -3.5504      Z:    -9.1436

  Electronic Dipole Moment: [e a0]
     X:     9.8802      Y:     0.9937      Z:     6.7076

  Dipole Moment: [e a0]
     X:    -1.3588      Y:    -2.5567      Z:    -2.4360     Total:     3.7838

  Dipole Moment: [D]
     X:    -3.4537      Y:    -6.4985      Z:    -6.1918     Total:     9.6175


*** tstop() called on localhost.localdomain at Fri Jun  3 16:18:16 2022
Module time:
	user time   =    2261.61 seconds =      37.69 minutes
	system time =      31.81 seconds =       0.53 minutes
	total time  =        120 seconds =       2.00 minutes
Total time:
	user time   =    2261.61 seconds =      37.69 minutes
	system time =      31.81 seconds =       0.53 minutes
	total time  =        120 seconds =       2.00 minutes

*** tstart() called on localhost.localdomain
*** at Fri Jun  3 16:18:16 2022


  //>>>>>>>>>>>>>>>>>>>>>>>>>>>>>>>>>>>//
  //               DFMP2               //
  //<<<<<<<<<<<<<<<<<<<<<<<<<<<<<<<<<<<//

   => Loading Basis Set <=

    Name: (AUG-CC-PVTZ AUX)
    Role: RIFIT
    Keyword: DF_BASIS_MP2
    atoms 1-5, 10, 15, 18, 21                         entry C          line   148 file /data0/home/wuhanyu/software/psi4_132/share/psi4/basis/aug-cc-pvtz-ri.gbs 
    atoms 6-9, 11-13, 16-17, 19-20, 22-23, 31, 33, 35 entry H          line    30 file /data0/home/wuhanyu/software/psi4_132/share/psi4/basis/aug-cc-pvtz-ri.gbs 
    atoms 14                                          entry N          line   206 file /data0/home/wuhanyu/software/psi4_132/share/psi4/basis/aug-cc-pvtz-ri.gbs 
    atoms 24                                          entry S          line   666 file /data0/home/wuhanyu/software/psi4_132/share/psi4/basis/aug-cc-pvtz-ri.gbs 
    atoms 25-27, 29-30, 32, 34                        entry O          line   264 file /data0/home/wuhanyu/software/psi4_132/share/psi4/basis/aug-cc-pvtz-ri.gbs 
    atoms 28                                          entry P          line   590 file /data0/home/wuhanyu/software/psi4_132/share/psi4/basis/aug-cc-pvtz-ri.gbs 

	 --------------------------------------------------------
	                          DF-MP2                         
	      2nd-Order Density-Fitted Moller-Plesset Theory     
	              RMP2 Wavefunction,  24 Threads             
	                                                         
	        Rob Parrish, Justin Turney, Andy Simmonett,      
	           Ed Hohenstein, and C. David Sherrill          
	 --------------------------------------------------------

   => Auxiliary Basis Set <=

  Basis Set: (AUG-CC-PVTZ AUX)
    Blend: AUG-CC-PVTZ-RI
    Number of shells: 774
    Number of basis function: 2832
    Number of Cartesian functions: 3574
    Spherical Harmonics?: true
    Max angular momentum: 4

	 --------------------------------------------------------
	                 NBF =  1250, NAUX =  2832
	 --------------------------------------------------------
	   CLASS    FOCC     OCC    AOCC    AVIR     VIR    FVIR
	   PAIRS      27      82      55    1168    1168       0
	 --------------------------------------------------------

	 Will save fitting metric to file 97.

	-----------------------------------------------------------
	 ==================> DF-MP2 Energies <==================== 
	-----------------------------------------------------------
	 Reference Energy          =   -1667.3388598428455225 [Eh]
	 Singles Energy            =      -0.0000000000000000 [Eh]
	 Same-Spin Energy          =      -0.9851631418788912 [Eh]
	 Opposite-Spin Energy      =      -2.8309092698599927 [Eh]
	 Correlation Energy        =      -3.8160724117388840 [Eh]
	 Total Energy              =   -1671.1549322545843097 [Eh]
	-----------------------------------------------------------
	 ================> DF-SCS-MP2 Energies <================== 
	-----------------------------------------------------------
	 SCS Same-Spin Scale       =       0.3333333333333333 [-]
	 SCS Opposite-Spin Scale   =       1.2000000000000000 [-]
	 SCS Same-Spin Energy      =      -0.3283877139596304 [Eh]
	 SCS Opposite-Spin Energy  =      -3.3970911238319910 [Eh]
	 SCS Correlation Energy    =      -3.7254788377916213 [Eh]
	 SCS Total Energy          =   -1671.0643386806370927 [Eh]
	-----------------------------------------------------------


*** tstop() called on localhost.localdomain at Fri Jun  3 16:19:01 2022
Module time:
	user time   =     658.25 seconds =      10.97 minutes
	system time =      11.04 seconds =       0.18 minutes
	total time  =         45 seconds =       0.75 minutes
Total time:
	user time   =    2919.86 seconds =      48.66 minutes
	system time =      42.85 seconds =       0.71 minutes
	total time  =        165 seconds =       2.75 minutes

  //>>>>>>>>>>>>>>>>>>>>>>>>>>>>>>>>>>>//
  //            Monomer A HF           //
  //<<<<<<<<<<<<<<<<<<<<<<<<<<<<<<<<<<<//


*** tstart() called on localhost.localdomain
*** at Fri Jun  3 16:19:01 2022

   => Loading Basis Set <=

    Name: AUG-CC-PVTZ
    Role: ORBITAL
    Keyword: BASIS
    atoms 1-5, 10, 15, 18, 21                         entry C          line   235 file /data0/home/wuhanyu/software/psi4_132/share/psi4/basis/aug-cc-pvtz.gbs 
    atoms 6-9, 11-13, 16-17, 19-20, 22-23, 31, 33, 35 entry H          line    36 file /data0/home/wuhanyu/software/psi4_132/share/psi4/basis/aug-cc-pvtz.gbs 
    atoms 14                                          entry N          line   281 file /data0/home/wuhanyu/software/psi4_132/share/psi4/basis/aug-cc-pvtz.gbs 
    atoms 24                                          entry S          line   902 file /data0/home/wuhanyu/software/psi4_132/share/psi4/basis/aug-cc-pvtz.gbs 
    atoms 25-27, 29-30, 32, 34                        entry O          line   327 file /data0/home/wuhanyu/software/psi4_132/share/psi4/basis/aug-cc-pvtz.gbs 
    atoms 28                                          entry P          line   820 file /data0/home/wuhanyu/software/psi4_132/share/psi4/basis/aug-cc-pvtz.gbs 


         ---------------------------------------------------------
                                   SCF
               by Justin Turney, Rob Parrish, Andy Simmonett
                          and Daniel G. A. Smith
                              RHF Reference
                       24 Threads, 190734 MiB Core
         ---------------------------------------------------------

  ==> Geometry <==

    Molecular point group: c1
    Full point group: C1

    Geometry (in Angstrom), charge = 0, multiplicity = 1:

       Center              X                  Y                   Z               Mass       
    ------------   -----------------  -----------------  -----------------  -----------------
         C           -0.458605927113    -2.342187636223    -0.949210894518    12.000000000000
         C            0.485394072887    -2.289187636223    -1.967210894518    12.000000000000
         C            0.532394072887    -1.177187636223    -2.813210894518    12.000000000000
         C           -0.435605927113    -0.186187636223    -2.690210894518    12.000000000000
         C           -1.427605927113    -0.312187636223    -1.698210894518    12.000000000000
         H            1.339394072887    -1.080187636223    -3.541210894518     1.007825032230
         H           -0.465605927113    -3.159187636223    -0.214210894518     1.007825032230
         H            1.233394072887    -3.080187636223    -2.048210894518     1.007825032230
         H           -2.245605927113     0.423812363777    -1.627210894518     1.007825032230
         C           -0.425605927113     1.048812363777    -3.511210894518    12.000000000000
         H            0.354394072887     1.051812363777    -4.282210894518     1.007825032230
         H           -1.384605927113     1.246812363777    -4.005210894518     1.007825032230
         H           -0.222605927113     1.921812363777    -2.845210894518     1.007825032230
         N           -1.390605927113    -1.344187636223    -0.817210894518    14.003074004430
         C           -2.321605927113    -1.420187636223     0.334789105482    12.000000000000
         H           -3.186605927113    -2.051187636223     0.029789105482     1.007825032230
         H           -1.791605927113    -1.954187636223     1.170789105482     1.007825032230
         C           -2.822605927113    -0.066187636223     0.873789105482    12.000000000000
         H           -3.165605927113     0.599812363777     0.055789105482     1.007825032230
         H           -3.748605927113    -0.268187636223     1.459789105482     1.007825032230
         C           -1.814605927113     0.634812363777     1.772789105482    12.000000000000
         H           -1.100605927113    -0.081187636223     2.222789105482     1.007825032230
         H           -2.324605927113     1.102812363777     2.635789105482     1.007825032230
         S           -0.867605927113     1.950812363777     0.944789105482    31.972071174400
         O            0.294394072887     2.167812363777     1.836789105482    15.994914619570
         O           -1.808605927113     3.047812363777     0.758789105482    15.994914619570
         O           -0.431605927113     1.327812363777    -0.366210894518    15.994914619570
      Gh(P)           1.946393072887    -0.749187636223     0.894789105482    30.973761998420
      Gh(O)           0.810394072887    -1.626187636223     1.213789105482    15.994914619570
      Gh(O)           3.275394072887    -1.626187636223     0.759789105482    15.994914619570
      Gh(H)           4.059394072887    -0.972187636223     0.616789105482     1.007825032230
      Gh(O)           1.854394072887    -0.035187636223    -0.518210894518    15.994914619570
      Gh(H)           0.971394072887     0.587812363777    -0.525210894518     1.007825032230
      Gh(O)           2.342393072887     0.345812363777     1.960789105482    15.994914619570
      Gh(H)           1.587394072887     1.111812363777     1.963789105482     1.007825032230

  Running in c1 symmetry.

  Rotational constants: A =      0.01276  B =      0.01144  C =      0.00864 [cm^-1]
  Rotational constants: A =    382.45735  B =    342.94984  C =    258.94065 [MHz]
  Nuclear repulsion = 1096.352545306853472

  Charge       = 0
  Multiplicity = 1
  Electrons    = 114
  Nalpha       = 57
  Nbeta        = 57

  ==> Algorithm <==

  SCF Algorithm Type is DF.
  DIIS enabled.
  MOM disabled.
  Fractional occupation disabled.
  Guess Type is SAD.
  Energy threshold   = 1.00e-08
  Density threshold  = 1.00e-08
  Integral threshold = 0.00e+00

  ==> Primary Basis <==

  Basis Set: AUG-CC-PVTZ
    Blend: AUG-CC-PVTZ
    Number of shells: 414
    Number of basis function: 1250
    Number of Cartesian functions: 1453
    Spherical Harmonics?: true
    Max angular momentum: 3

   => Loading Basis Set <=

    Name: (AUG-CC-PVTZ AUX)
    Role: JKFIT
    Keyword: DF_BASIS_SCF
    atoms 1-5, 10, 15, 18, 21                         entry C          line   162 file /data0/home/wuhanyu/software/psi4_132/share/psi4/basis/aug-cc-pvtz-jkfit.gbs 
    atoms 6-9, 11-13, 16-17, 19-20, 22-23, 31, 33, 35 entry H          line    70 file /data0/home/wuhanyu/software/psi4_132/share/psi4/basis/aug-cc-pvtz-jkfit.gbs 
    atoms 14                                          entry N          line   224 file /data0/home/wuhanyu/software/psi4_132/share/psi4/basis/aug-cc-pvtz-jkfit.gbs 
    atoms 24                                          entry S          line   730 file /data0/home/wuhanyu/software/psi4_132/share/psi4/basis/aug-cc-pvtz-jkfit.gbs 
    atoms 25-27, 29-30, 32, 34                        entry O          line   286 file /data0/home/wuhanyu/software/psi4_132/share/psi4/basis/aug-cc-pvtz-jkfit.gbs 
    atoms 28                                          entry P          line   644 file /data0/home/wuhanyu/software/psi4_132/share/psi4/basis/aug-cc-pvtz-jkfit.gbs 

  ==> Pre-Iterations <==

   -------------------------------------------------------
    Irrep   Nso     Nmo     Nalpha   Nbeta   Ndocc  Nsocc
   -------------------------------------------------------
     A       1250    1250       0       0       0       0
   -------------------------------------------------------
    Total    1250    1250      57      57      57       0
   -------------------------------------------------------

  ==> Integral Setup <==

  ==> DiskDFJK: Density-Fitted J/K Matrices <==

    J tasked:                  Yes
    K tasked:                  Yes
    wK tasked:                  No
    OpenMP threads:             24
    Integrals threads:          24
    Memory [MiB]:           143051
    Algorithm:                Core
    Integral Cache:           LOAD
    Schwarz Cutoff:          1E-12
    Fitting Condition:       1E-10

   => Auxiliary Basis Set <=

  Basis Set: (AUG-CC-PVTZ AUX)
    Blend: AUG-CC-PVTZ-JKFIT
    Number of shells: 818
    Number of basis function: 2796
    Number of Cartesian functions: 3467
    Spherical Harmonics?: true
    Max angular momentum: 4

  Minimum eigenvalue in the overlap matrix is 6.1740363765E-07.
  Using Symmetric Orthogonalization.

  SCF Guess: Superposition of Atomic Densities via on-the-fly atomic UHF.

  ==> Iterations <==

                           Total Energy        Delta E     RMS |[F,P]|

   @DF-RHF iter SAD: -1025.11672516258636   -1.02512e+03   0.00000e+00 
   @DF-RHF iter   1: -1024.60511011749554    5.11615e-01   8.06947e-04 DIIS
   @DF-RHF iter   2: -1024.95278224825461   -3.47672e-01   5.09968e-04 DIIS
   @DF-RHF iter   3: -1025.09719381894570   -1.44412e-01   8.38090e-05 DIIS
   @DF-RHF iter   4: -1025.10388397040106   -6.69015e-03   3.14354e-05 DIIS
   @DF-RHF iter   5: -1025.10485739017736   -9.73420e-04   6.98082e-06 DIIS
   @DF-RHF iter   6: -1025.10493988742678   -8.24972e-05   3.56613e-06 DIIS
   @DF-RHF iter   7: -1025.10496271892680   -2.28315e-05   1.46205e-06 DIIS
   @DF-RHF iter   8: -1025.10497080606228   -8.08714e-06   7.77915e-07 DIIS
   @DF-RHF iter   9: -1025.10497348913464   -2.68307e-06   2.92641e-07 DIIS
   @DF-RHF iter  10: -1025.10497386076077   -3.71626e-07   8.66810e-08 DIIS
   @DF-RHF iter  11: -1025.10497388201134   -2.12506e-08   3.70271e-08 DIIS
   @DF-RHF iter  12: -1025.10497388426120   -2.24986e-09   1.32435e-08 DIIS
   @DF-RHF iter  13: -1025.10497388456315   -3.01952e-10   4.27264e-09 DIIS
  Energy and wave function converged.


  ==> Post-Iterations <==

    Orbital Energies [Eh]
    ---------------------

    Doubly Occupied:                                                      

       1A    -92.133368     2A    -20.477449     3A    -20.476624  
       4A    -20.465424     5A    -15.709283     6A    -11.364059  
       7A    -11.353608     8A    -11.330735     9A    -11.309771  
      10A    -11.297053    11A    -11.295311    12A    -11.266708  
      13A    -11.246764    14A    -11.241543    15A     -9.094887  
      16A     -6.780267    17A     -6.779953    18A     -6.779610  
      19A     -1.397477    20A     -1.374247    21A     -1.259159  
      22A     -1.244126    23A     -1.173672    24A     -1.113401  
      25A     -1.090752    26A     -1.003228    27A     -0.986265  
      28A     -0.924349    29A     -0.886146    30A     -0.851215  
      31A     -0.771332    32A     -0.756685    33A     -0.738337  
      34A     -0.706310    35A     -0.692098    36A     -0.681702  
      37A     -0.644617    38A     -0.640917    39A     -0.624428  
      40A     -0.604439    41A     -0.590931    42A     -0.584857  
      43A     -0.577679    44A     -0.566355    45A     -0.564996  
      46A     -0.548489    47A     -0.542616    48A     -0.523801  
      49A     -0.514819    50A     -0.462196    51A     -0.453540  
      52A     -0.444812    53A     -0.419785    54A     -0.411366  
      55A     -0.385152    56A     -0.376904    57A     -0.363251  

    Virtual:                                                              

      58A      0.004578    59A      0.014265    60A      0.018723  
      61A      0.024798    62A      0.031368    63A      0.033732  
      64A      0.036373    65A      0.041501    66A      0.047425  
      67A      0.055126    68A      0.056788    69A      0.060745  
      70A      0.065743    71A      0.067009    72A      0.074275  
      73A      0.075322    74A      0.077993    75A      0.081823  
      76A      0.086796    77A      0.086911    78A      0.091680  
      79A      0.096516    80A      0.099707    81A      0.103364  
      82A      0.104708    83A      0.106807    84A      0.110058  
      85A      0.112743    86A      0.116702    87A      0.119112  
      88A      0.121684    89A      0.123129    90A      0.128204  
      91A      0.130966    92A      0.133917    93A      0.135434  
      94A      0.143675    95A      0.146687    96A      0.151926  
      97A      0.155111    98A      0.156247    99A      0.161205  
     100A      0.161411   101A      0.169693   102A      0.170091  
     103A      0.171819   104A      0.173781   105A      0.176791  
     106A      0.180727   107A      0.184010   108A      0.186908  
     109A      0.189689   110A      0.192413   111A      0.198212  
     112A      0.198950   113A      0.207869   114A      0.208310  
     115A      0.212844   116A      0.215000   117A      0.216802  
     118A      0.224067   119A      0.227936   120A      0.230891  
     121A      0.233621   122A      0.235159   123A      0.237608  
     124A      0.239855   125A      0.240993   126A      0.244528  
     127A      0.251343   128A      0.252359   129A      0.258335  
     130A      0.260758   131A      0.263741   132A      0.266282  
     133A      0.268849   134A      0.271604   135A      0.274094  
     136A      0.280374   137A      0.281930   138A      0.284813  
     139A      0.287345   140A      0.289829   141A      0.294622  
     142A      0.296859   143A      0.304090   144A      0.308934  
     145A      0.311647   146A      0.313590   147A      0.315675  
     148A      0.318904   149A      0.323053   150A      0.326086  
     151A      0.330902   152A      0.333323   153A      0.335814  
     154A      0.336752   155A      0.341948   156A      0.343361  
     157A      0.344901   158A      0.346738   159A      0.349828  
     160A      0.353215   161A      0.353981   162A      0.359730  
     163A      0.363538   164A      0.364892   165A      0.372327  
     166A      0.373087   167A      0.374420   168A      0.377801  
     169A      0.381909   170A      0.382949   171A      0.388887  
     172A      0.392278   173A      0.393506   174A      0.396583  
     175A      0.398820   176A      0.403710   177A      0.407683  
     178A      0.412812   179A      0.415245   180A      0.416720  
     181A      0.419476   182A      0.423603   183A      0.425261  
     184A      0.428780   185A      0.430099   186A      0.435014  
     187A      0.437075   188A      0.439587   189A      0.440141  
     190A      0.446341   191A      0.447884   192A      0.453072  
     193A      0.458526   194A      0.462761   195A      0.464245  
     196A      0.464884   197A      0.466200   198A      0.468649  
     199A      0.471675   200A      0.473385   201A      0.479432  
     202A      0.480001   203A      0.483344   204A      0.489104  
     205A      0.492122   206A      0.495170   207A      0.498539  
     208A      0.499558   209A      0.501977   210A      0.502546  
     211A      0.506650   212A      0.510179   213A      0.514595  
     214A      0.516012   215A      0.519480   216A      0.520739  
     217A      0.524834   218A      0.525851   219A      0.528305  
     220A      0.533731   221A      0.537853   222A      0.539997  
     223A      0.546423   224A      0.548710   225A      0.550127  
     226A      0.553836   227A      0.555252   228A      0.559494  
     229A      0.562349   230A      0.565746   231A      0.570594  
     232A      0.572701   233A      0.576721   234A      0.578416  
     235A      0.580972   236A      0.583145   237A      0.590818  
     238A      0.593394   239A      0.597147   240A      0.604982  
     241A      0.607334   242A      0.611107   243A      0.611934  
     244A      0.614558   245A      0.621187   246A      0.624307  
     247A      0.626698   248A      0.627885   249A      0.633636  
     250A      0.634570   251A      0.640138   252A      0.642951  
     253A      0.646772   254A      0.650220   255A      0.654262  
     256A      0.655499   257A      0.664441   258A      0.665288  
     259A      0.671313   260A      0.677281   261A      0.678315  
     262A      0.679376   263A      0.683398   264A      0.686869  
     265A      0.694401   266A      0.699689   267A      0.702698  
     268A      0.707445   269A      0.708934   270A      0.715731  
     271A      0.717633   272A      0.721571   273A      0.724693  
     274A      0.728493   275A      0.731584   276A      0.732811  
     277A      0.740834   278A      0.744624   279A      0.748504  
     280A      0.754129   281A      0.757929   282A      0.764482  
     283A      0.764940   284A      0.773414   285A      0.778851  
     286A      0.782487   287A      0.783275   288A      0.789937  
     289A      0.794988   290A      0.801367   291A      0.803501  
     292A      0.807888   293A      0.810847   294A      0.813336  
     295A      0.818846   296A      0.822608   297A      0.827034  
     298A      0.833396   299A      0.835444   300A      0.838508  
     301A      0.843366   302A      0.846451   303A      0.848284  
     304A      0.855068   305A      0.858307   306A      0.861187  
     307A      0.867902   308A      0.872912   309A      0.876122  
     310A      0.882660   311A      0.884524   312A      0.888414  
     313A      0.890803   314A      0.897224   315A      0.899544  
     316A      0.905149   317A      0.910699   318A      0.915828  
     319A      0.918477   320A      0.919869   321A      0.924661  
     322A      0.925531   323A      0.927202   324A      0.930416  
     325A      0.937853   326A      0.940920   327A      0.942715  
     328A      0.948167   329A      0.952395   330A      0.953848  
     331A      0.954894   332A      0.957747   333A      0.962518  
     334A      0.964979   335A      0.966773   336A      0.970844  
     337A      0.974917   338A      0.977137   339A      0.981151  
     340A      0.984586   341A      0.987460   342A      0.991636  
     343A      0.994740   344A      0.997754   345A      1.004849  
     346A      1.007456   347A      1.009644   348A      1.013582  
     349A      1.016473   350A      1.020161   351A      1.021787  
     352A      1.027231   353A      1.032780   354A      1.033967  
     355A      1.040699   356A      1.042065   357A      1.049463  
     358A      1.053457   359A      1.060994   360A      1.063007  
     361A      1.067530   362A      1.069387   363A      1.074386  
     364A      1.077062   365A      1.081378   366A      1.083729  
     367A      1.087725   368A      1.090970   369A      1.094546  
     370A      1.101266   371A      1.105442   372A      1.106586  
     373A      1.110270   374A      1.112357   375A      1.117809  
     376A      1.122766   377A      1.127239   378A      1.131394  
     379A      1.133328   380A      1.135612   381A      1.142906  
     382A      1.145954   383A      1.147525   384A      1.151954  
     385A      1.154799   386A      1.160192   387A      1.163373  
     388A      1.165187   389A      1.171093   390A      1.172101  
     391A      1.175366   392A      1.178694   393A      1.185853  
     394A      1.188976   395A      1.194497   396A      1.196346  
     397A      1.198672   398A      1.207243   399A      1.207606  
     400A      1.214267   401A      1.218077   402A      1.222693  
     403A      1.223485   404A      1.229686   405A      1.232499  
     406A      1.236942   407A      1.239466   408A      1.243431  
     409A      1.247598   410A      1.250751   411A      1.252752  
     412A      1.260266   413A      1.261356   414A      1.265809  
     415A      1.268599   416A      1.271805   417A      1.276870  
     418A      1.281820   419A      1.286238   420A      1.291096  
     421A      1.292334   422A      1.299812   423A      1.301591  
     424A      1.308366   425A      1.311876   426A      1.315921  
     427A      1.321125   428A      1.322885   429A      1.326261  
     430A      1.334779   431A      1.340618   432A      1.342637  
     433A      1.344909   434A      1.348099   435A      1.350893  
     436A      1.357882   437A      1.358898   438A      1.369956  
     439A      1.371651   440A      1.378182   441A      1.381547  
     442A      1.385668   443A      1.390407   444A      1.393834  
     445A      1.398212   446A      1.404269   447A      1.411154  
     448A      1.414788   449A      1.415452   450A      1.420816  
     451A      1.426687   452A      1.431574   453A      1.435444  
     454A      1.440368   455A      1.440462   456A      1.445622  
     457A      1.452594   458A      1.458462   459A      1.461710  
     460A      1.463386   461A      1.466723   462A      1.468778  
     463A      1.473410   464A      1.484803   465A      1.486625  
     466A      1.492477   467A      1.494501   468A      1.499583  
     469A      1.503241   470A      1.508298   471A      1.515737  
     472A      1.520257   473A      1.521579   474A      1.525546  
     475A      1.527050   476A      1.533542   477A      1.537114  
     478A      1.542008   479A      1.546995   480A      1.547613  
     481A      1.555653   482A      1.556648   483A      1.566044  
     484A      1.569379   485A      1.574503   486A      1.577962  
     487A      1.580168   488A      1.588106   489A      1.588896  
     490A      1.592240   491A      1.597040   492A      1.602020  
     493A      1.603437   494A      1.614573   495A      1.621490  
     496A      1.627540   497A      1.630056   498A      1.630731  
     499A      1.639620   500A      1.645659   501A      1.649435  
     502A      1.651846   503A      1.655316   504A      1.656817  
     505A      1.665878   506A      1.671351   507A      1.674186  
     508A      1.677827   509A      1.682848   510A      1.687004  
     511A      1.688784   512A      1.694979   513A      1.697559  
     514A      1.704445   515A      1.710176   516A      1.714472  
     517A      1.719400   518A      1.724185   519A      1.726200  
     520A      1.730475   521A      1.738151   522A      1.744366  
     523A      1.749382   524A      1.750506   525A      1.755351  
     526A      1.759167   527A      1.762060   528A      1.763856  
     529A      1.772049   530A      1.777015   531A      1.780227  
     532A      1.783232   533A      1.787172   534A      1.792841  
     535A      1.799475   536A      1.805070   537A      1.815415  
     538A      1.817299   539A      1.820311   540A      1.824347  
     541A      1.829095   542A      1.831245   543A      1.834761  
     544A      1.839694   545A      1.847178   546A      1.849930  
     547A      1.858913   548A      1.860488   549A      1.865447  
     550A      1.874340   551A      1.876149   552A      1.883280  
     553A      1.885352   554A      1.891448   555A      1.896012  
     556A      1.899068   557A      1.904233   558A      1.910337  
     559A      1.912416   560A      1.913853   561A      1.923512  
     562A      1.927143   563A      1.931140   564A      1.941599  
     565A      1.945411   566A      1.949033   567A      1.954652  
     568A      1.959821   569A      1.961715   570A      1.973274  
     571A      1.978519   572A      1.984206   573A      1.987830  
     574A      1.989402   575A      2.000527   576A      2.002468  
     577A      2.009618   578A      2.020258   579A      2.030458  
     580A      2.031987   581A      2.035932   582A      2.039383  
     583A      2.044131   584A      2.054070   585A      2.057555  
     586A      2.064382   587A      2.071668   588A      2.073108  
     589A      2.081893   590A      2.084808   591A      2.086563  
     592A      2.098417   593A      2.099870   594A      2.105746  
     595A      2.108336   596A      2.113471   597A      2.118604  
     598A      2.123298   599A      2.134448   600A      2.141141  
     601A      2.148538   602A      2.150583   603A      2.157768  
     604A      2.159491   605A      2.166507   606A      2.182133  
     607A      2.183253   608A      2.187405   609A      2.187962  
     610A      2.197641   611A      2.202309   612A      2.206438  
     613A      2.217738   614A      2.222460   615A      2.227970  
     616A      2.235460   617A      2.237024   618A      2.244393  
     619A      2.247725   620A      2.258107   621A      2.260957  
     622A      2.267789   623A      2.275902   624A      2.282461  
     625A      2.284824   626A      2.292941   627A      2.299127  
     628A      2.312283   629A      2.313492   630A      2.328864  
     631A      2.337431   632A      2.342065   633A      2.347208  
     634A      2.356754   635A      2.362163   636A      2.366440  
     637A      2.378076   638A      2.381948   639A      2.394602  
     640A      2.394741   641A      2.400547   642A      2.408932  
     643A      2.411422   644A      2.420684   645A      2.424938  
     646A      2.435046   647A      2.447491   648A      2.452306  
     649A      2.458933   650A      2.462939   651A      2.469439  
     652A      2.483798   653A      2.489496   654A      2.491930  
     655A      2.501871   656A      2.503209   657A      2.516863  
     658A      2.518461   659A      2.529170   660A      2.536119  
     661A      2.541314   662A      2.556962   663A      2.560381  
     664A      2.565802   665A      2.569573   666A      2.575314  
     667A      2.582352   668A      2.585663   669A      2.597234  
     670A      2.603614   671A      2.607636   672A      2.617329  
     673A      2.623360   674A      2.627460   675A      2.633694  
     676A      2.638107   677A      2.639889   678A      2.647247  
     679A      2.654531   680A      2.659737   681A      2.668680  
     682A      2.674910   683A      2.676252   684A      2.684117  
     685A      2.695381   686A      2.701142   687A      2.707337  
     688A      2.715376   689A      2.723482   690A      2.730803  
     691A      2.737425   692A      2.741386   693A      2.749201  
     694A      2.756084   695A      2.760570   696A      2.766804  
     697A      2.780747   698A      2.788368   699A      2.789832  
     700A      2.795225   701A      2.803371   702A      2.804145  
     703A      2.815081   704A      2.823038   705A      2.830617  
     706A      2.832256   707A      2.842118   708A      2.844571  
     709A      2.850751   710A      2.858357   711A      2.861521  
     712A      2.870199   713A      2.879685   714A      2.885267  
     715A      2.895455   716A      2.900192   717A      2.905434  
     718A      2.912220   719A      2.921511   720A      2.926450  
     721A      2.939906   722A      2.943457   723A      2.953056  
     724A      2.955422   725A      2.957770   726A      2.966881  
     727A      2.972400   728A      2.977297   729A      2.978751  
     730A      3.001452   731A      3.008733   732A      3.011742  
     733A      3.019421   734A      3.036004   735A      3.039481  
     736A      3.047050   737A      3.052226   738A      3.056835  
     739A      3.075143   740A      3.083505   741A      3.084965  
     742A      3.088578   743A      3.095146   744A      3.104965  
     745A      3.115251   746A      3.132175   747A      3.137118  
     748A      3.142881   749A      3.149652   750A      3.161581  
     751A      3.168847   752A      3.177698   753A      3.186272  
     754A      3.192305   755A      3.200952   756A      3.207041  
     757A      3.221109   758A      3.231291   759A      3.238792  
     760A      3.244514   761A      3.257087   762A      3.266528  
     763A      3.270007   764A      3.281282   765A      3.290347  
     766A      3.296636   767A      3.312782   768A      3.318116  
     769A      3.330631   770A      3.338805   771A      3.346002  
     772A      3.356640   773A      3.366906   774A      3.373427  
     775A      3.391514   776A      3.394529   777A      3.402014  
     778A      3.412589   779A      3.418889   780A      3.425716  
     781A      3.430505   782A      3.449470   783A      3.453279  
     784A      3.462405   785A      3.469920   786A      3.479429  
     787A      3.485054   788A      3.496247   789A      3.505430  
     790A      3.510257   791A      3.512952   792A      3.522516  
     793A      3.531446   794A      3.532056   795A      3.549967  
     796A      3.557970   797A      3.565351   798A      3.573686  
     799A      3.575902   800A      3.581344   801A      3.591414  
     802A      3.595888   803A      3.599561   804A      3.616195  
     805A      3.619019   806A      3.627885   807A      3.632525  
     808A      3.634979   809A      3.637730   810A      3.650025  
     811A      3.660500   812A      3.663590   813A      3.673694  
     814A      3.676820   815A      3.685449   816A      3.689316  
     817A      3.696601   818A      3.704008   819A      3.712712  
     820A      3.719494   821A      3.729099   822A      3.736986  
     823A      3.742509   824A      3.746574   825A      3.757366  
     826A      3.771096   827A      3.771631   828A      3.781893  
     829A      3.783502   830A      3.788343   831A      3.797063  
     832A      3.801951   833A      3.810404   834A      3.819022  
     835A      3.827545   836A      3.833296   837A      3.841104  
     838A      3.846777   839A      3.849855   840A      3.858591  
     841A      3.860226   842A      3.869832   843A      3.878995  
     844A      3.890093   845A      3.896864   846A      3.904365  
     847A      3.907751   848A      3.917540   849A      3.923851  
     850A      3.932133   851A      3.935457   852A      3.945489  
     853A      3.959757   854A      3.967301   855A      3.968096  
     856A      3.972333   857A      3.983566   858A      3.986721  
     859A      3.991594   860A      4.000642   861A      4.008051  
     862A      4.010178   863A      4.013827   864A      4.016843  
     865A      4.027908   866A      4.033401   867A      4.045401  
     868A      4.047654   869A      4.053588   870A      4.059897  
     871A      4.069092   872A      4.072179   873A      4.074738  
     874A      4.084513   875A      4.085618   876A      4.097678  
     877A      4.101247   878A      4.107342   879A      4.113417  
     880A      4.121275   881A      4.122012   882A      4.131221  
     883A      4.141808   884A      4.145540   885A      4.148676  
     886A      4.160769   887A      4.161939   888A      4.168029  
     889A      4.175294   890A      4.176231   891A      4.191772  
     892A      4.196853   893A      4.207288   894A      4.210472  
     895A      4.219294   896A      4.221928   897A      4.224479  
     898A      4.228897   899A      4.236578   900A      4.249920  
     901A      4.256245   902A      4.260541   903A      4.273097  
     904A      4.280574   905A      4.290910   906A      4.293637  
     907A      4.302886   908A      4.307884   909A      4.313962  
     910A      4.320588   911A      4.330748   912A      4.334471  
     913A      4.340653   914A      4.350066   915A      4.353993  
     916A      4.363277   917A      4.372171   918A      4.385995  
     919A      4.390713   920A      4.391882   921A      4.401129  
     922A      4.409229   923A      4.417113   924A      4.419381  
     925A      4.430773   926A      4.436161   927A      4.444340  
     928A      4.457390   929A      4.464598   930A      4.470747  
     931A      4.484725   932A      4.493619   933A      4.501949  
     934A      4.509299   935A      4.515451   936A      4.517756  
     937A      4.529777   938A      4.540392   939A      4.546356  
     940A      4.554186   941A      4.561338   942A      4.565973  
     943A      4.569471   944A      4.575550   945A      4.585117  
     946A      4.591891   947A      4.601673   948A      4.617438  
     949A      4.625765   950A      4.630503   951A      4.639426  
     952A      4.650547   953A      4.653111   954A      4.657837  
     955A      4.666093   956A      4.670100   957A      4.681429  
     958A      4.706048   959A      4.713585   960A      4.720735  
     961A      4.726814   962A      4.734812   963A      4.752251  
     964A      4.757706   965A      4.772917   966A      4.775786  
     967A      4.779944   968A      4.793893   969A      4.802729  
     970A      4.812192   971A      4.825728   972A      4.838190  
     973A      4.849565   974A      4.862692   975A      4.878587  
     976A      4.882663   977A      4.898269   978A      4.900068  
     979A      4.917119   980A      4.928266   981A      4.935916  
     982A      4.939244   983A      4.939933   984A      4.959845  
     985A      4.962769   986A      4.981297   987A      4.985701  
     988A      5.000903   989A      5.006856   990A      5.016904  
     991A      5.023501   992A      5.037467   993A      5.040207  
     994A      5.056814   995A      5.071960   996A      5.082000  
     997A      5.086888   998A      5.099803   999A      5.106138  
    1000A      5.116962  1001A      5.125995  1002A      5.131723  
    1003A      5.140061  1004A      5.154836  1005A      5.157386  
    1006A      5.168525  1007A      5.169424  1008A      5.188960  
    1009A      5.192748  1010A      5.199534  1011A      5.209418  
    1012A      5.217983  1013A      5.225394  1014A      5.241886  
    1015A      5.252009  1016A      5.257398  1017A      5.263629  
    1018A      5.268365  1019A      5.271175  1020A      5.282421  
    1021A      5.287668  1022A      5.302880  1023A      5.309581  
    1024A      5.312120  1025A      5.335436  1026A      5.350367  
    1027A      5.362128  1028A      5.370273  1029A      5.372641  
    1030A      5.384850  1031A      5.401567  1032A      5.408073  
[...]
    1055A      6.810278  1056A      6.822820  1057A      6.838708  
    1058A      6.844542  1059A      6.863322  1060A      6.868370  
    1061A      6.874861  1062A      6.882778  1063A      6.895139  
    1064A      6.910515  1065A      6.916622  1066A      6.926582  
    1067A      6.941466  1068A      6.950386  1069A      6.964354  
    1070A      6.982740  1071A      6.997881  1072A      7.009922  
    1073A      7.019814  1074A      7.032310  1075A      7.044793  
    1076A      7.058532  1077A      7.059482  1078A      7.080558  
    1079A      7.088611  1080A      7.089049  1081A      7.094356  
    1082A      7.116989  1083A      7.129102  1084A      7.136089  
    1085A      7.139119  1086A      7.147049  1087A      7.170730  
    1088A      7.194456  1089A      7.199578  1090A      7.217665  
    1091A      7.229625  1092A      7.260236  1093A      7.273823  
    1094A      7.291557  1095A      7.306841  1096A      7.315860  
    1097A      7.326056  1098A      7.347702  1099A      7.371601  
    1100A      7.374683  1101A      7.411440  1102A      7.421365  
    1103A      7.429010  1104A      7.445910  1105A      7.467024  
    1106A      7.471405  1107A      7.480725  1108A      7.508163  
    1109A      7.528506  1110A      7.544324  1111A      7.548784  
    1112A      7.563387  1113A      7.593017  1114A      7.602938  
    1115A      7.622289  1116A      7.631344  1117A      7.641306  
    1118A      7.650751  1119A      7.658250  1120A      7.689077  
    1121A      7.706022  1122A      7.722904  1123A      7.727035  
    1124A      7.755208  1125A      7.766848  1126A      7.781472  
    1127A      7.787671  1128A      7.806161  1129A      7.814818  
    1130A      7.832687  1131A      7.845756  1132A      7.856949  
    1133A      7.869957  1134A      7.872589  1135A      7.875381  
    1136A      7.894281  1137A      7.917277  1138A      7.921810  
    1139A      7.927522  1140A      7.943573  1141A      7.956260  
    1142A      7.964944  1143A      7.970676  1144A      7.987446  
    1145A      7.997610  1146A      8.009556  1147A      8.022436  
    1148A      8.028838  1149A      8.038690  1150A      8.053664  
    1151A      8.066897  1152A      8.087956  1153A      8.100771  
    1154A      8.116657  1155A      8.141757  1156A      8.152268  
    1157A      8.183847  1158A      8.198664  1159A      8.229450  
    1160A      8.244861  1161A      8.272383  1162A      8.276904  
    1163A      8.302967  1164A      8.326225  1165A      8.342228  
    1166A      8.351203  1167A      8.352531  1168A      8.363049  
    1169A      8.388787  1170A      8.413618  1171A      8.460870  
    1172A      8.497489  1173A      8.501326  1174A      8.550862  
    1175A      8.594827  1176A      8.625257  1177A      8.669574  
    1178A      8.743006  1179A      8.842768  1180A      8.956088  
    1181A      9.188901  1182A      9.233244  1183A      9.411387  
    1184A      9.593729  1185A      9.734722  1186A      9.833754  
    1187A      9.871759  1188A      9.899414  1189A      9.929032  
    1190A      9.934883  1191A      9.937893  1192A      9.989346  
    1193A     10.050927  1194A     10.060859  1195A     10.102605  
    1196A     10.181989  1197A     10.204668  1198A     10.260412  
    1199A     10.302320  1200A     10.314888  1201A     10.352880  
    1202A     10.401292  1203A     10.473919  1204A     10.485048  
    1205A     10.638743  1206A     10.713389  1207A     10.733602  
    1208A     10.791129  1209A     10.864433  1210A     11.068361  
    1211A     11.412325  1212A     11.512705  1213A     11.638581  
    1214A     11.755643  1215A     11.768363  1216A     11.825467  
    1217A     11.836535  1218A     11.995673  1219A     12.011775  
    1220A     12.040689  1221A     12.163620  1222A     12.248629  
    1223A     12.445681  1224A     12.527880  1225A     13.153944  
    1226A     13.264456  1227A     13.294109  1228A     13.413142  
    1229A     14.368724  1230A     14.816936  1231A     14.908253  
    1232A     16.191831  1233A     23.421599  1234A     26.043279  
    1235A     26.380125  1236A     26.639590  1237A     51.715044  
    1238A     52.072286  1239A     54.564646  1240A     54.764270  
    1241A     55.212165  1242A     56.156349  1243A     56.766338  
    1244A     57.911858  1245A     60.207964  1246A     63.331005  
    1247A     64.229194  1248A     65.914851  1249A     67.950369  
    1250A    141.927448  

    Final Occupation by Irrep:
              A 
    DOCC [    25 ]

  @DF-RHF Final Energy:  -642.17607648143382

   => Energetics <=

    Nuclear Repulsion Energy =            279.7343211296731624
    One-Electron Energy =               -1444.3504755274427680
    Two-Electron Energy =                 522.4400779163357811
    Total Energy =                       -642.1760764814338245

Computation Completed


Properties will be evaluated at   0.000000,   0.000000,   0.000000 [a0]

Properties computed using the SCF density matrix

  Nuclear Dipole Moment: [e a0]
     X:   192.8932      Y:   -64.3346      Z:    80.8925

  Electronic Dipole Moment: [e a0]
     X:  -192.4581      Y:    66.5582      Z:   -81.2445

  Dipole Moment: [e a0]
     X:     0.4351      Y:     2.2237      Z:    -0.3520     Total:     2.2930

  Dipole Moment: [D]
     X:     1.1059      Y:     5.6520      Z:    -0.8947     Total:     5.8283


*** tstop() called on localhost.localdomain at Fri Jun  3 16:21:59 2022
Module time:
	user time   =    1222.35 seconds =      20.37 minutes
	system time =      13.17 seconds =       0.22 minutes
	total time  =         62 seconds =       1.03 minutes
Total time:
	user time   =    6206.24 seconds =     103.44 minutes
	system time =      83.17 seconds =       1.39 minutes
	total time  =        343 seconds =       5.72 minutes

*** tstart() called on localhost.localdomain
*** at Fri Jun  3 16:21:59 2022


  //>>>>>>>>>>>>>>>>>>>>>>>>>>>>>>>>>>>//
  //               DFMP2               //
  //<<<<<<<<<<<<<<<<<<<<<<<<<<<<<<<<<<<//

   => Loading Basis Set <=

    Name: (AUG-CC-PVTZ AUX)
    Role: RIFIT
    Keyword: DF_BASIS_MP2
    atoms 1-5, 10, 15, 18, 21                         entry C          line   148 file /data0/home/wuhanyu/software/psi4_132/share/psi4/basis/aug-cc-pvtz-ri.gbs 
    atoms 6-9, 11-13, 16-17, 19-20, 22-23, 31, 33, 35 entry H          line    30 file /data0/home/wuhanyu/software/psi4_132/share/psi4/basis/aug-cc-pvtz-ri.gbs 
    atoms 14                                          entry N          line   206 file /data0/home/wuhanyu/software/psi4_132/share/psi4/basis/aug-cc-pvtz-ri.gbs 
    atoms 24                                          entry S          line   666 file /data0/home/wuhanyu/software/psi4_132/share/psi4/basis/aug-cc-pvtz-ri.gbs 
    atoms 25-27, 29-30, 32, 34                        entry O          line   264 file /data0/home/wuhanyu/software/psi4_132/share/psi4/basis/aug-cc-pvtz-ri.gbs 
    atoms 28                                          entry P          line   590 file /data0/home/wuhanyu/software/psi4_132/share/psi4/basis/aug-cc-pvtz-ri.gbs 

	 --------------------------------------------------------
	                          DF-MP2                         
	      2nd-Order Density-Fitted Moller-Plesset Theory     
	              RMP2 Wavefunction,  24 Threads             
	                                                         
	        Rob Parrish, Justin Turney, Andy Simmonett,      
	           Ed Hohenstein, and C. David Sherrill          
	 --------------------------------------------------------

   => Auxiliary Basis Set <=

  Basis Set: (AUG-CC-PVTZ AUX)
    Blend: AUG-CC-PVTZ-RI
    Number of shells: 774
    Number of basis function: 2832
    Number of Cartesian functions: 3574
    Spherical Harmonics?: true
    Max angular momentum: 4

	 --------------------------------------------------------
	                 NBF =  1250, NAUX =  2832
	 --------------------------------------------------------
	   CLASS    FOCC     OCC    AOCC    AVIR     VIR    FVIR
	   PAIRS       9      25      16    1225    1225       0
	 --------------------------------------------------------

	 Will attempt to load fitting metric from file 97.

	-----------------------------------------------------------
	 ==================> DF-MP2 Energies <==================== 
	-----------------------------------------------------------
	 Reference Energy          =    -642.1760764814338245 [Eh]
	 Singles Energy            =      -0.0000000000000000 [Eh]
	 Same-Spin Energy          =      -0.2989483626607089 [Eh]
	 Opposite-Spin Energy      =      -0.8485055952820665 [Eh]
	 Correlation Energy        =      -1.1474539579427754 [Eh]
	 Total Energy              =    -643.3235304393765546 [Eh]
	-----------------------------------------------------------
	 ================> DF-SCS-MP2 Energies <================== 
	-----------------------------------------------------------
	 SCS Same-Spin Scale       =       0.3333333333333333 [-]
	 SCS Opposite-Spin Scale   =       1.2000000000000000 [-]
	 SCS Same-Spin Energy      =      -0.0996494542202363 [Eh]
	 SCS Opposite-Spin Energy  =      -1.0182067143384796 [Eh]
	 SCS Correlation Energy    =      -1.1178561685587161 [Eh]
	 SCS Total Energy          =    -643.2939326499924846 [Eh]
	-----------------------------------------------------------


*** tstop() called on localhost.localdomain at Fri Jun  3 16:22:29 2022
Module time:
	user time   =     373.79 seconds =       6.23 minutes
	system time =       7.95 seconds =       0.13 minutes
	total time  =         30 seconds =       0.50 minutes
Total time:
	user time   =    6580.03 seconds =     109.67 minutes
	system time =      91.12 seconds =       1.52 minutes
	total time  =        373 seconds =       6.22 minutes
  Constructing Basis Sets for SAPT...

   => Loading Basis Set <=

    Name: (AUG-CC-PVTZ AUX)
    Role: RIFIT
    Keyword: DF_BASIS_SAPT
    atoms 1-5, 10, 15, 18, 21                         entry C          line   148 file /data0/home/wuhanyu/software/psi4_132/share/psi4/basis/aug-cc-pvtz-ri.gbs 
    atoms 6-9, 11-13, 16-17, 19-20, 22-23, 31, 33, 35 entry H          line    30 file /data0/home/wuhanyu/software/psi4_132/share/psi4/basis/aug-cc-pvtz-ri.gbs 
    atoms 14                                          entry N          line   206 file /data0/home/wuhanyu/software/psi4_132/share/psi4/basis/aug-cc-pvtz-ri.gbs 
    atoms 24                                          entry S          line   666 file /data0/home/wuhanyu/software/psi4_132/share/psi4/basis/aug-cc-pvtz-ri.gbs 
    atoms 25-27, 29-30, 32, 34                        entry O          line   264 file /data0/home/wuhanyu/software/psi4_132/share/psi4/basis/aug-cc-pvtz-ri.gbs 
    atoms 28                                          entry P          line   590 file /data0/home/wuhanyu/software/psi4_132/share/psi4/basis/aug-cc-pvtz-ri.gbs 


  //>>>>>>>>>>>>>>>>>>>>>>>>>>>>>>>>>>>//
  //           SAPT2+(3)DMP2           //
  //<<<<<<<<<<<<<<<<<<<<<<<<<<<<<<<<<<<//


*** tstart() called on localhost.localdomain
*** at Fri Jun  3 16:22:29 2022

      SAPT2+(3)  
    Ed Hohenstein
     6 June 2009

      Orbital Information
  --------------------------
    NSO        =      1250
    NMO        =      1250
    NRI        =      2832
    NOCC A     =        57
    NOCC B     =        25
    FOCC A     =        18
    FOCC B     =         9
    NVIR A     =      1193
    NVIR B     =      1225

    Estimated memory usage: 151010.9 MB

    Natural Orbital Cutoff:   1.000E-06
    Disp(T3) Truncation:            Yes
    CCD (vv|vv) Truncation:         Yes
    MBPT T2 Truncation:             Yes

    Monomer A: 377 virtual orbitals dropped
    Monomer B: 945 virtual orbitals dropped

    Elst10,r            =    -0.107946143610 [Eh]
    Exch10 (S^2)        =     0.100704791651 [Eh]
    Exch10              =     0.101991676198 [Eh]
    Ind20,r (A<-B)      =    -0.041668556392 [Eh]
    Ind20,r (B<-A)      =    -0.023500518432 [Eh]
    Ind20,r             =    -0.065169074824 [Eh]
    Exch-Ind20,r (A<-B) =     0.019913314235 [Eh]
    Exch-Ind20,r (B<-A) =     0.015267928049 [Eh]
    Exch-Ind20,r        =     0.035181242283 [Eh]
    Disp20              =    -0.048023069652 [Eh]
    Disp20 (NO)         =    -0.043564208584 [Eh]
    Exch-Disp20         =     0.008793457050 [Eh]
    Elst12,r            =     0.005358533603 [Eh]
    Exch11              =     0.001587304744 [Eh]
    Exch12              =     0.011906880487 [Eh]
    Ind22               =    -0.007777546304 [Eh]
    Disp21              =     0.008964357958 [Eh]
    Disp22 (SDQ)        =    -0.002383199326 [Eh]

    (i =   1 of  16)       5667 seconds
    (i =   2 of  16)      11400 seconds
    (i =   3 of  16)      17148 seconds
    (i =   4 of  16)      22910 seconds
    (i =   5 of  16)      28641 seconds
    (i =   6 of  16)      34404 seconds
    (i =   7 of  16)      40125 seconds
    (i =   8 of  16)      45818 seconds
    (i =   9 of  16)      51527 seconds
    (i =  10 of  16)      57271 seconds
    (i =  11 of  16)      63013 seconds
    (i =  12 of  16)      68752 seconds
    (i =  13 of  16)      74491 seconds
    (i =  14 of  16)      80223 seconds
    (i =  15 of  16)      85956 seconds
    (i =  16 of  16)      91775 seconds

    Disp220 (T)         =    -0.004588415322 [Eh]

    (i =   1 of  39)        242 seconds
    (i =   2 of  39)        481 seconds
    (i =   3 of  39)        720 seconds
    (i =   4 of  39)        959 seconds
    (i =   5 of  39)       1200 seconds
    (i =   6 of  39)       1440 seconds
    (i =   7 of  39)       1680 seconds
    (i =   8 of  39)       1920 seconds
    (i =   9 of  39)       2160 seconds
    (i =  10 of  39)       2400 seconds
    (i =  11 of  39)       2639 seconds
    (i =  12 of  39)       2878 seconds
    (i =  13 of  39)       3116 seconds
    (i =  14 of  39)       3354 seconds
    (i =  15 of  39)       3597 seconds
    (i =  16 of  39)       3835 seconds
    (i =  17 of  39)       4070 seconds
    (i =  18 of  39)       4304 seconds
    (i =  19 of  39)       4539 seconds
    (i =  20 of  39)       4777 seconds
    (i =  21 of  39)       5017 seconds
    (i =  22 of  39)       5258 seconds
    (i =  23 of  39)       5499 seconds
    (i =  24 of  39)       5746 seconds
    (i =  25 of  39)       5995 seconds
    (i =  26 of  39)       6245 seconds
    (i =  27 of  39)       6495 seconds
    (i =  28 of  39)       6743 seconds
    (i =  29 of  39)       6989 seconds
    (i =  30 of  39)       7235 seconds
    (i =  31 of  39)       7472 seconds
    (i =  32 of  39)       7705 seconds
    (i =  33 of  39)       7941 seconds
    (i =  34 of  39)       8175 seconds
    (i =  35 of  39)       8409 seconds
    (i =  36 of  39)       8643 seconds
    (i =  37 of  39)       8876 seconds
    (i =  38 of  39)       9110 seconds
    (i =  39 of  39)       9343 seconds

    Disp202 (T)         =    -0.004812316493 [Eh]

    Disp22 (T)          =    -0.009400731816 [Eh]

    Est. Disp220 (T)    =    -0.005058046405 [Eh]
    Est. Disp202 (T)    =    -0.005304864192 [Eh]

    Est. Disp22 (T)     =    -0.010362910597 [Eh]
    Elst13,r            =    -0.000364418474 [Eh]
    Disp30              =     0.001481810171 [Eh]

    SAPT Results 
  --------------------------------------------------------------------------------------------------------
    Electrostatics               -102.95202848 [mEh]     -64.60337322 [kcal/mol]    -270.30051354 [kJ/mol]
      Elst10,r                   -107.94614361 [mEh]     -67.73722777 [kcal/mol]    -283.41256100 [kJ/mol]
      Elst12,r                      5.35853360 [mEh]       3.36253060 [kcal/mol]      14.06882804 [kJ/mol]
      Elst13,r                     -0.36441847 [mEh]      -0.22867605 [kcal/mol]      -0.95678057 [kJ/mol]

    Exchange                      115.48586143 [mEh]      72.46847213 [kcal/mol]     303.20808741 [kJ/mol]
      Exch10                      101.99167620 [mEh]      64.00074306 [kcal/mol]     267.77910897 [kJ/mol]
      Exch10(S^2)                 100.70479165 [mEh]      63.19321082 [kcal/mol]     264.40039405 [kJ/mol]
      Exch11(S^2)                   1.58730474 [mEh]       0.99604876 [kcal/mol]       4.16746803 [kJ/mol]
      Exch12(S^2)                  11.90688049 [mEh]       7.47168031 [kcal/mol]      31.26151041 [kJ/mol]

    Induction                     -52.04868729 [mEh]     -32.66104438 [kcal/mol]    -136.65380967 [kJ/mol]
      Ind20,r                     -65.16907482 [mEh]     -40.89421185 [kcal/mol]    -171.10138238 [kJ/mol]
      Ind22                        -7.77754630 [mEh]      -4.88048399 [kcal/mol]     -20.41994501 [kJ/mol]
      Exch-Ind20,r                 35.18124228 [mEh]      22.07656283 [kcal/mol]      92.36833889 [kJ/mol]
      Exch-Ind22                    4.19867463 [mEh]       2.63470811 [kcal/mol]      11.02361871 [kJ/mol]
      delta HF,r (2)              -21.86717690 [mEh]     -13.72186067 [kcal/mol]     -57.41226503 [kJ/mol]
      delta MP2,r (2)               3.38519382 [mEh]       2.12424119 [kcal/mol]       8.88782515 [kJ/mol]

    Dispersion                    -41.52955440 [mEh]     -26.06018883 [kcal/mol]    -109.03583004 [kJ/mol]
      Disp20                      -48.02306965 [mEh]     -30.13493117 [kcal/mol]    -126.08455200 [kJ/mol]
      Disp30                        1.48181017 [mEh]       0.92984992 [kcal/mol]       3.89049207 [kJ/mol]
      Disp21                        8.96435796 [mEh]       5.62521954 [kcal/mol]      23.53591857 [kJ/mol]
      Disp22 (SDQ)                 -2.38319933 [mEh]      -1.49548015 [kcal/mol]      -6.25708897 [kJ/mol]
      Disp22 (T)                   -9.40073182 [mEh]      -5.89904827 [kcal/mol]     -24.68161798 [kJ/mol]
      Est. Disp22 (T)             -10.36291060 [mEh]      -6.50282458 [kcal/mol]     -27.20781802 [kJ/mol]
      Exch-Disp20                   8.79345705 [mEh]       5.51797761 [kcal/mol]      23.08721831 [kJ/mol]

  Total HF                        -57.80947685 [mEh]     -36.27599440 [kcal/mol]    -151.77876056 [kJ/mol]
  Total SAPT0                     -97.03908945 [mEh]     -60.89294796 [kcal/mol]    -254.77609425 [kJ/mol]
  Total SAPT2                     -81.76524230 [mEh]     -51.30846417 [kcal/mol]    -214.67461407 [kJ/mol]
  Total SAPT2+                    -85.54699426 [mEh]     -53.68154935 [kcal/mol]    -224.60360249 [kJ/mol]
  Total SAPT2+(3)                 -84.42960256 [mEh]     -52.98037548 [kcal/mol]    -221.66989099 [kJ/mol]
  Total SAPT2+dMP2                -82.16180044 [mEh]     -51.55730816 [kcal/mol]    -215.71577734 [kJ/mol]
  Total SAPT2+(3)dMP2             -81.04440874 [mEh]     -50.85613428 [kcal/mol]    -212.78206584 [kJ/mol]

  Special recipe for scaled SAPT0 (see Manual):
    Electrostatics sSAPT0        -107.94614361 [mEh]     -67.73722777 [kcal/mol]    -283.41256100 [kJ/mol]
    Exchange sSAPT0               101.99167620 [mEh]      64.00074306 [kcal/mol]     267.77910897 [kJ/mol]
    Induction sSAPT0              -50.48898078 [mEh]     -31.68231376 [kcal/mol]    -132.55880077 [kJ/mol]
    Dispersion sSAPT0             -38.88817741 [mEh]     -24.40269974 [kcal/mol]    -102.10089571 [kJ/mol]
  Total sSAPT0                    -95.33162559 [mEh]     -59.82149821 [kcal/mol]    -250.29314852 [kJ/mol]
  --------------------------------------------------------------------------------------------------------

*** tstop() called on localhost.localdomain at Sun Jun  5 01:32:48 2022
Module time:
	user time   = 1299562.42 seconds =   21659.37 minutes
	system time =    8729.08 seconds =     145.48 minutes
	total time  =     119419 seconds =    1990.32 minutes
Total time:
	user time   = 1306143.76 seconds =   21769.06 minutes
	system time =    8820.23 seconds =     147.00 minutes
	total time  =     119792 seconds =    1996.53 minutes

    Psi4 stopped on: Sunday, 05 June 2022 01:32AM
    Psi4 wall time for execution: 1 day, 9:16:32.51

*** Psi4 exiting successfully. Buy a developer a beer!
