          33
 G =       -0.415669 Gcorr = 0.182223 a.u. Nimag =   0 Frame:     1 Step:     1 Geom:     1
C          17.68470700      2.76100800     13.25293900
C          18.00372200      2.41000100     14.56001200
C          16.46849900      0.94406600     13.80694400
N          16.75279300      1.82765700     12.79695900
H          18.00517500      3.60256200     12.66630200
H          18.65404400      2.89479700     15.26198600
H          15.71520600      0.14250300     13.78550000
C          16.06144400      1.88796900     11.52158100
H          15.85605400      2.94239400     11.23506700
H          16.65770900      1.40629500     10.72785500
H          15.06555200      1.39578000     11.58530700
N          17.25032000      1.27819000     14.87808000
C          17.23237100      0.61059200     16.18062900
H          18.28342100      0.42421900     16.49560200
H          16.74591800     -0.39082700     16.06092600
C          16.48699600      1.45154800     17.23991200
H          17.19462900      1.74069200     18.04204000
H          16.15451100      2.42403000     16.80414500
C          15.30528500      0.70746600     17.84195700
H          14.95149300      1.23250800     18.75039500
H          15.58899300     -0.30227400     18.17981900
S          13.87880300      0.57349300     16.71819800
O          13.17626700     -0.63015600     17.13622100
O          13.15769200      1.86292300     16.87227400
O          14.49774300      0.48848800     15.34090400
P          14.39020800      3.86010100     14.30232400
O          15.81117900      3.99358100     14.63659800
O          13.31769200      4.11649700     15.42239100
H          13.22056100      3.22132700     16.03236500
O          14.01070300      4.91928900     13.16437200
H          12.99030900      4.88166400     13.03384000
O          14.03374500      2.48096300     13.58355000
H          14.11628500      1.68065500     14.28303100
          33
 G =       -0.414847 Gcorr = 0.181732 a.u. Nimag =   0 Frame:     2 Step:     2 Geom:     2
C          17.56877300      2.11742000     12.81000500
C          17.53142200      0.95414700     13.57006100
C          16.81875700      2.64828400     14.86859400
N          17.14037800      3.15619100     13.63743600
H          17.81571000      2.25805900     11.77472100
H          17.74529200     -0.05803600     13.28509200
H          16.38086600      3.21706400     15.71606200
C          16.85121900      4.51082400     13.20247300
H          16.39296600      4.50527400     12.19010900
H          16.09630200      4.98636000     13.86926800
H          17.76612800      5.12670700     13.18767500
N          17.07655300      1.30505900     14.84508100
C          16.70742200      0.32734200     15.87387800
H          17.35480800     -0.57017600     15.75583000
H          15.65437400     -0.01914800     15.65055600
C          16.81761600      0.88680000     17.30502000
H          17.61822100      0.34102400     17.84686900
H          17.15999800      1.94285000     17.30044200
C          15.51569400      0.76872900     18.08608200
H          15.66723800      1.09611700     19.13102400
H          15.18779900     -0.28387900     18.15315700
S          14.13635600      1.73845200     17.39119900
O          13.34901300      2.18178000     18.52815000
O          14.80571500      2.82898300     16.59634400
O          13.48721200      0.78014500     16.44982100
P          13.83884900      2.02537700     13.20917800
O          15.06905000      1.31026700     12.85797100
O          14.11109200      3.38223000     14.00742600
H          14.26773000      3.19149000     15.03270400
O          13.13970000      2.57306600     11.88074700
H          12.26112200      3.03380900     12.16180300
O          12.68387700      1.25014100     13.94063300
H          12.99276800      1.00724800     14.95461200
          33
 G =       -0.414846 Gcorr = 0.181735 a.u. Nimag =   0 Frame:     3 Step:     3 Geom:     3
C          17.57456200      2.15783900     12.82603200
C          17.52402400      0.97014600     13.54660900
C          16.81726700      2.62560400     14.89714600
N          17.14958000      3.17171600     13.68537100
H          17.82830500      2.33077600     11.79727600
H          17.73178000     -0.03355700     13.22906300
H          16.37949000      3.16944100     15.76082300
C          16.87347100      4.54241300     13.29456000
H          16.41302600      4.57368100     12.28351900
H          16.12463500      5.00402600     13.97768900
H          17.79454400      5.14918400     13.29717500
N          17.06455900      1.28186800     14.83010500
C          16.68187400      0.27358700     15.82381500
H          17.32251300     -0.62485100     15.67945100
H          15.62726500     -0.05667300     15.58335800
C          16.78820400      0.78428800     17.27337500
H          17.58110500      0.21416700     17.80122900
H          17.13917700      1.83701500     17.30580300
C          15.48079800      0.65118700     18.04283400
H          15.62892900      0.94223100     19.09886600
H          15.14383000     -0.40027900     18.07277700
S          14.11343800      1.65506300     17.37294900
O          13.32310400      2.06693500     18.51957900
O          14.79589800      2.76561000     16.61838700
O          13.46230700      0.73326500     16.39682200
P          13.84210500      2.08415200     13.20048900
O          15.06670000      1.36820800     12.83194800
O          14.12448700      3.41181700     14.04330500
H          14.27108900      3.18613700     15.06296800
O          13.15456800      2.68131400     11.88748900
H          12.27906900      3.14113300     12.17937000
O          12.67616700      1.29833700     13.90287200
H          12.98215000      1.01422100     14.90696900
          33
 G =       -0.415658 Gcorr = 0.182234 a.u. Nimag =   0 Frame:     4 Step:     4 Geom:     4
C          17.68023800      2.71329000     13.20989000
C          18.02013800      2.36806500     14.51327100
C          16.43724800      0.92902200     13.80867300
N          16.71844600      1.79632400     12.78382700
H          18.00594400      3.54199500     12.60802100
H          18.69623900      2.84520900     15.19585000
H          15.66653500      0.14394400     13.81171500
C          16.00101500      1.85901400     11.52307100
H          14.99551900      1.39108400     11.61388000
H          15.81386800      2.91479300     11.22920500
H          16.56833500      1.35480100     10.72220000
N          17.24943000      1.25627300     14.85913400
C          17.24495100      0.60222500     16.16867000
H          18.29816800      0.39534100     16.46288600
H          16.73378500     -0.38908800     16.06995200
C          16.54165900      1.47030400     17.23485700
H          17.27274900      1.75125500     18.01866000
H          16.22169200      2.44567000     16.79617600
C          15.35684100      0.75925400     17.86969800
H          15.03430200      1.30154000     18.77969900
H          15.62510000     -0.25306600     18.21239700
S          13.90401700      0.64584100     16.77787300
O          13.18444900     -0.53782800     17.22315300
O          13.21480000      1.95236400     16.93393800
O          14.49120200      0.53353900     15.38872100
P          14.43508900      3.89616200     14.31831100
O          15.86595400      3.99949800     14.61948700
O          13.39413600      4.18822200     15.45921700
H          13.28917000      3.30075800     16.07936000
O          14.05489100      4.95306000     13.17841300
H          13.03115600      4.93878400     13.07165000
O          14.03038600      2.51897700     13.62168900
H          14.11257700      1.72337000     14.32648100
          33
 G =       -0.415666 Gcorr = 0.182225 a.u. Nimag =   0 Frame:     5 Step:     5 Geom:     5
C          17.65929500      2.82209300     13.28699400
C          17.97693400      2.43903000     14.58536000
C          16.43120300      1.00120400     13.80028600
N          16.72071300      1.90580200     12.81056400
H          17.98500900      3.67469000     12.71949200
H          18.63098800      2.90318100     15.29773000
H          15.67266500      0.20528500     13.76107000
C          16.02819900      2.00040000     11.53789800
H          16.62070600      1.53434400     10.73215600
H          15.02952400      1.51261700     11.59124900
H          15.82844800      3.06252000     11.27691000
N          17.21603200      1.30536300     14.87808900
C          17.19430300      0.60818200     16.16501600
H          18.24423300      0.40730800     16.47473100
H          16.70072600     -0.38675300     16.02275000
C          16.45548900      1.42983400     17.24387100
H          17.16551100      1.69510500     18.05215300
H          16.13006600      2.41459300     16.83092500
C          15.26850300      0.68083700     17.82915100
H          14.91853700      1.18773200     18.74932100
H          15.54504300     -0.33830600     18.14406600
S          13.84085700      0.58226200     16.70319100
O          13.13124900     -0.62666200     17.09311100
O          13.12770900      1.87204600     16.88792500
O          14.45859300      0.52579800     15.32383900
P          14.37427800      3.92042000     14.36506000
O          15.79674900      4.03467500     14.70008500
O          13.30544700      4.15874800     15.49262600
H          13.20101200      3.24975200     16.08048400
O          14.00161300      5.00953000     13.25330900
H          12.98085200      4.98262500     13.12313300
O          14.00563300      2.56188700     13.61409100
H          14.08390800      1.74385800     14.29338900
          33
 G =       -0.414846 Gcorr = 0.181734 a.u. Nimag =   0 Frame:     6 Step:     6 Geom:     6
C          17.51290600      2.09954300     12.74242000
C          17.49880400      0.94847000     13.52166200
C          16.80673100      2.65986200     14.80864400
N          17.09783300      3.14935600     13.56253400
H          17.73549500      2.22438900     11.69957400
H          17.71172300     -0.06704300     13.24813200
H          16.38560000      3.24019600     15.65648300
C          16.79276900      4.49560800     13.11270400
H          16.30646100      4.47139800     12.11368600
H          16.05537800      4.98073300     13.79196200
H          17.70510600      5.11339300     13.06156600
N          17.07085100      1.31765800     14.80079900
C          16.72968000      0.35491400     15.85307000
H          17.37822500     -0.54165000     15.73464500
H          15.67345700      0.00026400     15.65913800
C          16.86943800      0.93776600     17.27223600
H          17.68490900      0.40466700     17.80432600
H          17.20602500      1.99527300     17.24303300
C          15.58611300      0.82591300     18.08443400
H          15.75950900      1.17059500     19.12026700
H          15.26518200     -0.22704000     18.17546500
S          14.18638700      1.77786700     17.40556400
O          13.42264300      2.23567700     18.55282100
O          14.83176600      2.85840700     16.57835600
O          13.52126100      0.80075400     16.49484000
P          13.79370500      1.99822000     13.22605000
O          15.01727200      1.28074100     12.85711600
O          14.08148000      3.36874700     13.99509500
H          14.25874500      3.19533400     15.01996000
O          13.06086700      2.52211600     11.90634900
H          12.18650000      2.98250600     12.20092700
O          12.65949900      1.23272800     13.99922800
H          12.99770800      1.00263600     15.00693900
          33
 G =       -0.415670 Gcorr = 0.182222 a.u. Nimag =   0 Frame:     7 Step:     7 Geom:     7
C          17.64043800      2.74685500     13.19209400
C          17.99119400      2.39262500     14.49014500
C          16.41649000      0.94643100     13.78181600
N          16.68407300      1.82550600     12.76328300
H          17.95514800      3.58391100     12.59592700
H          18.66726900      2.86924900     15.17312200
H          15.65238900      0.15500600     13.78214100
C          15.95825100      1.89380600     11.50762900
H          16.52645700      1.40500200     10.69787900
H          14.95884700      1.41329100     11.59927300
H          15.75727100      2.95053100     11.22658100
N          17.23215600      1.27103700     14.83032100
C          17.24241300      0.60428600     16.13339600
H          18.29938100      0.40394000     16.41851000
H          16.73941000     -0.39057400     16.02847800
C          16.53878200      1.45578900     17.21263400
H          17.27273200      1.73605000     17.99394200
H          16.20679300      2.43227900     16.78549500
C          15.36495300      0.72788900     17.84895600
H          15.04404900      1.25864500     18.76628100
H          15.64483900     -0.28513900     18.18005500
S          13.90569500      0.61177000     16.76617300
O          13.19939700     -0.58215900     17.20500100
O          13.20632400      1.91082000     16.93909800
O          14.48431700      0.51771900     15.37195800
P          14.39159900      3.88913100     14.33163900
O          15.82317200      4.00603800     14.62442300
O          13.35542000      4.16005100     15.48203100
H          13.26331100      3.26636400     16.09503800
O          13.99187000      4.95125300     13.20337200
H          12.96768600      4.92599100     13.10294300
O          13.99849500      2.51336000     13.62570000
H          14.08940800      1.71324900     14.32469200
          33
 G =       -0.415660 Gcorr = 0.182225 a.u. Nimag =   0 Frame:     8 Step:     8 Geom:     8
C          17.58445000      2.52137000     13.08125300
C          17.96494700      2.28446700     14.39750100
C          16.32710300      0.82768700     13.87971600
N          16.58836100      1.59406400     12.77254500
H          17.90514300      3.28539200     12.39679600
H          18.67572900      2.80346300     15.01083200
H          15.54057600      0.06498100     13.97998200
C          15.82675800      1.56253500     11.53676000
H          15.64214200      2.59308200     11.16233700
H          16.35877100      0.98496300     10.76160400
H          14.81960700      1.11926200     11.70129400
N          17.18446400      1.22648900     14.86776800
C          17.21513700      0.69053700     16.22959300
H          18.27399000      0.48425500     16.50331700
H          16.67924300     -0.29257100     16.23748200
C          16.57138800      1.66634500     17.23864300
H          17.33751000      1.99798100     17.96722700
H          16.25511500      2.60654300     16.72651900
C          15.39717800      1.04265700     17.97670200
H          15.12198300      1.66953900     18.84698900
H          15.65642400      0.05743400     18.39650400
S          13.90102100      0.87195500     16.95279200
O          13.17141600     -0.24790200     17.52781500
O          13.24999200      2.20542500     17.01704400
O          14.43186600      0.62101200     15.55895200
P          14.40467500      3.87441000     14.19107500
O          15.84468100      3.97802100     14.44453100
O          13.39771500      4.28610000     15.32573200
H          13.31609100      3.46937000     16.03915000
O          14.00974300      4.83039600     12.96985600
H          12.98330600      4.82502600     12.89173800
O          13.95944200      2.44753600     13.63320000
H          14.04405100      1.71817500     14.40676300
          33
 G =       -0.415661 Gcorr = 0.182231 a.u. Nimag =   0 Frame:     9 Step:     9 Geom:     9
C          17.60195000      2.59551900     13.09773600
C          17.98662700      2.31313600     14.40381200
C          16.35522800      0.86739200     13.83698600
N          16.61028200      1.67451500     12.75754400
H          17.91723900      3.38553000     12.44081200
H          18.69590400      2.81355800     15.03406100
H          15.57293800      0.09749500     13.91094400
C          15.84558600      1.68379600     11.52328400
H          15.66507100      2.72581300     11.18028100
H          16.37280100      1.12707600     10.72981700
H          14.83658700      1.24056800     11.67712700
N          17.21236900      1.23503300     14.83718800
C          17.24845000      0.65051600     16.17871600
H          18.30886900      0.44041500     16.44318700
H          16.71804300     -0.33524800     16.15214300
C          16.60117800      1.58567800     17.22345000
H          17.36659700      1.89379400     17.96299100
H          16.28012500      2.54243900     16.74625800
C          15.43061600      0.93027600     17.93943800
H          15.15211400      1.52524800     18.83085800
H          15.69583700     -0.06732000     18.32502000
S          13.93481800      0.78569800     16.91105100
O          13.21525400     -0.36088000     17.44470500
O          13.27232900      2.11014500     17.02455300
O          14.46584800      0.59129500     15.50829500
P          14.42169400      3.89307500     14.26382400
O          15.86469400      3.98706200     14.50397600
O          13.43140900      4.26345600     15.42699800
H          13.33601200      3.41180100     16.09617100
O          14.01340600      4.89504800     13.08475700
H          12.98631300      4.88993300     13.01556100
O          13.96832100      2.48854000     13.65791500
H          14.06551100      1.72960000     14.40056800
          33
 G =       -0.415667 Gcorr = 0.182225 a.u. Nimag =   0 Frame:    10 Step:    10 Geom:    10
C          17.52606400      2.49925800     12.97909600
C          17.95840400      2.17733400     14.26085700
C          16.23012600      0.82436800     13.75535800
N          16.47340200      1.63476500     12.67568300
H          17.84881800      3.28290900     12.31817500
H          18.72201900      2.63120500     14.86219600
H          15.41420300      0.09341600     13.85719700
C          15.65145900      1.70199400     11.48065100
H          15.50665900      2.75716500     11.16178500
H          16.11145800      1.13344300     10.65442300
H          14.63029500      1.30607700     11.67741400
N          17.15224200      1.13249900     14.71711900
C          17.22338300      0.52573200     16.04732100
H          18.28348300      0.25951500     16.25696700
H          16.64375200     -0.43215600     16.03330300
C          16.67454200      1.47492300     17.13487100
H          17.48905900      1.73334600     17.84021800
H          16.37910000      2.45376000     16.68682800
C          15.50855200      0.86666300     17.89839500
H          15.30400400      1.45988800     18.81074400
H          15.74156700     -0.14910600     18.25639700
S          13.95945800      0.81337200     16.94285600
O          13.20903300     -0.30369100     17.49609800
O          13.37130200      2.16751500     17.10582700
O          14.41156500      0.61459800     15.51332300
P          14.47478300      3.93425500     14.31702100
O          15.93056100      3.95264500     14.48768000
O          13.56152800      4.33480800     15.53205300
H          13.45599400      3.47849300     16.19403900
O          14.06125500      4.97386400     13.17284200
H          13.03324700      5.02378700     13.15635200
O          13.92286200      2.56379600     13.71485300
H          14.01584800      1.78955800     14.44207700
          33
 G =       -0.406557 Gcorr = 0.181988 a.u. Nimag =   0 Frame:    11 Step:    11 Geom:    11
C          18.38312900      2.53532100     13.74431200
C          18.55443900      1.52085400     14.67428900
C          16.37693300      1.56094300     14.07694900
N          17.03257100      2.54013400     13.38240800
H          19.09731100      3.22541400     13.33810500
H          19.43718700      1.20030900     15.19226000
H          15.31283100      1.28707700     14.00058000
C          16.42180900      3.49622700     12.47680900
H          17.18023700      4.05595000     11.90860200
H          15.74306600      2.98867100     11.75443200
H          15.79748700      4.22603700     13.04862500
N          17.30727600      0.91488600     14.85517000
C          16.99318800     -0.05864500     15.90155500
H          17.72319300     -0.89585500     15.84313600
H          15.97870200     -0.49875900     15.69947600
C          17.03177300      0.61134500     17.29317300
H          17.66133500      0.00160600     17.97229900
H          17.54399700      1.59831400     17.22971000
C          15.65300100      0.79002400     17.90458700
H          15.73828800      1.23455900     18.91462800
H          15.15440600     -0.18443500     18.05768500
S          14.53251100      1.83939900     16.92784500
O          13.76195100      2.59513800     17.89966100
O          15.38587100      2.64625500     15.99153600
O          13.78106800      0.85117500     16.08461800
P          12.75491300      2.73959900     13.36313100
O          13.61598200      2.00250500     12.43437200
O          13.53092300      3.91487600     14.12283100
H          14.19999400      3.52865100     14.81542900
O          11.63333400      3.55648900     12.57972100
H          11.07376600      4.05817500     13.28913500
O          11.93927700      1.91727200     14.42610500
H          12.62827800      1.38048900     15.06685000
          33
 G =       -0.414361 Gcorr = 0.172997 a.u. Nimag =   0 Frame:    12 Step:    12 Geom:    12
C          17.81945900      2.31031300     12.81203900
C          18.24283400      2.10351500     14.12064800
C          16.31500700      0.95529300     13.82322300
N          16.62206200      1.59486500     12.64113500
H          18.26145500      2.91766800     12.03828500
H          19.09855200      2.51146600     14.63418100
H          15.40746600      0.35646400     14.04142200
C          15.75391100      1.62879700     11.45941900
H          15.68923700      2.65731400     11.04743300
H          16.11025500      0.94026300     10.67591700
H          14.70548400      1.35485500     11.74119800
N          17.30739000      1.25470700     14.73629200
C          17.25043400      0.89239400     16.17219100
H          18.27875600      0.66826900     16.52924000
H          16.65249900     -0.05173200     16.26553700
C          16.60674700      2.02355300     16.99820700
H          17.39522000      2.56562300     17.55820700
H          16.17234000      2.81429900     16.32142800
C          15.55049300      1.51230400     17.96374000
H          15.37194100      2.28437300     18.74486400
H          15.91973500      0.64254300     18.54175200
S          14.00151700      1.12694400     17.17646400
O          13.35634100      0.11924100     17.98818900
O          13.28988500      2.40488000     16.96275500
O          14.37954300      0.58588100     15.76272900
P          14.14489200      3.52568700     14.10462000
O          15.51091000      3.78565300     14.61701800
O          12.86570100      4.06454700     14.94991500
H          12.71911200      3.63440300     15.89185600
O          13.85140700      4.26064800     12.65267800
H          12.90664400      4.52571300     12.49672800
O          13.86182000      1.98400200     13.75212300
H          13.85097900      1.24525700     14.66858600
          33
 G =       -0.415670 Gcorr = 0.182222 a.u. Nimag =   0 Frame:    13 Step:    13 Geom:    13
C          17.61226300      2.69200200     13.21523000
C          17.97976500      2.35574700     14.51343700
C          16.39779100      0.89865500     13.84471500
N          16.65151000      1.76403500     12.81109400
H          17.91876800      3.52103000     12.60380700
H          18.66381900      2.84234300     15.18126500
H          15.63488200      0.10622300     13.86543900
C          15.90953100      1.81495300     11.56407100
H          16.46705400      1.31452500     10.75399400
H          14.91120100      1.33630100     11.67537800
H          15.70521800      2.86771300     11.27075600
N          17.22632400      1.23821000     14.87837600
C          17.25274200      0.58980600     16.19046800
H          18.31334100      0.39510100     16.46599900
H          16.75024100     -0.40714200     16.10530800
C          16.56033500      1.45519600     17.26590700
H          17.30280600      1.74708800     18.03486500
H          16.22235500      2.42537100     16.82919900
C          15.39487000      0.73482300     17.92563300
H          15.08378800      1.27771700     18.83924300
H          15.67992300     -0.27321000     18.26739100
S          13.92311300      0.60147400     16.86174800
O          13.22511100     -0.58821200     17.32482200
O          13.22254300      1.90096000     17.02561700
O          14.48540800      0.49018400     15.46223100
P          14.37696100      3.84770200     14.38044900
O          15.81235700      3.96722100     14.65267600
O          13.35638300      4.13381300     15.54115000
H          13.27070800      3.24743000     16.16543600
O          13.96279400      4.89603800     13.24447500
H          12.93727200      4.87146700     13.15920300
O          13.97340500      2.46365800     13.69698300
H          14.07544300      1.67178100     14.40365800
          33
 G =       -0.415662 Gcorr = 0.182230 a.u. Nimag =   0 Frame:    14 Step:    14 Geom:    14
C          17.57683200      2.58394800     13.02588800
C          17.95848700      2.38909100     14.34869900
C          16.40977200      0.83448600     13.84115300
N          16.63732200      1.59723200     12.72397800
H          17.85994400      3.35432500     12.33202500
H          18.63348900      2.95669400     14.95934000
H          15.66663500      0.03012500     13.94695800
C          15.88883800      1.50420000     11.48329300
H          15.65821500      2.51678800     11.08628800
H          16.45450500      0.93733900     10.72424600
H          14.90263500      1.01633000     11.64937300
N          17.23440700      1.29628400     14.82954800
C          17.28274600      0.78433700     16.20005900
H          18.34898900      0.64325200     16.48617100
H          16.80379200     -0.22758600     16.21939800
C          16.57494900      1.73751400     17.18773000
H          17.31394000      2.12281300     17.91795000
H          16.21162400      2.65039100     16.65782900
C          15.43026000      1.06040500     17.92508100
H          15.11026300      1.68557900     18.78119600
H          15.74108100      0.09918000     18.36515800
S          13.95731900      0.78551500     16.89030800
O          13.29036800     -0.36746100     17.47594900
O          13.22646100      2.07805400     16.92725900
O          14.51578700      0.54657600     15.50531300
P          14.31975800      3.77410900     14.09086200
O          15.75312700      3.95402400     14.33949700
O          13.29812500      4.15198700     15.22410000
H          13.23740500      3.33155700     15.93537700
O          13.87531000      4.69223900     12.85782200
H          12.85011400      4.63629200     12.78355900
O          13.94596400      2.31907800     13.55350400
H          14.07156900      1.60530200     14.33511100
          33
 G =       -0.414797 Gcorr = 0.181459 a.u. Nimag =   0 Frame:    15 Step:    15 Geom:    15
C          17.47032100      1.97741700     12.72468200
C          17.46634400      0.86741500     13.56214200
C          16.76852400      2.63815200     14.76226500
N          17.05334300      3.06549900     13.49184900
H          17.68656400      2.04954700     11.67550000
H          17.68480400     -0.15938600     13.33997300
H          16.34370600      3.25774200     15.57938100
C          16.74006800      4.38576200     12.97562800
H          15.99181000      4.89565500     13.62433600
H          17.64715800      5.00913100     12.90366400
H          16.26374700      4.30961700     11.97446600
N          17.04022500      1.29884700     14.82171400
C          16.72287800      0.39378400     15.93067100
H          17.36767900     -0.50872600     15.84750400
H          15.65940500      0.02935000     15.77966500
C          16.89348000      1.05581100     17.31138100
H          17.71783500      0.55083500     17.85679400
H          17.23206500      2.10851600     17.21389800
C          15.62722900      0.99942000     18.15604800
H          15.80502500      1.46034600     19.14425800
H          15.33807900     -0.04581900     18.36599500
S          14.19476600      1.82809100     17.39387500
O          13.35639700      2.27525100     18.49138500
O          14.79423300      2.91261100     16.54027100
O          13.63860300      0.76564500     16.50130000
P          13.75971500      1.89200500     13.20774400
O          14.99809500      1.20704500     12.82672300
O          14.02111200      3.29515600     13.92709800
H          14.20525100      3.16611800     14.95512700
O          12.97316400      2.35030700     11.89482300
H          12.09647900      2.79880300     12.20072000
O          12.67486400      1.11262600     14.03555900
H          13.05706200      0.90742800     15.03357900
          33
 G =       -0.406570 Gcorr = 0.181975 a.u. Nimag =   0 Frame:    16 Step:    16 Geom:    16
C          18.41983100      2.62124600     13.84377400
C          18.59049400      1.60008200     14.76654700
C          16.43296300      1.58605000     14.09970700
N          17.08195200      2.59229100     13.43847000
H          19.12644300      3.33653200     13.46912300
H          19.46516100      1.29815400     15.30890000
H          15.38015300      1.28310100     13.98625300
C          16.47347900      3.54188300     12.52452100
H          17.23346000      4.12794600     11.98574400
H          15.83090300      3.02457900     11.77636300
H          15.81239800      4.24820300     13.08440700
N          17.35622100      0.95664100     14.89979900
C          17.03690900     -0.03927900     15.92327100
H          17.79165500     -0.85505900     15.87753600
H          16.04207300     -0.50470800     15.68341400
C          17.01261700      0.61255500     17.32382000
H          17.63794000      0.01173700     18.01475400
H          17.49786000      1.61443000     17.28915300
C          15.61082700      0.74357800     17.89351000