
    -----------------------------------------------------------------------
          Psi4: An Open-Source Ab Initio Electronic Structure Package
                               Psi4 1.3.2 release

                         Git: Rev {HEAD} ecbda83 


    R. M. Parrish, L. A. Burns, D. G. A. Smith, A. C. Simmonett,
    A. E. DePrince III, E. G. Hohenstein, U. Bozkaya, A. Yu. Sokolov,
    R. Di Remigio, R. M. Richard, J. F. Gonthier, A. M. James,
    H. R. McAlexander, A. Kumar, M. Saitow, X. Wang, B. P. Pritchard,
    P. Verma, H. F. Schaefer III, K. Patkowski, R. A. King, E. F. Valeev,
    F. A. Evangelista, J. M. Turney, T. D. Crawford, and C. D. Sherrill,
    J. Chem. Theory Comput. 13(7) pp 3185--3197 (2017).
    (doi: 10.1021/acs.jctc.7b00174)


                         Additional Contributions by
    P. Kraus, H. Kruse, M. H. Lechner, M. C. Schieber, R. A. Shaw,
    A. Alenaizan, R. Galvelis, Z. L. Glick, S. Lehtola, and J. P. Misiewicz

    -----------------------------------------------------------------------


    Psi4 started on: Monday, 30 May 2022 12:04PM

    Process ID: 2339135
    Host:       localhost.localdomain
    PSIDATADIR: /data0/home/wuhanyu/software/psi4_132/share/psi4
    Memory:     500.0 MiB
    Threads:    24
    
  ==> Input File <==

--------------------------------------------------------------------------
memory 100 GB

molecule dimer {
0 1
P      4.80300000    6.25000000    4.59200000
O      5.15000000    5.02400000    5.29600000
O      3.84500000    7.17000000    5.46200000
H      3.56700000    7.98200000    4.89400000
O      5.97900000    7.19000000    4.07900000
H      6.76200000    7.15700000    4.75200000
O      3.94900000    6.10200000    3.24900000
H      4.56300000    5.72800000    2.51800000
--
0 1
P      8.49300000    5.73300000    6.87300000
O      8.14300000    6.96300000    6.17600000
O      7.32000000    4.79200000    7.38700000
H      6.53400000    4.82600000    6.71600000
O      9.44700000    4.81800000    5.99400000
H      9.73200000    4.00600000    6.55800000
O      9.35300000    5.87700000    8.21200000
H      8.73900000    6.23300000    8.95200000
}

set {
    scf_type DF
    freeze_core True
    basis aug-cc-pVTZ
}

energy('sapt2+(3)dmp2')
--------------------------------------------------------------------------

  Memory set to  93.132 GiB by Python driver.

  //>>>>>>>>>>>>>>>>>>>>>>>>>>>>>>>>>>>//
  //              Dimer HF             //
  //<<<<<<<<<<<<<<<<<<<<<<<<<<<<<<<<<<<//


*** tstart() called on localhost.localdomain
*** at Mon May 30 12:04:50 2022

   => Loading Basis Set <=

    Name: AUG-CC-PVTZ
    Role: ORBITAL
    Keyword: BASIS
    atoms 1, 9                     entry P          line   820 file /data0/home/wuhanyu/software/psi4_132/share/psi4/basis/aug-cc-pvtz.gbs 
    atoms 2-3, 5, 7, 10-11, 13, 15 entry O          line   327 file /data0/home/wuhanyu/software/psi4_132/share/psi4/basis/aug-cc-pvtz.gbs 
    atoms 4, 6, 8, 12, 14, 16      entry H          line    36 file /data0/home/wuhanyu/software/psi4_132/share/psi4/basis/aug-cc-pvtz.gbs 


         ---------------------------------------------------------
                                   SCF
               by Justin Turney, Rob Parrish, Andy Simmonett
                          and Daniel G. A. Smith
                              RHF Reference
                       24 Threads,  95367 MiB Core
         ---------------------------------------------------------

  ==> Geometry <==

    Molecular point group: c1
    Full point group: C1

    Geometry (in Angstrom), charge = 0, multiplicity = 1:

       Center              X                  Y                   Z               Mass       
    ------------   -----------------  -----------------  -----------------  -----------------
         P           -1.845209540496     0.258260930204    -1.140066154358    30.973761998420
         O           -1.498209540496    -0.967739069796    -0.436066154358    15.994914619570
         O           -2.803209540496     1.178260930204    -0.270066154358    15.994914619570
         H           -3.081209540496     1.990260930204    -0.838066154358     1.007825032230
         O           -0.669209540496     1.198260930204    -1.653066154358    15.994914619570
         H            0.113790459504     1.165260930204    -0.980066154358     1.007825032230
         O           -2.699209540496     0.110260930204    -2.483066154358    15.994914619570
         H           -2.085209540496    -0.263739069796    -3.214066154358     1.007825032230
         P            1.844790459504    -0.258739069796     1.140933845642    30.973761998420
         O            1.494790459504     0.971260930204     0.443933845642    15.994914619570
         O            0.671790459504    -1.199739069796     1.654933845642    15.994914619570
         H           -0.114209540496    -1.165739069796     0.983933845642     1.007825032230
         O            2.798790459504    -1.173739069796     0.261933845642    15.994914619570
         H            3.083790459504    -1.985739069796     0.825933845642     1.007825032230
         O            2.704790459504    -0.114739069796     2.479933845642    15.994914619570
         H            2.090790459504     0.241260930204     3.219933845642     1.007825032230

  Running in c1 symmetry.

  Rotational constants: A =      0.07552  B =      0.01375  C =      0.01364 [cm^-1]
  Rotational constants: A =   2264.15462  B =    412.12210  C =    408.84358 [MHz]
  Nuclear repulsion =  850.117298600489107

  Charge       = 0
  Multiplicity = 1
  Electrons    = 100
  Nalpha       = 50
  Nbeta        = 50

  ==> Algorithm <==

  SCF Algorithm Type is DF.
  DIIS enabled.
  MOM disabled.
  Fractional occupation disabled.
  Guess Type is SAD.
  Energy threshold   = 1.00e-08
  Density threshold  = 1.00e-08
  Integral threshold = 0.00e+00

  ==> Primary Basis <==

  Basis Set: AUG-CC-PVTZ
    Blend: AUG-CC-PVTZ
    Number of shells: 198
    Number of basis function: 606
    Number of Cartesian functions: 708
    Spherical Harmonics?: true
    Max angular momentum: 3

   => Loading Basis Set <=

    Name: (AUG-CC-PVTZ AUX)
    Role: JKFIT
    Keyword: DF_BASIS_SCF
    atoms 1, 9                     entry P          line   644 file /data0/home/wuhanyu/software/psi4_132/share/psi4/basis/aug-cc-pvtz-jkfit.gbs 
    atoms 2-3, 5, 7, 10-11, 13, 15 entry O          line   286 file /data0/home/wuhanyu/software/psi4_132/share/psi4/basis/aug-cc-pvtz-jkfit.gbs 
    atoms 4, 6, 8, 12, 14, 16      entry H          line    70 file /data0/home/wuhanyu/software/psi4_132/share/psi4/basis/aug-cc-pvtz-jkfit.gbs 

  ==> Pre-Iterations <==

   -------------------------------------------------------
    Irrep   Nso     Nmo     Nalpha   Nbeta   Ndocc  Nsocc
   -------------------------------------------------------
     A        606     606       0       0       0       0
   -------------------------------------------------------
    Total     606     606      50      50      50       0
   -------------------------------------------------------

  ==> Integral Setup <==

  ==> DiskDFJK: Density-Fitted J/K Matrices <==

    J tasked:                  Yes
    K tasked:                  Yes
    wK tasked:                  No
    OpenMP threads:             24
    Integrals threads:          24
    Memory [MiB]:            71525
    Algorithm:                Core
    Integral Cache:           SAVE
    Schwarz Cutoff:          1E-12
    Fitting Condition:       1E-10

   => Auxiliary Basis Set <=

  Basis Set: (AUG-CC-PVTZ AUX)
    Blend: AUG-CC-PVTZ-JKFIT
    Number of shells: 408
    Number of basis function: 1400
    Number of Cartesian functions: 1738
    Spherical Harmonics?: true
    Max angular momentum: 4

  Minimum eigenvalue in the overlap matrix is 5.6858310264E-05.
  Using Symmetric Orthogonalization.

  SCF Guess: Superposition of Atomic Densities via on-the-fly atomic UHF.

  ==> Iterations <==

                           Total Energy        Delta E     RMS |[F,P]|

   @DF-RHF iter SAD: -1283.00837059376795   -1.28301e+03   0.00000e+00 
   @DF-RHF iter   1: -1283.99553663151801   -9.87166e-01   1.80582e-03 DIIS
   @DF-RHF iter   2: -1284.29201143083310   -2.96475e-01   1.12696e-03 DIIS
   @DF-RHF iter   3: -1284.43410121275360   -1.42090e-01   1.07971e-04 DIIS
   @DF-RHF iter   4: -1284.43670171014014   -2.60050e-03   4.73654e-05 DIIS
   @DF-RHF iter   5: -1284.43706892057298   -3.67210e-04   1.34676e-05 DIIS
   @DF-RHF iter   6: -1284.43711315001246   -4.42294e-05   3.32345e-06 DIIS
   @DF-RHF iter   7: -1284.43711784349307   -4.69348e-06   8.39075e-07 DIIS
   @DF-RHF iter   8: -1284.43711811832122   -2.74828e-07   2.67134e-07 DIIS
   @DF-RHF iter   9: -1284.43711814456719   -2.62460e-08   8.19139e-08 DIIS
   @DF-RHF iter  10: -1284.43711814628864   -1.72145e-09   3.13189e-08 DIIS
   @DF-RHF iter  11: -1284.43711814655239   -2.63753e-10   6.25718e-09 DIIS
  Energy and wave function converged.


  ==> Post-Iterations <==

    Orbital Energies [Eh]
    ---------------------

    Doubly Occupied:                                                      

       1A    -80.114469     2A    -80.114323     3A    -20.619372  
       4A    -20.619312     5A    -20.615398     6A    -20.615326  
       7A    -20.607245     8A    -20.606884     9A    -20.534631  
      10A    -20.534163    11A     -7.632415    12A     -7.632288  
      13A     -5.530772    14A     -5.530648    15A     -5.530484  
      16A     -5.530366    17A     -5.529712    18A     -5.529572  
      19A     -1.463791    20A     -1.462169    21A     -1.382119  
      22A     -1.381899    23A     -1.377767    24A     -1.376779  
      25A     -1.326980    26A     -1.324743    27A     -0.848907  
      28A     -0.840121    29A     -0.762646    30A     -0.757559  
      31A     -0.745157    32A     -0.744695    33A     -0.681870  
      34A     -0.669669    35A     -0.660239    36A     -0.656098  
      37A     -0.613074    38A     -0.611788    39A     -0.604916  
      40A     -0.585666    41A     -0.585104    42A     -0.580198  
      43A     -0.566310    44A     -0.562755    45A     -0.539327  
      46A     -0.536618    47A     -0.498949    48A     -0.498357  
      49A     -0.493245    50A     -0.491220  

    Virtual:                                                              

      51A      0.023069    52A      0.029231    53A      0.036750  
      54A      0.041942    55A      0.060326    56A      0.063958  
      57A      0.079913    58A      0.088132    59A      0.093596  
      60A      0.098898    61A      0.103484    62A      0.107508  
      63A      0.116511    64A      0.118055    65A      0.143033  
      66A      0.144912    67A      0.155491    68A      0.157274  
      69A      0.166860    70A      0.168274    71A      0.183567  
      72A      0.190844    73A      0.196462    74A      0.197104  
      75A      0.205312    76A      0.206816    77A      0.208091  
      78A      0.218443    79A      0.219470    80A      0.229971  
      81A      0.235948    82A      0.240732    83A      0.247128  
      84A      0.247939    85A      0.251006    86A      0.251567  
      87A      0.264414    88A      0.265963    89A      0.272429  
      90A      0.278788    91A      0.282523    92A      0.285188  
      93A      0.289342    94A      0.298892    95A      0.305912  
      96A      0.306525    97A      0.312612    98A      0.314432  
      99A      0.318666   100A      0.329280   101A      0.341596  
     102A      0.346705   103A      0.361212   104A      0.367869  
     105A      0.369039   106A      0.376067   107A      0.378383  
     108A      0.380313   109A      0.394113   110A      0.398070  
     111A      0.404703   112A      0.407681   113A      0.412651  
     114A      0.417706   115A      0.419367   116A      0.420410  
     117A      0.421569   118A      0.437237   119A      0.442616  
     120A      0.445182   121A      0.445691   122A      0.458752  
     123A      0.459944   124A      0.465542   125A      0.472086  
     126A      0.472226   127A      0.481286   128A      0.484823  
     129A      0.500604   130A      0.511374   131A      0.511452  
     132A      0.518621   133A      0.522702   134A      0.530147  
     135A      0.558944   136A      0.564324   137A      0.603297  
     138A      0.608768   139A      0.609807   140A      0.614739  
     141A      0.630618   142A      0.637255   143A      0.639701  
     144A      0.648767   145A      0.657318   146A      0.665559  
     147A      0.676365   148A      0.686619   149A      0.693625  
     150A      0.703908   151A      0.705233   152A      0.724922  
     153A      0.736757   154A      0.752337   155A      0.753868  
     156A      0.763789   157A      0.775564   158A      0.778712  
     159A      0.787975   160A      0.788576   161A      0.797334  
     162A      0.801729   163A      0.810336   164A      0.816817  
     165A      0.827233   166A      0.834953   167A      0.841394  
     168A      0.848723   169A      0.855030   170A      0.864024  
     171A      0.872019   172A      0.878082   173A      0.879467  
     174A      0.886426   175A      0.898865   176A      0.907694  
     177A      0.908089   178A      0.914534   179A      0.935317  
     180A      0.937212   181A      0.940801   182A      0.948092  
     183A      0.964695   184A      0.965015   185A      0.966788  
     186A      0.970116   187A      0.972502   188A      0.986336  
     189A      0.987284   190A      0.989410   191A      0.991950  
     192A      1.008793   193A      1.010205   194A      1.016605  
     195A      1.020148   196A      1.021850   197A      1.026288  
     198A      1.030710   199A      1.038625   200A      1.053037  
     201A      1.054622   202A      1.061408   203A      1.076346  
     204A      1.081016   205A      1.083430   206A      1.087719  
     207A      1.097636   208A      1.101851   209A      1.119459  
     210A      1.119930   211A      1.127967   212A      1.144780  
     213A      1.146290   214A      1.154307   215A      1.173148  
     216A      1.186420   217A      1.192988   218A      1.199357  
     219A      1.200551   220A      1.211318   221A      1.216744  
     222A      1.220675   223A      1.236117   224A      1.238935  
     225A      1.258411   226A      1.260715   227A      1.277931  
     228A      1.280105   229A      1.288104   230A      1.292712  
     231A      1.303912   232A      1.318939   233A      1.322933  
     234A      1.329882   235A      1.339680   236A      1.341980  
     237A      1.348789   238A      1.368588   239A      1.378869  
     240A      1.386137   241A      1.399978   242A      1.418935  
     243A      1.424382   244A      1.431837   245A      1.440531  
     246A      1.451172   247A      1.463327   248A      1.482236  
     249A      1.482884   250A      1.507983   251A      1.510248  
     252A      1.517825   253A      1.520816   254A      1.537862  
     255A      1.545013   256A      1.568577   257A      1.572309  
     258A      1.578046   259A      1.601801   260A      1.612209  
     261A      1.627197   262A      1.653504   263A      1.654228  
     264A      1.660480   265A      1.666395   266A      1.676837  
     267A      1.682849   268A      1.693080   269A      1.704599  
     270A      1.716558   271A      1.725335   272A      1.749610  
     273A      1.759520   274A      1.776615   275A      1.787856  
     276A      1.797874   277A      1.817434   278A      1.822464  
     279A      1.840449   280A      1.860795   281A      1.864031  
     282A      1.879039   283A      1.903862   284A      1.904210  
     285A      1.914760   286A      1.935578   287A      1.938864  
     288A      1.943727   289A      1.951085   290A      1.952112  
     291A      1.974845   292A      1.982582   293A      1.987467  
     294A      2.008990   295A      2.020257   296A      2.032944  
     297A      2.056120   298A      2.062631   299A      2.072077  
     300A      2.079814   301A      2.109607   302A      2.123783  
     303A      2.140155   304A      2.143176   305A      2.157003  
     306A      2.157978   307A      2.168748   308A      2.186130  
     309A      2.213549   310A      2.214932   311A      2.233222  
     312A      2.247750   313A      2.268956   314A      2.279291  
     315A      2.291412   316A      2.313403   317A      2.326731  
     318A      2.330634   319A      2.335362   320A      2.346806  
     321A      2.365892   322A      2.375627   323A      2.380994  
     324A      2.387042   325A      2.402066   326A      2.417723  
     327A      2.429464   328A      2.430648   329A      2.443413  
     330A      2.450219   331A      2.451301   332A      2.459852  
     333A      2.475782   334A      2.476703   335A      2.483317  
     336A      2.492026   337A      2.504842   338A      2.512097  
     339A      2.530328   340A      2.537314   341A      2.546811  
     342A      2.550159   343A      2.558084   344A      2.561949  
     345A      2.578602   346A      2.590354   347A      2.606681  
     348A      2.606909   349A      2.623464   350A      2.623857  
     351A      2.633683   352A      2.662182   353A      2.668084  
     354A      2.669670   355A      2.684582   356A      2.696747  
     357A      2.713529   358A      2.723232   359A      2.728839  
     360A      2.736836   361A      2.750807   362A      2.758471  
     363A      2.767889   364A      2.794114   365A      2.796676  
     366A      2.816031   367A      2.817745   368A      2.835894  
     369A      2.849944   370A      2.868458   371A      2.875379  
     372A      2.887800   373A      2.894541   374A      2.906574  
     375A      2.914475   376A      2.946453   377A      2.948693  
     378A      2.968346   379A      2.974994   380A      2.990659  
     381A      2.996162   382A      3.006059   383A      3.015688  
     384A      3.047374   385A      3.048434   386A      3.066866  
     387A      3.113769   388A      3.138451   389A      3.155201  
     390A      3.180695   391A      3.195692   392A      3.221663  
     393A      3.241781   394A      3.269243   395A      3.307746  
     396A      3.314984   397A      3.319794   398A      3.339391  
     399A      3.358015   400A      3.365783   401A      3.374740  
     402A      3.389454   403A      3.390473   404A      3.393529  
     405A      3.441950   406A      3.464248   407A      3.472669  
     408A      3.489751   409A      3.503549   410A      3.513520  
     411A      3.552053   412A      3.575413   413A      3.577739  
     414A      3.593566   415A      3.643449   416A      3.643975  
     417A      3.699637   418A      3.730409   419A      3.746397  
     420A      3.751304   421A      3.825729   422A      3.837380  
     423A      3.846935   424A      3.853577   425A      3.934013  
     426A      3.941026   427A      4.118980   428A      4.133396  
     429A      4.210723   430A      4.221397   431A      4.239965  
     432A      4.242054   433A      4.279262   434A      4.283415  
     435A      4.338964   436A      4.343011   437A      4.349141  
     438A      4.365693   439A      4.399085   440A      4.424053  
     441A      4.451747   442A      4.454648   443A      4.479130  
     444A      4.495648   445A      4.522796   446A      4.526647  
     447A      4.535474   448A      4.554652   449A      4.592590  
     450A      4.602241   451A      4.636415   452A      4.650804  
     453A      4.660664   454A      4.671278   455A      4.687349  
     456A      4.696155   457A      4.734962   458A      4.741551  
     459A      4.779182   460A      4.786737   461A      4.809934  
     462A      4.814352   463A      4.862775   464A      4.866463  
     465A      4.935239   466A      4.936362   467A      4.959583  
     468A      4.986135   469A      5.019453   470A      5.058061  
     471A      5.085688   472A      5.088602   473A      5.138526  
     474A      5.166762   475A      5.173172   476A      5.206137  
     477A      5.223901   478A      5.234232   479A      5.253554  
     480A      5.267059   481A      5.292086   482A      5.306070  
     483A      5.314665   484A      5.321293   485A      5.352244  
     486A      5.371318   487A      5.587314   488A      5.610270  
     489A      5.709502   490A      5.722523   491A      5.737030  
     492A      5.741028   493A      5.818189   494A      5.848091  
     495A      6.385690   496A      6.397134   497A      6.407928  
     498A      6.419449   499A      6.448292   500A      6.464593  
     501A      6.701833   502A      6.708330   503A      6.725386  
     504A      6.731279   505A      6.732683   506A      6.735008  
     507A      6.748320   508A      6.761086   509A      6.762760  
     510A      6.775384   511A      6.786922   512A      6.799403  
     513A      6.801721   514A      6.804740   515A      6.819955  
     516A      6.820555   517A      6.828264   518A      6.840283  
     519A      6.865015   520A      6.866559   521A      6.871006  
     522A      6.875244   523A      6.880266   524A      6.888368  
     525A      6.903312   526A      6.911162   527A      6.923915  
     528A      6.930695   529A      6.933592   530A      6.939382  
     531A      6.947856   532A      6.954886   533A      6.976565  
     534A      6.990427   535A      7.026860   536A      7.034005  
     537A      7.080138   538A      7.088020   539A      7.104572  
     540A      7.112624   541A      7.115376   542A      7.144433  
     543A      7.169242   544A      7.172841   545A      7.175235  
     546A      7.192742   547A      7.213762   548A      7.235536  
     549A      7.251195   550A      7.265598   551A      7.279661  
     552A      7.282799   553A      7.288147   554A      7.307638  
     555A      7.314524   556A      7.321652   557A      7.340988  
     558A      7.353814   559A      7.372893   560A      7.375779  
     561A      7.387022   562A      7.389708   563A      7.405538  
     564A      7.413381   565A      7.436129   566A      7.450063  
     567A      7.481898   568A      7.488613   569A      7.510058  
     570A      7.520934   571A      7.525983   572A      7.540141  
     573A      7.594624   574A      7.595129   575A      7.636712  
     576A      7.647498   577A      7.691107   578A      7.691858  
     579A      7.718421   580A      7.726358   581A      7.761546  
     582A      7.809865   583A      7.842847   584A      7.845985  
     585A      7.872964   586A      7.908154   587A      7.926528  
     588A      7.937691   589A      8.059932   590A      8.086138  
     591A      8.207766   592A      8.227294   593A      8.246468  
     594A      8.254807   595A      8.272809   596A      8.277418  
     597A     10.739749   598A     10.929567   599A     12.983675  
     600A     13.105553   601A     14.086775   602A     14.093941  
     603A     14.420435   604A     14.512812   605A     14.875935  
     606A     15.120573  

    Final Occupation by Irrep:
              A 
    DOCC [    50 ]

  @DF-RHF Final Energy: -1284.43711814655239

   => Energetics <=

    Nuclear Repulsion Energy =            850.1172986004891072
    One-Electron Energy =               -3469.7925908168358546
    Two-Electron Energy =                1335.2381740697944679
    Total Energy =                      -1284.4371181465523932

Computation Completed


Properties will be evaluated at   0.000000,   0.000000,   0.000000 [a0]

Properties computed using the SCF density matrix

  Nuclear Dipole Moment: [e a0]
     X:     0.0076      Y:    -0.0168      Z:    -0.0031

  Electronic Dipole Moment: [e a0]
     X:    -0.0044      Y:    -0.0014      Z:     0.0042

  Dipole Moment: [e a0]
     X:     0.0033      Y:    -0.0183      Z:     0.0011     Total:     0.0186

  Dipole Moment: [D]
     X:     0.0083      Y:    -0.0464      Z:     0.0028     Total:     0.0473


*** tstop() called on localhost.localdomain at Mon May 30 12:05:05 2022
Module time:
	user time   =     303.84 seconds =       5.06 minutes
	system time =       5.34 seconds =       0.09 minutes
	total time  =         15 seconds =       0.25 minutes
Total time:
	user time   =     303.84 seconds =       5.06 minutes
	system time =       5.34 seconds =       0.09 minutes
	total time  =         15 seconds =       0.25 minutes

*** tstart() called on localhost.localdomain
*** at Mon May 30 12:05:05 2022


  //>>>>>>>>>>>>>>>>>>>>>>>>>>>>>>>>>>>//
  //               DFMP2               //
  //<<<<<<<<<<<<<<<<<<<<<<<<<<<<<<<<<<<//

   => Loading Basis Set <=

    Name: (AUG-CC-PVTZ AUX)
    Role: RIFIT
    Keyword: DF_BASIS_MP2
    atoms 1, 9                     entry P          line   590 file /data0/home/wuhanyu/software/psi4_132/share/psi4/basis/aug-cc-pvtz-ri.gbs 
    atoms 2-3, 5, 7, 10-11, 13, 15 entry O          line   264 file /data0/home/wuhanyu/software/psi4_132/share/psi4/basis/aug-cc-pvtz-ri.gbs 
    atoms 4, 6, 8, 12, 14, 16      entry H          line    30 file /data0/home/wuhanyu/software/psi4_132/share/psi4/basis/aug-cc-pvtz-ri.gbs 

	 --------------------------------------------------------
	                          DF-MP2                         
	      2nd-Order Density-Fitted Moller-Plesset Theory     
	              RMP2 Wavefunction,  24 Threads             
	                                                         
	        Rob Parrish, Justin Turney, Andy Simmonett,      
	           Ed Hohenstein, and C. David Sherrill          
	 --------------------------------------------------------

   => Auxiliary Basis Set <=

  Basis Set: (AUG-CC-PVTZ AUX)
    Blend: AUG-CC-PVTZ-RI
    Number of shells: 382
    Number of basis function: 1418
    Number of Cartesian functions: 1800
    Spherical Harmonics?: true
    Max angular momentum: 4

	 --------------------------------------------------------
	                 NBF =   606, NAUX =  1418
	 --------------------------------------------------------
	   CLASS    FOCC     OCC    AOCC    AVIR     VIR    FVIR
	   PAIRS      18      50      32     556     556       0
	 --------------------------------------------------------

	 Will save fitting metric to file 97.

	-----------------------------------------------------------
	 ==================> DF-MP2 Energies <==================== 
	-----------------------------------------------------------
	 Reference Energy          =   -1284.4371181465523932 [Eh]
	 Singles Energy            =      -0.0000000000000000 [Eh]
	 Same-Spin Energy          =      -0.5968921350270118 [Eh]
	 Opposite-Spin Energy      =      -1.6847927589583982 [Eh]
	 Correlation Energy        =      -2.2816848939854100 [Eh]
	 Total Energy              =   -1286.7188030405377503 [Eh]
	-----------------------------------------------------------
	 ================> DF-SCS-MP2 Energies <================== 
	-----------------------------------------------------------
	 SCS Same-Spin Scale       =       0.3333333333333333 [-]
	 SCS Opposite-Spin Scale   =       1.2000000000000000 [-]
	 SCS Same-Spin Energy      =      -0.1989640450090039 [Eh]
	 SCS Opposite-Spin Energy  =      -2.0217513107500777 [Eh]
	 SCS Correlation Energy    =      -2.2207153557590815 [Eh]
	 SCS Total Energy          =   -1286.6578335023114050 [Eh]
	-----------------------------------------------------------


*** tstop() called on localhost.localdomain at Mon May 30 12:05:11 2022
Module time:
	user time   =      76.35 seconds =       1.27 minutes
	system time =       2.05 seconds =       0.03 minutes
	total time  =          6 seconds =       0.10 minutes
Total time:
	user time   =     380.20 seconds =       6.34 minutes
	system time =       7.39 seconds =       0.12 minutes
	total time  =         21 seconds =       0.35 minutes

  //>>>>>>>>>>>>>>>>>>>>>>>>>>>>>>>>>>>//
  //            Monomer A HF           //
  //<<<<<<<<<<<<<<<<<<<<<<<<<<<<<<<<<<<//


*** tstart() called on localhost.localdomain
*** at Mon May 30 12:05:11 2022

   => Loading Basis Set <=

    Name: AUG-CC-PVTZ
    Role: ORBITAL
    Keyword: BASIS
    atoms 1, 9                     entry P          line   820 file /data0/home/wuhanyu/software/psi4_132/share/psi4/basis/aug-cc-pvtz.gbs 
    atoms 2-3, 5, 7, 10-11, 13, 15 entry O          line   327 file /data0/home/wuhanyu/software/psi4_132/share/psi4/basis/aug-cc-pvtz.gbs 
    atoms 4, 6, 8, 12, 14, 16      entry H          line    36 file /data0/home/wuhanyu/software/psi4_132/share/psi4/basis/aug-cc-pvtz.gbs 


         ---------------------------------------------------------
                                   SCF
               by Justin Turney, Rob Parrish, Andy Simmonett
                          and Daniel G. A. Smith
                              RHF Reference
                       24 Threads,  95367 MiB Core
         ---------------------------------------------------------

  ==> Geometry <==

    Molecular point group: c1
    Full point group: C1

    Geometry (in Angstrom), charge = 0, multiplicity = 1:

       Center              X                  Y                   Z               Mass       
    ------------   -----------------  -----------------  -----------------  -----------------
         P           -1.845209540496     0.258260930204    -1.140066154358    30.973761998420
         O           -1.498209540496    -0.967739069796    -0.436066154358    15.994914619570
         O           -2.803209540496     1.178260930204    -0.270066154358    15.994914619570
         H           -3.081209540496     1.990260930204    -0.838066154358     1.007825032230
         O           -0.669209540496     1.198260930204    -1.653066154358    15.994914619570
         H            0.113790459504     1.165260930204    -0.980066154358     1.007825032230
         O           -2.699209540496     0.110260930204    -2.483066154358    15.994914619570
         H           -2.085209540496    -0.263739069796    -3.214066154358     1.007825032230
      Gh(P)           1.844790459504    -0.258739069796     1.140933845642    30.973761998420
      Gh(O)           1.494790459504     0.971260930204     0.443933845642    15.994914619570
      Gh(O)           0.671790459504    -1.199739069796     1.654933845642    15.994914619570
      Gh(H)          -0.114209540496    -1.165739069796     0.983933845642     1.007825032230
      Gh(O)           2.798790459504    -1.173739069796     0.261933845642    15.994914619570
      Gh(H)           3.083790459504    -1.985739069796     0.825933845642     1.007825032230
      Gh(O)           2.704790459504    -0.114739069796     2.479933845642    15.994914619570
      Gh(H)           2.090790459504     0.241260930204     3.219933845642     1.007825032230

  Running in c1 symmetry.

  Rotational constants: A =      0.07552  B =      0.01375  C =      0.01364 [cm^-1]
  Rotational constants: A =   2264.15462  B =    412.12210  C =    408.84358 [MHz]
  Nuclear repulsion =  280.522939929410597

  Charge       = 0
  Multiplicity = 1
  Electrons    = 50
  Nalpha       = 25
  Nbeta        = 25

  ==> Algorithm <==

  SCF Algorithm Type is DF.
  DIIS enabled.
  MOM disabled.
  Fractional occupation disabled.
  Guess Type is SAD.
  Energy threshold   = 1.00e-08
  Density threshold  = 1.00e-08
  Integral threshold = 0.00e+00

  ==> Primary Basis <==

  Basis Set: AUG-CC-PVTZ
    Blend: AUG-CC-PVTZ
    Number of shells: 198
    Number of basis function: 606
    Number of Cartesian functions: 708
    Spherical Harmonics?: true
    Max angular momentum: 3

   => Loading Basis Set <=

    Name: (AUG-CC-PVTZ AUX)
    Role: JKFIT
    Keyword: DF_BASIS_SCF
    atoms 1, 9                     entry P          line   644 file /data0/home/wuhanyu/software/psi4_132/share/psi4/basis/aug-cc-pvtz-jkfit.gbs 
    atoms 2-3, 5, 7, 10-11, 13, 15 entry O          line   286 file /data0/home/wuhanyu/software/psi4_132/share/psi4/basis/aug-cc-pvtz-jkfit.gbs 
    atoms 4, 6, 8, 12, 14, 16      entry H          line    70 file /data0/home/wuhanyu/software/psi4_132/share/psi4/basis/aug-cc-pvtz-jkfit.gbs 

  ==> Pre-Iterations <==

   -------------------------------------------------------
    Irrep   Nso     Nmo     Nalpha   Nbeta   Ndocc  Nsocc
   -------------------------------------------------------
     A        606     606       0       0       0       0
   -------------------------------------------------------
    Total     606     606      25      25      25       0
   -------------------------------------------------------

  ==> Integral Setup <==

  ==> DiskDFJK: Density-Fitted J/K Matrices <==

    J tasked:                  Yes
    K tasked:                  Yes
    wK tasked:                  No
    OpenMP threads:             24
    Integrals threads:          24
    Memory [MiB]:            71525
    Algorithm:                Core
    Integral Cache:           LOAD
    Schwarz Cutoff:          1E-12
    Fitting Condition:       1E-10

   => Auxiliary Basis Set <=

  Basis Set: (AUG-CC-PVTZ AUX)
    Blend: AUG-CC-PVTZ-JKFIT
    Number of shells: 408
    Number of basis function: 1400
    Number of Cartesian functions: 1738
    Spherical Harmonics?: true
    Max angular momentum: 4

  Minimum eigenvalue in the overlap matrix is 5.6858310264E-05.
  Using Symmetric Orthogonalization.

  SCF Guess: Superposition of Atomic Densities via on-the-fly atomic UHF.

  ==> Iterations <==

                           Total Energy        Delta E     RMS |[F,P]|

   @DF-RHF iter SAD:  -641.42358383471401   -6.41424e+02   0.00000e+00 
   @DF-RHF iter   1:  -641.96055091267203   -5.36967e-01   1.31669e-03 DIIS
   @DF-RHF iter   2:  -642.11659229638383   -1.56041e-01   8.56703e-04 DIIS
   @DF-RHF iter   3:  -642.19971438681387   -8.31221e-02   8.62289e-05 DIIS
   @DF-RHF iter   4:  -642.20114875901504   -1.43437e-03   4.23974e-05 DIIS
   @DF-RHF iter   5:  -642.20143824061199   -2.89482e-04   9.72048e-06 DIIS
   @DF-RHF iter   6:  -642.20146265542030   -2.44148e-05   2.33692e-06 DIIS
   @DF-RHF iter   7:  -642.20146510104428   -2.44562e-06   6.00556e-07 DIIS
   @DF-RHF iter   8:  -642.20146524214488   -1.41101e-07   2.00539e-07 DIIS
   @DF-RHF iter   9:  -642.20146525568771   -1.35428e-08   6.41679e-08 DIIS
   @DF-RHF iter  10:  -642.20146525670373   -1.01602e-09   2.25278e-08 DIIS
   @DF-RHF iter  11:  -642.20146525685664   -1.52909e-10   4.60078e-09 DIIS
  Energy and wave function converged.


  ==> Post-Iterations <==

    Orbital Energies [Eh]
    ---------------------

    Doubly Occupied:                                                      

       1A    -80.109266     2A    -20.630268     3A    -20.618662  
       4A    -20.615362     5A    -20.515544     6A     -7.627632  
       7A     -5.525908     8A     -5.525836     9A     -5.524571  
      10A     -1.466601    11A     -1.390529    12A     -1.381250  
      13A     -1.306385    14A     -0.847953    15A     -0.765825  
      16A     -0.745528    17A     -0.673227    18A     -0.666903  
      19A     -0.616065    20A     -0.591993    21A     -0.582732  
      22A     -0.558141    23A     -0.545493    24A     -0.478755  
      25A     -0.473942  

    Virtual:                                                              

      26A      0.015824    27A      0.028660    28A      0.035366  
      29A      0.043742    30A      0.047511    31A      0.064998  
      32A      0.071730    33A      0.080030    34A      0.082942  
      35A      0.084254    36A      0.097363    37A      0.099584  
      38A      0.107279    39A      0.114101    40A      0.131478  
      41A      0.139594    42A      0.145884    43A      0.151477  
      44A      0.154093    45A      0.167913    46A      0.169812  
      47A      0.175199    48A      0.185910    49A      0.189964  
      50A      0.193707    51A      0.194875    52A      0.204100  
      53A      0.206046    54A      0.209867    55A      0.219621  
      56A      0.220732    57A      0.223540    58A      0.230375  
      59A      0.236744    60A      0.242613    61A      0.250482  
      62A      0.258729    63A      0.262979    64A      0.267369  
      65A      0.272539    66A      0.275282    67A      0.282601  
      68A      0.286311    69A      0.291068    70A      0.299681  
      71A      0.308867    72A      0.313429    73A      0.320198  
      74A      0.323920    75A      0.332676    76A      0.340040  
      77A      0.353925    78A      0.361067    79A      0.366091  
      80A      0.368955    81A      0.372265    82A      0.375244  
      83A      0.384575    84A      0.392512    85A      0.398012  
      86A      0.405646    87A      0.410646    88A      0.410814  
      89A      0.417926    90A      0.422694    91A      0.425694  
      92A      0.427321    93A      0.436595    94A      0.445028  
      95A      0.446831    96A      0.453370    97A      0.461723  
      98A      0.467516    99A      0.472908   100A      0.482006  
     101A      0.486552   102A      0.491652   103A      0.498063  
     104A      0.505371   105A      0.514437   106A      0.520959  
     107A      0.524238   108A      0.541525   109A      0.551392  
     110A      0.571543   111A      0.581851   112A      0.599704  
     113A      0.612725   114A      0.620671   115A      0.634792  
     116A      0.646939   117A      0.657017   118A      0.664602  
     119A      0.674704   120A      0.680528   121A      0.699272  
     122A      0.710053   123A      0.717473   124A      0.723186  
     125A      0.741670   126A      0.751773   127A      0.759084  
     128A      0.762019   129A      0.765299   130A      0.777360  
     131A      0.785899   132A      0.789645   133A      0.797291  
     134A      0.805273   135A      0.806455   136A      0.816498  
     137A      0.825478   138A      0.830045   139A      0.834720  
     140A      0.846912   141A      0.849588   142A      0.855470  
     143A      0.856350   144A      0.869603   145A      0.883081  
     146A      0.887982   147A      0.891817   148A      0.898990  
     149A      0.910922   150A      0.918740   151A      0.921833  
     152A      0.925137   153A      0.931027   154A      0.944154  
     155A      0.944413   156A      0.949516   157A      0.952861  
     158A      0.960522   159A      0.968491   160A      0.972050  
     161A      0.974065   162A      0.980523   163A      0.986309  
     164A      0.992215   165A      0.995108   166A      1.003055  
     167A      1.008767   168A      1.016810   169A      1.024699  
     170A      1.030204   171A      1.031942   172A      1.038468  
     173A      1.044468   174A      1.052085   175A      1.057565  
     176A      1.073563   177A      1.075737   178A      1.084481  
     179A      1.094281   180A      1.108657   181A      1.118465  
     182A      1.124699   183A      1.132702   184A      1.134894  
     185A      1.142795   186A      1.151158   187A      1.152367  
     188A      1.161528   189A      1.164860   190A      1.179813  
     191A      1.186451   192A      1.206374   193A      1.219773  
     194A      1.231473   195A      1.238300   196A      1.249865  
     197A      1.252979   198A      1.258034   199A      1.263588  
     200A      1.281622   201A      1.285954   202A      1.289737  
     203A      1.304666   204A      1.310983   205A      1.330702  
     206A      1.337197   207A      1.341610   208A      1.359062  
     209A      1.364651   210A      1.377471   211A      1.389227  
     212A      1.395511   213A      1.396531   214A      1.408958  
     215A      1.424964   216A      1.432163   217A      1.438568  
     218A      1.441717   219A      1.453169   220A      1.465831  
     221A      1.481327   222A      1.492459   223A      1.495713  
     224A      1.505983   225A      1.519186   226A      1.523395  
     227A      1.533153   228A      1.547055   229A      1.559142  
     230A      1.559799   231A      1.579561   232A      1.595298  
     233A      1.608917   234A      1.627874   235A      1.634134  
     236A      1.643026   237A      1.661048   238A      1.671233  
     239A      1.685901   240A      1.688258   241A      1.701909  
     242A      1.709204   243A      1.731186   244A      1.740100  
     245A      1.742236   246A      1.753812   247A      1.774637  
     248A      1.786411   249A      1.803015   250A      1.818151  
     251A      1.828784   252A      1.846853   253A      1.869878  
     254A      1.879846   255A      1.883941   256A      1.897433  
     257A      1.925937   258A      1.930351   259A      1.941884  
     260A      1.947458   261A      1.961338   262A      1.969973  
     263A      1.973449   264A      1.989339   265A      1.996182  
     266A      2.020593   267A      2.021479   268A      2.055327  
     269A      2.077113   270A      2.086234   271A      2.091516  
     272A      2.100504   273A      2.123030   274A      2.145839  
     275A      2.161605   276A      2.169636   277A      2.215094  
     278A      2.220905   279A      2.237242   280A      2.285311  
     281A      2.303311   282A      2.316787   283A      2.341882  
     284A      2.352641   285A      2.372960   286A      2.375460  
     287A      2.393702   288A      2.413540   289A      2.432921  
     290A      2.436360   291A      2.445259   292A      2.448045  
     293A      2.462825   294A      2.467542   295A      2.473222  
     296A      2.489005   297A      2.494068   298A      2.507228  
     299A      2.509427   300A      2.524448   301A      2.531541  
     302A      2.537585   303A      2.551620   304A      2.558480  
     305A      2.576576   306A      2.579537   307A      2.589734  
     308A      2.594768   309A      2.603166   310A      2.608328  
     311A      2.617606   312A      2.631589   313A      2.645192  
     314A      2.653989   315A      2.668725   316A      2.679825  
     317A      2.690594   318A      2.698734   319A      2.711887  
     320A      2.715643   321A      2.722571   322A      2.738599  
     323A      2.741815   324A      2.756604   325A      2.759500  
     326A      2.767759   327A      2.780013   328A      2.790697  
     329A      2.801230   330A      2.808513   331A      2.815032  
     332A      2.821353   333A      2.831847   334A      2.838694  
     335A      2.855535   336A      2.865680   337A      2.874973  
     338A      2.883137   339A      2.895914   340A      2.907430  
     341A      2.918878   342A      2.926582   343A      2.932578  
     344A      2.938536   345A      2.976568   346A      2.985598  
     347A      2.999946   348A      3.005065   349A      3.016303  
     350A      3.024216   351A      3.027939   352A      3.060958  
     353A      3.077992   354A      3.091723   355A      3.110571  
     356A      3.122020   357A      3.140440   358A      3.156263  
     359A      3.174078   360A      3.184626   361A      3.198370  
     362A      3.206388   363A      3.222241   364A      3.236003  
     365A      3.242524   366A      3.262539   367A      3.272968  
     368A      3.298507   369A      3.306333   370A      3.311439  
     371A      3.349685   372A      3.352346   373A      3.361786  
     374A      3.366183   375A      3.381905   376A      3.393247  
     377A      3.405570   378A      3.438376   379A      3.451820  
     380A      3.462526   381A      3.469793   382A      3.494123  
     383A      3.498174   384A      3.500626   385A      3.533712  
     386A      3.557674   387A      3.568371   388A      3.588522  
     389A      3.612877   390A      3.652640   391A      3.682714  
     392A      3.703103   393A      3.732818   394A      3.750807  
     395A      3.760886   396A      3.821056   397A      3.828728  
     398A      3.850879   399A      3.887404   400A      3.961828  
     401A      3.984582   402A      4.036478   403A      4.057745  
     404A      4.078373   405A      4.106002   406A      4.131523  
     407A      4.202168   408A      4.215306   409A      4.240701  
     410A      4.255774   411A      4.275841   412A      4.313045  
     413A      4.339371   414A      4.353984   415A      4.386827  
     416A      4.404635   417A      4.427896   418A      4.460195  
     419A      4.466058   420A      4.475558   421A      4.500574  
     422A      4.522712   423A      4.531900   424A      4.544584  
     425A      4.550294   426A      4.591543   427A      4.610872  
     428A      4.629236   429A      4.648298   430A      4.668279  
     431A      4.677690   432A      4.695023   433A      4.742562  
     434A      4.775014   435A      4.783013   436A      4.809393  
     437A      4.848761   438A      4.880595   439A      4.926034  
     440A      4.939295   441A      4.975492   442A      5.006864  
     443A      5.013499   444A      5.032167   445A      5.051816  
     446A      5.067265   447A      5.100946   448A      5.113519  
     449A      5.118009   450A      5.156211   451A      5.182568  
     452A      5.191125   453A      5.225010   454A      5.242012  
     455A      5.284418   456A      5.315147   457A      5.334337  
     458A      5.348039   459A      5.389958   460A      5.434048  
     461A      5.516668   462A      5.570780   463A      5.580210  
     464A      5.599094   465A      5.653566   466A      5.717430  
     467A      5.731055   468A      5.814383   469A      5.840569  
     470A      5.885111   471A      6.098129   472A      6.325608  
     473A      6.351993   474A      6.392586   475A      6.411532  
     476A      6.414401   477A      6.457167   478A      6.579686  
     479A      6.607323   480A      6.714076   481A      6.720743  
     482A      6.737378   483A      6.745148   484A      6.753151  
     485A      6.776510   486A      6.800474   487A      6.807795  
     488A      6.813879   489A      6.839837   490A      6.866882  
     491A      6.881368   492A      6.886623   493A      6.911113  
     494A      6.946886   495A      6.961070   496A      6.970428  
     497A      6.998215   498A      7.043733   499A      7.097480  
     500A      7.109187   501A      7.121835   502A      7.174516  
     503A      7.189214   504A      7.225654   505A      7.257492  
     506A      7.283833   507A      7.309003   508A      7.316307  
     509A      7.356591   510A      7.373766   511A      7.382738  
     512A      7.409727   513A      7.423162   514A      7.480896  
     515A      7.495642   516A      7.513561   517A      7.591496  
     518A      7.622306   519A      7.637071   520A      7.677756  
     521A      7.689332   522A      7.723215   523A      7.744671  
     524A      7.753678   525A      7.756962   526A      7.770501  
     527A      7.788032   528A      7.799340   529A      7.804099  
     530A      7.836258   531A      7.840805   532A      7.855320  
     533A      7.872656   534A      7.875853   535A      7.891436  
     536A      7.898838   537A      7.926035   538A      7.933096  
     539A      7.939468   540A      7.979138   541A      8.001246  
     542A      8.026615   543A      8.042475   544A      8.076585  
     545A      8.131002   546A      8.152020   547A      8.201379  
     548A      8.221461   549A      8.249990   550A      8.275101  
     551A      8.321246   552A      8.349344   553A      8.456437  
     554A      8.509685   555A      8.520972   556A      8.649673  
     557A      9.600987   558A      9.728134   559A      9.776843  
     560A      9.831690   561A      9.865099   562A      9.877985  
     563A      9.928179   564A      9.932658   565A     10.006962  
     566A     10.094574   567A     10.118699   568A     10.132666  
     569A     10.176532   570A     10.230958   571A     10.264925  
     572A     10.349244   573A     10.395901   574A     10.611826  
     575A     10.680803   576A     10.751681   577A     10.847500  
     578A     10.938490   579A     11.405345   580A     11.496783  
     581A     11.599368   582A     11.621683   583A     11.743208  
     584A     11.825866   585A     11.884495   586A     11.987096  
     587A     12.345832   588A     12.588751   589A     12.622461  
     590A     13.003088   591A     13.209551   592A     13.709673  
     593A     13.806283   594A     14.022367   595A     14.083506  
     596A     14.434009   597A     14.954515   598A     18.225059  
     599A     23.111588   600A     23.190186   601A     23.514162  
     602A     60.808213   603A     62.326887   604A     63.081387  
     605A     64.348515   606A    123.922236  

    Final Occupation by Irrep:
              A 
    DOCC [    25 ]

  @DF-RHF Final Energy:  -642.20146525685664

   => Energetics <=

    Nuclear Repulsion Energy =            280.5229399294105974
    One-Electron Energy =               -1445.8800618538282379
    Two-Electron Energy =                 523.1556566675610611
    Total Energy =                       -642.2014652568566362

Computation Completed


Properties will be evaluated at   0.000000,   0.000000,   0.000000 [a0]

Properties computed using the SCF density matrix

  Nuclear Dipole Moment: [e a0]
     X:  -177.8033      Y:    35.7499      Z:  -115.0301

  Electronic Dipole Moment: [e a0]
     X:   178.3245      Y:   -34.4471      Z:   114.0386

  Dipole Moment: [e a0]
     X:     0.5212      Y:     1.3028      Z:    -0.9915     Total:     1.7181

  Dipole Moment: [D]
     X:     1.3248      Y:     3.3115      Z:    -2.5200     Total:     4.3671


*** tstop() called on localhost.localdomain at Mon May 30 12:05:20 2022
Module time:
	user time   =     172.29 seconds =       2.87 minutes
	system time =       2.82 seconds =       0.05 minutes
	total time  =          9 seconds =       0.15 minutes
Total time:
	user time   =     552.60 seconds =       9.21 minutes
	system time =      10.22 seconds =       0.17 minutes
	total time  =         30 seconds =       0.50 minutes

*** tstart() called on localhost.localdomain
*** at Mon May 30 12:05:20 2022


  //>>>>>>>>>>>>>>>>>>>>>>>>>>>>>>>>>>>//
  //               DFMP2               //
  //<<<<<<<<<<<<<<<<<<<<<<<<<<<<<<<<<<<//

   => Loading Basis Set <=

    Name: (AUG-CC-PVTZ AUX)
    Role: RIFIT
    Keyword: DF_BASIS_MP2
    atoms 1, 9                     entry P          line   590 file /data0/home/wuhanyu/software/psi4_132/share/psi4/basis/aug-cc-pvtz-ri.gbs 
    atoms 2-3, 5, 7, 10-11, 13, 15 entry O          line   264 file /data0/home/wuhanyu/software/psi4_132/share/psi4/basis/aug-cc-pvtz-ri.gbs 
    atoms 4, 6, 8, 12, 14, 16      entry H          line    30 file /data0/home/wuhanyu/software/psi4_132/share/psi4/basis/aug-cc-pvtz-ri.gbs 

	 --------------------------------------------------------
	                          DF-MP2                         
	      2nd-Order Density-Fitted Moller-Plesset Theory     
	              RMP2 Wavefunction,  24 Threads             
	                                                         
	        Rob Parrish, Justin Turney, Andy Simmonett,      
	           Ed Hohenstein, and C. David Sherrill          
	 --------------------------------------------------------

   => Auxiliary Basis Set <=

  Basis Set: (AUG-CC-PVTZ AUX)
    Blend: AUG-CC-PVTZ-RI
    Number of shells: 382
    Number of basis function: 1418
    Number of Cartesian functions: 1800
    Spherical Harmonics?: true
    Max angular momentum: 4

	 --------------------------------------------------------
	                 NBF =   606, NAUX =  1418
	 --------------------------------------------------------
	   CLASS    FOCC     OCC    AOCC    AVIR     VIR    FVIR
	   PAIRS       9      25      16     581     581       0
	 --------------------------------------------------------

	 Will attempt to load fitting metric from file 97.

	-----------------------------------------------------------
	 ==================> DF-MP2 Energies <==================== 
	-----------------------------------------------------------
	 Reference Energy          =    -642.2014652568566362 [Eh]
	 Singles Energy            =      -0.0000000000000000 [Eh]
	 Same-Spin Energy          =      -0.2972172495348293 [Eh]
	 Opposite-Spin Energy      =      -0.8427080601730803 [Eh]
	 Correlation Energy        =      -1.1399253097079096 [Eh]
	 Total Energy              =    -643.3413905665645416 [Eh]
	-----------------------------------------------------------
	 ================> DF-SCS-MP2 Energies <================== 
	-----------------------------------------------------------
	 SCS Same-Spin Scale       =       0.3333333333333333 [-]
	 SCS Opposite-Spin Scale   =       1.2000000000000000 [-]
	 SCS Same-Spin Energy      =      -0.0990724165116098 [Eh]
	 SCS Opposite-Spin Energy  =      -1.0112496722076962 [Eh]
	 SCS Correlation Energy    =      -1.1103220887193059 [Eh]
	 SCS Total Energy          =    -643.3117873455759081 [Eh]
	-----------------------------------------------------------


*** tstop() called on localhost.localdomain at Mon May 30 12:05:24 2022
Module time:
	user time   =      57.54 seconds =       0.96 minutes
	system time =       1.32 seconds =       0.02 minutes
	total time  =          4 seconds =       0.07 minutes
Total time:
	user time   =     610.14 seconds =      10.17 minutes
	system time =      11.54 seconds =       0.19 minutes
	total time  =         34 seconds =       0.57 minutes

  //>>>>>>>>>>>>>>>>>>>>>>>>>>>>>>>>>>>//
  //            Monomer B HF           //
  //<<<<<<<<<<<<<<<<<<<<<<<<<<<<<<<<<<<//


*** tstart() called on localhost.localdomain
*** at Mon May 30 12:05:24 2022

   => Loading Basis Set <=

    Name: AUG-CC-PVTZ
    Role: ORBITAL
    Keyword: BASIS
    atoms 1, 9                     entry P          line   820 file /data0/home/wuhanyu/software/psi4_132/share/psi4/basis/aug-cc-pvtz.gbs 
    atoms 2-3, 5, 7, 10-11, 13, 15 entry O          line   327 file /data0/home/wuhanyu/software/psi4_132/share/psi4/basis/aug-cc-pvtz.gbs 
    atoms 4, 6, 8, 12, 14, 16      entry H          line    36 file /data0/home/wuhanyu/software/psi4_132/share/psi4/basis/aug-cc-pvtz.gbs 


         ---------------------------------------------------------
                                   SCF
               by Justin Turney, Rob Parrish, Andy Simmonett
                          and Daniel G. A. Smith
                              RHF Reference
                       24 Threads,  95367 MiB Core
         ---------------------------------------------------------

  ==> Geometry <==

    Molecular point group: c1
    Full point group: C1

    Geometry (in Angstrom), charge = 0, multiplicity = 1:

       Center              X                  Y                   Z               Mass       
    ------------   -----------------  -----------------  -----------------  -----------------
      Gh(P)          -1.845209540496     0.258260930204    -1.140066154358    30.973761998420
      Gh(O)          -1.498209540496    -0.967739069796    -0.436066154358    15.994914619570
      Gh(O)          -2.803209540496     1.178260930204    -0.270066154358    15.994914619570
      Gh(H)          -3.081209540496     1.990260930204    -0.838066154358     1.007825032230
      Gh(O)          -0.669209540496     1.198260930204    -1.653066154358    15.994914619570
      Gh(H)           0.113790459504     1.165260930204    -0.980066154358     1.007825032230
      Gh(O)          -2.699209540496     0.110260930204    -2.483066154358    15.994914619570
      Gh(H)          -2.085209540496    -0.263739069796    -3.214066154358     1.007825032230
         P            1.844790459504    -0.258739069796     1.140933845642    30.973761998420
         O            1.494790459504     0.971260930204     0.443933845642    15.994914619570
         O            0.671790459504    -1.199739069796     1.654933845642    15.994914619570
         H           -0.114209540496    -1.165739069796     0.983933845642     1.007825032230
         O            2.798790459504    -1.173739069796     0.261933845642    15.994914619570
         H            3.083790459504    -1.985739069796     0.825933845642     1.007825032230
         O            2.704790459504    -0.114739069796     2.479933845642    15.994914619570
         H            2.090790459504     0.241260930204     3.219933845642     1.007825032230

  Running in c1 symmetry.

  Rotational constants: A =      0.07552  B =      0.01375  C =      0.01364 [cm^-1]
  Rotational constants: A =   2264.15462  B =    412.12210  C =    408.84358 [MHz]
  Nuclear repulsion =  280.568179981838625

  Charge       = 0
  Multiplicity = 1
  Electrons    = 50
  Nalpha       = 25
  Nbeta        = 25

  ==> Algorithm <==

  SCF Algorithm Type is DF.
  DIIS enabled.
  MOM disabled.
  Fractional occupation disabled.
  Guess Type is SAD.
  Energy threshold   = 1.00e-08
  Density threshold  = 1.00e-08
  Integral threshold = 0.00e+00

  ==> Primary Basis <==

  Basis Set: AUG-CC-PVTZ
    Blend: AUG-CC-PVTZ
    Number of shells: 198
    Number of basis function: 606
    Number of Cartesian functions: 708
    Spherical Harmonics?: true
    Max angular momentum: 3

   => Loading Basis Set <=

    Name: (AUG-CC-PVTZ AUX)
    Role: JKFIT
    Keyword: DF_BASIS_SCF
    atoms 1, 9                     entry P          line   644 file /data0/home/wuhanyu/software/psi4_132/share/psi4/basis/aug-cc-pvtz-jkfit.gbs 
    atoms 2-3, 5, 7, 10-11, 13, 15 entry O          line   286 file /data0/home/wuhanyu/software/psi4_132/share/psi4/basis/aug-cc-pvtz-jkfit.gbs 
    atoms 4, 6, 8, 12, 14, 16      entry H          line    70 file /data0/home/wuhanyu/software/psi4_132/share/psi4/basis/aug-cc-pvtz-jkfit.gbs 

  ==> Pre-Iterations <==

   -------------------------------------------------------
    Irrep   Nso     Nmo     Nalpha   Nbeta   Ndocc  Nsocc
   -------------------------------------------------------
     A        606     606       0       0       0       0
   -------------------------------------------------------
    Total     606     606      25      25      25       0
   -------------------------------------------------------

  ==> Integral Setup <==

  ==> DiskDFJK: Density-Fitted J/K Matrices <==

    J tasked:                  Yes
    K tasked:                  Yes
    wK tasked:                  No
    OpenMP threads:             24
    Integrals threads:          24
    Memory [MiB]:            71525
    Algorithm:                Core
    Integral Cache:           LOAD
    Schwarz Cutoff:          1E-12
    Fitting Condition:       1E-10

   => Auxiliary Basis Set <=

  Basis Set: (AUG-CC-PVTZ AUX)
    Blend: AUG-CC-PVTZ-JKFIT
    Number of shells: 408
    Number of basis function: 1400
    Number of Cartesian functions: 1738
    Spherical Harmonics?: true
    Max angular momentum: 4

  Minimum eigenvalue in the overlap matrix is 5.6858310264E-05.
  Using Symmetric Orthogonalization.

  SCF Guess: Superposition of Atomic Densities via on-the-fly atomic UHF.

  ==> Iterations <==

                           Total Energy        Delta E     RMS |[F,P]|

   @DF-RHF iter SAD:  -641.42546065793135   -6.41425e+02   0.00000e+00 
   @DF-RHF iter   1:  -641.96029427873793   -5.34834e-01   1.31681e-03 DIIS
   @DF-RHF iter   2:  -642.11637197336961   -1.56078e-01   8.56985e-04 DIIS
   @DF-RHF iter   3:  -642.19956478717882   -8.31928e-02   8.64604e-05 DIIS
   @DF-RHF iter   4:  -642.20100262816823   -1.43784e-03   4.25393e-05 DIIS
   @DF-RHF iter   5:  -642.20129406098260   -2.91433e-04   9.71438e-06 DIIS
   @DF-RHF iter   6:  -642.20131850214659   -2.44412e-05   2.33768e-06 DIIS
   @DF-RHF iter   7:  -642.20132095149347   -2.44935e-06   6.01041e-07 DIIS
   @DF-RHF iter   8:  -642.20132109290580   -1.41412e-07   2.00766e-07 DIIS
   @DF-RHF iter   9:  -642.20132110648422   -1.35784e-08   6.42051e-08 DIIS
   @DF-RHF iter  10:  -642.20132110750126   -1.01704e-09   2.25595e-08 DIIS
   @DF-RHF iter  11:  -642.20132110765394   -1.52681e-10   4.60299e-09 DIIS
  Energy and wave function converged.


  ==> Post-Iterations <==

    Orbital Energies [Eh]
    ---------------------

    Doubly Occupied:                                                      

       1A    -80.109121     2A    -20.630587     3A    -20.618614  
       4A    -20.615368     5A    -20.515100     6A     -7.627504  
       7A     -5.525785     8A     -5.525717     9A     -5.524428  
      10A     -1.466899    11A     -1.390822    12A     -1.381387  
      13A     -1.305700    14A     -0.848031    15A     -0.766134  
      16A     -0.745855    17A     -0.673231    18A     -0.667115  
      19A     -0.616003    20A     -0.592470    21A     -0.582671  
      22A     -0.557679    23A     -0.545813    24A     -0.478190  
      25A     -0.473406  

    Virtual:                                                              

      26A      0.015765    27A      0.028610    28A      0.035389  
      29A      0.043705    30A      0.047494    31A      0.065027  
      32A      0.071716    33A      0.080003    34A      0.082950  
      35A      0.084258    36A      0.097426    37A      0.099543  
      38A      0.107231    39A      0.114176    40A      0.131502  
      41A      0.139519    42A      0.145878    43A      0.151496  
      44A      0.154096    45A      0.167800    46A      0.169774  
      47A      0.175173    48A      0.185997    49A      0.189878  
      50A      0.193710    51A      0.194712    52A      0.204213  
      53A      0.206278    54A      0.209879    55A      0.219621  
      56A      0.220777    57A      0.223491    58A      0.230409  
      59A      0.236699    60A      0.242396    61A      0.250652  
      62A      0.258796    63A      0.262776    64A      0.267420  
      65A      0.272333    66A      0.275238    67A      0.282889  
      68A      0.286275    69A      0.291430    70A      0.299792  
      71A      0.308960    72A      0.313244    73A      0.320080  
      74A      0.324086    75A      0.332842    76A      0.340067  
      77A      0.353837    78A      0.361049    79A      0.366191  
      80A      0.368960    81A      0.372476    82A      0.375454  
      83A      0.384492    84A      0.392372    85A      0.398048  
      86A      0.405797    87A      0.410498    88A      0.410855  
      89A      0.417744    90A      0.422483    91A      0.425736  
      92A      0.427181    93A      0.436968    94A      0.445197  
      95A      0.446910    96A      0.453347    97A      0.461599  
      98A      0.467440    99A      0.473437   100A      0.481746  
     101A      0.486213   102A      0.491519   103A      0.498390  
     104A      0.505516   105A      0.514573   106A      0.521058  
     107A      0.524187   108A      0.541768   109A      0.551043  
     110A      0.571824   111A      0.581852   112A      0.599408  
     113A      0.612964   114A      0.620601   115A      0.634905  
     116A      0.647048   117A      0.657122   118A      0.664141  
     119A      0.674398   120A      0.680468   121A      0.699368  
     122A      0.710627   123A      0.717696   124A      0.722572  
     125A      0.742081   126A      0.752047   127A      0.759156  
     128A      0.762202   129A      0.765590   130A      0.777638  
     131A      0.785958   132A      0.789553   133A      0.796723  
     134A      0.804452   135A      0.806733   136A      0.817050  
     137A      0.825610   138A      0.830452   139A      0.834969  
     140A      0.846786   141A      0.849930   142A      0.855083  
     143A      0.856578   144A      0.869607   145A      0.882860  
     146A      0.887880   147A      0.891957   148A      0.898726  
     149A      0.911016   150A      0.918529   151A      0.921498  
     152A      0.925240   153A      0.931265   154A      0.944014  
     155A      0.944187   156A      0.949666   157A      0.952822  
     158A      0.960380   159A      0.968674   160A      0.972548  
     161A      0.973681   162A      0.980518   163A      0.986123  
     164A      0.992560   165A      0.994982   166A      1.003495  
     167A      1.008925   168A      1.016217   169A      1.024240  
     170A      1.029849   171A      1.031873   172A      1.038394  
     173A      1.044343   174A      1.052086   175A      1.057944  
     176A      1.073162   177A      1.075369   178A      1.085259  
     179A      1.094020   180A      1.108305   181A      1.118354  
     182A      1.124514   183A      1.132336   184A      1.135178  
     185A      1.142865   186A      1.151287   187A      1.153218  
     188A      1.161467   189A      1.165129   190A      1.180126  
     191A      1.187195   192A      1.206312   193A      1.220002  
     194A      1.232044   195A      1.237716   196A      1.249933  
     197A      1.252843   198A      1.257457   199A      1.263251  
     200A      1.281577   201A      1.285950   202A      1.290192  
     203A      1.304412   204A      1.311703   205A      1.330022  
     206A      1.336541   207A      1.342743   208A      1.359522  
     209A      1.365083   210A      1.377336   211A      1.389932  
     212A      1.395133   213A      1.396205   214A      1.410109  
     215A      1.424436   216A      1.432106   217A      1.438192  
     218A      1.442724   219A      1.453385   220A      1.466036  
     221A      1.481153   222A      1.491935   223A      1.495161  
     224A      1.506381   225A      1.518451   226A      1.522802  
     227A      1.533292   228A      1.547073   229A      1.559252  
     230A      1.560047   231A      1.579808   232A      1.594659  
     233A      1.608243   234A      1.627906   235A      1.634912  
     236A      1.643094   237A      1.662249   238A      1.670828  
     239A      1.686638   240A      1.688382   241A      1.701504  
     242A      1.708223   243A      1.731061   244A      1.739927  
     245A      1.742156   246A      1.753205   247A      1.774817  
     248A      1.786134   249A      1.801512   250A      1.818881  
     251A      1.828685   252A      1.848056   253A      1.869758  
     254A      1.879463   255A      1.883701   256A      1.897445  
     257A      1.925902   258A      1.931375   259A      1.941647  
     260A      1.947673   261A      1.960662   262A      1.970338  
     263A      1.973948   264A      1.989648   265A      1.995953  
     266A      2.020870   267A      2.022464   268A      2.055091  
     269A      2.076044   270A      2.086833   271A      2.092946  
     272A      2.100739   273A      2.122860   274A      2.145954  
     275A      2.161564   276A      2.169384   277A      2.214740  
     278A      2.221319   279A      2.236015   280A      2.283840  
     281A      2.304057   282A      2.317760   283A      2.341506  
     284A      2.351886   285A      2.372594   286A      2.375735  
     287A      2.393076   288A      2.413280   289A      2.432705  
     290A      2.436400   291A      2.444713   292A      2.447733  
     293A      2.462979   294A      2.468597   295A      2.474228  
     296A      2.489009   297A      2.494933   298A      2.506610  
     299A      2.509381   300A      2.524837   301A      2.531538  
     302A      2.537849   303A      2.551701   304A      2.557971  
     305A      2.576897   306A      2.578751   307A      2.589387  
     308A      2.595305   309A      2.602121   310A      2.609281  
     311A      2.618160   312A      2.631770   313A      2.645316  
     314A      2.654488   315A      2.667964   316A      2.679916  
     317A      2.690329   318A      2.698606   319A      2.711825  
     320A      2.715843   321A      2.722467   322A      2.738582  
     323A      2.741480   324A      2.756248   325A      2.758560  
     326A      2.769118   327A      2.779072   328A      2.790759  
     329A      2.801700   330A      2.808419   331A      2.815435  
     332A      2.821493   333A      2.831421   334A      2.838219  
     335A      2.855466   336A      2.866130   337A      2.875342  
     338A      2.883599   339A      2.896361   340A      2.907436  
     341A      2.918477   342A      2.927691   343A      2.933030  
     344A      2.938617   345A      2.976584   346A      2.986789  
     347A      3.000395   348A      3.004836   349A      3.016508  
     350A      3.022553   351A      3.028161   352A      3.061225  
     353A      3.078383   354A      3.092578   355A      3.109871  
     356A      3.121988   357A      3.140647   358A      3.156439  
     359A      3.174223   360A      3.184388   361A      3.199140  
     362A      3.206783   363A      3.221968   364A      3.236090  
     365A      3.243159   366A      3.262027   367A      3.272430  
     368A      3.298197   369A      3.305950   370A      3.310742  
     371A      3.349922   372A      3.352817   373A      3.361820  
     374A      3.366316   375A      3.381658   376A      3.393422  
     377A      3.406068   378A      3.439128   379A      3.451111  
     380A      3.462619   381A      3.470006   382A      3.494126  
     383A      3.499378   384A      3.500878   385A      3.533434  
     386A      3.558436   387A      3.569589   388A      3.589624  
     389A      3.612498   390A      3.652330   391A      3.682591  
     392A      3.703246   393A      3.732201   394A      3.750538  
     395A      3.760309   396A      3.821022   397A      3.828014  
     398A      3.852935   399A      3.887004   400A      3.960840  
     401A      3.983260   402A      4.036297   403A      4.057364  
     404A      4.076500   405A      4.104791   406A      4.131128  
     407A      4.201417   408A      4.215922   409A      4.239797  
     410A      4.255474   411A      4.276017   412A      4.314294  
     413A      4.339240   414A      4.353811   415A      4.385446  
     416A      4.403101   417A      4.426604   418A      4.459885  
     419A      4.466422   420A      4.477316   421A      4.500841  
     422A      4.523229   423A      4.533240   424A      4.545966  
     425A      4.550562   426A      4.591319   427A      4.610431  
     428A      4.628697   429A      4.646492   430A      4.667232  
     431A      4.678320   432A      4.695796   433A      4.741703  
     434A      4.775473   435A      4.783629   436A      4.809850  
     437A      4.847565   438A      4.879770   439A      4.925360  
     440A      4.940169   441A      4.975130   442A      5.006515  
     443A      5.012777   444A      5.032181   445A      5.052213  
     446A      5.067081   447A      5.100720   448A      5.112930  
     449A      5.119309   450A      5.156344   451A      5.182600  
     452A      5.190069   453A      5.224136   454A      5.242633  
     455A      5.283718   456A      5.315970   457A      5.336092  
     458A      5.346908   459A      5.389804   460A      5.433772  
     461A      5.515855   462A      5.569784   463A      5.581825  
     464A      5.599720   465A      5.656062   466A      5.715828  
     467A      5.731022   468A      5.813580   469A      5.838687  
     470A      5.885057   471A      6.098804   472A      6.324505  
     473A      6.351004   474A      6.392309   475A      6.412136  
     476A      6.414108   477A      6.457853   478A      6.579134  
     479A      6.607765   480A      6.715794   481A      6.721480  
     482A      6.736652   483A      6.744655   484A      6.753766  
     485A      6.776402   486A      6.800138   487A      6.808563  
     488A      6.813904   489A      6.840324   490A      6.866979  
     491A      6.881605   492A      6.887032   493A      6.910400  
     494A      6.947350   495A      6.961067   496A      6.970166  
     497A      6.998876   498A      7.043409   499A      7.097738  
     500A      7.109518   501A      7.120445   502A      7.174215  
     503A      7.189338   504A      7.225975   505A      7.257444  
     506A      7.283720   507A      7.308789   508A      7.316172  
     509A      7.356651   510A      7.373296   511A      7.382734  
     512A      7.410479   513A      7.422841   514A      7.480833  
     515A      7.495265   516A      7.512736   517A      7.591945  
     518A      7.623952   519A      7.638147   520A      7.677190  
     521A      7.689421   522A      7.723448   523A      7.745469  
     524A      7.753792   525A      7.756837   526A      7.770739  
     527A      7.788299   528A      7.799716   529A      7.804106  
     530A      7.835345   531A      7.840033   532A      7.855312  
     533A      7.872411   534A      7.875440   535A      7.892141  
     536A      7.898593   537A      7.926248   538A      7.933303  
     539A      7.938979   540A      7.979520   541A      8.001089  
     542A      8.027251   543A      8.042060   544A      8.077323  
     545A      8.131375   546A      8.151101   547A      8.203185  
     548A      8.221630   549A      8.249607   550A      8.275307  
     551A      8.321698   552A      8.349399   553A      8.457964  
     554A      8.508314   555A      8.521324   556A      8.649780  
     557A      9.602600   558A      9.728159   559A      9.777878  
     560A      9.831684   561A      9.865051   562A      9.877781  
     563A      9.927669   564A      9.932649   565A     10.006474  
     566A     10.094364   567A     10.118666   568A     10.133553  
     569A     10.175701   570A     10.231043   571A     10.265564  
     572A     10.348261   573A     10.394676   574A     10.611308  
     575A     10.681454   576A     10.752160   577A     10.850642  
     578A     10.939449   579A     11.402099   580A     11.500115  
     581A     11.601636   582A     11.624049   583A     11.742552  
     584A     11.827904   585A     11.884298   586A     11.986542  
     587A     12.345365   588A     12.587806   589A     12.620932  
     590A     13.004102   591A     13.209081   592A     13.708703  
     593A     13.806230   594A     14.024496   595A     14.087845  
     596A     14.426514   597A     14.945234   598A     18.219708  
     599A     23.109986   600A     23.189289   601A     23.518228  
     602A     60.811431   603A     62.320382   604A     63.095319  
     605A     64.361305   606A    123.922174  

    Final Occupation by Irrep:
              A 
    DOCC [    25 ]

  @DF-RHF Final Energy:  -642.20132110765394

   => Energetics <=

    Nuclear Repulsion Energy =            280.5681799818386253
    One-Electron Energy =               -1445.9717355530087843
    Two-Electron Energy =                 523.2022344635163336
    Total Energy =                       -642.2013211076539392

Computation Completed


Properties will be evaluated at   0.000000,   0.000000,   0.000000 [a0]

Properties computed using the SCF density matrix

  Nuclear Dipole Moment: [e a0]
     X:   177.8110      Y:   -35.7668      Z:   115.0270

  Electronic Dipole Moment: [e a0]
     X:  -178.3287      Y:    34.4446      Z:  -114.0344

  Dipole Moment: [e a0]
     X:    -0.5177      Y:    -1.3221      Z:     0.9926     Total:     1.7324

  Dipole Moment: [D]
     X:    -1.3158      Y:    -3.3605      Z:     2.5230     Total:     4.4034


*** tstop() called on localhost.localdomain at Mon May 30 12:05:34 2022
Module time:
	user time   =     181.71 seconds =       3.03 minutes
	system time =       2.96 seconds =       0.05 minutes
	total time  =         10 seconds =       0.17 minutes
Total time:
	user time   =     791.90 seconds =      13.20 minutes
	system time =      14.50 seconds =       0.24 minutes
	total time  =         44 seconds =       0.73 minutes

*** tstart() called on localhost.localdomain
*** at Mon May 30 12:05:34 2022


  //>>>>>>>>>>>>>>>>>>>>>>>>>>>>>>>>>>>//
  //               DFMP2               //
  //<<<<<<<<<<<<<<<<<<<<<<<<<<<<<<<<<<<//

   => Loading Basis Set <=

    Name: (AUG-CC-PVTZ AUX)
    Role: RIFIT
    Keyword: DF_BASIS_MP2
    atoms 1, 9                     entry P          line   590 file /data0/home/wuhanyu/software/psi4_132/share/psi4/basis/aug-cc-pvtz-ri.gbs 
    atoms 2-3, 5, 7, 10-11, 13, 15 entry O          line   264 file /data0/home/wuhanyu/software/psi4_132/share/psi4/basis/aug-cc-pvtz-ri.gbs 
    atoms 4, 6, 8, 12, 14, 16      entry H          line    30 file /data0/home/wuhanyu/software/psi4_132/share/psi4/basis/aug-cc-pvtz-ri.gbs 

	 --------------------------------------------------------
	                          DF-MP2                         
	      2nd-Order Density-Fitted Moller-Plesset Theory     
	              RMP2 Wavefunction,  24 Threads             
	                                                         
	        Rob Parrish, Justin Turney, Andy Simmonett,      
	           Ed Hohenstein, and C. David Sherrill          
	 --------------------------------------------------------

   => Auxiliary Basis Set <=

  Basis Set: (AUG-CC-PVTZ AUX)
    Blend: AUG-CC-PVTZ-RI
    Number of shells: 382
    Number of basis function: 1418
    Number of Cartesian functions: 1800
    Spherical Harmonics?: true
    Max angular momentum: 4

	 --------------------------------------------------------
	                 NBF =   606, NAUX =  1418
	 --------------------------------------------------------
	   CLASS    FOCC     OCC    AOCC    AVIR     VIR    FVIR
	   PAIRS       9      25      16     581     581       0
	 --------------------------------------------------------

	 Will attempt to load fitting metric from file 97.

	-----------------------------------------------------------
	 ==================> DF-MP2 Energies <==================== 
	-----------------------------------------------------------
	 Reference Energy          =    -642.2013211076539392 [Eh]
	 Singles Energy            =      -0.0000000000000000 [Eh]
	 Same-Spin Energy          =      -0.2972195482393014 [Eh]
	 Opposite-Spin Energy      =      -0.8426896817442544 [Eh]
	 Correlation Energy        =      -1.1399092299835558 [Eh]
	 Total Energy              =    -643.3412303376375121 [Eh]
	-----------------------------------------------------------
	 ================> DF-SCS-MP2 Energies <================== 
	-----------------------------------------------------------
	 SCS Same-Spin Scale       =       0.3333333333333333 [-]
	 SCS Opposite-Spin Scale   =       1.2000000000000000 [-]
	 SCS Same-Spin Energy      =      -0.0990731827464338 [Eh]
	 SCS Opposite-Spin Energy  =      -1.0112276180931052 [Eh]
	 SCS Correlation Energy    =      -1.1103008008395390 [Eh]
	 SCS Total Energy          =    -643.3116219084935210 [Eh]
	-----------------------------------------------------------


*** tstop() called on localhost.localdomain at Mon May 30 12:05:38 2022
Module time:
	user time   =      63.94 seconds =       1.07 minutes
	system time =       1.33 seconds =       0.02 minutes
	total time  =          4 seconds =       0.07 minutes
Total time:
	user time   =     855.84 seconds =      14.26 minutes
	system time =      15.83 seconds =       0.26 minutes
	total time  =         48 seconds =       0.80 minutes
  Constructing Basis Sets for SAPT...

   => Loading Basis Set <=

    Name: (AUG-CC-PVTZ AUX)
    Role: RIFIT
    Keyword: DF_BASIS_SAPT
    atoms 1, 9                     entry P          line   590 file /data0/home/wuhanyu/software/psi4_132/share/psi4/basis/aug-cc-pvtz-ri.gbs 
    atoms 2-3, 5, 7, 10-11, 13, 15 entry O          line   264 file /data0/home/wuhanyu/software/psi4_132/share/psi4/basis/aug-cc-pvtz-ri.gbs 
    atoms 4, 6, 8, 12, 14, 16      entry H          line    30 file /data0/home/wuhanyu/software/psi4_132/share/psi4/basis/aug-cc-pvtz-ri.gbs 


  //>>>>>>>>>>>>>>>>>>>>>>>>>>>>>>>>>>>//
  //           SAPT2+(3)DMP2           //
  //<<<<<<<<<<<<<<<<<<<<<<<<<<<<<<<<<<<//


*** tstart() called on localhost.localdomain
*** at Mon May 30 12:05:38 2022

      SAPT2+(3)  
    Ed Hohenstein
     6 June 2009

      Orbital Information
  --------------------------
    NSO        =       606
    NMO        =       606
    NRI        =      1418
    NOCC A     =        25
    NOCC B     =        25
    FOCC A     =         9
    FOCC B     =         9
    NVIR A     =       581
    NVIR B     =       581

    Estimated memory usage: 8892.7 MB

    Natural Orbital Cutoff:   1.000E-06
    Disp(T3) Truncation:            Yes
    CCD (vv|vv) Truncation:         Yes
    MBPT T2 Truncation:             Yes

    Monomer A: 317 virtual orbitals dropped
    Monomer B: 317 virtual orbitals dropped

    Elst10,r            =    -0.038731677557 [Eh]
    Exch10 (S^2)        =     0.016948249320 [Eh]
    Exch10              =     0.017042971807 [Eh]
    Ind20,r (A<-B)      =    -0.006381819848 [Eh]
    Ind20,r (B<-A)      =    -0.006376027233 [Eh]
    Ind20,r             =    -0.012757847081 [Eh]
    Exch-Ind20,r (A<-B) =     0.002230935936 [Eh]
    Exch-Ind20,r (B<-A) =     0.002241254957 [Eh]
    Exch-Ind20,r        =     0.004472190893 [Eh]
    Disp20              =    -0.009384215418 [Eh]
    Disp20 (NO)         =    -0.008323811213 [Eh]
    Exch-Disp20         =     0.001283887741 [Eh]
    Elst12,r            =     0.004245158462 [Eh]
    Exch11              =     0.000194487452 [Eh]
    Exch12              =     0.002963221974 [Eh]
    Ind22               =    -0.001356985025 [Eh]
    Disp21              =     0.000711673239 [Eh]
    Disp22 (SDQ)        =    -0.000341132122 [Eh]

    (i =   1 of  16)         57 seconds
    (i =   2 of  16)        112 seconds
    (i =   3 of  16)        168 seconds
    (i =   4 of  16)        223 seconds
    (i =   5 of  16)        279 seconds
    (i =   6 of  16)        335 seconds
    (i =   7 of  16)        390 seconds
    (i =   8 of  16)        446 seconds
    (i =   9 of  16)        502 seconds
    (i =  10 of  16)        557 seconds
    (i =  11 of  16)        613 seconds
    (i =  12 of  16)        669 seconds
    (i =  13 of  16)        724 seconds
    (i =  14 of  16)        780 seconds
    (i =  15 of  16)        836 seconds
    (i =  16 of  16)        891 seconds

    Disp220 (T)         =    -0.000894854538 [Eh]

    (i =   1 of  16)         64 seconds
    (i =   2 of  16)        127 seconds
    (i =   3 of  16)        190 seconds
    (i =   4 of  16)        251 seconds
    (i =   5 of  16)        313 seconds
    (i =   6 of  16)        375 seconds
    (i =   7 of  16)        437 seconds
    (i =   8 of  16)        498 seconds
    (i =   9 of  16)        560 seconds
    (i =  10 of  16)        621 seconds
    (i =  11 of  16)        682 seconds
    (i =  12 of  16)        742 seconds
    (i =  13 of  16)        803 seconds
    (i =  14 of  16)        864 seconds
    (i =  15 of  16)        924 seconds
    (i =  16 of  16)        984 seconds

    Disp202 (T)         =    -0.000895057564 [Eh]

    Disp22 (T)          =    -0.001789912103 [Eh]

    Est. Disp220 (T)    =    -0.001008853702 [Eh]
    Est. Disp202 (T)    =    -0.001009082592 [Eh]

    Est. Disp22 (T)     =    -0.002017936294 [Eh]
    Elst13,r            =    -0.000981686388 [Eh]
    Disp30              =     0.000294932957 [Eh]

    SAPT Results 
  --------------------------------------------------------------------------------------------------------
    Electrostatics                -35.46820548 [mEh]     -22.25663496 [kcal/mol]     -93.12176066 [kJ/mol]
      Elst10,r                    -38.73167756 [mEh]     -24.30449460 [kcal/mol]    -101.69000541 [kJ/mol]
      Elst12,r                      4.24515846 [mEh]       2.66387715 [kcal/mol]      11.14566201 [kJ/mol]
      Elst13,r                     -0.98168639 [mEh]      -0.61601751 [kcal/mol]      -2.57741726 [kJ/mol]

    Exchange                       20.20068123 [mEh]      12.67611885 [kcal/mol]      53.03688127 [kJ/mol]
      Exch10                       17.04297181 [mEh]      10.69462627 [kcal/mol]      44.74631631 [kJ/mol]
      Exch10(S^2)                  16.94824932 [mEh]      10.63518701 [kcal/mol]      44.49762246 [kJ/mol]
      Exch11(S^2)                   0.19448745 [mEh]       0.12204272 [kcal/mol]       0.51062674 [kJ/mol]
      Exch12(S^2)                   2.96322197 [mEh]       1.85944986 [kcal/mol]       7.77993822 [kJ/mol]

    Induction                     -13.79597080 [mEh]      -8.65710238 [kcal/mol]     -36.22131634 [kJ/mol]
      Ind20,r                     -12.75784708 [mEh]      -8.00566991 [kcal/mol]     -33.49572290 [kJ/mol]
      Ind22                        -1.35698503 [mEh]      -0.85152096 [kcal/mol]      -3.56276369 [kJ/mol]
      Exch-Ind20,r                  4.47219089 [mEh]       2.80634215 [kcal/mol]      11.74173557 [kJ/mol]
      Exch-Ind22                    0.47568340 [mEh]       0.29849584 [kcal/mol]       1.24890659 [kJ/mol]
      delta HF,r (2)               -4.35742010 [mEh]      -2.73432240 [kcal/mol]     -11.44040491 [kJ/mol]
      delta MP2,r (2)              -0.27159288 [mEh]      -0.17042711 [kcal/mol]      -0.71306701 [kJ/mol]

    Dispersion                     -9.45278990 [mEh]      -5.93171521 [kcal/mol]     -24.81829646 [kJ/mol]
      Disp20                       -9.38421542 [mEh]      -5.88868408 [kcal/mol]     -24.63825419 [kJ/mol]
      Disp30                        0.29493296 [mEh]       0.18507322 [kcal/mol]       0.77434637 [kJ/mol]
      Disp21                        0.71167324 [mEh]       0.44658170 [kcal/mol]       1.86849783 [kJ/mol]
      Disp22 (SDQ)                 -0.34113212 [mEh]      -0.21406364 [kcal/mol]      -0.89564226 [kJ/mol]
      Disp22 (T)                   -1.78991210 [mEh]      -1.12318680 [kcal/mol]      -4.69941358 [kJ/mol]
      Est. Disp22 (T)              -2.01793629 [mEh]      -1.26627414 [kcal/mol]      -5.29809101 [kJ/mol]
      Exch-Disp20                   1.28388774 [mEh]       0.80565172 [kcal/mol]       3.37084680 [kJ/mol]

  Total HF                        -34.33178204 [mEh]     -21.54351848 [kcal/mol]     -90.13808133 [kJ/mol]
  Total SAPT0                     -42.43210972 [mEh]     -26.62655084 [kcal/mol]    -111.40548872 [kJ/mol]
  Total SAPT2                     -35.91054346 [mEh]     -22.53420623 [kcal/mol]     -94.28311885 [kJ/mol]
  Total SAPT2+                    -37.55793863 [mEh]     -23.56796231 [kcal/mol]     -98.60835430 [kJ/mol]
  Total SAPT2+(3)                 -38.24469206 [mEh]     -23.99890659 [kcal/mol]    -100.41142518 [kJ/mol]
  Total SAPT2+dMP2                -37.82953151 [mEh]     -23.73838941 [kcal/mol]     -99.32142130 [kJ/mol]
  Total SAPT2+(3)dMP2             -38.51628494 [mEh]     -24.16933370 [kcal/mol]    -101.12449219 [kJ/mol]

  Special recipe for scaled SAPT0 (see Manual):
    Electrostatics sSAPT0         -38.73167756 [mEh]     -24.30449460 [kcal/mol]    -101.69000541 [kJ/mol]
    Exchange sSAPT0                17.04297181 [mEh]      10.69462627 [kcal/mol]      44.74631631 [kJ/mol]
    Induction sSAPT0              -12.56767222 [mEh]      -7.88633338 [kcal/mol]     -32.99641886 [kJ/mol]
    Dispersion sSAPT0              -8.07868049 [mEh]      -5.06944854 [kcal/mol]     -21.21057270 [kJ/mol]
  Total sSAPT0                    -42.33505845 [mEh]     -26.56565025 [kcal/mol]    -111.15068066 [kJ/mol]
  --------------------------------------------------------------------------------------------------------

*** tstop() called on localhost.localdomain at Mon May 30 12:49:08 2022
Module time:
	user time   =   57519.22 seconds =     958.65 minutes
	system time =     838.20 seconds =      13.97 minutes
	total time  =       2610 seconds =      43.50 minutes
Total time:
	user time   =   58377.47 seconds =     972.96 minutes
	system time =     854.07 seconds =      14.23 minutes
	total time  =       2658 seconds =      44.30 minutes

    Psi4 stopped on: Monday, 30 May 2022 12:49PM
    Psi4 wall time for execution: 0:44:18.74

*** Psi4 exiting successfully. Buy a developer a beer!
