
    -----------------------------------------------------------------------
          Psi4: An Open-Source Ab Initio Electronic Structure Package
                               Psi4 1.3.2 release

                         Git: Rev {HEAD} ecbda83 


    R. M. Parrish, L. A. Burns, D. G. A. Smith, A. C. Simmonett,
    A. E. DePrince III, E. G. Hohenstein, U. Bozkaya, A. Yu. Sokolov,
    R. Di Remigio, R. M. Richard, J. F. Gonthier, A. M. James,
    H. R. McAlexander, A. Kumar, M. Saitow, X. Wang, B. P. Pritchard,
    P. Verma, H. F. Schaefer III, K. Patkowski, R. A. King, E. F. Valeev,
    F. A. Evangelista, J. M. Turney, T. D. Crawford, and C. D. Sherrill,
    J. Chem. Theory Comput. 13(7) pp 3185--3197 (2017).
    (doi: 10.1021/acs.jctc.7b00174)


                         Additional Contributions by
    P. Kraus, H. Kruse, M. H. Lechner, M. C. Schieber, R. A. Shaw,
    A. Alenaizan, R. Galvelis, Z. L. Glick, S. Lehtola, and J. P. Misiewicz

    -----------------------------------------------------------------------


    Psi4 started on: Sunday, 22 May 2022 05:19PM

    Process ID: 807996
    Host:       localhost.localdomain
    PSIDATADIR: /data0/home/wuhanyu/software/psi4_132/share/psi4
    Memory:     500.0 MiB
    Threads:    24
    
  ==> Input File <==

--------------------------------------------------------------------------
memory 100 GB

molecule dimer {
0 1
C      8.94864300   10.62571600    5.06888500
C     10.27405700   10.12199400    4.84711700
C     11.20554700   10.87709100    4.12809400
C     10.79632200   12.10916000    3.64940700
C      9.49048800   12.59726800    3.87142500
C      8.54836700   11.87092100    4.57992300
H     12.21023400   10.49357200    3.96152300
H     11.49352500   12.72731300    3.08445500
H      9.22469800   13.57553900    3.46991800
H      7.54597100   12.24948000    4.74851600
H      7.34495200    9.68918500    6.12716100
C      9.20139000    8.59402800    6.01179400
H      8.94795600    7.69212700    6.56464300
N      8.28500300    9.63992400    5.80937300
N     10.38007100    8.86279400    5.44842400
--
0 1
P     11.92638200    5.96067200    6.98705400
O     10.48878200    5.76144500    7.09897900
O     12.82479000    4.66314500    6.70995400
H     12.82936700    4.48745700    5.70090300
O     12.47214300    6.94169300    5.86557800
H     11.75656200    7.69562100    5.66718900
O     12.54388900    6.46966600    8.36200400
H     13.56087100    6.56420400    8.24768800
}

set {
    scf_type DF
    freeze_core True
    basis aug-cc-pVTZ
}

energy('sapt2+(3)dmp2')
--------------------------------------------------------------------------

  Memory set to  93.132 GiB by Python driver.

  //>>>>>>>>>>>>>>>>>>>>>>>>>>>>>>>>>>>//
  //              Dimer HF             //
  //<<<<<<<<<<<<<<<<<<<<<<<<<<<<<<<<<<<//


*** tstart() called on localhost.localdomain
*** at Sun May 22 17:19:36 2022

   => Loading Basis Set <=

    Name: AUG-CC-PVTZ
    Role: ORBITAL
    Keyword: BASIS
    atoms 1-6, 12              entry C          line   235 file /data0/home/wuhanyu/software/psi4_132/share/psi4/basis/aug-cc-pvtz.gbs 
    atoms 7-11, 13, 19, 21, 23 entry H          line    36 file /data0/home/wuhanyu/software/psi4_132/share/psi4/basis/aug-cc-pvtz.gbs 
    atoms 14-15                entry N          line   281 file /data0/home/wuhanyu/software/psi4_132/share/psi4/basis/aug-cc-pvtz.gbs 
    atoms 16                   entry P          line   820 file /data0/home/wuhanyu/software/psi4_132/share/psi4/basis/aug-cc-pvtz.gbs 
    atoms 17-18, 20, 22        entry O          line   327 file /data0/home/wuhanyu/software/psi4_132/share/psi4/basis/aug-cc-pvtz.gbs 


         ---------------------------------------------------------
                                   SCF
               by Justin Turney, Rob Parrish, Andy Simmonett
                          and Daniel G. A. Smith
                              RHF Reference
                       24 Threads,  95367 MiB Core
         ---------------------------------------------------------

  ==> Geometry <==

    Molecular point group: c1
    Full point group: C1

    Geometry (in Angstrom), charge = 0, multiplicity = 1:

       Center              X                  Y                   Z               Mass       
    ------------   -----------------  -----------------  -----------------  -----------------
         C           -1.795401330492     2.143706490051    -0.746625810717    12.000000000000
         C           -0.469987330492     1.639984490051    -0.968393810717    12.000000000000
         C            0.461502669508     2.395081490051    -1.687416810717    12.000000000000
         C            0.052277669508     3.627150490051    -2.166103810717    12.000000000000
         C           -1.253556330492     4.115258490051    -1.944085810717    12.000000000000
         C           -2.195677330492     3.388911490051    -1.235587810717    12.000000000000
         H            1.466189669508     2.011562490051    -1.853987810717     1.007825032230
         H            0.749480669508     4.245303490051    -2.731055810717     1.007825032230
         H           -1.519346330492     5.093529490051    -2.345592810717     1.007825032230
         H           -3.198073330492     3.767470490051    -1.066994810717     1.007825032230
         H           -3.399092330492     1.207175490051     0.311650189283     1.007825032230
         C           -1.542654330492     0.112018490051     0.196283189283    12.000000000000
         H           -1.796088330492    -0.789882509949     0.749132189283     1.007825032230
         N           -2.459041330492     1.157914490051    -0.006137810717    14.003074004430
         N           -0.363973330492     0.380784490051    -0.367086810717    14.003074004430
         P            1.182337669508    -2.521337509949     1.171543189283    30.973761998420
         O           -0.255262330492    -2.720564509949     1.283468189283    15.994914619570
         O            2.080745669508    -3.818864509949     0.894443189283    15.994914619570
         H            2.085322669508    -3.994552509949    -0.114607810717     1.007825032230
         O            1.728098669508    -1.540316509949     0.050067189283    15.994914619570
         H            1.012517669508    -0.786388509949    -0.148321810717     1.007825032230
         O            1.799844669508    -2.012343509949     2.546493189283    15.994914619570
         H            2.816826669508    -1.917805509949     2.432177189283     1.007825032230

  Running in c1 symmetry.

  Rotational constants: A =      0.05454  B =      0.00828  C =      0.00755 [cm^-1]
  Rotational constants: A =   1634.95344  B =    248.15963  C =    226.31196 [MHz]
  Nuclear repulsion =  983.140493392222652

  Charge       = 0
  Multiplicity = 1
  Electrons    = 112
  Nalpha       = 56
  Nbeta        = 56

  ==> Algorithm <==

  SCF Algorithm Type is DF.
  DIIS enabled.
  MOM disabled.
  Fractional occupation disabled.
  Guess Type is SAD.
  Energy threshold   = 1.00e-08
  Density threshold  = 1.00e-08
  Integral threshold = 0.00e+00

  ==> Primary Basis <==

  Basis Set: AUG-CC-PVTZ
    Blend: AUG-CC-PVTZ
    Number of shells: 279
    Number of basis function: 855
    Number of Cartesian functions: 999
    Spherical Harmonics?: true
    Max angular momentum: 3

   => Loading Basis Set <=

    Name: (AUG-CC-PVTZ AUX)
    Role: JKFIT
    Keyword: DF_BASIS_SCF
    atoms 1-6, 12              entry C          line   162 file /data0/home/wuhanyu/software/psi4_132/share/psi4/basis/aug-cc-pvtz-jkfit.gbs 
    atoms 7-11, 13, 19, 21, 23 entry H          line    70 file /data0/home/wuhanyu/software/psi4_132/share/psi4/basis/aug-cc-pvtz-jkfit.gbs 
    atoms 14-15                entry N          line   224 file /data0/home/wuhanyu/software/psi4_132/share/psi4/basis/aug-cc-pvtz-jkfit.gbs 
    atoms 16                   entry P          line   644 file /data0/home/wuhanyu/software/psi4_132/share/psi4/basis/aug-cc-pvtz-jkfit.gbs 
    atoms 17-18, 20, 22        entry O          line   286 file /data0/home/wuhanyu/software/psi4_132/share/psi4/basis/aug-cc-pvtz-jkfit.gbs 

  ==> Pre-Iterations <==

   -------------------------------------------------------
    Irrep   Nso     Nmo     Nalpha   Nbeta   Ndocc  Nsocc
   -------------------------------------------------------
     A        855     855       0       0       0       0
   -------------------------------------------------------
    Total     855     855      56      56      56       0
   -------------------------------------------------------

  ==> Integral Setup <==

  ==> DiskDFJK: Density-Fitted J/K Matrices <==

    J tasked:                  Yes
    K tasked:                  Yes
    wK tasked:                  No
    OpenMP threads:             24
    Integrals threads:          24
    Memory [MiB]:            71525
    Algorithm:                Core
    Integral Cache:           SAVE
    Schwarz Cutoff:          1E-12
    Fitting Condition:       1E-10

   => Auxiliary Basis Set <=

  Basis Set: (AUG-CC-PVTZ AUX)
    Blend: AUG-CC-PVTZ-JKFIT
    Number of shells: 558
    Number of basis function: 1912
    Number of Cartesian functions: 2378
    Spherical Harmonics?: true
    Max angular momentum: 4

  Minimum eigenvalue in the overlap matrix is 5.2072742636E-07.
  Using Symmetric Orthogonalization.

  SCF Guess: Superposition of Atomic Densities via on-the-fly atomic UHF.

  ==> Iterations <==

                           Total Energy        Delta E     RMS |[F,P]|

   @DF-RHF iter SAD: -1018.79163010348964   -1.01879e+03   0.00000e+00 
   @DF-RHF iter   1: -1019.36610812613230   -5.74478e-01   1.16662e-03 DIIS
   @DF-RHF iter   2: -1019.69032732941230   -3.24219e-01   6.90631e-04 DIIS
   @DF-RHF iter   3: -1019.81421510195571   -1.23888e-01   9.72502e-05 DIIS
   @DF-RHF iter   4: -1019.81842807640510   -4.21297e-03   3.97823e-05 DIIS
   @DF-RHF iter   5: -1019.81901352167233   -5.85445e-04   9.57849e-06 DIIS
   @DF-RHF iter   6: -1019.81906736888766   -5.38472e-05   3.99409e-06 DIIS
   @DF-RHF iter   7: -1019.81907880270501   -1.14338e-05   1.35521e-06 DIIS
   @DF-RHF iter   8: -1019.81908105855427   -2.25585e-06   6.72862e-07 DIIS
   @DF-RHF iter   9: -1019.81908150471270   -4.46158e-07   2.61215e-07 DIIS
   @DF-RHF iter  10: -1019.81908160847627   -1.03764e-07   1.10233e-07 DIIS
   @DF-RHF iter  11: -1019.81908163088451   -2.24082e-08   5.42431e-08 DIIS
   @DF-RHF iter  12: -1019.81908163582500   -4.94049e-09   2.66895e-08 DIIS
   @DF-RHF iter  13: -1019.81908163722574   -1.40074e-09   7.72798e-09 DIIS
  Energy and wave function converged.


  ==> Post-Iterations <==

    Orbital Energies [Eh]
    ---------------------

    Doubly Occupied:                                                      

       1A    -80.087425     2A    -20.598093     3A    -20.594880  
       4A    -20.578672     5A    -20.500775     6A    -15.636924  
       7A    -15.582261     8A    -11.343163     9A    -11.292313  
      10A    -11.277093    11A    -11.253192    12A    -11.248565  
      13A    -11.247379    14A    -11.242647    15A     -7.605452  
      16A     -5.503818    17A     -5.503572    18A     -5.502580  
      19A     -1.438448    20A     -1.360962    21A     -1.350963  
      22A     -1.343922    23A     -1.292203    24A     -1.190571  
      25A     -1.148796    26A     -1.025715    27A     -1.010738  
      28A     -0.866281    29A     -0.853914    30A     -0.826467  
      31A     -0.817790    32A     -0.750599    33A     -0.736057  
      34A     -0.723105    35A     -0.693979    36A     -0.676470  
      37A     -0.648631    38A     -0.636181    39A     -0.624597  
      40A     -0.617976    41A     -0.616675    42A     -0.599009  
      43A     -0.590518    44A     -0.570570    45A     -0.560907  
      46A     -0.536888    47A     -0.534596    48A     -0.525590  
      49A     -0.514134    50A     -0.487145    51A     -0.465080  
      52A     -0.463571    53A     -0.457287    54A     -0.449400  
      55A     -0.331393    56A     -0.316327  

    Virtual:                                                              

      57A      0.020242    58A      0.027874    59A      0.030200  
      60A      0.038975    61A      0.044687    62A      0.046870  
      63A      0.057317    64A      0.066503    65A      0.069615  
      66A      0.082412    67A      0.091232    68A      0.092062  
      69A      0.092900    70A      0.097365    71A      0.101101  
      72A      0.102694    73A      0.104776    74A      0.107560  
      75A      0.115316    76A      0.116518    77A      0.119745  
      78A      0.122047    79A      0.123098    80A      0.125727  
      81A      0.130896    82A      0.131540    83A      0.136899  
      84A      0.143436    85A      0.149181    86A      0.155643  
      87A      0.158447    88A      0.159955    89A      0.164372  
      90A      0.169717    91A      0.173391    92A      0.174199  
      93A      0.178681    94A      0.180656    95A      0.187476  
      96A      0.195900    97A      0.198475    98A      0.208422  
      99A      0.210469   100A      0.218389   101A      0.224391  
     102A      0.225217   103A      0.227734   104A      0.237408  
     105A      0.239394   106A      0.244074   107A      0.245987  
     108A      0.249442   109A      0.254733   110A      0.259172  
     111A      0.261855   112A      0.264061   113A      0.268534  
     114A      0.276525   115A      0.278677   116A      0.281091  
     117A      0.286615   118A      0.287502   119A      0.291037  
     120A      0.292065   121A      0.295032   122A      0.306197  
     123A      0.307986   124A      0.315367   125A      0.319763  
     126A      0.323594   127A      0.326263   128A      0.328828  
     129A      0.334725   130A      0.335699   131A      0.340871  
     132A      0.344024   133A      0.346180   134A      0.353506  
     135A      0.356240   136A      0.362944   137A      0.364644  
     138A      0.372020   139A      0.372977   140A      0.375671  
     141A      0.376089   142A      0.382377   143A      0.388282  
     144A      0.388884   145A      0.395654   146A      0.397273  
     147A      0.404800   148A      0.408851   149A      0.413418  
     150A      0.420521   151A      0.424580   152A      0.428336  
     153A      0.429393   154A      0.432978   155A      0.438067  
     156A      0.439808   157A      0.442697   158A      0.446128  
     159A      0.453728   160A      0.455922   161A      0.458110  
     162A      0.463653   163A      0.471537   164A      0.474698  
     165A      0.478462   166A      0.479945   167A      0.483541  
     168A      0.485856   169A      0.490670   170A      0.494616  
     171A      0.496473   172A      0.500688   173A      0.502632  
     174A      0.504231   175A      0.507651   176A      0.513251  
     177A      0.517333   178A      0.519029   179A      0.522884  
     180A      0.527218   181A      0.530925   182A      0.531498  
     183A      0.539641   184A      0.542876   185A      0.548722  
     186A      0.551775   187A      0.557105   188A      0.567308  
     189A      0.573360   190A      0.577316   191A      0.582927  
     192A      0.598025   193A      0.606015   194A      0.610046  
     195A      0.615359   196A      0.618862   197A      0.625563  
     198A      0.631821   199A      0.641018   200A      0.645031  
     201A      0.650754   202A      0.652371   203A      0.657709  
     204A      0.661192   205A      0.667424   206A      0.673017  
     207A      0.675416   208A      0.686428   209A      0.687809  
     210A      0.691756   211A      0.700190   212A      0.703854  
     213A      0.711578   214A      0.716777   215A      0.722449  
     216A      0.729345   217A      0.736089   218A      0.742770  
     219A      0.747924   220A      0.760596   221A      0.764642  
     222A      0.765148   223A      0.770417   224A      0.775402  
     225A      0.776741   226A      0.791083   227A      0.795249  
     228A      0.797378   229A      0.801891   230A      0.807007  
     231A      0.811465   232A      0.818416   233A      0.820405  
     234A      0.824813   235A      0.830935   236A      0.834568  
     237A      0.844533   238A      0.850438   239A      0.856915  
     240A      0.860658   241A      0.863269   242A      0.875421  
     243A      0.878498   244A      0.879888   245A      0.884702  
     246A      0.886528   247A      0.888311   248A      0.891504  
     249A      0.896690   250A      0.904297   251A      0.912165  
     252A      0.915306   253A      0.917843   254A      0.923112  
     255A      0.924560   256A      0.928771   257A      0.938207  
     258A      0.943236   259A      0.946628   260A      0.954181  
     261A      0.957848   262A      0.963784   263A      0.966154  
     264A      0.972354   265A      0.980358   266A      0.981603  
     267A      0.982334   268A      0.992196   269A      0.999111  
     270A      1.000122   271A      1.003629   272A      1.009935  
     273A      1.014819   274A      1.016644   275A      1.022670  
     276A      1.026283   277A      1.027772   278A      1.032847  
     279A      1.033750   280A      1.038314   281A      1.040208  
     282A      1.043542   283A      1.049685   284A      1.055391  
     285A      1.057157   286A      1.067405   287A      1.070898  
     288A      1.076090   289A      1.079285   290A      1.086380  
     291A      1.088853   292A      1.091369   293A      1.095296  
     294A      1.104383   295A      1.106228   296A      1.108654  
     297A      1.114471   298A      1.115725   299A      1.124400  
     300A      1.135046   301A      1.139170   302A      1.148087  
     303A      1.150269   304A      1.160445   305A      1.163531  
     306A      1.168659   307A      1.172912   308A      1.176028  
     309A      1.180675   310A      1.187622   311A      1.192505  
     312A      1.197520   313A      1.199298   314A      1.203340  
     315A      1.209564   316A      1.215626   317A      1.223157  
     318A      1.225686   319A      1.237224   320A      1.240128  
     321A      1.244591   322A      1.254836   323A      1.257149  
     324A      1.260841   325A      1.267451   326A      1.275627  
     327A      1.281932   328A      1.290781   329A      1.294883  
     330A      1.298242   331A      1.300294   332A      1.310680  
     333A      1.313194   334A      1.318179   335A      1.328136  
     336A      1.342013   337A      1.345234   338A      1.348227  
     339A      1.356169   340A      1.358215   341A      1.369691  
     342A      1.371738   343A      1.374553   344A      1.379329  
     345A      1.389403   346A      1.395404   347A      1.404576  
     348A      1.415430   349A      1.418511   350A      1.427299  
     351A      1.434420   352A      1.439064   353A      1.446457  
     354A      1.455608   355A      1.456194   356A      1.467012  
     357A      1.473986   358A      1.476224   359A      1.481554  
     360A      1.483773   361A      1.496877   362A      1.503511  
     363A      1.505573   364A      1.515178   365A      1.519819  
     366A      1.526244   367A      1.530763   368A      1.541084  
     369A      1.546161   370A      1.547426   371A      1.562546  
     372A      1.565815   373A      1.580101   374A      1.587641  
     375A      1.600166   376A      1.605412   377A      1.616592  
     378A      1.631436   379A      1.640787   380A      1.643506  
     381A      1.645132   382A      1.649332   383A      1.657322  
     384A      1.672813   385A      1.677872   386A      1.683610  
     387A      1.687565   388A      1.692826   389A      1.700234  
     390A      1.710183   391A      1.712483   392A      1.720483  
     393A      1.730820   394A      1.741343   395A      1.742757  
     396A      1.752186   397A      1.758001   398A      1.766356  
     399A      1.772939   400A      1.783533   401A      1.795977  
     402A      1.801795   403A      1.812261   404A      1.819200  
     405A      1.828958   406A      1.850100   407A      1.858287  
     408A      1.858990   409A      1.864906   410A      1.871886  
     411A      1.876955   412A      1.890582   413A      1.901080  
     414A      1.907555   415A      1.914049   416A      1.914934  
     417A      1.925478   418A      1.929287   419A      1.942737  
     420A      1.948993   421A      1.958955   422A      1.959692  
     423A      1.971035   424A      1.975480   425A      1.982268  
     426A      1.986998   427A      2.006169   428A      2.008811  
     429A      2.015200   430A      2.025809   431A      2.029679  
     432A      2.032318   433A      2.051460   434A      2.055415  
     435A      2.057019   436A      2.068002   437A      2.076401  
     438A      2.083469   439A      2.093534   440A      2.097147  
     441A      2.108520   442A      2.125470   443A      2.127274  
     444A      2.139103   445A      2.143416   446A      2.155667  
     447A      2.159310   448A      2.161213   449A      2.171261  
     450A      2.175984   451A      2.181370   452A      2.192981  
     453A      2.199681   454A      2.215385   455A      2.216429  
     456A      2.227476   457A      2.239291   458A      2.250328  
     459A      2.255541   460A      2.266305   461A      2.274331  
     462A      2.284173   463A      2.284888   464A      2.298171  
     465A      2.312182   466A      2.317520   467A      2.327120  
     468A      2.338853   469A      2.341008   470A      2.350521  
     471A      2.365458   472A      2.370171   473A      2.374223  
     474A      2.390038   475A      2.394572   476A      2.403024  
     477A      2.415790   478A      2.419382   479A      2.429485  
     480A      2.438036   481A      2.446240   482A      2.464162  
     483A      2.477002   484A      2.480259   485A      2.486831  
     486A      2.490903   487A      2.505656   488A      2.508529  
     489A      2.520328   490A      2.535621   491A      2.542564  
     492A      2.545980   493A      2.558233   494A      2.560139  
     495A      2.573692   496A      2.576610   497A      2.586991  
     498A      2.595653   499A      2.599293   500A      2.614907  
     501A      2.619183   502A      2.630248   503A      2.647149  
     504A      2.652962   505A      2.659010   506A      2.670076  
     507A      2.674610   508A      2.693525   509A      2.698855  
     510A      2.710210   511A      2.716448   512A      2.731814  
     513A      2.739597   514A      2.749184   515A      2.761161  
     516A      2.768384   517A      2.776895   518A      2.786206  
     519A      2.801260   520A      2.811465   521A      2.818691  
     522A      2.829554   523A      2.834794   524A      2.847559  
     525A      2.861525   526A      2.880352   527A      2.890840  
     528A      2.909360   529A      2.923635   530A      2.950655  
     531A      2.958012   532A      2.965689   533A      2.975483  
     534A      2.994710   535A      3.006771   536A      3.012968  
     537A      3.034203   538A      3.039751   539A      3.057230  
     540A      3.094383   541A      3.096711   542A      3.128344  
     543A      3.160612   544A      3.171000   545A      3.176489  
     546A      3.199399   547A      3.202240   548A      3.210013  
     549A      3.234040   550A      3.243338   551A      3.266408  
     552A      3.288733   553A      3.296478   554A      3.305159  
     555A      3.317547   556A      3.323358   557A      3.340113  
     558A      3.353126   559A      3.365042   560A      3.371500  
     561A      3.383743   562A      3.386637   563A      3.396411  
     564A      3.407123   565A      3.417316   566A      3.428954  
     567A      3.437186   568A      3.443792   569A      3.451860  
     570A      3.459201   571A      3.470669   572A      3.486447  
     573A      3.489709   574A      3.506877   575A      3.519682  
     576A      3.527214   577A      3.540647   578A      3.545967  
     579A      3.558068   580A      3.561772   581A      3.571837  
     582A      3.577757   583A      3.591291   584A      3.595036  
     585A      3.596853   586A      3.616851   587A      3.617470  
     588A      3.628615   589A      3.655061   590A      3.659827  
     591A      3.676988   592A      3.678405   593A      3.689714  
     594A      3.701151   595A      3.712980   596A      3.735589  
     597A      3.740434   598A      3.756767   599A      3.773691  
     600A      3.775177   601A      3.791073   602A      3.795210  
     603A      3.814691   604A      3.835766   605A      3.846300  
     606A      3.855483   607A      3.859519   608A      3.872275  
     609A      3.884627   610A      3.895920   611A      3.902097  
     612A      3.912469   613A      3.924770   614A      3.942460  
     615A      3.946155   616A      3.956970   617A      3.971216  
     618A      3.974300   619A      3.987556   620A      3.991141  
     621A      3.995401   622A      4.024645   623A      4.028026  
     624A      4.053531   625A      4.069271   626A      4.075212  
     627A      4.097812   628A      4.118990   629A      4.132018  
     630A      4.139406   631A      4.148914   632A      4.163144  
     633A      4.183242   634A      4.194570   635A      4.203236  
     636A      4.212833   637A      4.215114   638A      4.221789  
     639A      4.228825   640A      4.236316   641A      4.245943  
     642A      4.252320   643A      4.266597   644A      4.275088  
     645A      4.281393   646A      4.301227   647A      4.307388  
     648A      4.321876   649A      4.330267   650A      4.339934  
     651A      4.362062   652A      4.366859   653A      4.375110  
     654A      4.383729   655A      4.389058   656A      4.402534  
     657A      4.409430   658A      4.410167   659A      4.427489  
     660A      4.434502   661A      4.440675   662A      4.450536  
     663A      4.469352   664A      4.473343   665A      4.485481  
     666A      4.504068   667A      4.510255   668A      4.524557  
     669A      4.529105   670A      4.531343   671A      4.546922  
     672A      4.557342   673A      4.583692   674A      4.587619  
     675A      4.608175   676A      4.609647   677A      4.618325  
     678A      4.640557   679A      4.643980   680A      4.656738  
     681A      4.700611   682A      4.703935   683A      4.707878  
     684A      4.714109   685A      4.718566   686A      4.724559  
     687A      4.741394   688A      4.765334   689A      4.771097  
     690A      4.789425   691A      4.799670   692A      4.814001  
     693A      4.829762   694A      4.872907   695A      4.880178  
     696A      4.898914   697A      4.910843   698A      4.917822  
     699A      4.941780   700A      4.953968   701A      4.956143  
     702A      4.972911   703A      4.989995   704A      4.995926  
     705A      5.020502   706A      5.050668   707A      5.065438  
     708A      5.077724   709A      5.103415   710A      5.107448  
     711A      5.114366   712A      5.129891   713A      5.133467  
     714A      5.139110   715A      5.156452   716A      5.163054  
     717A      5.171758   718A      5.186720   719A      5.196470  
     720A      5.218888   721A      5.229019   722A      5.248262  
     723A      5.259258   724A      5.271832   725A      5.278831  
     726A      5.289054   727A      5.325576   728A      5.336253  
     729A      5.347373   730A      5.355518   731A      5.375958  
     732A      5.385210   733A      5.425654   734A      5.442816  
     735A      5.457226   736A      5.473855   737A      5.506977  
     738A      5.516758   739A      5.535600   740A      5.544812  
     741A      5.569004   742A      5.580388   743A      5.591977  
     744A      5.617036   745A      5.658248   746A      5.667152  
     747A      5.668454   748A      5.682343   749A      5.719118  
     750A      5.744740   751A      5.750463   752A      5.791721  
     753A      5.803463   754A      5.823339   755A      5.835194  
     756A      5.866583   757A      5.910147   758A      5.918325  
     759A      5.929908   760A      5.944555   761A      5.961907  
     762A      5.979928   763A      6.038752   764A      6.120800  
     765A      6.136068   766A      6.150379   767A      6.159327  
     768A      6.234440   769A      6.238203   770A      6.287951  
     771A      6.302959   772A      6.335176   773A      6.376396  
     774A      6.424310   775A      6.441007   776A      6.477107  
     777A      6.556249   778A      6.559002   779A      6.620747  
     780A      6.694991   781A      6.701882   782A      6.729433  
     783A      6.745178   784A      6.758535   785A      6.762274  
     786A      6.788508   787A      6.793723   788A      6.796427  
     789A      6.818553   790A      6.832704   791A      6.851036  
     792A      6.857829   793A      6.868697   794A      6.875109  
     795A      6.905786   796A      6.908529   797A      6.936474  
     798A      6.946554   799A      6.957747   800A      6.965774  
     801A      6.981606   802A      7.001638   803A      7.011612  
     804A      7.039093   805A      7.046690   806A      7.053890  
     807A      7.087563   808A      7.122121   809A      7.140094  
     810A      7.152517   811A      7.176078   812A      7.191276  
     813A      7.221785   814A      7.248458   815A      7.268268  
     816A      7.281578   817A      7.304669   818A      7.327909  
     819A      7.346386   820A      7.362680   821A      7.418450  
     822A      7.430452   823A      7.438510   824A      7.482685  
     825A      7.514888   826A      7.538499   827A      7.573087  
     828A      7.609951   829A      7.624875   830A      7.697771  
     831A      7.740609   832A      7.761985   833A      7.777470  
     834A      7.836177   835A      7.863171   836A      7.951440  
     837A      7.979816   838A      8.112637   839A      8.247650  
     840A      8.267093   841A      8.376754   842A     10.832447  
     843A     13.092715   844A     14.177025   845A     14.516027  
     846A     15.176841   847A     16.157165   848A     16.318017  
     849A     16.421826   850A     18.510997   851A     18.889206  
     852A     19.226796   853A     19.554201   854A     19.763406  
     855A     20.379394  

    Final Occupation by Irrep:
              A 
    DOCC [    56 ]

  @DF-RHF Final Energy: -1019.81908163722574

   => Energetics <=

    Nuclear Repulsion Energy =            983.1404933922226519
    One-Electron Energy =               -3355.4146431537856188
    Two-Electron Energy =                1352.4550681243372310
    Total Energy =                      -1019.8190816372257359

Computation Completed


Properties will be evaluated at   0.000000,   0.000000,   0.000000 [a0]

Properties computed using the SCF density matrix

  Nuclear Dipole Moment: [e a0]
     X:    -2.7247      Y:    10.5507      Z:    -5.5234

  Electronic Dipole Moment: [e a0]
     X:     2.2737      Y:    -9.2488      Z:     4.7685

  Dipole Moment: [e a0]
     X:    -0.4510      Y:     1.3020      Z:    -0.7548     Total:     1.5711

  Dipole Moment: [D]
     X:    -1.1464      Y:     3.3092      Z:    -1.9186     Total:     3.9933


*** tstop() called on localhost.localdomain at Sun May 22 17:20:14 2022
Module time:
	user time   =     763.62 seconds =      12.73 minutes
	system time =      11.21 seconds =       0.19 minutes
	total time  =         38 seconds =       0.63 minutes
Total time:
	user time   =     763.62 seconds =      12.73 minutes
	system time =      11.21 seconds =       0.19 minutes
	total time  =         38 seconds =       0.63 minutes

*** tstart() called on localhost.localdomain
*** at Sun May 22 17:20:14 2022


  //>>>>>>>>>>>>>>>>>>>>>>>>>>>>>>>>>>>//
  //               DFMP2               //
  //<<<<<<<<<<<<<<<<<<<<<<<<<<<<<<<<<<<//

   => Loading Basis Set <=

    Name: (AUG-CC-PVTZ AUX)
    Role: RIFIT
    Keyword: DF_BASIS_MP2
    atoms 1-6, 12              entry C          line   148 file /data0/home/wuhanyu/software/psi4_132/share/psi4/basis/aug-cc-pvtz-ri.gbs 
    atoms 7-11, 13, 19, 21, 23 entry H          line    30 file /data0/home/wuhanyu/software/psi4_132/share/psi4/basis/aug-cc-pvtz-ri.gbs 
    atoms 14-15                entry N          line   206 file /data0/home/wuhanyu/software/psi4_132/share/psi4/basis/aug-cc-pvtz-ri.gbs 
    atoms 16                   entry P          line   590 file /data0/home/wuhanyu/software/psi4_132/share/psi4/basis/aug-cc-pvtz-ri.gbs 
    atoms 17-18, 20, 22        entry O          line   264 file /data0/home/wuhanyu/software/psi4_132/share/psi4/basis/aug-cc-pvtz-ri.gbs 

	 --------------------------------------------------------
	                          DF-MP2                         
	      2nd-Order Density-Fitted Moller-Plesset Theory     
	              RMP2 Wavefunction,  24 Threads             
	                                                         
	        Rob Parrish, Justin Turney, Andy Simmonett,      
	           Ed Hohenstein, and C. David Sherrill          
	 --------------------------------------------------------

   => Auxiliary Basis Set <=

  Basis Set: (AUG-CC-PVTZ AUX)
    Blend: AUG-CC-PVTZ-RI
    Number of shells: 527
    Number of basis function: 1939
    Number of Cartesian functions: 2454
    Spherical Harmonics?: true
    Max angular momentum: 4

	 --------------------------------------------------------
	                 NBF =   855, NAUX =  1939
	 --------------------------------------------------------
	   CLASS    FOCC     OCC    AOCC    AVIR     VIR    FVIR
	   PAIRS      18      56      38     799     799       0
	 --------------------------------------------------------

	 Will save fitting metric to file 97.

	-----------------------------------------------------------
	 ==================> DF-MP2 Energies <==================== 
	-----------------------------------------------------------
	 Reference Energy          =   -1019.8190816372257359 [Eh]
	 Singles Energy            =      -0.0000000000000000 [Eh]
	 Same-Spin Energy          =      -0.6985215588509806 [Eh]
	 Opposite-Spin Energy      =      -1.9722346366925416 [Eh]
	 Correlation Energy        =      -2.6707561955435222 [Eh]
	 Total Energy              =   -1022.4898378327692399 [Eh]
	-----------------------------------------------------------
	 ================> DF-SCS-MP2 Energies <================== 
	-----------------------------------------------------------
	 SCS Same-Spin Scale       =       0.3333333333333333 [-]
	 SCS Opposite-Spin Scale   =       1.2000000000000000 [-]
	 SCS Same-Spin Energy      =      -0.2328405196169935 [Eh]
	 SCS Opposite-Spin Energy  =      -2.3666815640310497 [Eh]
	 SCS Correlation Energy    =      -2.5995220836480430 [Eh]
	 SCS Total Energy          =   -1022.4186037208737616 [Eh]
	-----------------------------------------------------------


*** tstop() called on localhost.localdomain at Sun May 22 17:20:28 2022
Module time:
	user time   =     187.36 seconds =       3.12 minutes
	system time =       5.80 seconds =       0.10 minutes
	total time  =         14 seconds =       0.23 minutes
Total time:
	user time   =     950.98 seconds =      15.85 minutes
	system time =      17.01 seconds =       0.28 minutes
	total time  =         52 seconds =       0.87 minutes

  //>>>>>>>>>>>>>>>>>>>>>>>>>>>>>>>>>>>//
  //            Monomer A HF           //
  //<<<<<<<<<<<<<<<<<<<<<<<<<<<<<<<<<<<//


*** tstart() called on localhost.localdomain
*** at Sun May 22 17:20:28 2022

   => Loading Basis Set <=

    Name: AUG-CC-PVTZ
    Role: ORBITAL
    Keyword: BASIS
    atoms 1-6, 12              entry C          line   235 file /data0/home/wuhanyu/software/psi4_132/share/psi4/basis/aug-cc-pvtz.gbs 
    atoms 7-11, 13, 19, 21, 23 entry H          line    36 file /data0/home/wuhanyu/software/psi4_132/share/psi4/basis/aug-cc-pvtz.gbs 
    atoms 14-15                entry N          line   281 file /data0/home/wuhanyu/software/psi4_132/share/psi4/basis/aug-cc-pvtz.gbs 
    atoms 16                   entry P          line   820 file /data0/home/wuhanyu/software/psi4_132/share/psi4/basis/aug-cc-pvtz.gbs 
    atoms 17-18, 20, 22        entry O          line   327 file /data0/home/wuhanyu/software/psi4_132/share/psi4/basis/aug-cc-pvtz.gbs 


         ---------------------------------------------------------
                                   SCF
               by Justin Turney, Rob Parrish, Andy Simmonett
                          and Daniel G. A. Smith
                              RHF Reference
                       24 Threads,  95367 MiB Core
         ---------------------------------------------------------

  ==> Geometry <==

    Molecular point group: c1
    Full point group: C1

    Geometry (in Angstrom), charge = 0, multiplicity = 1:

       Center              X                  Y                   Z               Mass       
    ------------   -----------------  -----------------  -----------------  -----------------
         C           -1.795401330492     2.143706490051    -0.746625810717    12.000000000000
         C           -0.469987330492     1.639984490051    -0.968393810717    12.000000000000
         C            0.461502669508     2.395081490051    -1.687416810717    12.000000000000
         C            0.052277669508     3.627150490051    -2.166103810717    12.000000000000
         C           -1.253556330492     4.115258490051    -1.944085810717    12.000000000000
         C           -2.195677330492     3.388911490051    -1.235587810717    12.000000000000
         H            1.466189669508     2.011562490051    -1.853987810717     1.007825032230
         H            0.749480669508     4.245303490051    -2.731055810717     1.007825032230
         H           -1.519346330492     5.093529490051    -2.345592810717     1.007825032230
         H           -3.198073330492     3.767470490051    -1.066994810717     1.007825032230
         H           -3.399092330492     1.207175490051     0.311650189283     1.007825032230
         C           -1.542654330492     0.112018490051     0.196283189283    12.000000000000
         H           -1.796088330492    -0.789882509949     0.749132189283     1.007825032230
         N           -2.459041330492     1.157914490051    -0.006137810717    14.003074004430
         N           -0.363973330492     0.380784490051    -0.367086810717    14.003074004430
      Gh(P)           1.182337669508    -2.521337509949     1.171543189283    30.973761998420
      Gh(O)          -0.255262330492    -2.720564509949     1.283468189283    15.994914619570
      Gh(O)           2.080745669508    -3.818864509949     0.894443189283    15.994914619570
      Gh(H)           2.085322669508    -3.994552509949    -0.114607810717     1.007825032230
      Gh(O)           1.728098669508    -1.540316509949     0.050067189283    15.994914619570
      Gh(H)           1.012517669508    -0.786388509949    -0.148321810717     1.007825032230
      Gh(O)           1.799844669508    -2.012343509949     2.546493189283    15.994914619570
      Gh(H)           2.816826669508    -1.917805509949     2.432177189283     1.007825032230

  Running in c1 symmetry.

  Rotational constants: A =      0.05454  B =      0.00828  C =      0.00755 [cm^-1]
  Rotational constants: A =   1634.95344  B =    248.15963  C =    226.31196 [MHz]
  Nuclear repulsion =  401.499330590562579

  Charge       = 0
  Multiplicity = 1
  Electrons    = 62
  Nalpha       = 31
  Nbeta        = 31

  ==> Algorithm <==

  SCF Algorithm Type is DF.
  DIIS enabled.
  MOM disabled.
  Fractional occupation disabled.
  Guess Type is SAD.
  Energy threshold   = 1.00e-08
  Density threshold  = 1.00e-08
  Integral threshold = 0.00e+00

  ==> Primary Basis <==

  Basis Set: AUG-CC-PVTZ
    Blend: AUG-CC-PVTZ
    Number of shells: 279
    Number of basis function: 855
    Number of Cartesian functions: 999
    Spherical Harmonics?: true
    Max angular momentum: 3

   => Loading Basis Set <=

    Name: (AUG-CC-PVTZ AUX)
    Role: JKFIT
    Keyword: DF_BASIS_SCF
    atoms 1-6, 12              entry C          line   162 file /data0/home/wuhanyu/software/psi4_132/share/psi4/basis/aug-cc-pvtz-jkfit.gbs 
    atoms 7-11, 13, 19, 21, 23 entry H          line    70 file /data0/home/wuhanyu/software/psi4_132/share/psi4/basis/aug-cc-pvtz-jkfit.gbs 
    atoms 14-15                entry N          line   224 file /data0/home/wuhanyu/software/psi4_132/share/psi4/basis/aug-cc-pvtz-jkfit.gbs 
    atoms 16                   entry P          line   644 file /data0/home/wuhanyu/software/psi4_132/share/psi4/basis/aug-cc-pvtz-jkfit.gbs 
    atoms 17-18, 20, 22        entry O          line   286 file /data0/home/wuhanyu/software/psi4_132/share/psi4/basis/aug-cc-pvtz-jkfit.gbs 

  ==> Pre-Iterations <==

   -------------------------------------------------------
    Irrep   Nso     Nmo     Nalpha   Nbeta   Ndocc  Nsocc
   -------------------------------------------------------
     A        855     855       0       0       0       0
   -------------------------------------------------------
    Total     855     855      31      31      31       0
   -------------------------------------------------------

  ==> Integral Setup <==

  ==> DiskDFJK: Density-Fitted J/K Matrices <==

    J tasked:                  Yes
    K tasked:                  Yes
    wK tasked:                  No
    OpenMP threads:             24
    Integrals threads:          24
    Memory [MiB]:            71525
    Algorithm:                Core
    Integral Cache:           LOAD
    Schwarz Cutoff:          1E-12
    Fitting Condition:       1E-10

   => Auxiliary Basis Set <=

  Basis Set: (AUG-CC-PVTZ AUX)
    Blend: AUG-CC-PVTZ-JKFIT
    Number of shells: 558
    Number of basis function: 1912
    Number of Cartesian functions: 2378
    Spherical Harmonics?: true
    Max angular momentum: 4

  Minimum eigenvalue in the overlap matrix is 5.2072742636E-07.
  Using Symmetric Orthogonalization.

  SCF Guess: Superposition of Atomic Densities via on-the-fly atomic UHF.

  ==> Iterations <==

                           Total Energy        Delta E     RMS |[F,P]|

   @DF-RHF iter SAD:  -377.20476601664370   -3.77205e+02   0.00000e+00 
   @DF-RHF iter   1:  -377.35357368831296   -1.48808e-01   7.44494e-04 DIIS
   @DF-RHF iter   2:  -377.53359579486863   -1.80022e-01   4.08772e-04 DIIS
   @DF-RHF iter   3:  -377.59096554495261   -5.73698e-02   9.12559e-05 DIIS
   @DF-RHF iter   4:  -377.59451022325595   -3.54468e-03   3.90420e-05 DIIS
   @DF-RHF iter   5:  -377.59511042973702   -6.00206e-04   7.10812e-06 DIIS
   @DF-RHF iter   6:  -377.59514953011427   -3.91004e-05   3.77053e-06 DIIS
   @DF-RHF iter   7:  -377.59516106444568   -1.15343e-05   1.42931e-06 DIIS
   @DF-RHF iter   8:  -377.59516425938523   -3.19494e-06   5.43286e-07 DIIS
   @DF-RHF iter   9:  -377.59516473181128   -4.72426e-07   2.50947e-07 DIIS
   @DF-RHF iter  10:  -377.59516483168886   -9.98776e-08   1.12941e-07 DIIS
   @DF-RHF iter  11:  -377.59516486077308   -2.90842e-08   3.98093e-08 DIIS
   @DF-RHF iter  12:  -377.59516486426423   -3.49115e-09   1.52128e-08 DIIS
   @DF-RHF iter  13:  -377.59516486445972   -1.95485e-10   4.82093e-09 DIIS
  Energy and wave function converged.


  ==> Post-Iterations <==

    Orbital Energies [Eh]
    ---------------------

    Doubly Occupied:                                                      

       1A    -15.623057     2A    -15.558006     3A    -11.326601  
       4A    -11.279361     5A    -11.260272     6A    -11.242127  
       7A    -11.236978     8A    -11.235986     9A    -11.231038  
      10A     -1.327597    11A     -1.170546    12A     -1.136220  
      13A     -1.013421    14A     -0.997358    15A     -0.854648  
      16A     -0.837324    17A     -0.809112    18A     -0.737710  
      19A     -0.679295    20A     -0.665197    21A     -0.611630  
      22A     -0.605745    23A     -0.601274    24A     -0.584446  
      25A     -0.522754    26A     -0.512057    27A     -0.475525  
      28A     -0.432178    29A     -0.427864    30A     -0.317655  
      31A     -0.303244  

    Virtual:                                                              

      32A      0.019630    33A      0.027313    34A      0.031046  
      35A      0.040556    36A      0.043373    37A      0.048297  
      38A      0.058599    39A      0.059840    40A      0.070141  
      41A      0.078943    42A      0.083131    43A      0.087264  
      44A      0.093027    45A      0.095429    46A      0.099517  
      47A      0.102974    48A      0.106604    49A      0.108609  
      50A      0.111227    51A      0.115752    52A      0.120431  
      53A      0.121265    54A      0.123716    55A      0.127260  
      56A      0.131000    57A      0.133138    58A      0.133714  
      59A      0.146454    60A      0.148734    61A      0.154153  
      62A      0.156213    63A      0.159454    64A      0.161656  
      65A      0.166377    66A      0.174051    67A      0.174939  
      68A      0.181191    69A      0.182030    70A      0.183490  
      71A      0.185540    72A      0.197362    73A      0.200108  
      74A      0.206610    75A      0.209609    76A      0.212459  
      77A      0.215405    78A      0.218063    79A      0.224811  
      80A      0.227611    81A      0.234848    82A      0.237727  
      83A      0.245313    84A      0.247139    85A      0.251426  
      86A      0.258084    87A      0.262976    88A      0.263979  
      89A      0.269766    90A      0.270486    91A      0.276410  
      92A      0.280631    93A      0.285263    94A      0.292293  
      95A      0.295036    96A      0.298677    97A      0.301930  
      98A      0.307338    99A      0.313693   100A      0.317686  
     101A      0.321066   102A      0.324501   103A      0.333122  
     104A      0.336327   105A      0.340861   106A      0.343504  
     107A      0.347008   108A      0.349645   109A      0.354747  
     110A      0.360259   111A      0.366631   112A      0.368871  
     113A      0.369763   114A      0.374556   115A      0.379355  
     116A      0.381342   117A      0.386824   118A      0.388410  
     119A      0.392663   120A      0.394257   121A      0.402448  
     122A      0.404674   123A      0.412262   124A      0.418004  
     125A      0.423112   126A      0.426044   127A      0.429455  
     128A      0.434157   129A      0.436807   130A      0.447195  
     131A      0.449642   132A      0.449831   133A      0.454921  
     134A      0.461425   135A      0.463937   136A      0.467589  
     137A      0.471357   138A      0.471673   139A      0.479374  
     140A      0.485190   141A      0.489012   142A      0.493576  
     143A      0.496058   144A      0.500915   145A      0.503578  
     146A      0.506334   147A      0.508421   148A      0.511023  
     149A      0.513043   150A      0.518568   151A      0.522987  
     152A      0.526756   153A      0.529780   154A      0.531719  
     155A      0.535661   156A      0.542028   157A      0.547191  
     158A      0.547292   159A      0.552351   160A      0.555480  
     161A      0.560254   162A      0.562066   163A      0.565292  
     164A      0.572781   165A      0.578374   166A      0.602032  
     167A      0.610681   168A      0.615698   169A      0.615995  
     170A      0.627866   171A      0.632952   172A      0.635614  
     173A      0.647480   174A      0.651989   175A      0.655997  
     176A      0.668821   177A      0.672756   178A      0.676003  
     179A      0.680465   180A      0.688852   181A      0.692685  
     182A      0.700806   183A      0.702044   184A      0.710981  
     185A      0.722046   186A      0.728130   187A      0.730694  
     188A      0.741037   189A      0.741152   190A      0.749323  
     191A      0.758077   192A      0.760436   193A      0.762925  
     194A      0.770246   195A      0.771413   196A      0.780940  
     197A      0.790415   198A      0.792247   199A      0.796871  
     200A      0.801807   201A      0.806049   202A      0.810572  
     203A      0.814752   204A      0.824085   205A      0.825049  
     206A      0.828518   207A      0.831568   208A      0.839565  
     209A      0.844299   210A      0.845338   211A      0.855384  
     212A      0.859764   213A      0.864150   214A      0.870127  
     215A      0.873707   216A      0.876045   217A      0.884257  
     218A      0.888862   219A      0.892160   220A      0.895341  
     221A      0.897703   222A      0.899474   223A      0.905630  
     224A      0.909347   225A      0.918300   226A      0.925332  
     227A      0.926174   228A      0.929160   229A      0.934282  
     230A      0.941668   231A      0.948242   232A      0.952026  
     233A      0.953199   234A      0.954556   235A      0.969476  
     236A      0.971407   237A      0.974729   238A      0.978016  
     239A      0.981292   240A      0.988449   241A      0.991189  
     242A      0.993622   243A      0.997965   244A      1.003733  
     245A      1.005765   246A      1.009205   247A      1.016092  
     248A      1.025653   249A      1.027227   250A      1.029440  
     251A      1.033254   252A      1.035649   253A      1.039233  
     254A      1.043725   255A      1.046119   256A      1.053138  
     257A      1.057230   258A      1.062188   259A      1.069312  
     260A      1.074454   261A      1.076209   262A      1.083349  
     263A      1.088206   264A      1.091428   265A      1.096045  
     266A      1.102153   267A      1.111503   268A      1.114567  
     269A      1.116960   270A      1.123533   271A      1.127201  
     272A      1.130471   273A      1.134210   274A      1.143062  
     275A      1.146304   276A      1.157013   277A      1.159857  
     278A      1.164361   279A      1.170337   280A      1.174743  
     281A      1.177814   282A      1.184837   283A      1.190204  
     284A      1.196908   285A      1.201486   286A      1.202567  
     287A      1.204379   288A      1.215319   289A      1.218873  
     290A      1.224740   291A      1.231432   292A      1.238643  
     293A      1.243191   294A      1.254614   295A      1.259024  
     296A      1.263477   297A      1.269024   298A      1.277648  
     299A      1.286279   300A      1.291615   301A      1.295630  
     302A      1.304639   303A      1.308740   304A      1.321116  
     305A      1.322733   306A      1.328025   307A      1.332426  
     308A      1.339383   309A      1.350552   310A      1.357096  
     311A      1.365605   312A      1.370663   313A      1.374463  
     314A      1.376382   315A      1.385299   316A      1.390067  
     317A      1.398225   318A      1.401886   319A      1.406523  
     320A      1.410399   321A      1.424996   322A      1.428548  
     323A      1.433558   324A      1.438716   325A      1.445452  
     326A      1.453559   327A      1.460496   328A      1.469892  
     329A      1.475143   330A      1.482631   331A      1.487815  
     332A      1.490829   333A      1.500467   334A      1.509425  
     335A      1.513962   336A      1.520634   337A      1.523479  
     338A      1.531636   339A      1.532966   340A      1.536750  
     341A      1.542427   342A      1.557516   343A      1.566981  
     344A      1.573708   345A      1.575716   346A      1.577998  
     347A      1.583878   348A      1.596813   349A      1.608727  
     350A      1.615638   351A      1.626125   352A      1.640477  
     353A      1.643005   354A      1.652345   355A      1.662606  
     356A      1.665172   357A      1.674234   358A      1.685488  
     359A      1.688364   360A      1.694915   361A      1.702006  
     362A      1.705772   363A      1.714532   364A      1.720470  
     365A      1.734908   366A      1.747163   367A      1.758180  
     368A      1.759395   369A      1.770995   370A      1.772784  
     371A      1.782386   372A      1.793764   373A      1.800844  
     374A      1.805757   375A      1.817187   376A      1.824720  
     377A      1.830851   378A      1.838147   379A      1.853625  
     380A      1.860632   381A      1.863653   382A      1.875927  
     383A      1.878341   384A      1.886591   385A      1.896173  
     386A      1.905165   387A      1.906016   388A      1.912557  
     389A      1.921260   390A      1.926534   391A      1.931172  
     392A      1.953828   393A      1.956772   394A      1.966193  
     395A      1.978442   396A      1.979760   397A      1.989286  
     398A      2.000462   399A      2.009427   400A      2.017995  
     401A      2.019393   402A      2.039178   403A      2.048375  
     404A      2.049186   405A      2.059037   406A      2.067541  
     407A      2.075017   408A      2.082653   409A      2.083473  
     410A      2.105601   411A      2.114862   412A      2.121635  
     413A      2.134137   414A      2.142375   415A      2.151137  
     416A      2.153562   417A      2.166379   418A      2.172529  
     419A      2.188978   420A      2.214438   421A      2.220799  
     422A      2.224209   423A      2.242549   424A      2.259534  
     425A      2.261689   426A      2.277239   427A      2.282718  
     428A      2.283312   429A      2.299800   430A      2.308868  
     431A      2.323547   432A      2.342852   433A      2.344712  
     434A      2.356150   435A      2.371920   436A      2.379321  
     437A      2.386685   438A      2.392821   439A      2.405436  
     440A      2.420265   441A      2.432557   442A      2.435935  
     443A      2.455490   444A      2.471258   445A      2.477677  
     446A      2.483270   447A      2.489655   448A      2.496752  
     449A      2.507203   450A      2.518594   451A      2.528113  
     452A      2.536947   453A      2.547882   454A      2.550313  
     455A      2.564967   456A      2.576284   457A      2.581494  
     458A      2.587319   459A      2.589326   460A      2.592702  
     461A      2.602763   462A      2.611406   463A      2.623883  
     464A      2.630751   465A      2.645603   466A      2.650528  
     467A      2.652469   468A      2.671820   469A      2.680289  
     470A      2.690196   471A      2.705048   472A      2.713924  
     473A      2.721082   474A      2.731442   475A      2.733617  
     476A      2.741062   477A      2.750753   478A      2.755578  
     479A      2.767192   480A      2.770288   481A      2.793790  
     482A      2.796989   483A      2.803022   484A      2.811200  
     485A      2.819854   486A      2.831863   487A      2.839947  
     488A      2.844707   489A      2.855010   490A      2.864658  
     491A      2.876359   492A      2.896271   493A      2.898365  
     494A      2.916569   495A      2.921734   496A      2.937969  
     497A      2.949419   498A      2.957696   499A      2.981154  
     500A      2.999010   501A      3.003042   502A      3.010659  
     503A      3.022758   504A      3.040129   505A      3.048741  
     506A      3.052079   507A      3.061923   508A      3.072341  
     509A      3.106324   510A      3.122713   511A      3.140893  
     512A      3.157256   513A      3.164866   514A      3.180515  
     515A      3.187812   516A      3.207245   517A      3.211359  
     518A      3.213305   519A      3.214196   520A      3.224628  
     521A      3.240271   522A      3.265137   523A      3.269856  
     524A      3.276266   525A      3.292154   526A      3.307744  
     527A      3.311557   528A      3.320269   529A      3.331392  
     530A      3.342837   531A      3.354180   532A      3.377440  
     533A      3.381943   534A      3.391816   535A      3.394706  
     536A      3.395541   537A      3.403869   538A      3.408652  
     539A      3.422525   540A      3.431696   541A      3.444104  
     542A      3.450924   543A      3.466223   544A      3.474480  
     545A      3.482536   546A      3.498679   547A      3.503405  
     548A      3.520732   549A      3.528158   550A      3.530790  
     551A      3.535860   552A      3.553095   553A      3.557482  
     554A      3.571717   555A      3.571990   556A      3.582900  
     557A      3.597301   558A      3.605263   559A      3.609564  
     560A      3.628078   561A      3.631443   562A      3.633932  
     563A      3.653757   564A      3.672624   565A      3.683176  
     566A      3.686705   567A      3.690938   568A      3.703595  
     569A      3.712581   570A      3.731650   571A      3.749550  
     572A      3.758310   573A      3.772220   574A      3.788337  
     575A      3.791734   576A      3.799065   577A      3.806375  
     578A      3.828587   579A      3.834383   580A      3.846345  
     581A      3.864949   582A      3.880642   583A      3.888058  
     584A      3.901385   585A      3.911463   586A      3.921923  
     587A      3.935649   588A      3.941483   589A      3.955562  
     590A      3.972310   591A      3.978179   592A      3.982107  
     593A      3.986923   594A      4.002346   595A      4.003735  
     596A      4.015734   597A      4.036917   598A      4.054319  
     599A      4.058400   600A      4.068565   601A      4.081504  
     602A      4.082786   603A      4.088505   604A      4.099169  
     605A      4.121546   606A      4.132358   607A      4.137852  
     608A      4.149307   609A      4.155681   610A      4.174535  
     611A      4.178379   612A      4.203532   613A      4.213877  
     614A      4.224164   615A      4.228386   616A      4.238113  
     617A      4.241609   618A      4.249550   619A      4.260810  
     620A      4.269572   621A      4.288324   622A      4.292365  
     623A      4.312064   624A      4.326694   625A      4.330088  
     626A      4.337494   627A      4.339889   628A      4.353558  
     629A      4.374439   630A      4.381620   631A      4.396600  
     632A      4.404419   633A      4.416082   634A      4.428161  
     635A      4.439054   636A      4.439895   637A      4.446999  
     638A      4.453563   639A      4.465691   640A      4.471213  
     641A      4.483352   642A      4.494214   643A      4.505508  
     644A      4.523367   645A      4.536678   646A      4.542551  
     647A      4.546455   648A      4.558276   649A      4.573270  
     650A      4.580676   651A      4.603103   652A      4.611546  
     653A      4.619919   654A      4.629248   655A      4.632262  
     656A      4.666730   657A      4.685406   658A      4.717503  
     659A      4.720913   660A      4.728459   661A      4.731888  
     662A      4.752472   663A      4.770581   664A      4.797489  
     665A      4.799729   666A      4.809792   667A      4.839024  
     668A      4.840832   669A      4.896307   670A      4.906474  
     671A      4.915807   672A      4.923757   673A      4.934590  
     674A      4.954986   675A      4.960907   676A      4.972439  
     677A      4.995532   678A      4.997469   679A      5.002664  
     680A      5.024908   681A      5.031168   682A      5.061665  
     683A      5.075077   684A      5.087319   685A      5.106513  
     686A      5.113026   687A      5.121180   688A      5.129045  
     689A      5.138714   690A      5.144692   691A      5.158245  
     692A      5.180708   693A      5.182562   694A      5.200965  
     695A      5.206559   696A      5.248377   697A      5.268207  
     698A      5.280958   699A      5.300630   700A      5.313199  
     701A      5.323975   702A      5.345792   703A      5.356626  
     704A      5.385599   705A      5.400816   706A      5.403534  
     707A      5.422556   708A      5.445166   709A      5.463542  
     710A      5.487261   711A      5.519958   712A      5.535572  
     713A      5.541568   714A      5.543718   715A      5.561020  
     716A      5.568450   717A      5.578359   718A      5.594682  
     719A      5.605479   720A      5.610632   721A      5.657654  
     722A      5.670353   723A      5.683427   724A      5.685865  
     725A      5.698301   726A      5.762554   727A      5.800061  
     728A      5.826625   729A      5.851922   730A      5.861403  
     731A      5.872710   732A      5.877429   733A      5.922857  
     734A      5.937595   735A      5.950129   736A      5.959467  
     737A      5.981538   738A      5.985430   739A      6.007340  
     740A      6.134086   741A      6.146195   742A      6.153287  
     743A      6.172562   744A      6.182116   745A      6.230776  
     746A      6.251106   747A      6.266436   748A      6.319369  
     749A      6.333212   750A      6.358101   751A      6.360856  
     752A      6.383397   753A      6.452280   754A      6.553326  
     755A      6.586450   756A      6.611760   757A      6.622104  
     758A      6.654328   759A      6.711976   760A      6.734557  
     761A      6.774869   762A      6.806747   763A      6.879782  
     764A      6.952820   765A      6.983690   766A      7.037186  
     767A      7.064108   768A      7.109626   769A      7.191168  
     770A      7.230074   771A      7.286475   772A      7.611477  
     773A      7.627256   774A      7.662898   775A      7.735224  
     776A      7.764510   777A      7.769894   778A      7.792533  
     779A      7.802450   780A      7.815847   781A      7.839065  
     782A      7.854583   783A      7.868439   784A      7.896871  
     785A      7.904133   786A      7.921353   787A      7.926069  
     788A      7.959387   789A      8.008853   790A      8.019575  
     791A      8.048045   792A      8.065748   793A      8.136842  
     794A      8.182174   795A      8.213788   796A      8.303832  
     797A      8.355256   798A      8.482583   799A      8.505537  
     800A      8.555463   801A      8.733406   802A      9.580948  
     803A      9.748623   804A      9.785924   805A      9.846773  
     806A      9.885352   807A      9.913934   808A      9.934973  
     809A      9.947561   810A     10.024587   811A     10.098497  
     812A     10.145467   813A     10.154998   814A     10.225085  
     815A     10.260941   816A     10.296427   817A     10.386807  
     818A     10.450749   819A     10.633176   820A     10.688825  
     821A     10.822226   822A     10.944802   823A     11.444394  
     824A     11.574320   825A     11.632076   826A     11.730295  
     827A     11.811821   828A     11.858601   829A     11.896499  
     830A     12.003187   831A     12.354127   832A     12.612928  
     833A     12.638078   834A     13.012786   835A     13.731560  
     836A     13.808703   837A     14.002094   838A     16.167812  
     839A     16.326951   840A     16.428604   841A     18.203471  
     842A     18.533861   843A     18.905820   844A     19.240758  
     845A     19.562148   846A     19.776147   847A     20.391361  
     848A     23.145695   849A     23.254848   850A     23.493760  
     851A     60.664080   852A     62.478631   853A     63.347741  
     854A     64.831792   855A    123.935818  

    Final Occupation by Irrep:
              A 
    DOCC [    31 ]

  @DF-RHF Final Energy:  -377.59516486445972

   => Energetics <=

    Nuclear Repulsion Energy =            401.4993305905625789
    One-Electron Energy =               -1306.9565351653643575
    Two-Electron Energy =                 527.8620397103420601
    Total Energy =                       -377.5951648644597753

Computation Completed


Properties will be evaluated at   0.000000,   0.000000,   0.000000 [a0]

Properties computed using the SCF density matrix

  Nuclear Dipole Moment: [e a0]
     X:  -128.3483      Y:   247.2493      Z:  -115.0106

  Electronic Dipole Moment: [e a0]
     X:   127.0274      Y:  -247.0814      Z:   115.4060

  Dipole Moment: [e a0]
     X:    -1.3209      Y:     0.1680      Z:     0.3953     Total:     1.3890

  Dipole Moment: [D]
     X:    -3.3574      Y:     0.4269      Z:     1.0048     Total:     3.5304


*** tstop() called on localhost.localdomain at Sun May 22 17:20:54 2022
Module time:
	user time   =     499.92 seconds =       8.33 minutes
	system time =       5.85 seconds =       0.10 minutes
	total time  =         26 seconds =       0.43 minutes
Total time:
	user time   =    1451.81 seconds =      24.20 minutes
	system time =      22.88 seconds =       0.38 minutes
	total time  =         78 seconds =       1.30 minutes

*** tstart() called on localhost.localdomain
*** at Sun May 22 17:20:54 2022


  //>>>>>>>>>>>>>>>>>>>>>>>>>>>>>>>>>>>//
  //               DFMP2               //
  //<<<<<<<<<<<<<<<<<<<<<<<<<<<<<<<<<<<//

   => Loading Basis Set <=

    Name: (AUG-CC-PVTZ AUX)
    Role: RIFIT
    Keyword: DF_BASIS_MP2
    atoms 1-6, 12              entry C          line   148 file /data0/home/wuhanyu/software/psi4_132/share/psi4/basis/aug-cc-pvtz-ri.gbs 
    atoms 7-11, 13, 19, 21, 23 entry H          line    30 file /data0/home/wuhanyu/software/psi4_132/share/psi4/basis/aug-cc-pvtz-ri.gbs 
    atoms 14-15                entry N          line   206 file /data0/home/wuhanyu/software/psi4_132/share/psi4/basis/aug-cc-pvtz-ri.gbs 
    atoms 16                   entry P          line   590 file /data0/home/wuhanyu/software/psi4_132/share/psi4/basis/aug-cc-pvtz-ri.gbs 
    atoms 17-18, 20, 22        entry O          line   264 file /data0/home/wuhanyu/software/psi4_132/share/psi4/basis/aug-cc-pvtz-ri.gbs 

	 --------------------------------------------------------
	                          DF-MP2                         
	      2nd-Order Density-Fitted Moller-Plesset Theory     
	              RMP2 Wavefunction,  24 Threads             
	                                                         
	        Rob Parrish, Justin Turney, Andy Simmonett,      
	           Ed Hohenstein, and C. David Sherrill          
	 --------------------------------------------------------

   => Auxiliary Basis Set <=

  Basis Set: (AUG-CC-PVTZ AUX)
    Blend: AUG-CC-PVTZ-RI
    Number of shells: 527
    Number of basis function: 1939
    Number of Cartesian functions: 2454
    Spherical Harmonics?: true
    Max angular momentum: 4

	 --------------------------------------------------------
	                 NBF =   855, NAUX =  1939
	 --------------------------------------------------------
	   CLASS    FOCC     OCC    AOCC    AVIR     VIR    FVIR
	   PAIRS       9      31      22     824     824       0
	 --------------------------------------------------------

	 Will attempt to load fitting metric from file 97.

	-----------------------------------------------------------
	 ==================> DF-MP2 Energies <==================== 
	-----------------------------------------------------------
	 Reference Energy          =    -377.5951648644597185 [Eh]
	 Singles Energy            =      -0.0000000000000000 [Eh]
	 Same-Spin Energy          =      -0.3975442390254093 [Eh]
	 Opposite-Spin Energy      =      -1.1273058817804988 [Eh]
	 Correlation Energy        =      -1.5248501208059082 [Eh]
	 Total Energy              =    -379.1200149852656409 [Eh]
	-----------------------------------------------------------
	 ================> DF-SCS-MP2 Energies <================== 
	-----------------------------------------------------------
	 SCS Same-Spin Scale       =       0.3333333333333333 [-]
	 SCS Opposite-Spin Scale   =       1.2000000000000000 [-]
	 SCS Same-Spin Energy      =      -0.1325147463418031 [Eh]
	 SCS Opposite-Spin Energy  =      -1.3527670581365985 [Eh]
	 SCS Correlation Energy    =      -1.4852818044784015 [Eh]
	 SCS Total Energy          =    -379.0804466689381229 [Eh]
	-----------------------------------------------------------


*** tstop() called on localhost.localdomain at Sun May 22 17:21:05 2022
Module time:
	user time   =     134.75 seconds =       2.25 minutes
	system time =       3.19 seconds =       0.05 minutes
	total time  =         11 seconds =       0.18 minutes
Total time:
	user time   =    1586.56 seconds =      26.44 minutes
	system time =      26.07 seconds =       0.43 minutes
	total time  =         89 seconds =       1.48 minutes

  //>>>>>>>>>>>>>>>>>>>>>>>>>>>>>>>>>>>//
  //            Monomer B HF           //
  //<<<<<<<<<<<<<<<<<<<<<<<<<<<<<<<<<<<//


*** tstart() called on localhost.localdomain
*** at Sun May 22 17:21:05 2022

   => Loading Basis Set <=

    Name: AUG-CC-PVTZ
    Role: ORBITAL
    Keyword: BASIS
    atoms 1-6, 12              entry C          line   235 file /data0/home/wuhanyu/software/psi4_132/share/psi4/basis/aug-cc-pvtz.gbs 
    atoms 7-11, 13, 19, 21, 23 entry H          line    36 file /data0/home/wuhanyu/software/psi4_132/share/psi4/basis/aug-cc-pvtz.gbs 
    atoms 14-15                entry N          line   281 file /data0/home/wuhanyu/software/psi4_132/share/psi4/basis/aug-cc-pvtz.gbs 
    atoms 16                   entry P          line   820 file /data0/home/wuhanyu/software/psi4_132/share/psi4/basis/aug-cc-pvtz.gbs 
    atoms 17-18, 20, 22        entry O          line   327 file /data0/home/wuhanyu/software/psi4_132/share/psi4/basis/aug-cc-pvtz.gbs 


         ---------------------------------------------------------
                                   SCF
               by Justin Turney, Rob Parrish, Andy Simmonett
                          and Daniel G. A. Smith
                              RHF Reference
                       24 Threads,  95367 MiB Core
         ---------------------------------------------------------

  ==> Geometry <==

    Molecular point group: c1
    Full point group: C1

    Geometry (in Angstrom), charge = 0, multiplicity = 1:

       Center              X                  Y                   Z               Mass       
    ------------   -----------------  -----------------  -----------------  -----------------
      Gh(C)          -1.795401330492     2.143706490051    -0.746625810717    12.000000000000
      Gh(C)          -0.469987330492     1.639984490051    -0.968393810717    12.000000000000
      Gh(C)           0.461502669508     2.395081490051    -1.687416810717    12.000000000000
      Gh(C)           0.052277669508     3.627150490051    -2.166103810717    12.000000000000
      Gh(C)          -1.253556330492     4.115258490051    -1.944085810717    12.000000000000
      Gh(C)          -2.195677330492     3.388911490051    -1.235587810717    12.000000000000
      Gh(H)           1.466189669508     2.011562490051    -1.853987810717     1.007825032230
      Gh(H)           0.749480669508     4.245303490051    -2.731055810717     1.007825032230
      Gh(H)          -1.519346330492     5.093529490051    -2.345592810717     1.007825032230
      Gh(H)          -3.198073330492     3.767470490051    -1.066994810717     1.007825032230
      Gh(H)          -3.399092330492     1.207175490051     0.311650189283     1.007825032230
      Gh(C)          -1.542654330492     0.112018490051     0.196283189283    12.000000000000
      Gh(H)          -1.796088330492    -0.789882509949     0.749132189283     1.007825032230
      Gh(N)          -2.459041330492     1.157914490051    -0.006137810717    14.003074004430
      Gh(N)          -0.363973330492     0.380784490051    -0.367086810717    14.003074004430
         P            1.182337669508    -2.521337509949     1.171543189283    30.973761998420
         O           -0.255262330492    -2.720564509949     1.283468189283    15.994914619570
         O            2.080745669508    -3.818864509949     0.894443189283    15.994914619570
         H            2.085322669508    -3.994552509949    -0.114607810717     1.007825032230
         O            1.728098669508    -1.540316509949     0.050067189283    15.994914619570
         H            1.012517669508    -0.786388509949    -0.148321810717     1.007825032230
         O            1.799844669508    -2.012343509949     2.546493189283    15.994914619570
         H            2.816826669508    -1.917805509949     2.432177189283     1.007825032230

  Running in c1 symmetry.

  Rotational constants: A =      0.05454  B =      0.00828  C =      0.00755 [cm^-1]
  Rotational constants: A =   1634.95344  B =    248.15963  C =    226.31196 [MHz]
  Nuclear repulsion =  280.251801886885914

  Charge       = 0
  Multiplicity = 1
  Electrons    = 50
  Nalpha       = 25
  Nbeta        = 25

  ==> Algorithm <==

  SCF Algorithm Type is DF.
  DIIS enabled.
  MOM disabled.
  Fractional occupation disabled.
  Guess Type is SAD.
  Energy threshold   = 1.00e-08
  Density threshold  = 1.00e-08
  Integral threshold = 0.00e+00

  ==> Primary Basis <==

  Basis Set: AUG-CC-PVTZ
    Blend: AUG-CC-PVTZ
    Number of shells: 279
    Number of basis function: 855
    Number of Cartesian functions: 999
    Spherical Harmonics?: true
    Max angular momentum: 3

   => Loading Basis Set <=

    Name: (AUG-CC-PVTZ AUX)
    Role: JKFIT
    Keyword: DF_BASIS_SCF
    atoms 1-6, 12              entry C          line   162 file /data0/home/wuhanyu/software/psi4_132/share/psi4/basis/aug-cc-pvtz-jkfit.gbs 
    atoms 7-11, 13, 19, 21, 23 entry H          line    70 file /data0/home/wuhanyu/software/psi4_132/share/psi4/basis/aug-cc-pvtz-jkfit.gbs 
    atoms 14-15                entry N          line   224 file /data0/home/wuhanyu/software/psi4_132/share/psi4/basis/aug-cc-pvtz-jkfit.gbs 
    atoms 16                   entry P          line   644 file /data0/home/wuhanyu/software/psi4_132/share/psi4/basis/aug-cc-pvtz-jkfit.gbs 
    atoms 17-18, 20, 22        entry O          line   286 file /data0/home/wuhanyu/software/psi4_132/share/psi4/basis/aug-cc-pvtz-jkfit.gbs 

  ==> Pre-Iterations <==

   -------------------------------------------------------
    Irrep   Nso     Nmo     Nalpha   Nbeta   Ndocc  Nsocc
   -------------------------------------------------------
     A        855     855       0       0       0       0
   -------------------------------------------------------
    Total     855     855      25      25      25       0
   -------------------------------------------------------

  ==> Integral Setup <==

  ==> DiskDFJK: Density-Fitted J/K Matrices <==

    J tasked:                  Yes
    K tasked:                  Yes
    wK tasked:                  No
    OpenMP threads:             24
    Integrals threads:          24
    Memory [MiB]:            71525
    Algorithm:                Core
    Integral Cache:           LOAD
    Schwarz Cutoff:          1E-12
    Fitting Condition:       1E-10

   => Auxiliary Basis Set <=

  Basis Set: (AUG-CC-PVTZ AUX)
    Blend: AUG-CC-PVTZ-JKFIT
    Number of shells: 558
    Number of basis function: 1912
    Number of Cartesian functions: 2378
    Spherical Harmonics?: true
    Max angular momentum: 4

  Minimum eigenvalue in the overlap matrix is 5.2072742636E-07.
  Using Symmetric Orthogonalization.

  SCF Guess: Superposition of Atomic Densities via on-the-fly atomic UHF.

  ==> Iterations <==

                           Total Energy        Delta E     RMS |[F,P]|

   @DF-RHF iter SAD:  -641.40238169101713   -6.41402e+02   0.00000e+00 
   @DF-RHF iter   1:  -641.95485351469995   -5.52472e-01   9.34204e-04 DIIS
   @DF-RHF iter   2:  -642.11141391060403   -1.56560e-01   6.09945e-04 DIIS
   @DF-RHF iter   3:  -642.19542765854840   -8.40137e-02   6.12547e-05 DIIS
   @DF-RHF iter   4:  -642.19688042503981   -1.45277e-03   3.01850e-05 DIIS
   @DF-RHF iter   5:  -642.19717464937253   -2.94224e-04   6.97913e-06 DIIS
   @DF-RHF iter   6:  -642.19720014157986   -2.54922e-05   1.68906e-06 DIIS
   @DF-RHF iter   7:  -642.19720273009784   -2.58852e-06   4.31693e-07 DIIS
   @DF-RHF iter   8:  -642.19720288019982   -1.50102e-07   1.42433e-07 DIIS
   @DF-RHF iter   9:  -642.19720289447150   -1.42717e-08   4.36256e-08 DIIS
   @DF-RHF iter  10:  -642.19720289547593   -1.00442e-09   1.70779e-08 DIIS
   @DF-RHF iter  11:  -642.19720289564111   -1.65187e-10   3.56493e-09 DIIS
  Energy and wave function converged.


  ==> Post-Iterations <==

    Orbital Energies [Eh]
    ---------------------

    Doubly Occupied:                                                      

       1A    -80.109262     2A    -20.633900     3A    -20.618110  
       4A    -20.613447     5A    -20.514579     6A     -7.627540  
       7A     -5.525831     8A     -5.525714     9A     -5.524485  
      10A     -1.465202    11A     -1.388401    12A     -1.379577  
      13A     -1.305444    14A     -0.845355    15A     -0.764698  
      16A     -0.743298    17A     -0.673633    18A     -0.665691  
      19A     -0.613492    20A     -0.596907    21A     -0.578428  
      22A     -0.554751    23A     -0.545982    24A     -0.477923  
      25A     -0.473063  

    Virtual:                                                              

      26A      0.010467    27A      0.022372    28A      0.029615  
      29A      0.035848    30A      0.036099    31A      0.048577  
      32A      0.050783    33A      0.059784    34A      0.064646  
      35A      0.072556    36A      0.074704    37A      0.082150  
      38A      0.083967    39A      0.088327    40A      0.089634  
      41A      0.092688    42A      0.097265    43A      0.100582  
      44A      0.109612    45A      0.115073    46A      0.117425  
      47A      0.121866    48A      0.122479    49A      0.122558  
      50A      0.129567    51A      0.135061    52A      0.143469  
      53A      0.146376    54A      0.148233    55A      0.150591  
      56A      0.153257    57A      0.157074    58A      0.163047  
      59A      0.168518    60A      0.174937    61A      0.177153  
      62A      0.180014    63A      0.183135    64A      0.185984  
      65A      0.189613    66A      0.194015    67A      0.198764  
      68A      0.207168    69A      0.211657    70A      0.214133  
      71A      0.217825    72A      0.224712    73A      0.225545  
      74A      0.230432    75A      0.235920    76A      0.237298  
      77A      0.240678    78A      0.248817    79A      0.255326  
      80A      0.257404    81A      0.265070    82A      0.268309  
      83A      0.273675    84A      0.276581    85A      0.281804  
      86A      0.283780    87A      0.287242    88A      0.288613  
      89A      0.298391    90A      0.302672    91A      0.308589  
      92A      0.309537    93A      0.314583    94A      0.318867  
      95A      0.323052    96A      0.324039    97A      0.325362  
      98A      0.329465    99A      0.336549   100A      0.339714  
     101A      0.345649   102A      0.346577   103A      0.348681  
     104A      0.359693   105A      0.360339   106A      0.365484  
     107A      0.366332   108A      0.373931   109A      0.376113  
     110A      0.379485   111A      0.383862   112A      0.388106  
     113A      0.393369   114A      0.396552   115A      0.402015  
     116A      0.405846   117A      0.408022   118A      0.410273  
     119A      0.411606   120A      0.414985   121A      0.416754  
     122A      0.417927   123A      0.423058   124A      0.424121  
     125A      0.429453   126A      0.435981   127A      0.440973  
     128A      0.447232   129A      0.450421   130A      0.453825  
     131A      0.456103   132A      0.464373   133A      0.466674  
     134A      0.474632   135A      0.477037   136A      0.479043  
     137A      0.485825   138A      0.489629   139A      0.494444  
     140A      0.497943   141A      0.505571   142A      0.508655  
     143A      0.512994   144A      0.521441   145A      0.524825  
     146A      0.535970   147A      0.541449   148A      0.550203  
     149A      0.553442   150A      0.557066   151A      0.560847  
     152A      0.564497   153A      0.578157   154A      0.584718  
     155A      0.590609   156A      0.600286   157A      0.602902  
     158A      0.605860   159A      0.611512   160A      0.621233  
     161A      0.625882   162A      0.628687   163A      0.630559  
     164A      0.638620   165A      0.642493   166A      0.645464  
     167A      0.648089   168A      0.656297   169A      0.658552  
     170A      0.662110   171A      0.672651   172A      0.674393  
     173A      0.682630   174A      0.688323   175A      0.689036  
     176A      0.691301   177A      0.707128   178A      0.708474  
     179A      0.721403   180A      0.722647   181A      0.724511  
[...]
     605A      4.565147   606A      4.570629   607A      4.597674  
     608A      4.611685   609A      4.614400   610A      4.627359  
     611A      4.639035   612A      4.665622   613A      4.677625  
     614A      4.687002   615A      4.701077   616A      4.710854  
     617A      4.734509   618A      4.739889   619A      4.744146  
     620A      4.749033   621A      4.766919   622A      4.776989  
     623A      4.799083   624A      4.816185   625A      4.828192  
     626A      4.847199   627A      4.875864   628A      4.887624  
     629A      4.908960   630A      4.927858   631A      4.928588  
     632A      4.938920   633A      4.947131   634A      4.951335  
     635A      4.973338   636A      4.979385   637A      4.992329  
     638A      4.997239   639A      5.008475   640A      5.015363  
     641A      5.034427   642A      5.049876   643A      5.059263  
     644A      5.070157   645A      5.086512   646A      5.094438  
     647A      5.105903   648A      5.122544   649A      5.132985  
     650A      5.137176   651A      5.162648   652A      5.178216  
     653A      5.183361   654A      5.190749   655A      5.197178  
     656A      5.208881   657A      5.225987   658A      5.235302  
     659A      5.244609   660A      5.263740   661A      5.270489  
     662A      5.274863   663A      5.291030   664A      5.300495  
     665A      5.313210   666A      5.317810   667A      5.356051  
     668A      5.361210   669A      5.364222   670A      5.380557  
     671A      5.397276   672A      5.421572   673A      5.435574  
     674A      5.492853   675A      5.514297   676A      5.520554  
     677A      5.528957   678A      5.541734   679A      5.561599  
     680A      5.579054   681A      5.584613   682A      5.604063  
     683A      5.616944   684A      5.628965   685A      5.663086  
     686A      5.687504   687A      5.698766   688A      5.711092  
     689A      5.725075   690A      5.735534   691A      5.745078  
     692A      5.751975   693A      5.754368   694A      5.790966  
     695A      5.805232   696A      5.849885   697A      5.865143  
     698A      5.908422   699A      5.940186   700A      5.980374  
     701A      5.995050   702A      6.022503   703A      6.029072  
     704A      6.054644   705A      6.067526   706A      6.068775  
     707A      6.094791   708A      6.121591   709A      6.172958  
     710A      6.198784   711A      6.308607   712A      6.325992  
     713A      6.338082   714A      6.355513   715A      6.385738  
     716A      6.400791   717A      6.407047   718A      6.422456  
     719A      6.458493   720A      6.471410   721A      6.492960  
     722A      6.521540   723A      6.537265   724A      6.559228  
     725A      6.579964   726A      6.588603   727A      6.603629  
     728A      6.681263   729A      6.710503   730A      6.713204  
     731A      6.733343   732A      6.733700   733A      6.760406  
     734A      6.768072   735A      6.782333   736A      6.801122  
     737A      6.805126   738A      6.815221   739A      6.820233  
     740A      6.825282   741A      6.838214   742A      6.845631  
     743A      6.858044   744A      6.877572   745A      6.890160  
     746A      6.901657   747A      6.916697   748A      6.931829  
     749A      6.939204   750A      6.945613   751A      6.947051  
     752A      6.971239   753A      6.991086   754A      7.011860  
     755A      7.033747   756A      7.049435   757A      7.106970  
     758A      7.112094   759A      7.120496   760A      7.132462  
     761A      7.148063   762A      7.163147   763A      7.179283  
     764A      7.188676   765A      7.214818   766A      7.221135  
     767A      7.231693   768A      7.259435   769A      7.280495  
     770A      7.288044   771A      7.307272   772A      7.324279  
     773A      7.344544   774A      7.367431   775A      7.386138  
     776A      7.388907   777A      7.403715   778A      7.420117  
     779A      7.430533   780A      7.466977   781A      7.488152  
     782A      7.497822   783A      7.500310   784A      7.515359  
     785A      7.548994   786A      7.559414   787A      7.598137  
     788A      7.648505   789A      7.662483   790A      7.675268  
     791A      7.705459   792A      7.709008   793A      7.721011  
     794A      7.749451   795A      7.759249   796A      7.768130  
     797A      7.804354   798A      7.816045   799A      7.838703  
     800A      7.865553   801A      7.918262   802A      7.937959  
     803A      7.950043   804A      7.966842   805A      8.018868  
     806A      8.084781   807A      8.131873   808A      8.144404  
     809A      8.214454   810A      8.226265   811A      8.237979  
     812A      8.248122   813A      8.304415   814A      8.383446  
     815A      8.470235   816A      8.569829   817A      8.650440  
     818A      8.720538   819A      8.867438   820A      8.926913  
     821A      9.117591   822A      9.260971   823A      9.370330  
     824A      9.487114   825A      9.540339   826A      9.646489  
     827A      9.817996   828A     10.036842   829A     10.088355  
     830A     10.462837   831A     10.812866   832A     10.921561  
     833A     11.136989   834A     11.239696   835A     11.307160  
     836A     11.404883   837A     11.565615   838A     11.735494  
     839A     12.032097   840A     12.185292   841A     12.261661  
     842A     12.931828   843A     13.106873   844A     14.160107  
     845A     14.519141   846A     15.185031   847A     50.199373  
     848A     50.337626   849A     51.446250   850A     53.560556  
     851A     55.747394   852A     56.692555   853A     57.255070  
     854A     61.063733   855A     63.097403  

    Final Occupation by Irrep:
              A 
    DOCC [    25 ]

  @DF-RHF Final Energy:  -642.19720289564111

   => Energetics <=

    Nuclear Repulsion Energy =            280.2518018868859144
    One-Electron Energy =               -1445.3685768501707116
    Two-Electron Energy =                 522.9195720676436849
    Total Energy =                       -642.1972028956411123

Computation Completed


Properties will be evaluated at   0.000000,   0.000000,   0.000000 [a0]

Properties computed using the SCF density matrix

  Nuclear Dipole Moment: [e a0]
     X:   125.6236      Y:  -236.6986      Z:   109.4873

  Electronic Dipole Moment: [e a0]
     X:  -124.2510      Y:   237.3764      Z:  -110.5219

  Dipole Moment: [e a0]
     X:     1.3726      Y:     0.6778      Z:    -1.0347     Total:     1.8477

  Dipole Moment: [D]
     X:     3.4889      Y:     1.7227      Z:    -2.6298     Total:     4.6964


*** tstop() called on localhost.localdomain at Sun May 22 17:21:27 2022
Module time:
	user time   =     421.02 seconds =       7.02 minutes
	system time =       4.93 seconds =       0.08 minutes
	total time  =         22 seconds =       0.37 minutes
Total time:
	user time   =    2007.70 seconds =      33.46 minutes
	system time =      31.00 seconds =       0.52 minutes
	total time  =        111 seconds =       1.85 minutes

*** tstart() called on localhost.localdomain
*** at Sun May 22 17:21:27 2022


  //>>>>>>>>>>>>>>>>>>>>>>>>>>>>>>>>>>>//
  //               DFMP2               //
  //<<<<<<<<<<<<<<<<<<<<<<<<<<<<<<<<<<<//

   => Loading Basis Set <=

    Name: (AUG-CC-PVTZ AUX)
    Role: RIFIT
    Keyword: DF_BASIS_MP2
    atoms 1-6, 12              entry C          line   148 file /data0/home/wuhanyu/software/psi4_132/share/psi4/basis/aug-cc-pvtz-ri.gbs 
    atoms 7-11, 13, 19, 21, 23 entry H          line    30 file /data0/home/wuhanyu/software/psi4_132/share/psi4/basis/aug-cc-pvtz-ri.gbs 
    atoms 14-15                entry N          line   206 file /data0/home/wuhanyu/software/psi4_132/share/psi4/basis/aug-cc-pvtz-ri.gbs 
    atoms 16                   entry P          line   590 file /data0/home/wuhanyu/software/psi4_132/share/psi4/basis/aug-cc-pvtz-ri.gbs 
    atoms 17-18, 20, 22        entry O          line   264 file /data0/home/wuhanyu/software/psi4_132/share/psi4/basis/aug-cc-pvtz-ri.gbs 

	 --------------------------------------------------------
	                          DF-MP2                         
	      2nd-Order Density-Fitted Moller-Plesset Theory     
	              RMP2 Wavefunction,  24 Threads             
	                                                         
	        Rob Parrish, Justin Turney, Andy Simmonett,      
	           Ed Hohenstein, and C. David Sherrill          
	 --------------------------------------------------------

   => Auxiliary Basis Set <=

  Basis Set: (AUG-CC-PVTZ AUX)
    Blend: AUG-CC-PVTZ-RI
    Number of shells: 527
    Number of basis function: 1939
    Number of Cartesian functions: 2454
    Spherical Harmonics?: true
    Max angular momentum: 4

	 --------------------------------------------------------
	                 NBF =   855, NAUX =  1939
	 --------------------------------------------------------
	   CLASS    FOCC     OCC    AOCC    AVIR     VIR    FVIR
	   PAIRS       9      25      16     830     830       0
	 --------------------------------------------------------

	 Will attempt to load fitting metric from file 97.

	-----------------------------------------------------------
	 ==================> DF-MP2 Energies <==================== 
	-----------------------------------------------------------
	 Reference Energy          =    -642.1972028956411123 [Eh]
	 Singles Energy            =      -0.0000000000000000 [Eh]
	 Same-Spin Energy          =      -0.2975341037376406 [Eh]
	 Opposite-Spin Energy      =      -0.8435945590383397 [Eh]
	 Correlation Energy        =      -1.1411286627759802 [Eh]
	 Total Energy              =    -643.3383315584170532 [Eh]
	-----------------------------------------------------------
	 ================> DF-SCS-MP2 Energies <================== 
	-----------------------------------------------------------
	 SCS Same-Spin Scale       =       0.3333333333333333 [-]
	 SCS Opposite-Spin Scale   =       1.2000000000000000 [-]
	 SCS Same-Spin Energy      =      -0.0991780345792135 [Eh]
	 SCS Opposite-Spin Energy  =      -1.0123134708460075 [Eh]
	 SCS Correlation Energy    =      -1.1114915054252210 [Eh]
	 SCS Total Energy          =    -643.3086944010663046 [Eh]
	-----------------------------------------------------------


*** tstop() called on localhost.localdomain at Sun May 22 17:21:37 2022
Module time:
	user time   =     128.11 seconds =       2.14 minutes
	system time =       2.87 seconds =       0.05 minutes
	total time  =         10 seconds =       0.17 minutes
Total time:
	user time   =    2135.81 seconds =      35.60 minutes
	system time =      33.87 seconds =       0.56 minutes
	total time  =        121 seconds =       2.02 minutes
  Constructing Basis Sets for SAPT...

   => Loading Basis Set <=

    Name: (AUG-CC-PVTZ AUX)
    Role: RIFIT
    Keyword: DF_BASIS_SAPT
    atoms 1-6, 12              entry C          line   148 file /data0/home/wuhanyu/software/psi4_132/share/psi4/basis/aug-cc-pvtz-ri.gbs 
    atoms 7-11, 13, 19, 21, 23 entry H          line    30 file /data0/home/wuhanyu/software/psi4_132/share/psi4/basis/aug-cc-pvtz-ri.gbs 
    atoms 14-15                entry N          line   206 file /data0/home/wuhanyu/software/psi4_132/share/psi4/basis/aug-cc-pvtz-ri.gbs 
    atoms 16                   entry P          line   590 file /data0/home/wuhanyu/software/psi4_132/share/psi4/basis/aug-cc-pvtz-ri.gbs 
    atoms 17-18, 20, 22        entry O          line   264 file /data0/home/wuhanyu/software/psi4_132/share/psi4/basis/aug-cc-pvtz-ri.gbs 


  //>>>>>>>>>>>>>>>>>>>>>>>>>>>>>>>>>>>//
  //           SAPT2+(3)DMP2           //
  //<<<<<<<<<<<<<<<<<<<<<<<<<<<<<<<<<<<//


*** tstart() called on localhost.localdomain
*** at Sun May 22 17:21:37 2022

      SAPT2+(3)  
    Ed Hohenstein
     6 June 2009

      Orbital Information
  --------------------------
    NSO        =       855
    NMO        =       855
    NRI        =      1939
    NOCC A     =        31
    NOCC B     =        25
    FOCC A     =         9
    FOCC B     =         9
    NVIR A     =       824
    NVIR B     =       830

    Estimated memory usage: 26575.0 MB

    Natural Orbital Cutoff:   1.000E-06
    Disp(T3) Truncation:            Yes
    CCD (vv|vv) Truncation:         Yes
    MBPT T2 Truncation:             Yes

    Monomer A: 357 virtual orbitals dropped
    Monomer B: 567 virtual orbitals dropped

    Elst10,r            =    -0.036977418530 [Eh]
    Exch10 (S^2)        =     0.026634951091 [Eh]
    Exch10              =     0.027026269703 [Eh]
    Ind20,r (A<-B)      =    -0.014193361015 [Eh]
    Ind20,r (B<-A)      =    -0.003637755945 [Eh]
    Ind20,r             =    -0.017831116960 [Eh]
    Exch-Ind20,r (A<-B) =     0.006036076497 [Eh]
    Exch-Ind20,r (B<-A) =     0.001805590295 [Eh]
    Exch-Ind20,r        =     0.007841666792 [Eh]
    Disp20              =    -0.011971954544 [Eh]
    Disp20 (NO)         =    -0.010662263861 [Eh]
    Exch-Disp20         =     0.001939417326 [Eh]
    Elst12,r            =     0.001944774245 [Eh]
    Exch11              =     0.000468125736 [Eh]
    Exch12              =     0.003111914840 [Eh]
    Ind22               =    -0.001561647165 [Eh]
    Disp21              =     0.001311623316 [Eh]
    Disp22 (SDQ)        =    -0.000229539576 [Eh]

    (i =   1 of  16)        416 seconds
    (i =   2 of  16)        820 seconds
    (i =   3 of  16)       1222 seconds
    (i =   4 of  16)       1620 seconds
    (i =   5 of  16)       2016 seconds
    (i =   6 of  16)       2420 seconds
    (i =   7 of  16)       2821 seconds
    (i =   8 of  16)       3220 seconds
    (i =   9 of  16)       3617 seconds
    (i =  10 of  16)       4012 seconds
    (i =  11 of  16)       4410 seconds
    (i =  12 of  16)       4814 seconds
    (i =  13 of  16)       5214 seconds
    (i =  14 of  16)       5612 seconds
    (i =  15 of  16)       6008 seconds
    (i =  16 of  16)       6409 seconds

    Disp220 (T)         =    -0.001103990380 [Eh]

    (i =   1 of  22)         99 seconds
    (i =   2 of  22)        194 seconds
    (i =   3 of  22)        289 seconds
    (i =   4 of  22)        384 seconds
    (i =   5 of  22)        479 seconds
    (i =   6 of  22)        574 seconds
    (i =   7 of  22)        670 seconds
    (i =   8 of  22)        766 seconds
    (i =   9 of  22)        862 seconds
    (i =  10 of  22)        959 seconds
    (i =  11 of  22)       1056 seconds
    (i =  12 of  22)       1152 seconds
    (i =  13 of  22)       1249 seconds
    (i =  14 of  22)       1346 seconds
    (i =  15 of  22)       1443 seconds
    (i =  16 of  22)       1540 seconds
    (i =  17 of  22)       1637 seconds
    (i =  18 of  22)       1734 seconds
    (i =  19 of  22)       1831 seconds
    (i =  20 of  22)       1929 seconds
    (i =  21 of  22)       2026 seconds
    (i =  22 of  22)       2124 seconds

    Disp202 (T)         =    -0.001197214646 [Eh]

    Disp22 (T)          =    -0.002301205026 [Eh]

    Est. Disp220 (T)    =    -0.001239598158 [Eh]
    Est. Disp202 (T)    =    -0.001344273553 [Eh]

    Est. Disp22 (T)     =    -0.002583871711 [Eh]
    Elst13,r            =     0.000054959924 [Eh]
    Disp30              =     0.000434258962 [Eh]

    SAPT Results 
  --------------------------------------------------------------------------------------------------------
    Electrostatics                -34.97768436 [mEh]     -21.94882831 [kcal/mol]     -91.83389764 [kJ/mol]
      Elst10,r                    -36.97741853 [mEh]     -23.20368044 [kcal/mol]     -97.08419898 [kJ/mol]
      Elst12,r                      1.94477424 [mEh]       1.22036426 [kcal/mol]       5.10600408 [kJ/mol]
      Elst13,r                      0.05495992 [mEh]       0.03448787 [kcal/mol]       0.14429726 [kJ/mol]

    Exchange                       30.60631028 [mEh]      19.20574966 [kcal/mol]      80.35685657 [kJ/mol]
      Exch10                       27.02626970 [mEh]      16.95924028 [kcal/mol]      70.95746133 [kJ/mol]
      Exch10(S^2)                  26.63495109 [mEh]      16.71368414 [kcal/mol]      69.93005446 [kJ/mol]
      Exch11(S^2)                   0.46812574 [mEh]       0.29375333 [kcal/mol]       1.22906395 [kJ/mol]
      Exch12(S^2)                   3.11191484 [mEh]       1.95275604 [kcal/mol]       8.17033129 [kJ/mol]

    Induction                     -17.03241786 [mEh]     -10.68800357 [kcal/mol]     -44.71860693 [kJ/mol]
      Ind20,r                     -17.83111696 [mEh]     -11.18919482 [kcal/mol]     -46.81559113 [kJ/mol]
      Ind22                        -1.56164717 [mEh]      -0.97994839 [kcal/mol]      -4.10010407 [kJ/mol]
      Exch-Ind20,r                  7.84166679 [mEh]       4.92072020 [kcal/mol]      20.58829333 [kJ/mol]
      Exch-Ind22                    0.68677227 [mEh]       0.43095611 [kcal/mol]       1.80312035 [kJ/mol]
      delta HF,r (2)               -6.77327813 [mEh]      -4.25029619 [kcal/mol]     -17.78323928 [kJ/mol]
      delta MP2,r (2)               0.60518533 [mEh]       0.37975953 [kcal/mol]       1.58891386 [kJ/mol]

    Dispersion                    -11.10006623 [mEh]      -6.96539672 [kcal/mol]     -29.14321987 [kJ/mol]
      Disp20                      -11.97195454 [mEh]      -7.51251490 [kcal/mol]     -31.43236232 [kJ/mol]
      Disp30                        0.43425896 [mEh]       0.27250161 [kcal/mol]       1.14014675 [kJ/mol]
      Disp21                        1.31162332 [mEh]       0.82305606 [kcal/mol]       3.44366654 [kJ/mol]
      Disp22 (SDQ)                 -0.22953958 [mEh]      -0.14403826 [kcal/mol]      -0.60265607 [kJ/mol]
      Disp22 (T)                   -2.30120503 [mEh]      -1.44402795 [kcal/mol]      -6.04181296 [kJ/mol]
      Est. Disp22 (T)              -2.58387171 [mEh]      -1.62140398 [kcal/mol]      -6.78395424 [kJ/mol]
      Exch-Disp20                   1.93941733 [mEh]       1.21700275 [kcal/mol]       5.09193949 [kJ/mol]

  Total HF                        -26.71387712 [mEh]     -16.76321098 [kcal/mol]     -70.13727473 [kJ/mol]
  Total SAPT0                     -36.74641434 [mEh]     -23.05872313 [kcal/mol]     -96.47769757 [kJ/mol]
  Total SAPT2                     -32.09647441 [mEh]     -20.14084177 [kcal/mol]     -84.26928197 [kJ/mol]
  Total SAPT2+                    -33.59826239 [mEh]     -21.08322795 [kcal/mol]     -88.21222574 [kJ/mol]
  Total SAPT2+(3)                 -33.10904350 [mEh]     -20.77623846 [kcal/mol]     -86.92778173 [kJ/mol]
  Total SAPT2+dMP2                -32.99307706 [mEh]     -20.70346842 [kcal/mol]     -86.62331188 [kJ/mol]
  Total SAPT2+(3)dMP2             -32.50385817 [mEh]     -20.39647894 [kcal/mol]     -85.33886787 [kJ/mol]

  Special recipe for scaled SAPT0 (see Manual):
    Electrostatics sSAPT0         -36.97741853 [mEh]     -23.20368044 [kcal/mol]     -97.08419898 [kJ/mol]
    Exchange sSAPT0                27.02626970 [mEh]      16.95924028 [kcal/mol]      70.95746133 [kJ/mol]
    Induction sSAPT0              -16.41199804 [mEh]     -10.29868425 [kcal/mol]     -43.08969491 [kJ/mol]
    Dispersion sSAPT0              -9.94579388 [mEh]      -6.24107989 [kcal/mol]     -26.11267824 [kJ/mol]
  Total sSAPT0                    -36.30894075 [mEh]     -22.78420430 [kcal/mol]     -95.32911080 [kJ/mol]
  --------------------------------------------------------------------------------------------------------

*** tstop() called on localhost.localdomain at Sun May 22 20:30:14 2022
Module time:
	user time   =  181910.02 seconds =    3031.83 minutes
	system time =    1442.01 seconds =      24.03 minutes
	total time  =      11317 seconds =     188.62 minutes
Total time:
	user time   =  184049.21 seconds =    3067.49 minutes
	system time =    1475.93 seconds =      24.60 minutes
	total time  =      11438 seconds =     190.63 minutes

    Psi4 stopped on: Sunday, 22 May 2022 08:30PM
    Psi4 wall time for execution: 3:10:38.40

*** Psi4 exiting successfully. Buy a developer a beer!
