 Entering Gaussian System, Link 0=g16
 Initial command:
 /data0/home/software/g16/l1.exe "/data0/home/software/g16/scratch/Gau-352750.inp" -scrdir="/data0/home/software/g16/scratch/"
 Default is to use a total of  22 processors:
                               22 via shared-memory
                                1 via Linda
 Entering Link 1 = /data0/home/software/g16/l1.exe PID=    352751.
  
 Copyright (c) 1988,1990,1992,1993,1995,1998,2003,2009,2016,
            Gaussian, Inc.  All Rights Reserved.
  
 This is part of the Gaussian(R) 16 program.  It is based on
 the Gaussian(R) 09 system (copyright 2009, Gaussian, Inc.),
 the Gaussian(R) 03 system (copyright 2003, Gaussian, Inc.),
 the Gaussian(R) 98 system (copyright 1998, Gaussian, Inc.),
 the Gaussian(R) 94 system (copyright 1995, Gaussian, Inc.),
 the Gaussian 92(TM) system (copyright 1992, Gaussian, Inc.),
 the Gaussian 90(TM) system (copyright 1990, Gaussian, Inc.),
 the Gaussian 88(TM) system (copyright 1988, Gaussian, Inc.),
 the Gaussian 86(TM) system (copyright 1986, Carnegie Mellon
 University), and the Gaussian 82(TM) system (copyright 1983,
 Carnegie Mellon University). Gaussian is a federally registered
 trademark of Gaussian, Inc.
  
 This software contains proprietary and confidential information,
 including trade secrets, belonging to Gaussian, Inc.
  
 This software is provided under written license and may be
 used, copied, transmitted, or stored only in accord with that
 written license.
  
 The following legend is applicable only to US Government
 contracts under FAR:
  
                    RESTRICTED RIGHTS LEGEND
  
 Use, reproduction and disclosure by the US Government is
 subject to restrictions as set forth in subparagraphs (a)
 and (c) of the Commercial Computer Software - Restricted
 Rights clause in FAR 52.227-19.
  
 Gaussian, Inc.
 340 Quinnipiac St., Bldg. 40, Wallingford CT 06492
  
  
 ---------------------------------------------------------------
 Warning -- This program may not be used in any manner that
 competes with the business of Gaussian, Inc. or will provide
 assistance to any competitor of Gaussian, Inc.  The licensee
 of this program is prohibited from giving any competitor of
 Gaussian, Inc. access to this program.  By using this program,
 the user acknowledges that Gaussian, Inc. is engaged in the
 business of creating and licensing software in the field of
 computational chemistry and represents and warrants to the
 licensee that it is not a competitor of Gaussian, Inc. and that
 it will not use this program in any manner prohibited above.
 ---------------------------------------------------------------
  

 Cite this work as:
 Gaussian 16, Revision A.03,
 M. J. Frisch, G. W. Trucks, H. B. Schlegel, G. E. Scuseria, 
 M. A. Robb, J. R. Cheeseman, G. Scalmani, V. Barone, 
 G. A. Petersson, H. Nakatsuji, X. Li, M. Caricato, A. V. Marenich, 
 J. Bloino, B. G. Janesko, R. Gomperts, B. Mennucci, H. P. Hratchian, 
 J. V. Ortiz, A. F. Izmaylov, J. L. Sonnenberg, D. Williams-Young, 
 F. Ding, F. Lipparini, F. Egidi, J. Goings, B. Peng, A. Petrone, 
 T. Henderson, D. Ranasinghe, V. G. Zakrzewski, J. Gao, N. Rega, 
 G. Zheng, W. Liang, M. Hada, M. Ehara, K. Toyota, R. Fukuda, 
 J. Hasegawa, M. Ishida, T. Nakajima, Y. Honda, O. Kitao, H. Nakai, 
 T. Vreven, K. Throssell, J. A. Montgomery, Jr., J. E. Peralta, 
 F. Ogliaro, M. J. Bearpark, J. J. Heyd, E. N. Brothers, K. N. Kudin, 
 V. N. Staroverov, T. A. Keith, R. Kobayashi, J. Normand, 
 K. Raghavachari, A. P. Rendell, J. C. Burant, S. S. Iyengar, 
 J. Tomasi, M. Cossi, J. M. Millam, M. Klene, C. Adamo, R. Cammi, 
 J. W. Ochterski, R. L. Martin, K. Morokuma, O. Farkas, 
 J. B. Foresman, and D. J. Fox, Gaussian, Inc., Wallingford CT, 2016.
 
 ******************************************
 Gaussian 16:  ES64L-G16RevA.03 25-Dec-2016
                20-Feb-2023 
 ******************************************
 %nproc=24
 Will use up to   24 processors via shared memory.
 %mem=50GB
 ---------------------------------------------------
 #p M062X/6-311+G(2d,p) nosymm em=GD3 counterpoise=3
 ---------------------------------------------------
 1/38=1,62=3,172=1/1;
 2/12=2,15=1,17=6,18=5,40=1/2;
 1/38=1,53=2,62=3,63=1/22;
 3/5=4,6=6,7=112,11=2,25=1,30=1,74=-55,124=31/1,2,3;
 4//1;
 5/5=2,38=5/2;
 6/7=2,8=2,9=2,10=2,28=1/1;
 1/53=2,62=3,63=1/22;
 3/5=7,6=11,7=112,11=2,25=1,30=1,74=-55,82=7,124=31/1,2,3;
 4//1;
 5/5=2,38=5/2;
 6/7=2,8=2,9=2,10=2,28=1/1;
 1/53=2,62=3,63=1/22(-4);
 99/5=1,9=1/99;
 Leave Link    1 at Mon Feb 20 00:55:17 2023, MaxMem=  6710886400 cpu:               0.7 elap:               0.0
 (Enter /data0/home/software/g16/l101.exe)
 -------------------
 Title Card Required
 -------------------
 Symbolic Z-matrix:
 Charge =  0 Multiplicity = 1 in supermolecule
 Charge =  0 Multiplicity = 1 in fragment      1.
 Charge =  0 Multiplicity = 1 in fragment      2.
 Charge =  0 Multiplicity = 1 in fragment      3.
 O                     8.1608    8.12453   9.11298    
 H                     8.65983   8.62072   8.41019    
 H                     7.97976   7.27756   8.71882    
 O                     9.88988   8.12194   11.28444    
 H                     10.73149   8.08876   10.81738    
 H                     9.22744   7.99733   10.58101    
 O                     12.00119   12.99375   9.0036     
 H                     12.85871   12.61665   8.79194    
 H                     11.42043   12.6179   8.30716    
 
 ITRead=  0  0  0  0  0  0  0  0  0
 MicOpt= -1 -1 -1 -1 -1 -1 -1 -1 -1
 NAtoms=      9 NQM=        9 NQMF=       0 NMMI=      0 NMMIF=      0
                NMic=       0 NMicF=      0.
                    Isotopes and Nuclear Properties:
 (Nuclear quadrupole moments (NQMom) in fm**2, nuclear magnetic moments (NMagM)
  in nuclear magnetons)

  Atom         1           2           3           4           5           6           7           8           9
 IAtWgt=          16           1           1          16           1           1          16           1           1
 AtmWgt=  15.9949146   1.0078250   1.0078250  15.9949146   1.0078250   1.0078250  15.9949146   1.0078250   1.0078250
 NucSpn=           0           1           1           0           1           1           0           1           1
 AtZEff=  -0.0000000  -0.0000000  -0.0000000  -0.0000000  -0.0000000  -0.0000000  -0.0000000  -0.0000000  -0.0000000
 NQMom=    0.0000000   0.0000000   0.0000000   0.0000000   0.0000000   0.0000000   0.0000000   0.0000000   0.0000000
 NMagM=    0.0000000   2.7928460   2.7928460   0.0000000   2.7928460   2.7928460   0.0000000   2.7928460   2.7928460
 AtZNuc=   8.0000000   1.0000000   1.0000000   8.0000000   1.0000000   1.0000000   8.0000000   1.0000000   1.0000000
 Leave Link  101 at Mon Feb 20 00:55:17 2023, MaxMem=  6710886400 cpu:               1.9 elap:               0.1
 (Enter /data0/home/software/g16/l202.exe)
                          Input orientation:                          
 ---------------------------------------------------------------------
 Center     Atomic      Atomic             Coordinates (Angstroms)
 Number     Number       Type             X           Y           Z
 ---------------------------------------------------------------------
      1          8           0        8.160797    8.124526    9.112979
      2          1           0        8.659827    8.620721    8.410191
      3          1           0        7.979763    7.277555    8.718823
      4          8           0        9.889878    8.121935   11.284442
      5          1           0       10.731491    8.088760   10.817381
      6          1           0        9.227438    7.997330   10.581012
      7          8           0       12.001186   12.993747    9.003599
      8          1           0       12.858712   12.616645    8.791935
      9          1           0       11.420435   12.617903    8.307164
 ---------------------------------------------------------------------
                    Distance matrix (angstroms):
                    1          2          3          4          5
     1  O    0.000000
     2  H    0.994561   0.000000
     3  H    0.951574   1.536826   0.000000
     4  O    2.775784   3.165933   3.308159   0.000000
     5  H    3.084596   3.220146   3.554435   0.963099   0.000000
     6  H    1.819072   2.328790   2.354255   0.974252   1.525256
     7  O    6.202408   5.535356   6.994840   5.778790   5.381527
     8  H    6.507888   5.808939   7.232937   5.935401   5.397151
     9  H    5.609368   4.858913   6.366082   5.605401   5.223885
                    6          7          8          9
     6  H    0.000000
     7  O    5.928414   0.000000
     8  H    6.142070   0.960395   0.000000
     9  H    5.597260   0.981607   1.517776   0.000000
 Symmetry turned off by external request.
 Stoichiometry    H6O3
 Framework group  C1[X(H6O3)]
 Deg. of freedom    21
 Full point group                 C1      NOp   1
 Rotational constants (GHZ):           7.1728836           1.2307889           1.0585426
 Leave Link  202 at Mon Feb 20 00:55:17 2023, MaxMem=  6710886400 cpu:               0.1 elap:               0.0
 (Enter /data0/home/software/g16/l122.exe)
 Counterpoise: doing full-system calculation.
 Leave Link  122 at Mon Feb 20 00:55:17 2023, MaxMem=  6710886400 cpu:               0.0 elap:               0.0
 (Enter /data0/home/software/g16/l301.exe)
 Standard basis: 6-311+G(2d,p) (5D, 7F)
 Ernie: Thresh=  0.10000D-02 Tol=  0.10000D-05 Strict=F.
   117 basis functions,   174 primitive gaussians,   123 cartesian basis functions
    15 alpha electrons       15 beta electrons
       nuclear repulsion energy        64.2915637763 Hartrees.
 IExCor= 4336 DFT=T Ex+Corr=M062X ExCW=0 ScaHFX=  0.540000
 ScaDFX=  1.000000  1.000000  1.000000  1.000000 ScalE2=  1.000000  1.000000
 IRadAn=      5 IRanWt=     -1 IRanGd=            0 ICorTp=0 IEmpDi=131
 NAtoms=    9 NActive=    9 NUniq=    9 SFac= 1.00D+00 NAtFMM=   60 NAOKFM=F Big=F
 Integral buffers will be    131072 words long.
 Raffenetti 2 integral format.
 Two-electron integral symmetry is turned off.
 R6Disp:  Grimme-D3 Dispersion energy=       -0.0000743755 Hartrees.
 Nuclear repulsion after empirical dispersion term =       64.2914894008 Hartrees.
 Leave Link  301 at Mon Feb 20 00:55:17 2023, MaxMem=  6710886400 cpu:               1.1 elap:               0.1
 (Enter /data0/home/software/g16/l302.exe)
 NPDir=0 NMtPBC=     1 NCelOv=     1 NCel=       1 NClECP=     1 NCelD=      1
         NCelK=      1 NCelE2=     1 NClLst=     1 CellRange=     0.0.
 One-electron integrals computed using PRISM.
 NBasis=   117 RedAO= T EigKep=  1.69D-03  NBF=   117
 NBsUse=   117 1.00D-06 EigRej= -1.00D+00 NBFU=   117
 Precomputing XC quadrature grid using
 IXCGrd= 4 IRadAn=           5 IRanWt=          -1 IRanGd=           0 AccXCQ= 0.00D+00.
 Generated NRdTot=       0 NPtTot=           0 NUsed=           0 NTot=          32
 NSgBfM=   113   113   113   113   113 MxSgAt=     9 MxSgA2=     9.
 Leave Link  302 at Mon Feb 20 00:55:17 2023, MaxMem=  6710886400 cpu:               2.6 elap:               0.1
 (Enter /data0/home/software/g16/l303.exe)
 DipDrv:  MaxL=1.
 Leave Link  303 at Mon Feb 20 00:55:17 2023, MaxMem=  6710886400 cpu:               0.5 elap:               0.0
 (Enter /data0/home/software/g16/l401.exe)
 ExpMin= 8.45D-02 ExpMax= 8.59D+03 ExpMxC= 1.30D+03 IAcc=3 IRadAn=         5 AccDes= 0.00D+00
 Harris functional with IExCor= 1009 and IRadAn=       5 diagonalized for initial guess.
 HarFok:  IExCor= 1009 AccDes= 0.00D+00 IRadAn=         5 IDoV= 1 UseB2=F ITyADJ=14
 ICtDFT=  3500011 ScaDFX=  1.000000  1.000000  1.000000  1.000000
 FoFCou: FMM=F IPFlag=           0 FMFlag=      100000 FMFlg1=           0
         NFxFlg=           0 DoJE=T BraDBF=F KetDBF=T FulRan=T
         wScrn=  0.000000 ICntrl=       500 IOpCl=  0 I1Cent=   200000004 NGrid=           0
         NMat0=    1 NMatS0=      1 NMatT0=    0 NMatD0=    1 NMtDS0=    0 NMtDT0=    0
 Symmetry not used in FoFCou.
 Harris En= -229.251190900426    
 JPrj=0 DoOrth=F DoCkMO=F.
 Leave Link  401 at Mon Feb 20 00:55:17 2023, MaxMem=  6710886400 cpu:               4.4 elap:               0.2
 (Enter /data0/home/software/g16/l502.exe)
 Keep R1 ints in memory in canonical form, NReq=46556122.
 FoFCou: FMM=F IPFlag=           0 FMFlag=           0 FMFlg1=           0
         NFxFlg=           0 DoJE=F BraDBF=F KetDBF=F FulRan=T
         wScrn=  0.000000 ICntrl=       600 IOpCl=  0 I1Cent=           0 NGrid=           0
         NMat0=    1 NMatS0=   6903 NMatT0=    0 NMatD0=    1 NMtDS0=    0 NMtDT0=    0
 Symmetry not used in FoFCou.
 Two-electron integral symmetry not used.
 Closed shell SCF:
 Using DIIS extrapolation, IDIIS=  1040.
 NGot=  6710886400 LenX=  6687023004 LenY=  6687007434
 Requested convergence on RMS density matrix=1.00D-08 within 128 cycles.
 Requested convergence on MAX density matrix=1.00D-06.
 Requested convergence on             energy=1.00D-06.
 No special actions if energy rises.
 Integral accuracy reduced to 1.0D-05 until final iterations.

 Cycle   1  Pass 0  IDiag  1:
 E= -229.052637003120    
 DIIS: error= 5.65D-02 at cycle   1 NSaved=   1.
 NSaved= 1 IEnMin= 1 EnMin= -229.052637003120     IErMin= 1 ErrMin= 5.65D-02
 ErrMax= 5.65D-02  0.00D+00 EMaxC= 1.00D-01 BMatC= 3.49D-01 BMatP= 3.49D-01
 IDIUse=3 WtCom= 4.35D-01 WtEn= 5.65D-01
 Coeff-Com:  0.100D+01
 Coeff-En:   0.100D+01
 Coeff:      0.100D+01
 Gap=     0.293 Goal=   None    Shift=    0.000
 GapD=    0.293 DampG=1.000 DampE=0.500 DampFc=0.5000 IDamp=-1.
 Damping current iteration by 5.00D-01
 RMSDP=5.54D-03 MaxDP=1.05D-01              OVMax= 1.84D-01

 Cycle   2  Pass 0  IDiag  1:
 E= -229.144449330849     Delta-E=       -0.091812327729 Rises=F Damp=T
 DIIS: error= 1.00D-02 at cycle   2 NSaved=   2.
 NSaved= 2 IEnMin= 2 EnMin= -229.144449330849     IErMin= 2 ErrMin= 1.00D-02
 ErrMax= 1.00D-02  0.00D+00 EMaxC= 1.00D-01 BMatC= 1.38D-02 BMatP= 3.49D-01
 IDIUse=3 WtCom= 9.00D-01 WtEn= 1.00D-01
 Coeff-Com:  0.745D-01 0.926D+00
 Coeff-En:   0.175D+00 0.825D+00
 Coeff:      0.846D-01 0.915D+00
 Gap=     0.390 Goal=   None    Shift=    0.000
 RMSDP=7.34D-04 MaxDP=1.97D-02 DE=-9.18D-02 OVMax= 1.09D-01

 Cycle   3  Pass 0  IDiag  1:
 E= -229.269682490372     Delta-E=       -0.125233159522 Rises=F Damp=F
 DIIS: error= 2.58D-03 at cycle   3 NSaved=   3.
 NSaved= 3 IEnMin= 3 EnMin= -229.269682490372     IErMin= 3 ErrMin= 2.58D-03
 ErrMax= 2.58D-03  0.00D+00 EMaxC= 1.00D-01 BMatC= 3.93D-04 BMatP= 1.38D-02
 IDIUse=3 WtCom= 9.74D-01 WtEn= 2.58D-02
 Coeff-Com: -0.234D-01 0.507D-01 0.973D+00
 Coeff-En:   0.000D+00 0.000D+00 0.100D+01
 Coeff:     -0.228D-01 0.494D-01 0.973D+00
 Gap=     0.395 Goal=   None    Shift=    0.000
 RMSDP=1.09D-04 MaxDP=1.99D-03 DE=-1.25D-01 OVMax= 5.49D-03

 Cycle   4  Pass 0  IDiag  1:
 E= -229.269954467101     Delta-E=       -0.000271976729 Rises=F Damp=F
 DIIS: error= 1.10D-03 at cycle   4 NSaved=   4.
 NSaved= 4 IEnMin= 4 EnMin= -229.269954467101     IErMin= 4 ErrMin= 1.10D-03
 ErrMax= 1.10D-03  0.00D+00 EMaxC= 1.00D-01 BMatC= 8.25D-05 BMatP= 3.93D-04
 IDIUse=3 WtCom= 9.89D-01 WtEn= 1.10D-02
 Coeff-Com: -0.102D-01 0.127D-01 0.441D+00 0.557D+00
 Coeff-En:   0.000D+00 0.000D+00 0.000D+00 0.100D+01
 Coeff:     -0.101D-01 0.125D-01 0.436D+00 0.562D+00
 Gap=     0.396 Goal=   None    Shift=    0.000
 RMSDP=4.14D-05 MaxDP=1.22D-03 DE=-2.72D-04 OVMax= 1.84D-03

 Cycle   5  Pass 0  IDiag  1:
 E= -229.270004632747     Delta-E=       -0.000050165646 Rises=F Damp=F
 DIIS: error= 2.37D-04 at cycle   5 NSaved=   5.
 NSaved= 5 IEnMin= 5 EnMin= -229.270004632747     IErMin= 5 ErrMin= 2.37D-04
 ErrMax= 2.37D-04  0.00D+00 EMaxC= 1.00D-01 BMatC= 4.80D-06 BMatP= 8.25D-05
 IDIUse=3 WtCom= 9.98D-01 WtEn= 2.37D-03
 Coeff-Com:  0.233D-03-0.313D-02 0.210D-01 0.178D+00 0.804D+00
 Coeff-En:   0.000D+00 0.000D+00 0.000D+00 0.000D+00 0.100D+01
 Coeff:      0.233D-03-0.312D-02 0.209D-01 0.177D+00 0.805D+00
 Gap=     0.396 Goal=   None    Shift=    0.000
 RMSDP=1.39D-05 MaxDP=4.20D-04 DE=-5.02D-05 OVMax= 6.43D-04

 Cycle   6  Pass 0  IDiag  1:
 E= -229.270008158952     Delta-E=       -0.000003526204 Rises=F Damp=F
 DIIS: error= 3.91D-05 at cycle   6 NSaved=   6.
 NSaved= 6 IEnMin= 6 EnMin= -229.270008158952     IErMin= 6 ErrMin= 3.91D-05
 ErrMax= 3.91D-05  0.00D+00 EMaxC= 1.00D-01 BMatC= 1.25D-07 BMatP= 4.80D-06
 IDIUse=1 WtCom= 1.00D+00 WtEn= 0.00D+00
 Coeff-Com:  0.730D-03-0.110D-02-0.241D-01-0.252D-01 0.888D-01 0.961D+00
 Coeff:      0.730D-03-0.110D-02-0.241D-01-0.252D-01 0.888D-01 0.961D+00
 Gap=     0.396 Goal=   None    Shift=    0.000
 RMSDP=4.53D-06 MaxDP=1.17D-04 DE=-3.53D-06 OVMax= 1.34D-04

 Initial convergence to 1.0D-05 achieved.  Increase integral accuracy.
 Cycle   7  Pass 1  IDiag  1:
 E= -229.270001676746     Delta-E=        0.000006482205 Rises=F Damp=F
 DIIS: error= 1.45D-05 at cycle   1 NSaved=   1.
 NSaved= 1 IEnMin= 1 EnMin= -229.270001676746     IErMin= 1 ErrMin= 1.45D-05
 ErrMax= 1.45D-05  0.00D+00 EMaxC= 1.00D-01 BMatC= 4.21D-08 BMatP= 4.21D-08
 IDIUse=1 WtCom= 1.00D+00 WtEn= 0.00D+00
 Coeff-Com:  0.100D+01
 Coeff:      0.100D+01
 Gap=     0.396 Goal=   None    Shift=    0.000
 RMSDP=4.53D-06 MaxDP=1.17D-04 DE= 6.48D-06 OVMax= 6.40D-05

 Cycle   8  Pass 1  IDiag  1:
 E= -229.270001704583     Delta-E=       -0.000000027836 Rises=F Damp=F
 DIIS: error= 1.19D-05 at cycle   2 NSaved=   2.
 NSaved= 2 IEnMin= 2 EnMin= -229.270001704583     IErMin= 2 ErrMin= 1.19D-05
 ErrMax= 1.19D-05  0.00D+00 EMaxC= 1.00D-01 BMatC= 1.39D-08 BMatP= 4.21D-08
 IDIUse=1 WtCom= 1.00D+00 WtEn= 0.00D+00
 Coeff-Com:  0.306D+00 0.694D+00
 Coeff:      0.306D+00 0.694D+00
 Gap=     0.396 Goal=   None    Shift=    0.000
 RMSDP=8.77D-07 MaxDP=2.62D-05 DE=-2.78D-08 OVMax= 3.65D-05

 Cycle   9  Pass 1  IDiag  1:
 E= -229.270001711427     Delta-E=       -0.000000006844 Rises=F Damp=F
 DIIS: error= 5.93D-06 at cycle   3 NSaved=   3.
 NSaved= 3 IEnMin= 3 EnMin= -229.270001711427     IErMin= 3 ErrMin= 5.93D-06
 ErrMax= 5.93D-06  0.00D+00 EMaxC= 1.00D-01 BMatC= 3.81D-09 BMatP= 1.39D-08
 IDIUse=1 WtCom= 1.00D+00 WtEn= 0.00D+00
 Coeff-Com: -0.509D-01 0.332D+00 0.719D+00
 Coeff:     -0.509D-01 0.332D+00 0.719D+00
 Gap=     0.396 Goal=   None    Shift=    0.000
 RMSDP=4.36D-07 MaxDP=1.05D-05 DE=-6.84D-09 OVMax= 1.24D-05

 Cycle  10  Pass 1  IDiag  1:
 E= -229.270001713998     Delta-E=       -0.000000002571 Rises=F Damp=F
 DIIS: error= 3.41D-07 at cycle   4 NSaved=   4.
 NSaved= 4 IEnMin= 4 EnMin= -229.270001713998     IErMin= 4 ErrMin= 3.41D-07
 ErrMax= 3.41D-07  0.00D+00 EMaxC= 1.00D-01 BMatC= 1.38D-11 BMatP= 3.81D-09
 IDIUse=1 WtCom= 1.00D+00 WtEn= 0.00D+00
 Coeff-Com: -0.708D-02 0.187D-01 0.623D-01 0.926D+00
 Coeff:     -0.708D-02 0.187D-01 0.623D-01 0.926D+00
 Gap=     0.396 Goal=   None    Shift=    0.000
 RMSDP=4.78D-08 MaxDP=9.36D-07 DE=-2.57D-09 OVMax= 1.58D-06

 Cycle  11  Pass 1  IDiag  1:
 E= -229.270001714016     Delta-E=       -0.000000000018 Rises=F Damp=F
 DIIS: error= 2.91D-07 at cycle   5 NSaved=   5.
 NSaved= 5 IEnMin= 5 EnMin= -229.270001714016     IErMin= 5 ErrMin= 2.91D-07
 ErrMax= 2.91D-07  0.00D+00 EMaxC= 1.00D-01 BMatC= 5.09D-12 BMatP= 1.38D-11
 IDIUse=1 WtCom= 1.00D+00 WtEn= 0.00D+00
 Coeff-Com:  0.171D-02-0.235D-01-0.421D-01 0.360D+00 0.703D+00
 Coeff:      0.171D-02-0.235D-01-0.421D-01 0.360D+00 0.703D+00
 Gap=     0.396 Goal=   None    Shift=    0.000
 RMSDP=2.18D-08 MaxDP=4.75D-07 DE=-1.80D-11 OVMax= 7.95D-07

 Cycle  12  Pass 1  IDiag  1:
 E= -229.270001714020     Delta-E=       -0.000000000004 Rises=F Damp=F
 DIIS: error= 8.50D-08 at cycle   6 NSaved=   6.
 NSaved= 6 IEnMin= 6 EnMin= -229.270001714020     IErMin= 6 ErrMin= 8.50D-08
 ErrMax= 8.50D-08  0.00D+00 EMaxC= 1.00D-01 BMatC= 6.92D-13 BMatP= 5.09D-12
 IDIUse=1 WtCom= 1.00D+00 WtEn= 0.00D+00
 Coeff-Com:  0.171D-02-0.131D-01-0.276D-01 0.245D-01 0.295D+00 0.719D+00
 Coeff:      0.171D-02-0.131D-01-0.276D-01 0.245D-01 0.295D+00 0.719D+00
 Gap=     0.396 Goal=   None    Shift=    0.000
 RMSDP=5.23D-09 MaxDP=1.22D-07 DE=-4.21D-12 OVMax= 2.55D-07

 SCF Done:  E(RM062X) =  -229.270001714     A.U. after   12 cycles
            NFock= 12  Conv=0.52D-08     -V/T= 2.0030
 KE= 2.285860787807D+02 PE=-6.710810260242D+02 EE= 1.489334561288D+02
 Leave Link  502 at Mon Feb 20 00:55:19 2023, MaxMem=  6710886400 cpu:              36.0 elap:               1.9
 (Enter /data0/home/software/g16/l601.exe)
 Copying SCF densities to generalized density rwf, IOpCl= 0 IROHF=0.

 **********************************************************************

            Population analysis using the SCF density.

 **********************************************************************

 Alpha  occ. eigenvalues --  -19.66264 -19.62940 -19.59060  -1.16898  -1.13487
 Alpha  occ. eigenvalues --   -1.10014  -0.64008  -0.60546  -0.58381  -0.51016
 Alpha  occ. eigenvalues --   -0.47899  -0.45962  -0.41980  -0.40176  -0.36874
 Alpha virt. eigenvalues --    0.02769   0.05740   0.09301   0.10583   0.12999
 Alpha virt. eigenvalues --    0.14905   0.15194   0.16143   0.17355   0.18454
 Alpha virt. eigenvalues --    0.19523   0.19920   0.21223   0.22352   0.22751
 Alpha virt. eigenvalues --    0.26515   0.31735   0.33754   0.46564   0.50479
 Alpha virt. eigenvalues --    0.51825   0.53122   0.55152   0.64271   0.93413
 Alpha virt. eigenvalues --    0.96801   0.98266   1.00171   1.02814   1.04609
 Alpha virt. eigenvalues --    1.06144   1.07799   1.10402   1.14227   1.16979
 Alpha virt. eigenvalues --    1.17291   1.19889   1.22749   1.25224   1.31563
 Alpha virt. eigenvalues --    1.31886   1.34931   1.35951   1.37352   1.49286
 Alpha virt. eigenvalues --    1.65677   1.69713   1.70830   1.72297   1.74084
 Alpha virt. eigenvalues --    1.75006   1.75174   1.78650   1.99121   2.04047
 Alpha virt. eigenvalues --    2.06731   2.08957   2.09452   2.11368   2.25496
 Alpha virt. eigenvalues --    2.35361   2.36268   2.37988   2.38919   2.46802
 Alpha virt. eigenvalues --    2.52381   2.54527   2.55689   2.61430   2.85840
 Alpha virt. eigenvalues --    2.87204   2.92998   2.99643   3.01033   3.11491
 Alpha virt. eigenvalues --    5.05367   5.07612   5.10523   5.46998   5.48363
 Alpha virt. eigenvalues --    5.52578   5.87325   5.89574   5.96360   6.77091
 Alpha virt. eigenvalues --    6.78328   6.78959   6.79836   6.81762   6.84196
 Alpha virt. eigenvalues --    6.87046   6.87183   6.88681   6.91437   6.95709
 Alpha virt. eigenvalues --    6.97890   7.06731   7.09488   7.18943  49.94062
 Alpha virt. eigenvalues --   49.95128  50.02311
          Condensed to atoms (all electrons):
               1          2          3          4          5          6
     1  O    8.047739   0.309416   0.304441   0.021721   0.004594  -0.063636
     2  H    0.309416   0.410659  -0.019412  -0.002576  -0.001248   0.001162
     3  H    0.304441  -0.019412   0.416041  -0.004634  -0.000636   0.003670
     4  O    0.021721  -0.002576  -0.004634   8.009980   0.310084   0.315451
     5  H    0.004594  -0.001248  -0.000636   0.310084   0.465747  -0.035070
     6  H   -0.063636   0.001162   0.003670   0.315451  -0.035070   0.363088
     7  O   -0.000003   0.000014   0.000001   0.000107   0.000001  -0.000012
     8  H   -0.000001   0.000000  -0.000000  -0.000010  -0.000001   0.000001
     9  H    0.000000   0.000002  -0.000000  -0.000015  -0.000001  -0.000000
               7          8          9
     1  O   -0.000003  -0.000001   0.000000
     2  H    0.000014   0.000000   0.000002
     3  H    0.000001  -0.000000  -0.000000
     4  O    0.000107  -0.000010  -0.000015
     5  H    0.000001  -0.000001  -0.000001
     6  H   -0.000012   0.000001  -0.000000
     7  O    7.915109   0.318771   0.313357
     8  H    0.318771   0.431729  -0.024339
     9  H    0.313357  -0.024339   0.437517
 Mulliken charges:
               1
     1  O   -0.624270
     2  H    0.301985
     3  H    0.300530
     4  O   -0.650108
     5  H    0.256531
     6  H    0.415347
     7  O   -0.547345
     8  H    0.273850
     9  H    0.273480
 Sum of Mulliken charges =  -0.00000
 Mulliken charges with hydrogens summed into heavy atoms:
               1
     1  O   -0.021755
     4  O    0.021770
     7  O   -0.000015
         Mulliken charges condensed to fragments:
      1     -0.021755
      2      0.021770
      3     -0.000015
 Electronic spatial extent (au):  <R**2>=          32066.6875
 Charge=             -0.0000 electrons
 Dipole moment (field-independent basis, Debye):
    X=              0.8967    Y=             -2.2021    Z=             -5.9802  Tot=              6.4355
 Quadrupole moment (field-independent basis, Debye-Ang):
   XX=              2.4899   YY=            -68.2753   ZZ=           -136.7477
   XY=            -12.6921   XZ=            -50.4602   YZ=            -75.6737
 Traceless Quadrupole moment (field-independent basis, Debye-Ang):
   XX=             70.0009   YY=             -0.7643   ZZ=            -69.2367
   XY=            -12.6921   XZ=            -50.4602   YZ=            -75.6737
 Octapole moment (field-independent basis, Debye-Ang**2):
  XXX=           -172.4163  YYY=          -1423.5605  ZZZ=          -2315.2946  XYY=           -611.5081
  XXY=           -185.0938  XXZ=           -570.4273  XZZ=          -1270.2413  YZZ=          -1450.9648
  YYZ=          -1174.3724  XYZ=           -672.8781
 Hexadecapole moment (field-independent basis, Debye-Ang**3):
 XXXX=          -5063.2737 YYYY=         -25557.1268 ZZZZ=         -34638.4490 XXXY=          -3877.1259
 XXXZ=          -7752.1505 YYYX=         -14217.7208 YYYZ=         -18721.7992 ZZZX=         -22128.7779
 ZZZY=         -23009.3428 XXYY=          -7025.5797 XXZZ=         -13429.2535 YYZZ=         -18225.9820
 XXYZ=          -7433.9987 YYXZ=         -11228.2064 ZZXY=         -13806.4924
 N-N= 6.429148940077D+01 E-N=-6.710810216691D+02  KE= 2.285860787807D+02
 No NMR shielding tensors so no spin-rotation constants.
 Leave Link  601 at Mon Feb 20 00:55:19 2023, MaxMem=  6710886400 cpu:               1.8 elap:               0.1
 (Enter /data0/home/software/g16/l122.exe)
 CPIOFr:  IOpCl= 0 IRwI=-1 IRwCP=  731 ICalc= -1 LCPTot=       22668 Len1MO=       57607 IndFrg=       22668
 CPIOFr:  IOpCl= 0 IRwI=-1 IRwCP=  731 ICalc=  0 LCPTot=       22668 Len1MO=       57607 IndFrg=       80275
 Counterpoise: doing calculation for fragment   1 using the basis set of the full-system, NewBq=T
 Leave Link  122 at Mon Feb 20 00:55:19 2023, MaxMem=  6710886400 cpu:               0.1 elap:               0.0
 (Enter /data0/home/software/g16/l301.exe)
 Basis read from rwf:  (5D, 7F)
 No pseudopotential information found on rwf file.
   117 basis functions,   174 primitive gaussians,   123 cartesian basis functions
     5 alpha electrons        5 beta electrons
       nuclear repulsion energy         9.0497611149 Hartrees.
 IExCor= 4336 DFT=T Ex+Corr=M062X ExCW=0 ScaHFX=  0.540000
 ScaDFX=  1.000000  1.000000  1.000000  1.000000 ScalE2=  1.000000  1.000000
 IRadAn=      5 IRanWt=     -1 IRanGd=            0 ICorTp=0 IEmpDi=131
 NAtoms=    9 NActive=    9 NUniq=    9 SFac= 1.00D+00 NAtFMM=   60 NAOKFM=F Big=F
 Integral buffers will be    131072 words long.
 Raffenetti 2 integral format.
 Two-electron integral symmetry is turned off.
 R6Disp:  Grimme-D3 Dispersion energy=       -0.0000000082 Hartrees.
 Nuclear repulsion after empirical dispersion term =        9.0497611067 Hartrees.
 No density basis found on file   718.
 Leave Link  301 at Mon Feb 20 00:55:19 2023, MaxMem=  6710886400 cpu:               1.2 elap:               0.1
 (Enter /data0/home/software/g16/l302.exe)
 NPDir=0 NMtPBC=     1 NCelOv=     1 NCel=       1 NClECP=     1 NCelD=      1
         NCelK=      1 NCelE2=     1 NClLst=     1 CellRange=     0.0.
 One-electron integrals computed using PRISM.
 NBasis=   117 RedAO= T EigKep=  1.69D-03  NBF=   117
 NBsUse=   117 1.00D-06 EigRej= -1.00D+00 NBFU=   117
 Precomputing XC quadrature grid using
 IXCGrd= 4 IRadAn=           5 IRanWt=          -1 IRanGd=           0 AccXCQ= 0.00D+00.
 Generated NRdTot=       0 NPtTot=           0 NUsed=           0 NTot=          32
 NSgBfM=   113   113   113   113   113 MxSgAt=     9 MxSgA2=     9.
 Leave Link  302 at Mon Feb 20 00:55:20 2023, MaxMem=  6710886400 cpu:               2.6 elap:               0.1
 (Enter /data0/home/software/g16/l303.exe)
 DipDrv:  MaxL=1.
 Leave Link  303 at Mon Feb 20 00:55:20 2023, MaxMem=  6710886400 cpu:               0.5 elap:               0.0
 (Enter /data0/home/software/g16/l401.exe)
 ExpMin= 8.45D-02 ExpMax= 8.59D+03 ExpMxC= 1.30D+03 IAcc=3 IRadAn=         5 AccDes= 0.00D+00
 Harris functional with IExCor= 1009 and IRadAn=       5 diagonalized for initial guess.
 HarFok:  IExCor= 1009 AccDes= 0.00D+00 IRadAn=         5 IDoV= 1 UseB2=F ITyADJ=14
 ICtDFT=  3500011 ScaDFX=  1.000000  1.000000  1.000000  1.000000
 FoFCou: FMM=F IPFlag=           0 FMFlag=      100000 FMFlg1=           0
         NFxFlg=           0 DoJE=T BraDBF=F KetDBF=T FulRan=T
         wScrn=  0.000000 ICntrl=       500 IOpCl=  0 I1Cent=   200000004 NGrid=           0
         NMat0=    1 NMatS0=      1 NMatT0=    0 NMatD0=    1 NMtDS0=    0 NMtDT0=    0
 Symmetry not used in FoFCou.
 Harris En= -76.4159971514706    
 JPrj=0 DoOrth=F DoCkMO=F.
 Leave Link  401 at Mon Feb 20 00:55:20 2023, MaxMem=  6710886400 cpu:               4.2 elap:               0.2
 (Enter /data0/home/software/g16/l502.exe)
 Keep R1 ints in memory in canonical form, NReq=46556122.
 FoFCou: FMM=F IPFlag=           0 FMFlag=           0 FMFlg1=           0
         NFxFlg=           0 DoJE=F BraDBF=F KetDBF=F FulRan=T
         wScrn=  0.000000 ICntrl=       600 IOpCl=  0 I1Cent=           0 NGrid=           0
         NMat0=    1 NMatS0=   6903 NMatT0=    0 NMatD0=    1 NMtDS0=    0 NMtDT0=    0
 Symmetry not used in FoFCou.
 Two-electron integral symmetry not used.
 Closed shell SCF:
 Using DIIS extrapolation, IDIIS=  1040.
 NGot=  6710886400 LenX=  6687023004 LenY=  6687007434
 Requested convergence on RMS density matrix=1.00D-08 within 128 cycles.
 Requested convergence on MAX density matrix=1.00D-06.
 Requested convergence on             energy=1.00D-06.
 No special actions if energy rises.
 Integral accuracy reduced to 1.0D-05 until final iterations.

 Cycle   1  Pass 0  IDiag  1:
 E= -76.3468211069038    
 DIIS: error= 4.09D-02 at cycle   1 NSaved=   1.
 NSaved= 1 IEnMin= 1 EnMin= -76.3468211069038     IErMin= 1 ErrMin= 4.09D-02
 ErrMax= 4.09D-02  0.00D+00 EMaxC= 1.00D-01 BMatC= 1.20D-01 BMatP= 1.20D-01
 IDIUse=3 WtCom= 5.91D-01 WtEn= 4.09D-01
 Coeff-Com:  0.100D+01
 Coeff-En:   0.100D+01
 Coeff:      0.100D+01
 Gap=     0.314 Goal=   None    Shift=    0.000
 GapD=    0.314 DampG=1.000 DampE=0.500 DampFc=0.5000 IDamp=-1.
 Damping current iteration by 5.00D-01
 RMSDP=3.99D-03 MaxDP=9.96D-02              OVMax= 1.72D-01

 Cycle   2  Pass 0  IDiag  1:
 E= -76.3775630148219     Delta-E=       -0.030741907918 Rises=F Damp=T
 DIIS: error= 7.68D-03 at cycle   2 NSaved=   2.
 NSaved= 2 IEnMin= 2 EnMin= -76.3775630148219     IErMin= 2 ErrMin= 7.68D-03
 ErrMax= 7.68D-03  0.00D+00 EMaxC= 1.00D-01 BMatC= 5.03D-03 BMatP= 1.20D-01
 IDIUse=3 WtCom= 9.23D-01 WtEn= 7.68D-02
 Coeff-Com:  0.885D-01 0.912D+00
 Coeff-En:   0.199D+00 0.801D+00
 Coeff:      0.970D-01 0.903D+00
 Gap=     0.445 Goal=   None    Shift=    0.000
 RMSDP=6.08D-04 MaxDP=1.65D-02 DE=-3.07D-02 OVMax= 1.03D-01

 Cycle   3  Pass 0  IDiag  1:
 E= -76.4217076154069     Delta-E=       -0.044144600585 Rises=F Damp=F
 DIIS: error= 1.54D-03 at cycle   3 NSaved=   3.
 NSaved= 3 IEnMin= 3 EnMin= -76.4217076154069     IErMin= 3 ErrMin= 1.54D-03
 ErrMax= 1.54D-03  0.00D+00 EMaxC= 1.00D-01 BMatC= 1.28D-04 BMatP= 5.03D-03
 IDIUse=3 WtCom= 9.85D-01 WtEn= 1.54D-02
 Coeff-Com: -0.248D-01 0.471D-01 0.978D+00
 Coeff-En:   0.000D+00 0.000D+00 0.100D+01
 Coeff:     -0.244D-01 0.464D-01 0.978D+00
 Gap=     0.447 Goal=   None    Shift=    0.000
 RMSDP=5.29D-05 MaxDP=1.12D-03 DE=-4.41D-02 OVMax= 3.72D-03

 Cycle   4  Pass 0  IDiag  1:
 E= -76.4218119382302     Delta-E=       -0.000104322823 Rises=F Damp=F
 DIIS: error= 2.07D-04 at cycle   4 NSaved=   4.
 NSaved= 4 IEnMin= 4 EnMin= -76.4218119382302     IErMin= 4 ErrMin= 2.07D-04
 ErrMax= 2.07D-04  0.00D+00 EMaxC= 1.00D-01 BMatC= 3.02D-06 BMatP= 1.28D-04
 IDIUse=3 WtCom= 9.98D-01 WtEn= 2.07D-03
 Coeff-Com: -0.263D-02-0.588D-03 0.154D+00 0.849D+00
 Coeff-En:   0.000D+00 0.000D+00 0.000D+00 0.100D+01
 Coeff:     -0.263D-02-0.587D-03 0.153D+00 0.850D+00
 Gap=     0.448 Goal=   None    Shift=    0.000
 RMSDP=1.26D-05 MaxDP=3.35D-04 DE=-1.04D-04 OVMax= 5.41D-04

 Cycle   5  Pass 0  IDiag  1:
 E= -76.4218138694936     Delta-E=       -0.000001931263 Rises=F Damp=F
 DIIS: error= 4.13D-05 at cycle   5 NSaved=   5.
 NSaved= 5 IEnMin= 5 EnMin= -76.4218138694936     IErMin= 5 ErrMin= 4.13D-05
 ErrMax= 4.13D-05  0.00D+00 EMaxC= 1.00D-01 BMatC= 8.13D-08 BMatP= 3.02D-06
 IDIUse=1 WtCom= 1.00D+00 WtEn= 0.00D+00
 Coeff-Com:  0.137D-02-0.212D-02-0.372D-01-0.580D-01 0.110D+01
 Coeff:      0.137D-02-0.212D-02-0.372D-01-0.580D-01 0.110D+01
 Gap=     0.448 Goal=   None    Shift=    0.000
 RMSDP=8.45D-06 MaxDP=1.79D-04 DE=-1.93D-06 OVMax= 2.22D-04

 Initial convergence to 1.0D-05 achieved.  Increase integral accuracy.
 Cycle   6  Pass 1  IDiag  1:
 E= -76.4218086240761     Delta-E=        0.000005245417 Rises=F Damp=F
 DIIS: error= 9.66D-06 at cycle   1 NSaved=   1.
 NSaved= 1 IEnMin= 1 EnMin= -76.4218086240761     IErMin= 1 ErrMin= 9.66D-06
 ErrMax= 9.66D-06  0.00D+00 EMaxC= 1.00D-01 BMatC= 1.12D-08 BMatP= 1.12D-08
 IDIUse=1 WtCom= 1.00D+00 WtEn= 0.00D+00
 Coeff-Com:  0.100D+01
 Coeff:      0.100D+01
 Gap=     0.448 Goal=   None    Shift=    0.000
 RMSDP=8.45D-06 MaxDP=1.79D-04 DE= 5.25D-06 OVMax= 4.16D-05

 Cycle   7  Pass 1  IDiag  1:
 E= -76.4218086339661     Delta-E=       -0.000000009890 Rises=F Damp=F
 DIIS: error= 5.69D-06 at cycle   2 NSaved=   2.
 NSaved= 2 IEnMin= 2 EnMin= -76.4218086339661     IErMin= 2 ErrMin= 5.69D-06
 ErrMax= 5.69D-06  0.00D+00 EMaxC= 1.00D-01 BMatC= 1.98D-09 BMatP= 1.12D-08
 IDIUse=1 WtCom= 1.00D+00 WtEn= 0.00D+00
 Coeff-Com:  0.172D+00 0.828D+00
 Coeff:      0.172D+00 0.828D+00
 Gap=     0.448 Goal=   None    Shift=    0.000
 RMSDP=5.16D-07 MaxDP=1.27D-05 DE=-9.89D-09 OVMax= 2.44D-05

 Cycle   8  Pass 1  IDiag  1:
 E= -76.4218086347331     Delta-E=       -0.000000000767 Rises=F Damp=F
 DIIS: error= 4.22D-06 at cycle   3 NSaved=   3.
 NSaved= 3 IEnMin= 3 EnMin= -76.4218086347331     IErMin= 3 ErrMin= 4.22D-06
 ErrMax= 4.22D-06  0.00D+00 EMaxC= 1.00D-01 BMatC= 1.23D-09 BMatP= 1.98D-09
 IDIUse=1 WtCom= 1.00D+00 WtEn= 0.00D+00
 Coeff-Com: -0.547D-01 0.444D+00 0.611D+00
 Coeff:     -0.547D-01 0.444D+00 0.611D+00
 Gap=     0.448 Goal=   None    Shift=    0.000
 RMSDP=1.48D-07 MaxDP=5.84D-06 DE=-7.67D-10 OVMax= 1.01D-05

 Cycle   9  Pass 1  IDiag  1:
 E= -76.4218086355719     Delta-E=       -0.000000000839 Rises=F Damp=F
 DIIS: error= 3.23D-07 at cycle   4 NSaved=   4.
 NSaved= 4 IEnMin= 4 EnMin= -76.4218086355719     IErMin= 4 ErrMin= 3.23D-07
 ErrMax= 3.23D-07  0.00D+00 EMaxC= 1.00D-01 BMatC= 5.14D-12 BMatP= 1.23D-09
 IDIUse=1 WtCom= 1.00D+00 WtEn= 0.00D+00
 Coeff-Com: -0.255D-02-0.443D-01-0.282D-01 0.108D+01
 Coeff:     -0.255D-02-0.443D-01-0.282D-01 0.108D+01
 Gap=     0.448 Goal=   None    Shift=    0.000
 RMSDP=5.06D-08 MaxDP=1.12D-06 DE=-8.39D-10 OVMax= 2.18D-06

 Cycle  10  Pass 1  IDiag  1:
 E= -76.4218086355827     Delta-E=       -0.000000000011 Rises=F Damp=F
 DIIS: error= 5.73D-08 at cycle   5 NSaved=   5.
 NSaved= 5 IEnMin= 5 EnMin= -76.4218086355827     IErMin= 5 ErrMin= 5.73D-08
 ErrMax= 5.73D-08  0.00D+00 EMaxC= 1.00D-01 BMatC= 3.37D-13 BMatP= 5.14D-12
 IDIUse=1 WtCom= 1.00D+00 WtEn= 0.00D+00
 Coeff-Com:  0.243D-02-0.314D-01-0.378D-01 0.135D+00 0.932D+00
 Coeff:      0.243D-02-0.314D-01-0.378D-01 0.135D+00 0.932D+00
 Gap=     0.448 Goal=   None    Shift=    0.000
 RMSDP=1.11D-08 MaxDP=2.33D-07 DE=-1.08D-11 OVMax= 4.95D-07

 Cycle  11  Pass 1  IDiag  1:
 E= -76.4218086355835     Delta-E=       -0.000000000001 Rises=F Damp=F
 DIIS: error= 6.40D-09 at cycle   6 NSaved=   6.
 NSaved= 6 IEnMin= 6 EnMin= -76.4218086355835     IErMin= 6 ErrMin= 6.40D-09
 ErrMax= 6.40D-09  0.00D+00 EMaxC= 1.00D-01 BMatC= 6.27D-15 BMatP= 3.37D-13
 IDIUse=1 WtCom= 1.00D+00 WtEn= 0.00D+00
 Coeff-Com:  0.236D-03-0.502D-03-0.995D-03-0.279D-01 0.238D-01 0.101D+01
 Coeff:      0.236D-03-0.502D-03-0.995D-03-0.279D-01 0.238D-01 0.101D+01
 Gap=     0.448 Goal=   None    Shift=    0.000
 RMSDP=1.57D-09 MaxDP=3.01D-08 DE=-8.10D-13 OVMax= 9.34D-08

 SCF Done:  E(RM062X) =  -76.4218086356     A.U. after   11 cycles
            NFock= 11  Conv=0.16D-08     -V/T= 2.0033
 KE= 7.617072358265D+01 PE=-1.989361290723D+02 EE= 3.729383574735D+01
 Leave Link  502 at Mon Feb 20 00:55:21 2023, MaxMem=  6710886400 cpu:              32.0 elap:               1.7
 (Enter /data0/home/software/g16/l601.exe)
 Copying SCF densities to generalized density rwf, IOpCl= 0 IROHF=0.

 **********************************************************************

            Population analysis using the SCF density.

 **********************************************************************

 Alpha  occ. eigenvalues --  -19.62748  -1.13097  -0.60505  -0.47466  -0.39974
 Alpha virt. eigenvalues --    0.04811   0.09504   0.10106   0.12588   0.15054
 Alpha virt. eigenvalues --    0.15568   0.17210   0.18682   0.18800   0.20063
 Alpha virt. eigenvalues --    0.20404   0.22364   0.22978   0.29260   0.29660
 Alpha virt. eigenvalues --    0.31691   0.32278   0.37884   0.50279   0.54095
 Alpha virt. eigenvalues --    0.56482   0.60166   0.74698   0.75608   0.79058
 Alpha virt. eigenvalues --    0.80248   0.82368   0.86291   0.95560   0.98590
 Alpha virt. eigenvalues --    1.02185   1.03597   1.06435   1.09429   1.12862
 Alpha virt. eigenvalues --    1.19774   1.20924   1.41633   1.57241   1.68414
 Alpha virt. eigenvalues --    1.74349   1.75765   1.78654   1.82334   1.83909
 Alpha virt. eigenvalues --    1.89508   1.90841   1.97825   2.04672   2.09805
 Alpha virt. eigenvalues --    2.12779   2.21299   2.25241   2.32757   2.37640
 Alpha virt. eigenvalues --    2.40744   2.46193   2.49851   2.53425   2.53986
 Alpha virt. eigenvalues --    2.57042   2.59902   2.64472   2.67270   2.70612
 Alpha virt. eigenvalues --    2.72521   2.75373   2.77280   2.79896   2.85035
 Alpha virt. eigenvalues --    2.89814   3.01312   3.02425   3.04797   3.09733
 Alpha virt. eigenvalues --    3.44608   3.60464   3.62604   3.64101   4.52859
 Alpha virt. eigenvalues --    4.65796   5.06739   5.12168   5.24458   5.51215
 Alpha virt. eigenvalues --    5.90870   6.81488   6.83344   6.91349   6.98385
 Alpha virt. eigenvalues --    7.10357   9.66178   9.75971   9.80539   9.82468
 Alpha virt. eigenvalues --    9.97839  10.26093  10.28900  10.35601  10.42297
 Alpha virt. eigenvalues --   10.58876  12.79399  13.15283  13.39620  13.66200
 Alpha virt. eigenvalues --   13.80419  14.27732  17.65297  18.38703  49.97937
 Alpha virt. eigenvalues --  135.43439 139.75448
          Condensed to atoms (all electrons):
               1          2          3          4          5          6
     1  O    8.034873   0.310902   0.310196   0.059521  -0.003862  -0.115238
     2  H    0.310902   0.426644  -0.020943  -0.003444   0.000601   0.006056
     3  H    0.310196  -0.020943   0.430937  -0.003602   0.000330   0.007584
     4  O    0.059521  -0.003444  -0.003602   0.025384  -0.002589  -0.033699
     5  H   -0.003862   0.000601   0.000330  -0.002589   0.001172   0.001555
     6  H   -0.115238   0.006056   0.007584  -0.033699   0.001555   0.054260
     7  O   -0.000004   0.000003   0.000000  -0.000004   0.000001   0.000002
     8  H    0.000000  -0.000000  -0.000000   0.000001  -0.000000  -0.000000
     9  H    0.000002  -0.000002  -0.000000   0.000001  -0.000000  -0.000001
               7          8          9
     1  O   -0.000004   0.000000   0.000002
     2  H    0.000003  -0.000000  -0.000002
     3  H    0.000000  -0.000000  -0.000000
     4  O   -0.000004   0.000001   0.000001
     5  H    0.000001  -0.000000  -0.000000
     6  H    0.000002  -0.000000  -0.000001
     7  O    0.000006  -0.000003  -0.000003
     8  H   -0.000003   0.000002   0.000001
     9  H   -0.000003   0.000001   0.000002
 Mulliken charges:
               1
     1  O   -0.596389
     2  H    0.280183
     3  H    0.275499
     4  O   -0.041568
     5  H    0.002794
     6  H    0.079481
     7  O    0.000000
     8  H   -0.000000
     9  H   -0.000000
 Sum of Mulliken charges =   0.00000
 Mulliken charges with hydrogens summed into heavy atoms:
               1
     1  O   -0.040707
     4  O    0.040707
     7  O   -0.000000
         Mulliken charges condensed to fragments:
      1     -0.040707
      2      0.040707
      3     -0.000000
 Electronic spatial extent (au):  <R**2>=           7674.1760
 Charge=              0.0000 electrons
 Dipole moment (field-independent basis, Debye):
    X=              0.5481    Y=             -0.6253    Z=             -1.8606  Tot=              2.0380
 Quadrupole moment (field-independent basis, Debye-Ang):
   XX=              1.9445   YY=            -15.1665   ZZ=            -39.9341
   XY=              0.5201   XZ=            -10.9169   YZ=            -20.8767
 Traceless Quadrupole moment (field-independent basis, Debye-Ang):
   XX=             19.6632   YY=              2.5522   ZZ=            -22.2154
   XY=              0.5201   XZ=            -10.9169   YZ=            -20.8767
 Octapole moment (field-independent basis, Debye-Ang**2):
  XXX=            -62.2015  YYY=           -246.3761  ZZZ=           -627.4064  XYY=            -68.7765
  XXY=             -6.3792  XXZ=           -117.8913  XZZ=           -293.3182  YZZ=           -377.1276
  YYZ=           -262.4419  XYZ=           -125.5415
 Hexadecapole moment (field-independent basis, Debye-Ang**3):
 XXXX=          -1623.4893 YYYY=          -3348.1349 ZZZZ=          -8611.7494 XXXY=           -602.3384
 XXXZ=          -1719.0709 YYYX=          -1489.4968 YYYZ=          -3264.9591 ZZZX=          -4878.0189
 ZZZY=          -5576.0745 XXYY=           -571.0460 XXZZ=          -2708.3218 YYZZ=          -3917.3990
 XXYZ=          -1172.4125 YYXZ=          -1696.8273 ZZXY=          -2724.6640
 N-N= 9.049761106678D+00 E-N=-1.989361291700D+02  KE= 7.617072358265D+01
 No NMR shielding tensors so no spin-rotation constants.
 Leave Link  601 at Mon Feb 20 00:55:22 2023, MaxMem=  6710886400 cpu:               1.8 elap:               0.1
 (Enter /data0/home/software/g16/l122.exe)
 CPIOFr:  IOpCl= 0 IRwI=-1 IRwCP=  731 ICalc=  1 LCPTot=       22668 Len1MO=       57607 IndFrg=      137882
 Counterpoise: doing calculation for fragment   2 using the basis set of the full-system, NewBq=T
 Leave Link  122 at Mon Feb 20 00:55:22 2023, MaxMem=  6710886400 cpu:               0.1 elap:               0.0
 (Enter /data0/home/software/g16/l301.exe)
 Basis read from rwf:  (5D, 7F)
 No pseudopotential information found on rwf file.
   117 basis functions,   174 primitive gaussians,   123 cartesian basis functions
     5 alpha electrons        5 beta electrons
       nuclear repulsion energy         9.0878659232 Hartrees.
 IExCor= 4336 DFT=T Ex+Corr=M062X ExCW=0 ScaHFX=  0.540000
 ScaDFX=  1.000000  1.000000  1.000000  1.000000 ScalE2=  1.000000  1.000000
 IRadAn=      5 IRanWt=     -1 IRanGd=            0 ICorTp=0 IEmpDi=131
 NAtoms=    9 NActive=    9 NUniq=    9 SFac= 1.00D+00 NAtFMM=   60 NAOKFM=F Big=F
 Integral buffers will be    131072 words long.
 Raffenetti 2 integral format.
 Two-electron integral symmetry is turned off.
 R6Disp:  Grimme-D3 Dispersion energy=       -0.0000000077 Hartrees.
 Nuclear repulsion after empirical dispersion term =        9.0878659155 Hartrees.
 No density basis found on file   718.
 Leave Link  301 at Mon Feb 20 00:55:22 2023, MaxMem=  6710886400 cpu:               1.3 elap:               0.1
 (Enter /data0/home/software/g16/l302.exe)
 NPDir=0 NMtPBC=     1 NCelOv=     1 NCel=       1 NClECP=     1 NCelD=      1
         NCelK=      1 NCelE2=     1 NClLst=     1 CellRange=     0.0.
 One-electron integrals computed using PRISM.
 NBasis=   117 RedAO= T EigKep=  1.69D-03  NBF=   117
 NBsUse=   117 1.00D-06 EigRej= -1.00D+00 NBFU=   117
 Precomputing XC quadrature grid using
 IXCGrd= 4 IRadAn=           5 IRanWt=          -1 IRanGd=           0 AccXCQ= 0.00D+00.
 Generated NRdTot=       0 NPtTot=           0 NUsed=           0 NTot=          32
 NSgBfM=   113   113   113   113   113 MxSgAt=     9 MxSgA2=     9.
 Leave Link  302 at Mon Feb 20 00:55:22 2023, MaxMem=  6710886400 cpu:               2.6 elap:               0.1
 (Enter /data0/home/software/g16/l303.exe)
 DipDrv:  MaxL=1.
 Leave Link  303 at Mon Feb 20 00:55:22 2023, MaxMem=  6710886400 cpu:               0.5 elap:               0.0
 (Enter /data0/home/software/g16/l401.exe)
 ExpMin= 8.45D-02 ExpMax= 8.59D+03 ExpMxC= 1.30D+03 IAcc=3 IRadAn=         5 AccDes= 0.00D+00
 Harris functional with IExCor= 1009 and IRadAn=       5 diagonalized for initial guess.
 HarFok:  IExCor= 1009 AccDes= 0.00D+00 IRadAn=         5 IDoV= 1 UseB2=F ITyADJ=14
 ICtDFT=  3500011 ScaDFX=  1.000000  1.000000  1.000000  1.000000
 FoFCou: FMM=F IPFlag=           0 FMFlag=      100000 FMFlg1=           0
         NFxFlg=           0 DoJE=T BraDBF=F KetDBF=T FulRan=T
         wScrn=  0.000000 ICntrl=       500 IOpCl=  0 I1Cent=   200000004 NGrid=           0
         NMat0=    1 NMatS0=      1 NMatT0=    0 NMatD0=    1 NMtDS0=    0 NMtDT0=    0
 Symmetry not used in FoFCou.
 Harris En= -76.4166951566538    
 JPrj=0 DoOrth=F DoCkMO=F.
 Leave Link  401 at Mon Feb 20 00:55:22 2023, MaxMem=  6710886400 cpu:               4.3 elap:               0.2
 (Enter /data0/home/software/g16/l502.exe)
 Keep R1 ints in memory in canonical form, NReq=46556122.
 FoFCou: FMM=F IPFlag=           0 FMFlag=           0 FMFlg1=           0
         NFxFlg=           0 DoJE=F BraDBF=F KetDBF=F FulRan=T
         wScrn=  0.000000 ICntrl=       600 IOpCl=  0 I1Cent=           0 NGrid=           0
         NMat0=    1 NMatS0=   6903 NMatT0=    0 NMatD0=    1 NMtDS0=    0 NMtDT0=    0
 Symmetry not used in FoFCou.
 Two-electron integral symmetry not used.
 Closed shell SCF:
 Using DIIS extrapolation, IDIIS=  1040.
 NGot=  6710886400 LenX=  6687023004 LenY=  6687007434
 Requested convergence on RMS density matrix=1.00D-08 within 128 cycles.
 Requested convergence on MAX density matrix=1.00D-06.
 Requested convergence on             energy=1.00D-06.
 No special actions if energy rises.
 Integral accuracy reduced to 1.0D-05 until final iterations.

 Cycle   1  Pass 0  IDiag  1:
 E= -76.3469950595140    
 DIIS: error= 3.32D-02 at cycle   1 NSaved=   1.
 NSaved= 1 IEnMin= 1 EnMin= -76.3469950595140     IErMin= 1 ErrMin= 3.32D-02
 ErrMax= 3.32D-02  0.00D+00 EMaxC= 1.00D-01 BMatC= 1.20D-01 BMatP= 1.20D-01
 IDIUse=3 WtCom= 6.68D-01 WtEn= 3.32D-01
 Coeff-Com:  0.100D+01
 Coeff-En:   0.100D+01
 Coeff:      0.100D+01
 Gap=     0.294 Goal=   None    Shift=    0.000
 GapD=    0.294 DampG=1.000 DampE=0.500 DampFc=0.5000 IDamp=-1.
 Damping current iteration by 5.00D-01
 RMSDP=2.85D-03 MaxDP=9.95D-02              OVMax= 1.69D-01

 Cycle   2  Pass 0  IDiag  1:
 E= -76.3780565431678     Delta-E=       -0.031061483654 Rises=F Damp=T
 DIIS: error= 6.89D-03 at cycle   2 NSaved=   2.
 NSaved= 2 IEnMin= 2 EnMin= -76.3780565431678     IErMin= 2 ErrMin= 6.89D-03
 ErrMax= 6.89D-03  0.00D+00 EMaxC= 1.00D-01 BMatC= 4.93D-03 BMatP= 1.20D-01
 IDIUse=3 WtCom= 9.31D-01 WtEn= 6.89D-02
 Coeff-Com:  0.849D-01 0.915D+00
 Coeff-En:   0.193D+00 0.807D+00
 Coeff:      0.924D-01 0.908D+00
 Gap=     0.422 Goal=   None    Shift=    0.000
 RMSDP=3.73D-04 MaxDP=1.44D-02 DE=-3.11D-02 OVMax= 1.02D-01

 Cycle   3  Pass 0  IDiag  1:
 E= -76.4220420743984     Delta-E=       -0.043985531231 Rises=F Damp=F
 DIIS: error= 1.13D-03 at cycle   3 NSaved=   3.
 NSaved= 3 IEnMin= 3 EnMin= -76.4220420743984     IErMin= 3 ErrMin= 1.13D-03
 ErrMax= 1.13D-03  0.00D+00 EMaxC= 1.00D-01 BMatC= 1.36D-04 BMatP= 4.93D-03
 IDIUse=3 WtCom= 9.89D-01 WtEn= 1.13D-02
 Coeff-Com: -0.257D-01 0.492D-01 0.977D+00
 Coeff-En:   0.000D+00 0.000D+00 0.100D+01
 Coeff:     -0.254D-01 0.486D-01 0.977D+00
 Gap=     0.424 Goal=   None    Shift=    0.000
 RMSDP=5.21D-05 MaxDP=1.21D-03 DE=-4.40D-02 OVMax= 3.77D-03

 Cycle   4  Pass 0  IDiag  1:
 E= -76.4221518303345     Delta-E=       -0.000109755936 Rises=F Damp=F
 DIIS: error= 1.77D-04 at cycle   4 NSaved=   4.
 NSaved= 4 IEnMin= 4 EnMin= -76.4221518303345     IErMin= 4 ErrMin= 1.77D-04
 ErrMax= 1.77D-04  0.00D+00 EMaxC= 1.00D-01 BMatC= 2.95D-06 BMatP= 1.36D-04
 IDIUse=3 WtCom= 9.98D-01 WtEn= 1.77D-03
 Coeff-Com: -0.290D-02-0.113D-03 0.155D+00 0.848D+00
 Coeff-En:   0.000D+00 0.000D+00 0.000D+00 0.100D+01
 Coeff:     -0.290D-02-0.113D-03 0.154D+00 0.849D+00
 Gap=     0.425 Goal=   None    Shift=    0.000
 RMSDP=7.78D-06 MaxDP=3.31D-04 DE=-1.10D-04 OVMax= 5.18D-04

 Initial convergence to 1.0D-05 achieved.  Increase integral accuracy.
 Cycle   5  Pass 1  IDiag  1:
 E= -76.4221582152621     Delta-E=       -0.000006384928 Rises=F Damp=F
 DIIS: error= 3.99D-05 at cycle   1 NSaved=   1.
 NSaved= 1 IEnMin= 1 EnMin= -76.4221582152621     IErMin= 1 ErrMin= 3.99D-05
 ErrMax= 3.99D-05  0.00D+00 EMaxC= 1.00D-01 BMatC= 9.11D-08 BMatP= 9.11D-08
 IDIUse=1 WtCom= 1.00D+00 WtEn= 0.00D+00
 Coeff-Com:  0.100D+01
 Coeff:      0.100D+01
 Gap=     0.425 Goal=   None    Shift=    0.000
 RMSDP=7.78D-06 MaxDP=3.31D-04 DE=-6.38D-06 OVMax= 2.30D-04

 Cycle   6  Pass 1  IDiag  1:
 E= -76.4221583116206     Delta-E=       -0.000000096359 Rises=F Damp=F
 DIIS: error= 2.25D-05 at cycle   2 NSaved=   2.
 NSaved= 2 IEnMin= 2 EnMin= -76.4221583116206     IErMin= 2 ErrMin= 2.25D-05
 ErrMax= 2.25D-05  0.00D+00 EMaxC= 1.00D-01 BMatC= 6.21D-08 BMatP= 9.11D-08
 IDIUse=1 WtCom= 1.00D+00 WtEn= 0.00D+00
 Coeff-Com:  0.437D+00 0.563D+00
 Coeff:      0.437D+00 0.563D+00
 Gap=     0.425 Goal=   None    Shift=    0.000
 RMSDP=1.12D-06 MaxDP=4.17D-05 DE=-9.64D-08 OVMax= 7.88D-05

 Cycle   7  Pass 1  IDiag  1:
 E= -76.4221583529431     Delta-E=       -0.000000041323 Rises=F Damp=F
 DIIS: error= 1.02D-05 at cycle   3 NSaved=   3.
 NSaved= 3 IEnMin= 3 EnMin= -76.4221583529431     IErMin= 3 ErrMin= 1.02D-05
 ErrMax= 1.02D-05  0.00D+00 EMaxC= 1.00D-01 BMatC= 4.55D-09 BMatP= 6.21D-08
 IDIUse=1 WtCom= 1.00D+00 WtEn= 0.00D+00
 Coeff-Com: -0.118D+00 0.133D+00 0.984D+00
 Coeff:     -0.118D+00 0.133D+00 0.984D+00
 Gap=     0.425 Goal=   None    Shift=    0.000
 RMSDP=5.95D-07 MaxDP=1.84D-05 DE=-4.13D-08 OVMax= 4.11D-05

 Cycle   8  Pass 1  IDiag  1:
 E= -76.4221583578158     Delta-E=       -0.000000004873 Rises=F Damp=F
 DIIS: error= 1.30D-06 at cycle   4 NSaved=   4.
 NSaved= 4 IEnMin= 4 EnMin= -76.4221583578158     IErMin= 4 ErrMin= 1.30D-06
 ErrMax= 1.30D-06  0.00D+00 EMaxC= 1.00D-01 BMatC= 7.90D-11 BMatP= 4.55D-09
 IDIUse=1 WtCom= 1.00D+00 WtEn= 0.00D+00
 Coeff-Com: -0.375D-01 0.103D-01 0.180D+00 0.848D+00
 Coeff:     -0.375D-01 0.103D-01 0.180D+00 0.848D+00
 Gap=     0.425 Goal=   None    Shift=    0.000
 RMSDP=8.69D-08 MaxDP=2.22D-06 DE=-4.87D-09 OVMax= 5.01D-06

 Cycle   9  Pass 1  IDiag  1:
 E= -76.4221583579095     Delta-E=       -0.000000000094 Rises=F Damp=F
 DIIS: error= 1.85D-07 at cycle   5 NSaved=   5.
 NSaved= 5 IEnMin= 5 EnMin= -76.4221583579095     IErMin= 5 ErrMin= 1.85D-07
 ErrMax= 1.85D-07  0.00D+00 EMaxC= 1.00D-01 BMatC= 1.43D-12 BMatP= 7.90D-11
 IDIUse=1 WtCom= 1.00D+00 WtEn= 0.00D+00
 Coeff-Com:  0.571D-02-0.354D-02-0.447D-01-0.118D+00 0.116D+01
 Coeff:      0.571D-02-0.354D-02-0.447D-01-0.118D+00 0.116D+01
 Gap=     0.425 Goal=   None    Shift=    0.000
 RMSDP=1.95D-08 MaxDP=6.00D-07 DE=-9.37D-11 OVMax= 1.32D-06

 Cycle  10  Pass 1  IDiag  1:
 E= -76.4221583579131     Delta-E=       -0.000000000004 Rises=F Damp=F
 DIIS: error= 2.58D-08 at cycle   6 NSaved=   6.
 NSaved= 6 IEnMin= 6 EnMin= -76.4221583579131     IErMin= 6 ErrMin= 2.58D-08
 ErrMax= 2.58D-08  0.00D+00 EMaxC= 1.00D-01 BMatC= 2.71D-14 BMatP= 1.43D-12
 IDIUse=1 WtCom= 1.00D+00 WtEn= 0.00D+00
 Coeff-Com: -0.158D-04 0.167D-03 0.316D-02-0.261D-02-0.122D+00 0.112D+01
 Coeff:     -0.158D-04 0.167D-03 0.316D-02-0.261D-02-0.122D+00 0.112D+01
 Gap=     0.425 Goal=   None    Shift=    0.000
 RMSDP=2.11D-09 MaxDP=4.58D-08 DE=-3.64D-12 OVMax= 1.57D-07

 SCF Done:  E(RM062X) =  -76.4221583579     A.U. after   10 cycles
            NFock= 10  Conv=0.21D-08     -V/T= 2.0031
 KE= 7.618679346774D+01 PE=-1.990200271150D+02 EE= 3.732320937393D+01
 Leave Link  502 at Mon Feb 20 00:55:24 2023, MaxMem=  6710886400 cpu:              30.5 elap:               1.6
 (Enter /data0/home/software/g16/l601.exe)
 Copying SCF densities to generalized density rwf, IOpCl= 0 IROHF=0.

 **********************************************************************

            Population analysis using the SCF density.

 **********************************************************************

 Alpha  occ. eigenvalues --  -19.62677  -1.13299  -0.60627  -0.47572  -0.39996
 Alpha virt. eigenvalues --    0.02481   0.09044   0.09795   0.12194   0.12569
 Alpha virt. eigenvalues --    0.16174   0.17561   0.18062   0.18523   0.18752
 Alpha virt. eigenvalues --    0.21236   0.21345   0.24447   0.26614   0.28074
 Alpha virt. eigenvalues --    0.29815   0.32320   0.34923   0.50358   0.54244
 Alpha virt. eigenvalues --    0.56015   0.62296   0.69619   0.70750   0.78758
 Alpha virt. eigenvalues --    0.79754   0.80770   0.81846   0.93028   0.99318
 Alpha virt. eigenvalues --    1.02835   1.04847   1.05238   1.07710   1.12564
 Alpha virt. eigenvalues --    1.20166   1.21886   1.33403   1.40906   1.66090
 Alpha virt. eigenvalues --    1.71580   1.73605   1.75057   1.80569   1.83391
 Alpha virt. eigenvalues --    1.88948   1.97207   2.01652   2.06757   2.09027
 Alpha virt. eigenvalues --    2.20472   2.21446   2.27451   2.32211   2.37358
 Alpha virt. eigenvalues --    2.42072   2.43079   2.50099   2.52985   2.55562
 Alpha virt. eigenvalues --    2.58216   2.59276   2.59849   2.64192   2.68323
 Alpha virt. eigenvalues --    2.69828   2.71776   2.74810   2.76756   2.85025
 Alpha virt. eigenvalues --    2.93296   2.99475   3.01102   3.09123   3.13390
 Alpha virt. eigenvalues --    3.45171   3.50423   3.59789   3.63644   4.41851
 Alpha virt. eigenvalues --    4.64945   5.00918   5.07359   5.23588   5.49569
 Alpha virt. eigenvalues --    5.95277   6.78538   6.80603   6.89823   6.91886
 Alpha virt. eigenvalues --    7.13344   9.77063   9.77955   9.86627   9.93249
 Alpha virt. eigenvalues --   10.04804  10.24617  10.27385  10.34084  10.40844
 Alpha virt. eigenvalues --   10.57378  12.81587  13.18124  13.37503  13.60516
 Alpha virt. eigenvalues --   13.78639  14.25789  17.56154  18.36300  49.98335
 Alpha virt. eigenvalues --  135.28651 139.72158
          Condensed to atoms (all electrons):
               1          2          3          4          5          6
     1  O    0.020647  -0.006510  -0.008729   0.021342   0.004537   0.012652
     2  H   -0.006510   0.003024   0.002083  -0.003092  -0.001102  -0.001580
     3  H   -0.008729   0.002083   0.005365  -0.003297  -0.000592  -0.002323
     4  O    0.021342  -0.003092  -0.003297   7.950636   0.317406   0.314628
     5  H    0.004537  -0.001102  -0.000592   0.317406   0.436703  -0.031276
     6  H    0.012652  -0.001580  -0.002323   0.314628  -0.031276   0.355275
     7  O    0.000002   0.000001   0.000000   0.000038   0.000003  -0.000002
     8  H   -0.000000  -0.000000  -0.000000  -0.000005  -0.000001   0.000000
     9  H   -0.000001  -0.000001  -0.000000  -0.000010  -0.000000   0.000001
               7          8          9
     1  O    0.000002  -0.000000  -0.000001
     2  H    0.000001  -0.000000  -0.000001
     3  H    0.000000  -0.000000  -0.000000
     4  O    0.000038  -0.000005  -0.000010
     5  H    0.000003  -0.000001  -0.000000
     6  H   -0.000002   0.000000   0.000001
     7  O    0.000074  -0.000031  -0.000037
     8  H   -0.000031   0.000017   0.000013
     9  H   -0.000037   0.000013   0.000022
 Mulliken charges:
               1
     1  O   -0.043940
     2  H    0.007176
     3  H    0.007493
     4  O   -0.597648
     5  H    0.274322
     6  H    0.352625
     7  O   -0.000049
     8  H    0.000007
     9  H    0.000014
 Sum of Mulliken charges =  -0.00000
 Mulliken charges with hydrogens summed into heavy atoms:
               1
     1  O   -0.029271
     4  O    0.029299
     7  O   -0.000028
         Mulliken charges condensed to fragments:
      1     -0.029271
      2      0.029299
      3     -0.000028
 Electronic spatial extent (au):  <R**2>=          10357.7539
 Charge=             -0.0000 electrons
 Dipole moment (field-independent basis, Debye):
    X=              0.3358    Y=             -0.2789    Z=             -2.0363  Tot=              2.0826
 Quadrupole moment (field-independent basis, Debye-Ang):
   XX=              2.1937   YY=            -12.2239   ZZ=            -51.8541
   XY=              0.1315   XZ=            -16.1492   YZ=            -19.4139
 Traceless Quadrupole moment (field-independent basis, Debye-Ang):
   XX=             22.8218   YY=              8.4042   ZZ=            -31.2260
   XY=              0.1315   XZ=            -16.1492   YZ=            -19.4139
 Octapole moment (field-independent basis, Debye-Ang**2):
  XXX=            -33.0058  YYY=           -242.4444  ZZZ=           -976.6920  XYY=            -96.1633
  XXY=             -6.3513  XXZ=           -171.2082  XZZ=           -465.8905  YZZ=           -450.5872
  YYZ=           -267.2955  XYZ=           -157.8635
 Hexadecapole moment (field-independent basis, Debye-Ang**3):
 XXXX=          -1300.1194 YYYY=          -3643.3239 ZZZZ=         -16179.6808 XXXY=           -493.1634
 XXXZ=          -2306.0689 YYYX=          -2187.2044 YYYZ=          -3759.6934 ZZZX=          -9111.7057
 ZZZY=          -8231.4839 XXYY=          -1004.1480 XXZZ=          -4728.7345 YYZZ=          -4868.6012
 XXYZ=          -1638.5113 YYXZ=          -2352.9220 ZZXY=          -4056.5192
 N-N= 9.087865915454D+00 E-N=-1.990200265178D+02  KE= 7.618679346774D+01
 No NMR shielding tensors so no spin-rotation constants.
 Leave Link  601 at Mon Feb 20 00:55:24 2023, MaxMem=  6710886400 cpu:               1.8 elap:               0.1
 (Enter /data0/home/software/g16/l122.exe)
 CPIOFr:  IOpCl= 0 IRwI=-1 IRwCP=  731 ICalc=  2 LCPTot=       22668 Len1MO=       57607 IndFrg=      195489
 Counterpoise: doing calculation for fragment   3 using the basis set of the full-system, NewBq=T
 Leave Link  122 at Mon Feb 20 00:55:24 2023, MaxMem=  6710886400 cpu:               0.0 elap:               0.0
 (Enter /data0/home/software/g16/l301.exe)
 Basis read from rwf:  (5D, 7F)
 No pseudopotential information found on rwf file.
   117 basis functions,   174 primitive gaussians,   123 cartesian basis functions
     5 alpha electrons        5 beta electrons
       nuclear repulsion energy         9.0693919810 Hartrees.
 IExCor= 4336 DFT=T Ex+Corr=M062X ExCW=0 ScaHFX=  0.540000
 ScaDFX=  1.000000  1.000000  1.000000  1.000000 ScalE2=  1.000000  1.000000
 IRadAn=      5 IRanWt=     -1 IRanGd=            0 ICorTp=0 IEmpDi=131
 NAtoms=    9 NActive=    9 NUniq=    9 SFac= 1.00D+00 NAtFMM=   60 NAOKFM=F Big=F
 Integral buffers will be    131072 words long.
 Raffenetti 2 integral format.
 Two-electron integral symmetry is turned off.
 R6Disp:  Grimme-D3 Dispersion energy=       -0.0000000074 Hartrees.
 Nuclear repulsion after empirical dispersion term =        9.0693919736 Hartrees.
 No density basis found on file   718.
 Leave Link  301 at Mon Feb 20 00:55:24 2023, MaxMem=  6710886400 cpu:               1.3 elap:               0.1
 (Enter /data0/home/software/g16/l302.exe)
 NPDir=0 NMtPBC=     1 NCelOv=     1 NCel=       1 NClECP=     1 NCelD=      1
         NCelK=      1 NCelE2=     1 NClLst=     1 CellRange=     0.0.
 One-electron integrals computed using PRISM.
 NBasis=   117 RedAO= T EigKep=  1.69D-03  NBF=   117
 NBsUse=   117 1.00D-06 EigRej= -1.00D+00 NBFU=   117
 Precomputing XC quadrature grid using
 IXCGrd= 4 IRadAn=           5 IRanWt=          -1 IRanGd=           0 AccXCQ= 0.00D+00.
 Generated NRdTot=       0 NPtTot=           0 NUsed=           0 NTot=          32
 NSgBfM=   113   113   113   113   113 MxSgAt=     9 MxSgA2=     9.
 Leave Link  302 at Mon Feb 20 00:55:24 2023, MaxMem=  6710886400 cpu:               2.6 elap:               0.1
 (Enter /data0/home/software/g16/l303.exe)
 DipDrv:  MaxL=1.
 Leave Link  303 at Mon Feb 20 00:55:24 2023, MaxMem=  6710886400 cpu:               0.5 elap:               0.0
 (Enter /data0/home/software/g16/l401.exe)
 ExpMin= 8.45D-02 ExpMax= 8.59D+03 ExpMxC= 1.30D+03 IAcc=3 IRadAn=         5 AccDes= 0.00D+00
 Harris functional with IExCor= 1009 and IRadAn=       5 diagonalized for initial guess.
 HarFok:  IExCor= 1009 AccDes= 0.00D+00 IRadAn=         5 IDoV= 1 UseB2=F ITyADJ=14
 ICtDFT=  3500011 ScaDFX=  1.000000  1.000000  1.000000  1.000000
 FoFCou: FMM=F IPFlag=           0 FMFlag=      100000 FMFlg1=           0
         NFxFlg=           0 DoJE=T BraDBF=F KetDBF=T FulRan=T
         wScrn=  0.000000 ICntrl=       500 IOpCl=  0 I1Cent=   200000004 NGrid=           0
         NMat0=    1 NMatS0=      1 NMatT0=    0 NMatD0=    1 NMtDS0=    0 NMtDT0=    0
 Symmetry not used in FoFCou.
 Harris En= -76.4159251198859    
 JPrj=0 DoOrth=F DoCkMO=F.
 Leave Link  401 at Mon Feb 20 00:55:24 2023, MaxMem=  6710886400 cpu:               4.1 elap:               0.2
 (Enter /data0/home/software/g16/l502.exe)
 Keep R1 ints in memory in canonical form, NReq=46556122.
 FoFCou: FMM=F IPFlag=           0 FMFlag=           0 FMFlg1=           0
         NFxFlg=           0 DoJE=F BraDBF=F KetDBF=F FulRan=T
         wScrn=  0.000000 ICntrl=       600 IOpCl=  0 I1Cent=           0 NGrid=           0
         NMat0=    1 NMatS0=   6903 NMatT0=    0 NMatD0=    1 NMtDS0=    0 NMtDT0=    0
 Symmetry not used in FoFCou.
 Two-electron integral symmetry not used.
 Closed shell SCF:
 Using DIIS extrapolation, IDIIS=  1040.
 NGot=  6710886400 LenX=  6687023004 LenY=  6687007434
 Requested convergence on RMS density matrix=1.00D-08 within 128 cycles.
 Requested convergence on MAX density matrix=1.00D-06.
 Requested convergence on             energy=1.00D-06.
 No special actions if energy rises.
 Integral accuracy reduced to 1.0D-05 until final iterations.

 Cycle   1  Pass 0  IDiag  1:
 E= -76.3466288046853    
 DIIS: error= 5.61D-02 at cycle   1 NSaved=   1.
 NSaved= 1 IEnMin= 1 EnMin= -76.3466288046853     IErMin= 1 ErrMin= 5.61D-02
 ErrMax= 5.61D-02  0.00D+00 EMaxC= 1.00D-01 BMatC= 1.20D-01 BMatP= 1.20D-01
 IDIUse=3 WtCom= 4.39D-01 WtEn= 5.61D-01
 Coeff-Com:  0.100D+01
 Coeff-En:   0.100D+01
 Coeff:      0.100D+01
 Gap=     0.323 Goal=   None    Shift=    0.000
 GapD=    0.323 DampG=1.000 DampE=0.500 DampFc=0.5000 IDamp=-1.
 Damping current iteration by 5.00D-01
 RMSDP=2.66D-03 MaxDP=1.00D-01              OVMax= 1.67D-01

 Cycle   2  Pass 0  IDiag  1:
 E= -76.3776997221667     Delta-E=       -0.031070917481 Rises=F Damp=T
 DIIS: error= 1.00D-02 at cycle   2 NSaved=   2.
 NSaved= 2 IEnMin= 2 EnMin= -76.3776997221667     IErMin= 2 ErrMin= 1.00D-02
 ErrMax= 1.00D-02  0.00D+00 EMaxC= 1.00D-01 BMatC= 4.88D-03 BMatP= 1.20D-01
 IDIUse=3 WtCom= 9.00D-01 WtEn= 1.00D-01
 Coeff-Com:  0.844D-01 0.916D+00
 Coeff-En:   0.191D+00 0.809D+00
 Coeff:      0.951D-01 0.905D+00
 Gap=     0.462 Goal=   None    Shift=    0.000
 RMSDP=3.22D-04 MaxDP=1.43D-02 DE=-3.11D-02 OVMax= 1.00D-01

 Cycle   3  Pass 0  IDiag  1:
 E= -76.4214365196286     Delta-E=       -0.043736797462 Rises=F Damp=F
 DIIS: error= 1.93D-03 at cycle   3 NSaved=   3.
 NSaved= 3 IEnMin= 3 EnMin= -76.4214365196286     IErMin= 3 ErrMin= 1.93D-03
 ErrMax= 1.93D-03  0.00D+00 EMaxC= 1.00D-01 BMatC= 1.01D-04 BMatP= 4.88D-03
 IDIUse=3 WtCom= 9.81D-01 WtEn= 1.93D-02
 Coeff-Com: -0.213D-01 0.423D-01 0.979D+00
 Coeff-En:   0.000D+00 0.000D+00 0.100D+01
 Coeff:     -0.209D-01 0.415D-01 0.979D+00
 Gap=     0.458 Goal=   None    Shift=    0.000
 RMSDP=3.98D-05 MaxDP=1.06D-03 DE=-4.37D-02 OVMax= 3.44D-03

 Cycle   4  Pass 0  IDiag  1:
 E= -76.4215215836692     Delta-E=       -0.000085064041 Rises=F Damp=F
 DIIS: error= 3.00D-04 at cycle   4 NSaved=   4.
 NSaved= 4 IEnMin= 4 EnMin= -76.4215215836692     IErMin= 4 ErrMin= 3.00D-04
 ErrMax= 3.00D-04  0.00D+00 EMaxC= 1.00D-01 BMatC= 3.27D-06 BMatP= 1.01D-04
 IDIUse=3 WtCom= 9.97D-01 WtEn= 3.00D-03
 Coeff-Com: -0.221D-02-0.169D-02 0.162D+00 0.842D+00
 Coeff-En:   0.000D+00 0.000D+00 0.000D+00 0.100D+01
 Coeff:     -0.220D-02-0.168D-02 0.162D+00 0.842D+00
 Gap=     0.459 Goal=   None    Shift=    0.000
 RMSDP=7.44D-06 MaxDP=3.51D-04 DE=-8.51D-05 OVMax= 5.39D-04

 Initial convergence to 1.0D-05 achieved.  Increase integral accuracy.
 Cycle   5  Pass 1  IDiag  1:
 E= -76.4215180927868     Delta-E=        0.000003490882 Rises=F Damp=F
 DIIS: error= 6.53D-05 at cycle   1 NSaved=   1.
 NSaved= 1 IEnMin= 1 EnMin= -76.4215180927868     IErMin= 1 ErrMin= 6.53D-05
 ErrMax= 6.53D-05  0.00D+00 EMaxC= 1.00D-01 BMatC= 9.43D-08 BMatP= 9.43D-08
 IDIUse=1 WtCom= 1.00D+00 WtEn= 0.00D+00
 Coeff-Com:  0.100D+01
 Coeff:      0.100D+01
 Gap=     0.459 Goal=   None    Shift=    0.000
 RMSDP=7.44D-06 MaxDP=3.51D-04 DE= 3.49D-06 OVMax= 2.28D-04

 Cycle   6  Pass 1  IDiag  1:
 E= -76.4215181934883     Delta-E=       -0.000000100701 Rises=F Damp=F
 DIIS: error= 4.36D-05 at cycle   2 NSaved=   2.
 NSaved= 2 IEnMin= 2 EnMin= -76.4215181934883     IErMin= 2 ErrMin= 4.36D-05
 ErrMax= 4.36D-05  0.00D+00 EMaxC= 1.00D-01 BMatC= 6.06D-08 BMatP= 9.43D-08
 IDIUse=1 WtCom= 1.00D+00 WtEn= 0.00D+00
 Coeff-Com:  0.427D+00 0.573D+00
 Coeff:      0.427D+00 0.573D+00
 Gap=     0.459 Goal=   None    Shift=    0.000
 RMSDP=1.11D-06 MaxDP=4.47D-05 DE=-1.01D-07 OVMax= 8.11D-05

 Cycle   7  Pass 1  IDiag  1:
 E= -76.4215182336835     Delta-E=       -0.000000040195 Rises=F Damp=F
 DIIS: error= 1.68D-05 at cycle   3 NSaved=   3.
 NSaved= 3 IEnMin= 3 EnMin= -76.4215182336835     IErMin= 3 ErrMin= 1.68D-05
 ErrMax= 1.68D-05  0.00D+00 EMaxC= 1.00D-01 BMatC= 5.09D-09 BMatP= 6.06D-08
 IDIUse=1 WtCom= 1.00D+00 WtEn= 0.00D+00
 Coeff-Com: -0.127D+00 0.145D+00 0.982D+00
 Coeff:     -0.127D+00 0.145D+00 0.982D+00
 Gap=     0.459 Goal=   None    Shift=    0.000
 RMSDP=5.27D-07 MaxDP=2.04D-05 DE=-4.02D-08 OVMax= 4.21D-05

 Cycle   8  Pass 1  IDiag  1:
 E= -76.4215182389867     Delta-E=       -0.000000005303 Rises=F Damp=F
 DIIS: error= 1.58D-06 at cycle   4 NSaved=   4.
 NSaved= 4 IEnMin= 4 EnMin= -76.4215182389867     IErMin= 4 ErrMin= 1.58D-06
 ErrMax= 1.58D-06  0.00D+00 EMaxC= 1.00D-01 BMatC= 6.27D-11 BMatP= 5.09D-09
 IDIUse=1 WtCom= 1.00D+00 WtEn= 0.00D+00
 Coeff-Com: -0.325D-01 0.102D-01 0.158D+00 0.864D+00
 Coeff:     -0.325D-01 0.102D-01 0.158D+00 0.864D+00
 Gap=     0.459 Goal=   None    Shift=    0.000
 RMSDP=6.18D-08 MaxDP=1.99D-06 DE=-5.30D-09 OVMax= 4.86D-06

 Cycle   9  Pass 1  IDiag  1:
 E= -76.4215182390644     Delta-E=       -0.000000000078 Rises=F Damp=F
 DIIS: error= 2.60D-07 at cycle   5 NSaved=   5.
 NSaved= 5 IEnMin= 5 EnMin= -76.4215182390644     IErMin= 5 ErrMin= 2.60D-07
 ErrMax= 2.60D-07  0.00D+00 EMaxC= 1.00D-01 BMatC= 1.42D-12 BMatP= 6.27D-11
 IDIUse=1 WtCom= 1.00D+00 WtEn= 0.00D+00
 Coeff-Com:  0.569D-02-0.564D-02-0.446D-01-0.793D-01 0.112D+01
 Coeff:      0.569D-02-0.564D-02-0.446D-01-0.793D-01 0.112D+01
 Gap=     0.459 Goal=   None    Shift=    0.000
 RMSDP=2.07D-08 MaxDP=6.32D-07 DE=-7.77D-11 OVMax= 1.42D-06

 Cycle  10  Pass 1  IDiag  1:
 E= -76.4215182390684     Delta-E=       -0.000000000004 Rises=F Damp=F
 DIIS: error= 2.95D-08 at cycle   6 NSaved=   6.
 NSaved= 6 IEnMin= 6 EnMin= -76.4215182390684     IErMin= 6 ErrMin= 2.95D-08
 ErrMax= 2.95D-08  0.00D+00 EMaxC= 1.00D-01 BMatC= 2.80D-14 BMatP= 1.42D-12
 IDIUse=1 WtCom= 1.00D+00 WtEn= 0.00D+00
 Coeff-Com:  0.151D-03 0.189D-03 0.346D-03-0.140D-01-0.385D-01 0.105D+01
 Coeff:      0.151D-03 0.189D-03 0.346D-03-0.140D-01-0.385D-01 0.105D+01
 Gap=     0.459 Goal=   None    Shift=    0.000
 RMSDP=2.26D-09 MaxDP=4.69D-08 DE=-3.98D-12 OVMax= 1.51D-07

 SCF Done:  E(RM062X) =  -76.4215182391     A.U. after   10 cycles
            NFock= 10  Conv=0.23D-08     -V/T= 2.0031
 KE= 7.618397736630D+01 PE=-1.989826416700D+02 EE= 3.730775409101D+01
 Leave Link  502 at Mon Feb 20 00:55:26 2023, MaxMem=  6710886400 cpu:              30.1 elap:               1.6
 (Enter /data0/home/software/g16/l601.exe)
 Copying SCF densities to generalized density rwf, IOpCl= 0 IROHF=0.

 **********************************************************************

            Population analysis using the SCF density.

 **********************************************************************

 Alpha  occ. eigenvalues --  -19.62722  -1.13268  -0.60329  -0.47717  -0.39985
 Alpha virt. eigenvalues --    0.05912   0.07686   0.12544   0.13078   0.14968
 Alpha virt. eigenvalues --    0.16460   0.17535   0.18823   0.18874   0.19875
 Alpha virt. eigenvalues --    0.21517   0.22880   0.25172   0.28928   0.29883
 Alpha virt. eigenvalues --    0.33271   0.34071   0.38926   0.50775   0.53419
 Alpha virt. eigenvalues --    0.60503   0.64976   0.78330   0.79310   0.80957
 Alpha virt. eigenvalues --    0.81996   0.85229   0.91106   0.98196   1.00450
 Alpha virt. eigenvalues --    1.03156   1.06224   1.06906   1.12864   1.17416
 Alpha virt. eigenvalues --    1.20126   1.22366   1.31867   1.34785   1.70472
 Alpha virt. eigenvalues --    1.74238   1.75215   1.80932   1.86277   1.89868
 Alpha virt. eigenvalues --    1.91761   1.98539   2.06969   2.09646   2.13317
 Alpha virt. eigenvalues --    2.17220   2.28121   2.30255   2.36353   2.37379
 Alpha virt. eigenvalues --    2.39139   2.50724   2.51604   2.54934   2.62284
 Alpha virt. eigenvalues --    2.64329   2.65874   2.70771   2.72854   2.75963
 Alpha virt. eigenvalues --    2.78271   2.80656   2.86994   2.87564   2.95009
 Alpha virt. eigenvalues --    3.01067   3.02817   3.09150   3.11658   3.25434
 Alpha virt. eigenvalues --    3.61233   3.62235   3.68704   3.80152   4.62061
 Alpha virt. eigenvalues --    4.75526   5.06003   5.25367   5.32737   5.48586
 Alpha virt. eigenvalues --    5.89795   6.78519   6.80026   6.87364   6.91632
 Alpha virt. eigenvalues --    7.09673  10.24939  10.27557  10.28653  10.31055
 Alpha virt. eigenvalues --   10.33981  10.39946  10.42078  10.45561  10.58641
 Alpha virt. eigenvalues --   10.66294  13.39134  13.45133  13.79946  13.83464
 Alpha virt. eigenvalues --   14.28057  14.31974  18.39673  18.46480  49.95347
 Alpha virt. eigenvalues --  139.74323 139.75357
          Condensed to atoms (all electrons):
               1          2          3          4          5          6
     1  O    0.000008  -0.000005  -0.000004   0.000001  -0.000001  -0.000001
     2  H   -0.000005   0.000004   0.000002   0.000003  -0.000000  -0.000003
     3  H   -0.000004   0.000002   0.000003   0.000001  -0.000000  -0.000002
     4  O    0.000001   0.000003   0.000001   0.000070  -0.000025  -0.000046
     5  H   -0.000001  -0.000000  -0.000000  -0.000025   0.000011   0.000013
     6  H   -0.000001  -0.000003  -0.000002  -0.000046   0.000013   0.000036
     7  O   -0.000001   0.000005   0.000000   0.000029  -0.000006  -0.000006
     8  H   -0.000000   0.000000   0.000000  -0.000001   0.000001   0.000000
     9  H    0.000000   0.000001   0.000000  -0.000000   0.000000  -0.000000
               7          8          9
     1  O   -0.000001  -0.000000   0.000000
     2  H    0.000005   0.000000   0.000001
     3  H    0.000000   0.000000   0.000000
     4  O    0.000029  -0.000001  -0.000000
     5  H   -0.000006   0.000001   0.000000
     6  H   -0.000006   0.000000  -0.000000
     7  O    7.919560   0.318370   0.314844
     8  H    0.318370   0.430323  -0.023568
     9  H    0.314844  -0.023568   0.430779
 Mulliken charges:
               1
     1  O    0.000001
     2  H   -0.000007
     3  H   -0.000001
     4  O   -0.000032
     5  H    0.000006
     6  H    0.000008
     7  O   -0.552796
     8  H    0.274875
     9  H    0.277945
 Sum of Mulliken charges =  -0.00000
 Mulliken charges with hydrogens summed into heavy atoms:
               1
     1  O   -0.000006
     4  O   -0.000019
     7  O    0.000025
         Mulliken charges condensed to fragments:
      1     -0.000006
      2     -0.000019
      3      0.000025
 Electronic spatial extent (au):  <R**2>=          14021.2763
 Charge=             -0.0000 electrons
 Dipole moment (field-independent basis, Debye):
    X=              0.5018    Y=             -1.3305    Z=             -1.6009  Tot=              2.1413
 Quadrupole moment (field-independent basis, Debye-Ang):
   XX=              7.3775   YY=            -41.5776   ZZ=            -35.1599
   XY=             -9.7377   XZ=            -14.0374   YZ=            -31.8847
 Traceless Quadrupole moment (field-independent basis, Debye-Ang):
   XX=             30.4975   YY=            -18.4576   ZZ=            -12.0398
   XY=             -9.7377   XZ=            -14.0374   YZ=            -31.8847
 Octapole moment (field-independent basis, Debye-Ang**2):
  XXX=             49.3668  YYY=           -946.0268  ZZZ=           -559.8460  XYY=           -421.8151
  XXY=           -103.2110  XXZ=           -148.7570  XZZ=           -370.0484  YZZ=           -548.6368
  YYZ=           -621.1903  XYZ=           -318.1860
 Hexadecapole moment (field-independent basis, Debye-Ang**3):
 XXXX=           -542.7479 YYYY=         -18733.9546 ZZZZ=          -7742.3417 XXXY=          -1801.4305
 XXXZ=          -2052.6498 YYYX=         -10400.3668 YYYZ=         -11569.8998 ZZZX=          -6208.6773
 ZZZY=          -8029.2476 XXYY=          -4938.9589 XXZZ=          -4205.4945 YYZZ=          -8888.6023
 XXYZ=          -3599.9960 YYXZ=          -6653.6487 ZZXY=          -5936.1117
 N-N= 9.069391973585D+00 E-N=-1.989826414972D+02  KE= 7.618397736630D+01
 No NMR shielding tensors so no spin-rotation constants.
 Leave Link  601 at Mon Feb 20 00:55:26 2023, MaxMem=  6710886400 cpu:               1.8 elap:               0.1
 (Enter /data0/home/software/g16/l122.exe)
 CPIOFr:  IOpCl= 0 IRwI=-1 IRwCP=  731 ICalc=  3 LCPTot=       22668 Len1MO=       57607 IndFrg=      253096
 Counterpoise: doing calculation for fragment   1 using the basis set of the fragment.
 Leave Link  122 at Mon Feb 20 00:55:26 2023, MaxMem=  6710886400 cpu:               0.1 elap:               0.0
 (Enter /data0/home/software/g16/l301.exe)
 Basis read from rwf:  (5D, 7F)
 No pseudopotential information found on rwf file.
    39 basis functions,    58 primitive gaussians,    41 cartesian basis functions
     5 alpha electrons        5 beta electrons
       nuclear repulsion energy         9.0497611149 Hartrees.
 IExCor= 4336 DFT=T Ex+Corr=M062X ExCW=0 ScaHFX=  0.540000
 ScaDFX=  1.000000  1.000000  1.000000  1.000000 ScalE2=  1.000000  1.000000
 IRadAn=      5 IRanWt=     -1 IRanGd=            0 ICorTp=0 IEmpDi=131
 NAtoms=    9 NActive=    3 NUniq=    3 SFac= 1.00D+00 NAtFMM=   60 NAOKFM=F Big=F
 Integral buffers will be    131072 words long.
 Raffenetti 2 integral format.
 Two-electron integral symmetry is turned off.
 R6Disp:  Grimme-D3 Dispersion energy=       -0.0000000082 Hartrees.
 Nuclear repulsion after empirical dispersion term =        9.0497611067 Hartrees.
 No density basis found on file   718.
 Leave Link  301 at Mon Feb 20 00:55:26 2023, MaxMem=  6710886400 cpu:               1.3 elap:               0.1
 (Enter /data0/home/software/g16/l302.exe)
 NPDir=0 NMtPBC=     1 NCelOv=     1 NCel=       1 NClECP=     1 NCelD=      1
         NCelK=      1 NCelE2=     1 NClLst=     1 CellRange=     0.0.
 One-electron integrals computed using PRISM.
 NBasis=    39 RedAO= T EigKep=  3.12D-03  NBF=    39
 NBsUse=    39 1.00D-06 EigRej= -1.00D+00 NBFU=    39
 Precomputing XC quadrature grid using
 IXCGrd= 4 IRadAn=           5 IRanWt=          -1 IRanGd=           0 AccXCQ= 0.00D+00.
 Generated NRdTot=       0 NPtTot=           0 NUsed=           0 NTot=          32
 NSgBfM=    41    41    41    41    41 MxSgAt=     3 MxSgA2=     3.
 Leave Link  302 at Mon Feb 20 00:55:26 2023, MaxMem=  6710886400 cpu:               2.2 elap:               0.1
 (Enter /data0/home/software/g16/l303.exe)
 DipDrv:  MaxL=1.
 Leave Link  303 at Mon Feb 20 00:55:26 2023, MaxMem=  6710886400 cpu:               0.4 elap:               0.0
 (Enter /data0/home/software/g16/l401.exe)
 ExpMin= 8.45D-02 ExpMax= 8.59D+03 ExpMxC= 1.30D+03 IAcc=3 IRadAn=         5 AccDes= 0.00D+00
 Harris functional with IExCor= 1009 and IRadAn=       5 diagonalized for initial guess.
 HarFok:  IExCor= 1009 AccDes= 0.00D+00 IRadAn=         5 IDoV= 1 UseB2=F ITyADJ=14
 ICtDFT=  3500011 ScaDFX=  1.000000  1.000000  1.000000  1.000000
 FoFCou: FMM=F IPFlag=           0 FMFlag=      100000 FMFlg1=           0
         NFxFlg=           0 DoJE=T BraDBF=F KetDBF=T FulRan=T
         wScrn=  0.000000 ICntrl=       500 IOpCl=  0 I1Cent=   200000004 NGrid=           0
         NMat0=    1 NMatS0=      1 NMatT0=    0 NMatD0=    1 NMtDS0=    0 NMtDT0=    0
 Symmetry not used in FoFCou.
 Harris En= -76.4154606209870    
 JPrj=0 DoOrth=F DoCkMO=F.
 Leave Link  401 at Mon Feb 20 00:55:26 2023, MaxMem=  6710886400 cpu:               2.8 elap:               0.1
 (Enter /data0/home/software/g16/l502.exe)
 Keep R1 ints in memory in canonical form, NReq=21036630.
 FoFCou: FMM=F IPFlag=           0 FMFlag=           0 FMFlg1=           0
         NFxFlg=           0 DoJE=F BraDBF=F KetDBF=F FulRan=T
         wScrn=  0.000000 ICntrl=       600 IOpCl=  0 I1Cent=           0 NGrid=           0
         NMat0=    1 NMatS0=    780 NMatT0=    0 NMatD0=    1 NMtDS0=    0 NMtDT0=    0
 Symmetry not used in FoFCou.
 Two-electron integral symmetry not used.
 Closed shell SCF:
 Using DIIS extrapolation, IDIIS=  1040.
 NGot=  6710886400 LenX=  6710576844 LenY=  6710574722
 Requested convergence on RMS density matrix=1.00D-08 within 128 cycles.
 Requested convergence on MAX density matrix=1.00D-06.
 Requested convergence on             energy=1.00D-06.
 No special actions if energy rises.
 Integral accuracy reduced to 1.0D-05 until final iterations.

 Cycle   1  Pass 0  IDiag  1:
 E= -76.3457703098298    
 DIIS: error= 6.97D-02 at cycle   1 NSaved=   1.
 NSaved= 1 IEnMin= 1 EnMin= -76.3457703098298     IErMin= 1 ErrMin= 6.97D-02
 ErrMax= 6.97D-02  0.00D+00 EMaxC= 1.00D-01 BMatC= 1.20D-01 BMatP= 1.20D-01
 IDIUse=3 WtCom= 3.03D-01 WtEn= 6.97D-01
 Coeff-Com:  0.100D+01
 Coeff-En:   0.100D+01
 Coeff:      0.100D+01
 Gap=     0.323 Goal=   None    Shift=    0.000
 GapD=    0.323 DampG=1.000 DampE=0.500 DampFc=0.5000 IDamp=-1.
 Damping current iteration by 5.00D-01
 RMSDP=7.91D-03 MaxDP=1.00D-01              OVMax= 1.68D-01

 Cycle   2  Pass 0  IDiag  1:
 E= -76.3768734593599     Delta-E=       -0.031103149530 Rises=F Damp=T
 DIIS: error= 1.10D-02 at cycle   2 NSaved=   2.
 NSaved= 2 IEnMin= 2 EnMin= -76.3768734593599     IErMin= 2 ErrMin= 1.10D-02
 ErrMax= 1.10D-02  0.00D+00 EMaxC= 1.00D-01 BMatC= 4.92D-03 BMatP= 1.20D-01
 IDIUse=3 WtCom= 8.90D-01 WtEn= 1.10D-01
 Coeff-Com:  0.851D-01 0.915D+00
 Coeff-En:   0.192D+00 0.808D+00
 Coeff:      0.969D-01 0.903D+00
 Gap=     0.455 Goal=   None    Shift=    0.000
 RMSDP=9.55D-04 MaxDP=1.43D-02 DE=-3.11D-02 OVMax= 1.01D-01

 Cycle   3  Pass 0  IDiag  1:
 E= -76.4208039486284     Delta-E=       -0.043930489268 Rises=F Damp=F
 DIIS: error= 2.22D-03 at cycle   3 NSaved=   3.
 NSaved= 3 IEnMin= 3 EnMin= -76.4208039486284     IErMin= 3 ErrMin= 2.22D-03
 ErrMax= 2.22D-03  0.00D+00 EMaxC= 1.00D-01 BMatC= 9.56D-05 BMatP= 4.92D-03
 IDIUse=3 WtCom= 9.78D-01 WtEn= 2.22D-02
 Coeff-Com: -0.202D-01 0.414D-01 0.979D+00
 Coeff-En:   0.000D+00 0.000D+00 0.100D+01
 Coeff:     -0.198D-01 0.405D-01 0.979D+00
 Gap=     0.460 Goal=   None    Shift=    0.000
 RMSDP=1.17D-04 MaxDP=9.82D-04 DE=-4.39D-02 OVMax= 3.39D-03

 Cycle   4  Pass 0  IDiag  1:
 E= -76.4208852782822     Delta-E=       -0.000081329654 Rises=F Damp=F
 DIIS: error= 4.24D-04 at cycle   4 NSaved=   4.
[...]
 Coeff-Com: -0.196D-04 0.227D-02-0.389D-03-0.346D-01 0.857D-02 0.102D+01
 Coeff:     -0.196D-04 0.227D-02-0.389D-03-0.346D-01 0.857D-02 0.102D+01
 Gap=     0.462 Goal=   None    Shift=    0.000
 RMSDP=2.61D-09 MaxDP=3.23D-08 DE=-3.41D-13 OVMax= 5.62D-08

 SCF Done:  E(RM062X) =  -76.4218249633     A.U. after   11 cycles
            NFock= 11  Conv=0.26D-08     -V/T= 2.0030
 KE= 7.618987994458D+01 PE=-1.990242291550D+02 EE= 3.732465833167D+01
 Leave Link  502 at Mon Feb 20 00:55:27 2023, MaxMem=  6710886400 cpu:               8.7 elap:               0.4
 (Enter /data0/home/software/g16/l601.exe)
 Copying SCF densities to generalized density rwf, IOpCl= 0 IROHF=0.

 **********************************************************************

            Population analysis using the SCF density.

 **********************************************************************

 Alpha  occ. eigenvalues --  -19.62643  -1.13290  -0.60620  -0.47548  -0.39978
 Alpha virt. eigenvalues --    0.06234   0.13297   0.17408   0.17947   0.18919
 Alpha virt. eigenvalues --    0.23329   0.51086   0.53207   0.98025   1.00241
 Alpha virt. eigenvalues --    1.06026   1.18204   1.19951   1.32235   1.33986
 Alpha virt. eigenvalues --    1.69868   1.74160   1.75479   2.07751   2.09067
 Alpha virt. eigenvalues --    2.35820   2.40832   2.54519   2.88087   3.00886
 Alpha virt. eigenvalues --    5.05645   5.48068   5.91430   6.78361   6.80194
 Alpha virt. eigenvalues --    6.87244   6.91482   7.09646  49.95568
          Condensed to atoms (all electrons):
               4          5          6
     4  O    7.917686   0.320094   0.318226
     5  H    0.320094   0.426860  -0.024124
     6  H    0.318226  -0.024124   0.427062
 Mulliken charges:
               1
     1  O    0.000000
     2  H    0.000000
     3  H    0.000000
     4  O   -0.556006
     5  H    0.277170
     6  H    0.278835
     7  O    0.000000
     8  H    0.000000
     9  H    0.000000
 Sum of Mulliken charges =  -0.00000
 Mulliken charges with hydrogens summed into heavy atoms:
               1
     1  O    0.000000
     4  O   -0.000000
     7  O    0.000000
         Mulliken charges condensed to fragments:
      1      0.000000
      2     -0.000000
      3      0.000000
 Electronic spatial extent (au):  <R**2>=          10358.6137
 Charge=             -0.0000 electrons
 Dipole moment (field-independent basis, Debye):
    X=              0.3251    Y=             -0.2800    Z=             -2.0793  Tot=              2.1231
 Quadrupole moment (field-independent basis, Debye-Ang):
   XX=              1.9890   YY=            -12.2476   ZZ=            -52.7820
   XY=              0.0304   XZ=            -16.6710   YZ=            -19.7735
 Traceless Quadrupole moment (field-independent basis, Debye-Ang):
   XX=             23.0025   YY=              8.7659   ZZ=            -31.7685
   XY=              0.0304   XZ=            -16.6710   YZ=            -19.7735
 Octapole moment (field-independent basis, Debye-Ang**2):
  XXX=            -35.9753  YYY=           -242.8015  ZZZ=           -991.8693  XYY=            -97.1841
  XXY=             -8.1745  XXZ=           -177.2866  XZZ=           -475.9099  YZZ=           -458.2215
  YYZ=           -270.4194  XYZ=           -162.2314
 Hexadecapole moment (field-independent basis, Debye-Ang**3):
 XXXX=          -1338.7993 YYYY=          -3647.8887 ZZZZ=         -16402.5597 XXXY=           -518.9839
 XXXZ=          -2375.2309 YYYX=          -2197.7930 YYYZ=          -3787.6542 ZZZX=          -9268.6968
 ZZZY=          -8355.6572 XXYY=          -1021.3593 XXZZ=          -4836.1329 YYZZ=          -4933.2942
 XXYZ=          -1689.3225 YYXZ=          -2390.9106 ZZXY=          -4139.0798
 N-N= 9.087865915454D+00 E-N=-1.990242290032D+02  KE= 7.618987994458D+01
 No NMR shielding tensors so no spin-rotation constants.
 Leave Link  601 at Mon Feb 20 00:55:28 2023, MaxMem=  6710886400 cpu:               1.8 elap:               0.1
 (Enter /data0/home/software/g16/l122.exe)
 CPIOFr:  IOpCl= 0 IRwI=-1 IRwCP=  731 ICalc=  5 LCPTot=       22668 Len1MO=       57607 IndFrg=      368310
 Counterpoise: doing calculation for fragment   3 using the basis set of the fragment.
 Leave Link  122 at Mon Feb 20 00:55:28 2023, MaxMem=  6710886400 cpu:               0.1 elap:               0.0
 (Enter /data0/home/software/g16/l301.exe)
 Basis read from rwf:  (5D, 7F)
 No pseudopotential information found on rwf file.
    39 basis functions,    58 primitive gaussians,    41 cartesian basis functions
     5 alpha electrons        5 beta electrons
       nuclear repulsion energy         9.0693919810 Hartrees.
 IExCor= 4336 DFT=T Ex+Corr=M062X ExCW=0 ScaHFX=  0.540000
 ScaDFX=  1.000000  1.000000  1.000000  1.000000 ScalE2=  1.000000  1.000000
 IRadAn=      5 IRanWt=     -1 IRanGd=            0 ICorTp=0 IEmpDi=131
 NAtoms=    9 NActive=    3 NUniq=    3 SFac= 1.00D+00 NAtFMM=   60 NAOKFM=F Big=F
 Integral buffers will be    131072 words long.
 Raffenetti 2 integral format.
 Two-electron integral symmetry is turned off.
 R6Disp:  Grimme-D3 Dispersion energy=       -0.0000000074 Hartrees.
 Nuclear repulsion after empirical dispersion term =        9.0693919736 Hartrees.
 No density basis found on file   718.
 Leave Link  301 at Mon Feb 20 00:55:28 2023, MaxMem=  6710886400 cpu:               1.2 elap:               0.1
 (Enter /data0/home/software/g16/l302.exe)
 NPDir=0 NMtPBC=     1 NCelOv=     1 NCel=       1 NClECP=     1 NCelD=      1
         NCelK=      1 NCelE2=     1 NClLst=     1 CellRange=     0.0.
 One-electron integrals computed using PRISM.
 NBasis=    39 RedAO= T EigKep=  3.03D-03  NBF=    39
 NBsUse=    39 1.00D-06 EigRej= -1.00D+00 NBFU=    39
 Precomputing XC quadrature grid using
 IXCGrd= 4 IRadAn=           5 IRanWt=          -1 IRanGd=           0 AccXCQ= 0.00D+00.
 Generated NRdTot=       0 NPtTot=           0 NUsed=           0 NTot=          32
 NSgBfM=    41    41    41    41    41 MxSgAt=     3 MxSgA2=     3.
 Leave Link  302 at Mon Feb 20 00:55:28 2023, MaxMem=  6710886400 cpu:               2.2 elap:               0.1
 (Enter /data0/home/software/g16/l303.exe)
 DipDrv:  MaxL=1.
 Leave Link  303 at Mon Feb 20 00:55:28 2023, MaxMem=  6710886400 cpu:               0.4 elap:               0.0
 (Enter /data0/home/software/g16/l401.exe)
 ExpMin= 8.45D-02 ExpMax= 8.59D+03 ExpMxC= 1.30D+03 IAcc=3 IRadAn=         5 AccDes= 0.00D+00
 Harris functional with IExCor= 1009 and IRadAn=       5 diagonalized for initial guess.
 HarFok:  IExCor= 1009 AccDes= 0.00D+00 IRadAn=         5 IDoV= 1 UseB2=F ITyADJ=14
 ICtDFT=  3500011 ScaDFX=  1.000000  1.000000  1.000000  1.000000
 FoFCou: FMM=F IPFlag=           0 FMFlag=      100000 FMFlg1=           0
         NFxFlg=           0 DoJE=T BraDBF=F KetDBF=T FulRan=T
         wScrn=  0.000000 ICntrl=       500 IOpCl=  0 I1Cent=   200000004 NGrid=           0
         NMat0=    1 NMatS0=      1 NMatT0=    0 NMatD0=    1 NMtDS0=    0 NMtDT0=    0
 Symmetry not used in FoFCou.
 Harris En= -76.4159228934459    
 JPrj=0 DoOrth=F DoCkMO=F.
 Leave Link  401 at Mon Feb 20 00:55:28 2023, MaxMem=  6710886400 cpu:               2.8 elap:               0.1
 (Enter /data0/home/software/g16/l502.exe)
 Keep R1 ints in memory in canonical form, NReq=21036630.
 FoFCou: FMM=F IPFlag=           0 FMFlag=           0 FMFlg1=           0
         NFxFlg=           0 DoJE=F BraDBF=F KetDBF=F FulRan=T
         wScrn=  0.000000 ICntrl=       600 IOpCl=  0 I1Cent=           0 NGrid=           0
         NMat0=    1 NMatS0=    780 NMatT0=    0 NMatD0=    1 NMtDS0=    0 NMtDT0=    0
 Symmetry not used in FoFCou.
 Two-electron integral symmetry not used.
 Closed shell SCF:
 Using DIIS extrapolation, IDIIS=  1040.
 NGot=  6710886400 LenX=  6710576844 LenY=  6710574722
 Requested convergence on RMS density matrix=1.00D-08 within 128 cycles.
 Requested convergence on MAX density matrix=1.00D-06.
 Requested convergence on             energy=1.00D-06.
 No special actions if energy rises.
 Integral accuracy reduced to 1.0D-05 until final iterations.

 Cycle   1  Pass 0  IDiag  1:
 E= -76.3466284381312    
 DIIS: error= 6.96D-02 at cycle   1 NSaved=   1.
 NSaved= 1 IEnMin= 1 EnMin= -76.3466284381312     IErMin= 1 ErrMin= 6.96D-02
 ErrMax= 6.96D-02  0.00D+00 EMaxC= 1.00D-01 BMatC= 1.20D-01 BMatP= 1.20D-01
 IDIUse=3 WtCom= 3.04D-01 WtEn= 6.96D-01
 Coeff-Com:  0.100D+01
 Coeff-En:   0.100D+01
 Coeff:      0.100D+01
 Gap=     0.324 Goal=   None    Shift=    0.000
 GapD=    0.324 DampG=1.000 DampE=0.500 DampFc=0.5000 IDamp=-1.
 Damping current iteration by 5.00D-01
 RMSDP=7.97D-03 MaxDP=1.00D-01              OVMax= 1.67D-01

 Cycle   2  Pass 0  IDiag  1:
 E= -76.3777059360491     Delta-E=       -0.031077497918 Rises=F Damp=T
 DIIS: error= 1.12D-02 at cycle   2 NSaved=   2.
 NSaved= 2 IEnMin= 2 EnMin= -76.3777059360491     IErMin= 2 ErrMin= 1.12D-02
 ErrMax= 1.12D-02  0.00D+00 EMaxC= 1.00D-01 BMatC= 4.88D-03 BMatP= 1.20D-01
 IDIUse=3 WtCom= 8.88D-01 WtEn= 1.12D-01
 Coeff-Com:  0.844D-01 0.916D+00
 Coeff-En:   0.191D+00 0.809D+00
 Coeff:      0.963D-01 0.904D+00
 Gap=     0.456 Goal=   None    Shift=    0.000
 RMSDP=9.55D-04 MaxDP=1.42D-02 DE=-3.11D-02 OVMax= 1.00D-01

 Cycle   3  Pass 0  IDiag  1:
 E= -76.4214417913359     Delta-E=       -0.043735855287 Rises=F Damp=F
 DIIS: error= 2.17D-03 at cycle   3 NSaved=   3.
 NSaved= 3 IEnMin= 3 EnMin= -76.4214417913359     IErMin= 3 ErrMin= 2.17D-03
 ErrMax= 2.17D-03  0.00D+00 EMaxC= 1.00D-01 BMatC= 9.16D-05 BMatP= 4.88D-03
 IDIUse=3 WtCom= 9.78D-01 WtEn= 2.17D-02
 Coeff-Com: -0.200D-01 0.397D-01 0.980D+00
 Coeff-En:   0.000D+00 0.000D+00 0.100D+01
 Coeff:     -0.196D-01 0.389D-01 0.981D+00
 Gap=     0.461 Goal=   None    Shift=    0.000
 RMSDP=1.15D-04 MaxDP=1.03D-03 DE=-4.37D-02 OVMax= 3.34D-03

 Cycle   4  Pass 0  IDiag  1:
 E= -76.4215200402301     Delta-E=       -0.000078248894 Rises=F Damp=F
 DIIS: error= 4.18D-04 at cycle   4 NSaved=   4.
 NSaved= 4 IEnMin= 4 EnMin= -76.4215200402301     IErMin= 4 ErrMin= 4.18D-04
 ErrMax= 4.18D-04  0.00D+00 EMaxC= 1.00D-01 BMatC= 3.32D-06 BMatP= 9.16D-05
 IDIUse=3 WtCom= 9.96D-01 WtEn= 4.18D-03
 Coeff-Com: -0.193D-02-0.225D-02 0.163D+00 0.842D+00
 Coeff-En:   0.000D+00 0.000D+00 0.000D+00 0.100D+01
 Coeff:     -0.192D-02-0.224D-02 0.162D+00 0.842D+00
 Gap=     0.461 Goal=   None    Shift=    0.000
 RMSDP=2.23D-05 MaxDP=3.56D-04 DE=-7.82D-05 OVMax= 5.43D-04

 Cycle   5  Pass 0  IDiag  1:
 E= -76.4215221018858     Delta-E=       -0.000002061656 Rises=F Damp=F
 DIIS: error= 9.00D-05 at cycle   5 NSaved=   5.
 NSaved= 5 IEnMin= 5 EnMin= -76.4215221018858     IErMin= 5 ErrMin= 9.00D-05
 ErrMax= 9.00D-05  0.00D+00 EMaxC= 1.00D-01 BMatC= 8.40D-08 BMatP= 3.32D-06
 IDIUse=1 WtCom= 1.00D+00 WtEn= 0.00D+00
 Coeff-Com:  0.119D-02-0.182D-02-0.371D-01-0.653D-01 0.110D+01
 Coeff:      0.119D-02-0.182D-02-0.371D-01-0.653D-01 0.110D+01
 Gap=     0.461 Goal=   None    Shift=    0.000
 RMSDP=9.09D-06 MaxDP=1.02D-04 DE=-2.06D-06 OVMax= 2.06D-04

 Initial convergence to 1.0D-05 achieved.  Increase integral accuracy.
 Cycle   6  Pass 1  IDiag  1:
 E= -76.4215167370217     Delta-E=        0.000005364864 Rises=F Damp=F
 DIIS: error= 1.12D-05 at cycle   1 NSaved=   1.
 NSaved= 1 IEnMin= 1 EnMin= -76.4215167370217     IErMin= 1 ErrMin= 1.12D-05
 ErrMax= 1.12D-05  0.00D+00 EMaxC= 1.00D-01 BMatC= 1.18D-08 BMatP= 1.18D-08
 IDIUse=1 WtCom= 1.00D+00 WtEn= 0.00D+00
 Coeff-Com:  0.100D+01
 Coeff:      0.100D+01
 Gap=     0.461 Goal=   None    Shift=    0.000
 RMSDP=9.09D-06 MaxDP=1.02D-04 DE= 5.36D-06 OVMax= 4.77D-05

 Cycle   7  Pass 1  IDiag  1:
 E= -76.4215167462972     Delta-E=       -0.000000009275 Rises=F Damp=F
 DIIS: error= 9.73D-06 at cycle   2 NSaved=   2.
 NSaved= 2 IEnMin= 2 EnMin= -76.4215167462972     IErMin= 2 ErrMin= 9.73D-06
 ErrMax= 9.73D-06  0.00D+00 EMaxC= 1.00D-01 BMatC= 1.45D-09 BMatP= 1.18D-08
 IDIUse=1 WtCom= 1.00D+00 WtEn= 0.00D+00
 Coeff-Com:  0.102D+00 0.898D+00
 Coeff:      0.102D+00 0.898D+00
 Gap=     0.461 Goal=   None    Shift=    0.000
 RMSDP=7.92D-07 MaxDP=1.33D-05 DE=-9.28D-09 OVMax= 2.07D-05

 Cycle   8  Pass 1  IDiag  1:
 E= -76.4215167466798     Delta-E=       -0.000000000383 Rises=F Damp=F
 DIIS: error= 6.74D-06 at cycle   3 NSaved=   3.
 NSaved= 3 IEnMin= 3 EnMin= -76.4215167466798     IErMin= 3 ErrMin= 6.74D-06
 ErrMax= 6.74D-06  0.00D+00 EMaxC= 1.00D-01 BMatC= 1.20D-09 BMatP= 1.45D-09
 IDIUse=1 WtCom= 1.00D+00 WtEn= 0.00D+00
 Coeff-Com: -0.528D-01 0.489D+00 0.563D+00
 Coeff:     -0.528D-01 0.489D+00 0.563D+00
 Gap=     0.461 Goal=   None    Shift=    0.000
 RMSDP=3.97D-07 MaxDP=5.25D-06 DE=-3.83D-10 OVMax= 9.93D-06

 Cycle   9  Pass 1  IDiag  1:
 E= -76.4215167474827     Delta-E=       -0.000000000803 Rises=F Damp=F
 DIIS: error= 5.66D-07 at cycle   4 NSaved=   4.
 NSaved= 4 IEnMin= 4 EnMin= -76.4215167474827     IErMin= 4 ErrMin= 5.66D-07
 ErrMax= 5.66D-07  0.00D+00 EMaxC= 1.00D-01 BMatC= 4.10D-12 BMatP= 1.20D-09
 IDIUse=1 WtCom= 1.00D+00 WtEn= 0.00D+00
 Coeff-Com: -0.140D-02-0.377D-01-0.164D-01 0.106D+01
 Coeff:     -0.140D-02-0.377D-01-0.164D-01 0.106D+01
 Gap=     0.461 Goal=   None    Shift=    0.000
 RMSDP=7.92D-08 MaxDP=6.59D-07 DE=-8.03D-10 OVMax= 1.76D-06

 Cycle  10  Pass 1  IDiag  1:
 E= -76.4215167474912     Delta-E=       -0.000000000009 Rises=F Damp=F
 DIIS: error= 9.77D-08 at cycle   5 NSaved=   5.
 NSaved= 5 IEnMin= 5 EnMin= -76.4215167474912     IErMin= 5 ErrMin= 9.77D-08
 ErrMax= 9.77D-08  0.00D+00 EMaxC= 1.00D-01 BMatC= 2.85D-13 BMatP= 4.10D-12
 IDIUse=1 WtCom= 1.00D+00 WtEn= 0.00D+00
 Coeff-Com:  0.335D-02-0.393D-01-0.393D-01 0.107D+00 0.968D+00
 Coeff:      0.335D-02-0.393D-01-0.393D-01 0.107D+00 0.968D+00
 Gap=     0.461 Goal=   None    Shift=    0.000
 RMSDP=2.26D-08 MaxDP=1.80D-07 DE=-8.55D-12 OVMax= 5.18D-07

 Cycle  11  Pass 1  IDiag  1:
 E= -76.4215167474914     Delta-E=       -0.000000000000 Rises=F Damp=F
 DIIS: error= 1.25D-08 at cycle   6 NSaved=   6.
 NSaved= 6 IEnMin= 6 EnMin= -76.4215167474914     IErMin= 6 ErrMin= 1.25D-08
 ErrMax= 1.25D-08  0.00D+00 EMaxC= 1.00D-01 BMatC= 3.67D-15 BMatP= 2.85D-13
 IDIUse=1 WtCom= 1.00D+00 WtEn= 0.00D+00
 Coeff-Com:  0.774D-04 0.389D-03 0.701D-03-0.221D-01-0.155D-01 0.104D+01
 Coeff:      0.774D-04 0.389D-03 0.701D-03-0.221D-01-0.155D-01 0.104D+01
 Gap=     0.461 Goal=   None    Shift=    0.000
 RMSDP=3.08D-09 MaxDP=3.10D-08 DE=-2.13D-13 OVMax= 5.67D-08

 SCF Done:  E(RM062X) =  -76.4215167475     A.U. after   11 cycles
            NFock= 11  Conv=0.31D-08     -V/T= 2.0031
 KE= 7.618402813390D+01 PE=-1.989827298194D+02 EE= 3.730779296440D+01
 Leave Link  502 at Mon Feb 20 00:55:28 2023, MaxMem=  6710886400 cpu:               8.5 elap:               0.4
 (Enter /data0/home/software/g16/l601.exe)
 Copying SCF densities to generalized density rwf, IOpCl= 0 IROHF=0.

 **********************************************************************

            Population analysis using the SCF density.

 **********************************************************************

 Alpha  occ. eigenvalues --  -19.62721  -1.13268  -0.60328  -0.47716  -0.39985
 Alpha virt. eigenvalues --    0.06159   0.13267   0.17431   0.17944   0.18897
 Alpha virt. eigenvalues --    0.23436   0.50589   0.53369   0.98167   1.00329
 Alpha virt. eigenvalues --    1.05997   1.17393   1.20123   1.31843   1.34132
 Alpha virt. eigenvalues --    1.70427   1.74146   1.75173   2.06968   2.09640
 Alpha virt. eigenvalues --    2.36294   2.39136   2.54867   2.87304   3.01011
 Alpha virt. eigenvalues --    5.05601   5.48517   5.89768   6.78519   6.80026
 Alpha virt. eigenvalues --    6.87361   6.91630   7.09664  49.95289
          Condensed to atoms (all electrons):
               7          8          9
     7  O    7.920430   0.318150   0.314642
     8  H    0.318150   0.430351  -0.023563
     9  H    0.314642  -0.023563   0.430761
 Mulliken charges:
               1
     1  O    0.000000
     2  H    0.000000
     3  H    0.000000
     4  O    0.000000
     5  H    0.000000
     6  H    0.000000
     7  O   -0.553222
     8  H    0.275062
     9  H    0.278160
 Sum of Mulliken charges =  -0.00000
 Mulliken charges with hydrogens summed into heavy atoms:
               1
     1  O    0.000000
     4  O    0.000000
     7  O   -0.000000
         Mulliken charges condensed to fragments:
      1      0.000000
      2      0.000000
      3     -0.000000
 Electronic spatial extent (au):  <R**2>=          14021.2831
 Charge=             -0.0000 electrons
 Dipole moment (field-independent basis, Debye):
    X=              0.5016    Y=             -1.3308    Z=             -1.6008  Tot=              2.1413
 Quadrupole moment (field-independent basis, Debye-Ang):
   XX=              7.3733   YY=            -41.5840   ZZ=            -35.1586
   XY=             -9.7429   XZ=            -14.0384   YZ=            -31.8866
 Traceless Quadrupole moment (field-independent basis, Debye-Ang):
   XX=             30.4964   YY=            -18.4609   ZZ=            -12.0355
   XY=             -9.7429   XZ=            -14.0384   YZ=            -31.8866
 Octapole moment (field-independent basis, Debye-Ang**2):
  XXX=             49.2958  YYY=           -946.1384  ZZZ=           -559.8268  XYY=           -421.9116
  XXY=           -103.2942  XXZ=           -148.7872  XZZ=           -370.0501  YZZ=           -548.6473
  YYZ=           -621.2420  XYZ=           -318.2267
 Hexadecapole moment (field-independent basis, Debye-Ang**3):
 XXXX=           -543.8395 YYYY=         -18735.7085 ZZZZ=          -7742.0848 XXXY=          -1802.6600
 XXXZ=          -2053.2131 YYYX=         -10401.9192 YYYZ=         -11570.8534 ZZZX=          -6208.6169
 ZZZY=          -8029.2754 XXYY=          -4940.3395 XXZZ=          -4205.6943 YYZZ=          -8889.0129
 XXYZ=          -3600.6798 YYXZ=          -6654.4605 ZZXY=          -5936.4152
 N-N= 9.069391973585D+00 E-N=-1.989827299992D+02  KE= 7.618402813390D+01
 No NMR shielding tensors so no spin-rotation constants.
 Leave Link  601 at Mon Feb 20 00:55:28 2023, MaxMem=  6710886400 cpu:               1.8 elap:               0.1
 (Enter /data0/home/software/g16/l122.exe)
 CPIOFr:  IOpCl= 0 IRwI=-1 IRwCP=  731 ICalc=  6 LCPTot=       22668 Len1MO=       57607 IndFrg=      425917
 Restoring MOs from calculation   1 to rwf.
 CPIOFr:  IOpCl= 0 IRwI=-2 IRwCP=  731 ICalc=  0 LCPTot=       22668 Len1MO=       57607 IndFrg=       80275
 Counterpoise corrected energy =    -229.268740792642
                   BSSE energy =       0.001260921379
              sum of fragments =    -229.264224311186
           complexation energy =      -3.63 kcal/mole (raw)
           complexation energy =      -2.83 kcal/mole (corrected)
 Leave Link  122 at Mon Feb 20 00:55:28 2023, MaxMem=  6710886400 cpu:               0.1 elap:               0.0
 (Enter /data0/home/software/g16/l9999.exe)
 1\1\GINC-LOCALHOST\SP\RM062X\6-311+G(2d,p)\H6O3\WUHANYU\20-Feb-2023\0\
 \#p M062X/6-311+G(2d,p) nosymm em=GD3 counterpoise=3\\Title Card Requi
 red\\0,1\O,0,8.160797,8.124526,9.112979\H,0,8.659827,8.620721,8.410191
 \H,0,7.979763,7.277555,8.718823\O,0,9.889878,8.121935,11.284442\H,0,10
 .731491,8.08876,10.817381\H,0,9.227438,7.99733,10.581012\O,0,12.001186
 ,12.993747,9.003599\H,0,12.858712,12.616645,8.791935\H,0,11.420435,12.
 617903,8.307164\\Version=ES64L-G16RevA.03\HF=-76.4215167\RMSD=3.076e-0
 9\Dipole=0.3505349,-0.8748198,-2.401948\Quadrupole=52.6867623,-0.10517
 85,-52.5815838,-9.6131204,-38.3793194,-57.1586614\PG=C01 [X(H6O3)]\\@


 IT IS WELL TO REMEMBER THAT MAN IS A PART OF NATURE AND THAT HIS WORKS,
 WHATEVER THEY MAY BE, ARE NO MORE "UNNATURAL" THAN 
 THE FLIGHT OF AN EAGLE OR THE PASSAGE OF A TORNADO.

                                    -- CHARLES MCCARRY IN "THE GREAT SOUTHWEST"
 Job cpu time:       0 days  0 hours  3 minutes 45.3 seconds.
 Elapsed time:       0 days  0 hours  0 minutes 11.5 seconds.
 File lengths (MBytes):  RWF=     15 Int=      0 D2E=      0 Chk=      5 Scr=      1
 Normal termination of Gaussian 16 at Mon Feb 20 00:55:28 2023.
