 Entering Gaussian System, Link 0=g16
 Initial command:
 /data0/home/software/g16/l1.exe "/data0/home/software/g16/scratch/Gau-382535.inp" -scrdir="/data0/home/software/g16/scratch/"
 Default is to use a total of  22 processors:
                               22 via shared-memory
                                1 via Linda
 Entering Link 1 = /data0/home/software/g16/l1.exe PID=    382536.
  
 Copyright (c) 1988,1990,1992,1993,1995,1998,2003,2009,2016,
            Gaussian, Inc.  All Rights Reserved.
  
 This is part of the Gaussian(R) 16 program.  It is based on
 the Gaussian(R) 09 system (copyright 2009, Gaussian, Inc.),
 the Gaussian(R) 03 system (copyright 2003, Gaussian, Inc.),
 the Gaussian(R) 98 system (copyright 1998, Gaussian, Inc.),
 the Gaussian(R) 94 system (copyright 1995, Gaussian, Inc.),
 the Gaussian 92(TM) system (copyright 1992, Gaussian, Inc.),
 the Gaussian 90(TM) system (copyright 1990, Gaussian, Inc.),
 the Gaussian 88(TM) system (copyright 1988, Gaussian, Inc.),
 the Gaussian 86(TM) system (copyright 1986, Carnegie Mellon
 University), and the Gaussian 82(TM) system (copyright 1983,
 Carnegie Mellon University). Gaussian is a federally registered
 trademark of Gaussian, Inc.
  
 This software contains proprietary and confidential information,
 including trade secrets, belonging to Gaussian, Inc.
  
 This software is provided under written license and may be
 used, copied, transmitted, or stored only in accord with that
 written license.
  
 The following legend is applicable only to US Government
 contracts under FAR:
  
                    RESTRICTED RIGHTS LEGEND
  
 Use, reproduction and disclosure by the US Government is
 subject to restrictions as set forth in subparagraphs (a)
 and (c) of the Commercial Computer Software - Restricted
 Rights clause in FAR 52.227-19.
  
 Gaussian, Inc.
 340 Quinnipiac St., Bldg. 40, Wallingford CT 06492
  
  
 ---------------------------------------------------------------
 Warning -- This program may not be used in any manner that
 competes with the business of Gaussian, Inc. or will provide
 assistance to any competitor of Gaussian, Inc.  The licensee
 of this program is prohibited from giving any competitor of
 Gaussian, Inc. access to this program.  By using this program,
 the user acknowledges that Gaussian, Inc. is engaged in the
 business of creating and licensing software in the field of
 computational chemistry and represents and warrants to the
 licensee that it is not a competitor of Gaussian, Inc. and that
 it will not use this program in any manner prohibited above.
 ---------------------------------------------------------------
  

 Cite this work as:
 Gaussian 16, Revision A.03,
 M. J. Frisch, G. W. Trucks, H. B. Schlegel, G. E. Scuseria, 
 M. A. Robb, J. R. Cheeseman, G. Scalmani, V. Barone, 
 G. A. Petersson, H. Nakatsuji, X. Li, M. Caricato, A. V. Marenich, 
 J. Bloino, B. G. Janesko, R. Gomperts, B. Mennucci, H. P. Hratchian, 
 J. V. Ortiz, A. F. Izmaylov, J. L. Sonnenberg, D. Williams-Young, 
 F. Ding, F. Lipparini, F. Egidi, J. Goings, B. Peng, A. Petrone, 
 T. Henderson, D. Ranasinghe, V. G. Zakrzewski, J. Gao, N. Rega, 
 G. Zheng, W. Liang, M. Hada, M. Ehara, K. Toyota, R. Fukuda, 
 J. Hasegawa, M. Ishida, T. Nakajima, Y. Honda, O. Kitao, H. Nakai, 
 T. Vreven, K. Throssell, J. A. Montgomery, Jr., J. E. Peralta, 
 F. Ogliaro, M. J. Bearpark, J. J. Heyd, E. N. Brothers, K. N. Kudin, 
 V. N. Staroverov, T. A. Keith, R. Kobayashi, J. Normand, 
 K. Raghavachari, A. P. Rendell, J. C. Burant, S. S. Iyengar, 
 J. Tomasi, M. Cossi, J. M. Millam, M. Klene, C. Adamo, R. Cammi, 
 J. W. Ochterski, R. L. Martin, K. Morokuma, O. Farkas, 
 J. B. Foresman, and D. J. Fox, Gaussian, Inc., Wallingford CT, 2016.
 
 ******************************************
 Gaussian 16:  ES64L-G16RevA.03 25-Dec-2016
                20-Feb-2023 
 ******************************************
 %nproc=24
 Will use up to   24 processors via shared memory.
 %mem=50GB
 ---------------------------------------------------
 #p M062X/6-311+G(2d,p) nosymm em=GD3 counterpoise=4
 ---------------------------------------------------
 1/38=1,62=4,172=1/1;
 2/12=2,15=1,17=6,18=5,40=1/2;
 1/38=1,53=2,62=4,63=1/22;
 3/5=4,6=6,7=112,11=2,25=1,30=1,74=-55,124=31/1,2,3;
 4//1;
 5/5=2,38=5/2;
 6/7=2,8=2,9=2,10=2,28=1/1;
 1/53=2,62=4,63=1/22;
 3/5=7,6=11,7=112,11=2,25=1,30=1,74=-55,82=7,124=31/1,2,3;
 4//1;
 5/5=2,38=5/2;
 6/7=2,8=2,9=2,10=2,28=1/1;
 1/53=2,62=4,63=1/22(-4);
 99/5=1,9=1/99;
 Leave Link    1 at Mon Feb 20 08:51:08 2023, MaxMem=  6710886400 cpu:               0.7 elap:               0.0
 (Enter /data0/home/software/g16/l101.exe)
 -------------------
 Title Card Required
 -------------------
 Symbolic Z-matrix:
 Charge =  0 Multiplicity = 1 in supermolecule
 Charge =  0 Multiplicity = 1 in fragment      1.
 Charge =  0 Multiplicity = 1 in fragment      2.
 Charge =  0 Multiplicity = 1 in fragment      3.
 Charge =  0 Multiplicity = 1 in fragment      4.
 P                     10.33866   9.34093   7.10171    
 O                     8.87453   9.4521    7.21265    
 O                     10.9906   8.01993   7.6607     
 H                     11.0254   8.07779   8.73811    
 O                     10.74381   9.3524    5.56066    
 H                     11.77432   9.28495   5.51653    
 O                     11.12162   10.58439   7.69637    
 H                     11.21979   10.4682   8.75482    
 O                     8.4709    6.87605   10.7188    
 H                     9.36843   7.1994    10.56459    
 H                     8.02308   6.96991   9.87181    
 O                     11.31549   12.54495   11.88877    
 H                     12.13007   13.01232   11.75816    
 H                     11.39506   11.72024   11.33771    
 O                     7.17374   7.35374   8.21546    
 H                     7.34132   6.5812    7.67653    
 H                     7.75957   8.03484   7.84225    
 
 ITRead=  0  0  0  0  0  0  0  0  0  0  0  0  0  0  0  0  0
 MicOpt= -1 -1 -1 -1 -1 -1 -1 -1 -1 -1 -1 -1 -1 -1 -1 -1 -1
 NAtoms=     17 NQM=       17 NQMF=       0 NMMI=      0 NMMIF=      0
                NMic=       0 NMicF=      0.
                    Isotopes and Nuclear Properties:
 (Nuclear quadrupole moments (NQMom) in fm**2, nuclear magnetic moments (NMagM)
  in nuclear magnetons)

  Atom         1           2           3           4           5           6           7           8           9          10
 IAtWgt=          31          16          16           1          16           1          16           1          16           1
 AtmWgt=  30.9737634  15.9949146  15.9949146   1.0078250  15.9949146   1.0078250  15.9949146   1.0078250  15.9949146   1.0078250
 NucSpn=           1           0           0           1           0           1           0           1           0           1
 AtZEff=  -0.0000000  -0.0000000  -0.0000000  -0.0000000  -0.0000000  -0.0000000  -0.0000000  -0.0000000  -0.0000000  -0.0000000
 NQMom=    0.0000000   0.0000000   0.0000000   0.0000000   0.0000000   0.0000000   0.0000000   0.0000000   0.0000000   0.0000000
 NMagM=    1.1316000   0.0000000   0.0000000   2.7928460   0.0000000   2.7928460   0.0000000   2.7928460   0.0000000   2.7928460
 AtZNuc=  15.0000000   8.0000000   8.0000000   1.0000000   8.0000000   1.0000000   8.0000000   1.0000000   8.0000000   1.0000000

  Atom        11          12          13          14          15          16          17
 IAtWgt=           1          16           1           1          16           1           1
 AtmWgt=   1.0078250  15.9949146   1.0078250   1.0078250  15.9949146   1.0078250   1.0078250
 NucSpn=           1           0           1           1           0           1           1
 AtZEff=  -0.0000000  -0.0000000  -0.0000000  -0.0000000  -0.0000000  -0.0000000  -0.0000000
 NQMom=    0.0000000   0.0000000   0.0000000   0.0000000   0.0000000   0.0000000   0.0000000
 NMagM=    2.7928460   0.0000000   2.7928460   2.7928460   0.0000000   2.7928460   2.7928460
 AtZNuc=   1.0000000   8.0000000   1.0000000   1.0000000   8.0000000   1.0000000   1.0000000
 Leave Link  101 at Mon Feb 20 08:51:08 2023, MaxMem=  6710886400 cpu:               2.0 elap:               0.1
 (Enter /data0/home/software/g16/l202.exe)
                          Input orientation:                          
 ---------------------------------------------------------------------
 Center     Atomic      Atomic             Coordinates (Angstroms)
 Number     Number       Type             X           Y           Z
 ---------------------------------------------------------------------
      1         15           0       10.338659    9.340932    7.101706
      2          8           0        8.874535    9.452103    7.212651
      3          8           0       10.990602    8.019934    7.660698
      4          1           0       11.025402    8.077787    8.738108
      5          8           0       10.743814    9.352399    5.560659
      6          1           0       11.774316    9.284946    5.516526
      7          8           0       11.121618   10.584385    7.696369
      8          1           0       11.219787   10.468202    8.754817
      9          8           0        8.470898    6.876046   10.718795
     10          1           0        9.368435    7.199403   10.564588
     11          1           0        8.023076    6.969913    9.871807
     12          8           0       11.315486   12.544952   11.888769
     13          1           0       12.130073   13.012322   11.758161
     14          1           0       11.395056   11.720235   11.337715
     15          8           0        7.173737    7.353745    8.215462
     16          1           0        7.341317    6.581196    7.676528
     17          1           0        7.759569    8.034842    7.842249
 ---------------------------------------------------------------------
                    Distance matrix (angstroms):
                    1          2          3          4          5
     1  P    0.000000
     2  O    1.472524   0.000000
     3  O    1.575607   2.594146   0.000000
     4  H    2.178294   2.973549   1.079523   0.000000
     5  O    1.593458   2.496642   2.499306   3.435129   0.000000
     6  H    2.139402   3.363556   2.609969   3.520894   1.033650
     7  O    1.585189   2.562309   2.568043   2.716157   2.494350
     8  H    2.186298   2.985120   2.691401   2.398364   3.416755
     9  O    4.758942   4.369444   4.124239   3.448593   6.156691
    10  H    4.185574   4.068670   3.425971   2.617848   5.618395
    11  H    4.319388   3.735955   3.846785   3.395088   5.627135
    12  O    5.842594   6.114739   6.201445   5.474155   7.110849
    13  H    6.194420   6.628374   6.558318   5.889877   7.329787
    14  H    4.972005   5.339813   5.232233   4.490215   6.277351
    15  O    3.899499   2.881224   3.914081   3.953823   4.877299
    16  H    4.114684   3.287559   3.922690   4.115728   4.871699
    17  H    2.984289   1.910019   3.236164   3.386750   3.980870
                    6          7          8          9         10
     6  H    0.000000
     7  O    2.620357   0.000000
     8  H    3.492009   1.069321   0.000000
     9  O    6.616568   5.469292   4.931246   0.000000
    10  H    5.968307   4.770580   4.169871   0.966391   0.000000
    11  H    6.196745   5.234300   4.868743   0.962676   1.530556
    12  O    7.172423   4.632238   3.760812   6.449575   5.841178
    13  H    7.278592   4.838390   4.039956   7.219676   6.545326
    14  H    6.321449   3.824176   2.875703   5.692094   5.014264
    15  O    5.672664   5.127598   5.134322   2.859633   3.218527
    16  H    5.623820   5.506050   5.595896   3.258570   3.582217
    17  H    4.805199   4.221946   4.327485   3.181716   3.270709
                   11         12         13         14         15
    11  H    0.000000
    12  O    6.781531   0.000000
    13  H    7.545625   0.948180   0.000000
    14  H    6.007054   0.995063   1.544835   0.000000
    15  O    1.900574   7.589196   8.314775   6.828926   0.000000
    16  H    2.331340   8.312844   8.997294   7.499787   0.956747
    17  H    2.307079   7.025665   7.694867   6.246373   0.972821
                   16         17
    16  H    0.000000
    17  H    1.521672   0.000000
 Symmetry turned off by external request.
 Stoichiometry    H9O7P
 Framework group  C1[X(H9O7P)]
 Deg. of freedom    45
 Full point group                 C1      NOp   1
 Rotational constants (GHZ):           0.8572456           0.6880482           0.4394245
 Leave Link  202 at Mon Feb 20 08:51:08 2023, MaxMem=  6710886400 cpu:               0.1 elap:               0.0
 (Enter /data0/home/software/g16/l122.exe)
 Counterpoise: doing full-system calculation.
 Leave Link  122 at Mon Feb 20 08:51:08 2023, MaxMem=  6710886400 cpu:               0.0 elap:               0.0
 (Enter /data0/home/software/g16/l301.exe)
 Standard basis: 6-311+G(2d,p) (5D, 7F)
 Ernie: Thresh=  0.10000D-02 Tol=  0.10000D-05 Strict=F.
   278 basis functions,   422 primitive gaussians,   294 cartesian basis functions
    40 alpha electrons       40 beta electrons
       nuclear repulsion energy       511.0887207113 Hartrees.
 IExCor= 4336 DFT=T Ex+Corr=M062X ExCW=0 ScaHFX=  0.540000
 ScaDFX=  1.000000  1.000000  1.000000  1.000000 ScalE2=  1.000000  1.000000
 IRadAn=      5 IRanWt=     -1 IRanGd=            0 ICorTp=0 IEmpDi=131
 NAtoms=   17 NActive=   17 NUniq=   17 SFac= 1.00D+00 NAtFMM=   60 NAOKFM=F Big=F
 Integral buffers will be    131072 words long.
 Raffenetti 2 integral format.
 Two-electron integral symmetry is turned off.
 R6Disp:  Grimme-D3 Dispersion energy=       -0.0005479971 Hartrees.
 Nuclear repulsion after empirical dispersion term =      511.0881727142 Hartrees.
 Leave Link  301 at Mon Feb 20 08:51:08 2023, MaxMem=  6710886400 cpu:               1.1 elap:               0.1
 (Enter /data0/home/software/g16/l302.exe)
 NPDir=0 NMtPBC=     1 NCelOv=     1 NCel=       1 NClECP=     1 NCelD=      1
         NCelK=      1 NCelE2=     1 NClLst=     1 CellRange=     0.0.
 One-electron integrals computed using PRISM.
 NBasis=   278 RedAO= T EigKep=  4.97D-04  NBF=   278
 NBsUse=   278 1.00D-06 EigRej= -1.00D+00 NBFU=   278
 Precomputing XC quadrature grid using
 IXCGrd= 4 IRadAn=           5 IRanWt=          -1 IRanGd=           0 AccXCQ= 0.00D+00.
 Generated NRdTot=       0 NPtTot=           0 NUsed=           0 NTot=          32
 NSgBfM=   290   286   286   287   290 MxSgAt=    17 MxSgA2=    17.
 Leave Link  302 at Mon Feb 20 08:51:08 2023, MaxMem=  6710886400 cpu:               4.3 elap:               0.2
 (Enter /data0/home/software/g16/l303.exe)
 DipDrv:  MaxL=1.
 Leave Link  303 at Mon Feb 20 08:51:08 2023, MaxMem=  6710886400 cpu:               0.7 elap:               0.0
 (Enter /data0/home/software/g16/l401.exe)
 ExpMin= 3.48D-02 ExpMax= 7.75D+04 ExpMxC= 2.65D+03 IAcc=3 IRadAn=         5 AccDes= 0.00D+00
 Harris functional with IExCor= 1009 and IRadAn=       5 diagonalized for initial guess.
 HarFok:  IExCor= 1009 AccDes= 0.00D+00 IRadAn=         5 IDoV= 1 UseB2=F ITyADJ=14
 ICtDFT=  3500011 ScaDFX=  1.000000  1.000000  1.000000  1.000000
 FoFCou: FMM=F IPFlag=           0 FMFlag=      100000 FMFlg1=           0
         NFxFlg=           0 DoJE=T BraDBF=F KetDBF=T FulRan=T
         wScrn=  0.000000 ICntrl=       500 IOpCl=  0 I1Cent=   200000004 NGrid=           0
         NMat0=    1 NMatS0=      1 NMatT0=    0 NMatD0=    1 NMtDS0=    0 NMtDT0=    0
 Symmetry not used in FoFCou.
 Harris En= -873.188468647152    
 JPrj=0 DoOrth=F DoCkMO=F.
 Leave Link  401 at Mon Feb 20 08:51:09 2023, MaxMem=  6710886400 cpu:              12.7 elap:               0.6
 (Enter /data0/home/software/g16/l502.exe)
 Two-electron integral symmetry not used.
 Closed shell SCF:
 Using DIIS extrapolation, IDIIS=  1040.
 NGot=  6710886400 LenX=  6710704303 LenY=  6710617426
 Requested convergence on RMS density matrix=1.00D-08 within 128 cycles.
 Requested convergence on MAX density matrix=1.00D-06.
 Requested convergence on             energy=1.00D-06.
 No special actions if energy rises.
 Fock matrices will be formed incrementally for  20 cycles.

 Cycle   1  Pass 1  IDiag  1:
 FoFJK:  IHMeth= 1 ICntrl=       0 DoSepK=F KAlg= 0 I1Cent=           0 FoldK=F
 IRaf= 830000000 NMat=       1 IRICut=       1 DoRegI=T DoRafI=F ISym2E= 0 IDoP0=0 IntGTp=1.
 FoFCou: FMM=F IPFlag=           0 FMFlag=      100000 FMFlg1=           0
         NFxFlg=           0 DoJE=F BraDBF=F KetDBF=F FulRan=T
         wScrn=  0.000000 ICntrl=         0 IOpCl=  0 I1Cent=           0 NGrid=           0
         NMat0=    1 NMatS0=      1 NMatT0=    0 NMatD0=    1 NMtDS0=    0 NMtDT0=    0
 Symmetry not used in FoFCou.
 E= -872.901936380438    
 DIIS: error= 6.09D-02 at cycle   1 NSaved=   1.
 NSaved= 1 IEnMin= 1 EnMin= -872.901936380438     IErMin= 1 ErrMin= 6.09D-02
 ErrMax= 6.09D-02  0.00D+00 EMaxC= 1.00D-01 BMatC= 8.57D-01 BMatP= 8.57D-01
 IDIUse=3 WtCom= 3.91D-01 WtEn= 6.09D-01
 Coeff-Com:  0.100D+01
 Coeff-En:   0.100D+01
 Coeff:      0.100D+01
 Gap=     0.225 Goal=   None    Shift=    0.000
 GapD=    0.225 DampG=1.000 DampE=0.500 DampFc=0.5000 IDamp=-1.
 Damping current iteration by 5.00D-01
 RMSDP=5.85D-03 MaxDP=2.57D-01              OVMax= 2.53D-01

 Cycle   2  Pass 1  IDiag  1:
 RMSU=  2.92D-03    CP:  1.00D+00
 E= -873.111396240171     Delta-E=       -0.209459859733 Rises=F Damp=T
 DIIS: error= 9.94D-03 at cycle   2 NSaved=   2.
 NSaved= 2 IEnMin= 2 EnMin= -873.111396240171     IErMin= 2 ErrMin= 9.94D-03
 ErrMax= 9.94D-03  0.00D+00 EMaxC= 1.00D-01 BMatC= 4.02D-02 BMatP= 8.57D-01
 IDIUse=3 WtCom= 9.01D-01 WtEn= 9.94D-02
 Coeff-Com:  0.727D-01 0.927D+00
 Coeff-En:   0.191D+00 0.809D+00
 Coeff:      0.844D-01 0.916D+00
 Gap=     0.304 Goal=   None    Shift=    0.000
 RMSDP=1.30D-03 MaxDP=7.75D-02 DE=-2.09D-01 OVMax= 1.67D-01

 Cycle   3  Pass 1  IDiag  1:
 RMSU=  8.87D-04    CP:  9.96D-01  6.75D-01
 E= -873.405311029204     Delta-E=       -0.293914789032 Rises=F Damp=F
 DIIS: error= 3.99D-03 at cycle   3 NSaved=   3.
 NSaved= 3 IEnMin= 3 EnMin= -873.405311029204     IErMin= 3 ErrMin= 3.99D-03
 ErrMax= 3.99D-03  0.00D+00 EMaxC= 1.00D-01 BMatC= 8.61D-03 BMatP= 4.02D-02
 IDIUse=3 WtCom= 9.60D-01 WtEn= 3.99D-02
 Coeff-Com: -0.165D-01 0.246D+00 0.771D+00
 Coeff-En:   0.000D+00 0.000D+00 0.100D+01
 Coeff:     -0.159D-01 0.236D+00 0.780D+00
 Gap=     0.305 Goal=   None    Shift=    0.000
 RMSDP=4.06D-04 MaxDP=1.57D-02 DE=-2.94D-01 OVMax= 3.30D-02

 Cycle   4  Pass 1  IDiag  1:
 RMSU=  3.66D-04    CP:  9.96D-01  7.27D-01  9.03D-01
 E= -873.407738982572     Delta-E=       -0.002427953368 Rises=F Damp=F
 DIIS: error= 3.24D-03 at cycle   4 NSaved=   4.
 NSaved= 4 IEnMin= 4 EnMin= -873.407738982572     IErMin= 4 ErrMin= 3.24D-03
 ErrMax= 3.24D-03  0.00D+00 EMaxC= 1.00D-01 BMatC= 5.46D-03 BMatP= 8.61D-03
 IDIUse=3 WtCom= 9.68D-01 WtEn= 3.24D-02
 Coeff-Com: -0.190D-01 0.395D-01 0.469D+00 0.511D+00
 Coeff-En:   0.000D+00 0.000D+00 0.384D+00 0.616D+00
 Coeff:     -0.184D-01 0.382D-01 0.466D+00 0.514D+00
 Gap=     0.305 Goal=   None    Shift=    0.000
 RMSDP=1.97D-04 MaxDP=8.02D-03 DE=-2.43D-03 OVMax= 1.49D-02

 Cycle   5  Pass 1  IDiag  1:
 RMSU=  6.06D-05    CP:  9.95D-01  7.07D-01  9.93D-01  5.65D-01
 E= -873.411400110850     Delta-E=       -0.003661128278 Rises=F Damp=F
 DIIS: error= 5.73D-04 at cycle   5 NSaved=   5.
 NSaved= 5 IEnMin= 5 EnMin= -873.411400110850     IErMin= 5 ErrMin= 5.73D-04
 ErrMax= 5.73D-04  0.00D+00 EMaxC= 1.00D-01 BMatC= 2.71D-05 BMatP= 5.46D-03
 IDIUse=3 WtCom= 9.94D-01 WtEn= 5.73D-03
 Coeff-Com: -0.298D-02 0.129D-02 0.882D-01 0.125D+00 0.788D+00
 Coeff-En:   0.000D+00 0.000D+00 0.000D+00 0.000D+00 0.100D+01
 Coeff:     -0.296D-02 0.128D-02 0.877D-01 0.125D+00 0.789D+00
 Gap=     0.306 Goal=   None    Shift=    0.000
 RMSDP=1.88D-05 MaxDP=7.17D-04 DE=-3.66D-03 OVMax= 1.02D-03

 Cycle   6  Pass 1  IDiag  1:
 RMSU=  1.43D-05    CP:  9.95D-01  7.05D-01  9.95D-01  5.91D-01  1.04D+00
 E= -873.411415689123     Delta-E=       -0.000015578272 Rises=F Damp=F
 DIIS: error= 1.87D-04 at cycle   6 NSaved=   6.
 NSaved= 6 IEnMin= 6 EnMin= -873.411415689123     IErMin= 6 ErrMin= 1.87D-04
 ErrMax= 1.87D-04  0.00D+00 EMaxC= 1.00D-01 BMatC= 4.84D-06 BMatP= 2.71D-05
 IDIUse=3 WtCom= 9.98D-01 WtEn= 1.87D-03
 Coeff-Com: -0.364D-04-0.177D-02 0.803D-02 0.201D-01 0.323D+00 0.651D+00
 Coeff-En:   0.000D+00 0.000D+00 0.000D+00 0.000D+00 0.000D+00 0.100D+01
 Coeff:     -0.363D-04-0.176D-02 0.802D-02 0.200D-01 0.322D+00 0.652D+00
 Gap=     0.306 Goal=   None    Shift=    0.000
 RMSDP=9.04D-06 MaxDP=4.36D-04 DE=-1.56D-05 OVMax= 3.69D-04

 Cycle   7  Pass 1  IDiag  1:
 RMSU=  4.69D-06    CP:  9.95D-01  7.03D-01  9.97D-01  5.93D-01  1.12D+00
                    CP:  8.47D-01
 E= -873.411418895490     Delta-E=       -0.000003206367 Rises=F Damp=F
 DIIS: error= 7.75D-05 at cycle   7 NSaved=   7.
 NSaved= 7 IEnMin= 7 EnMin= -873.411418895490     IErMin= 7 ErrMin= 7.75D-05
 ErrMax= 7.75D-05  0.00D+00 EMaxC= 1.00D-01 BMatC= 5.04D-07 BMatP= 4.84D-06
 IDIUse=1 WtCom= 1.00D+00 WtEn= 0.00D+00
 Coeff-Com:  0.416D-03-0.692D-03-0.112D-01-0.132D-01-0.203D-01 0.230D+00
 Coeff-Com:  0.815D+00
 Coeff:      0.416D-03-0.692D-03-0.112D-01-0.132D-01-0.203D-01 0.230D+00
 Coeff:      0.815D+00
 Gap=     0.306 Goal=   None    Shift=    0.000
 RMSDP=3.58D-06 MaxDP=1.43D-04 DE=-3.21D-06 OVMax= 1.33D-04

 Cycle   8  Pass 1  IDiag  1:
 RMSU=  2.00D-06    CP:  9.95D-01  7.02D-01  9.98D-01  5.95D-01  1.15D+00
                    CP:  9.25D-01  9.11D-01
 E= -873.411419271941     Delta-E=       -0.000000376451 Rises=F Damp=F
 DIIS: error= 1.01D-05 at cycle   8 NSaved=   8.
 NSaved= 8 IEnMin= 8 EnMin= -873.411419271941     IErMin= 8 ErrMin= 1.01D-05
 ErrMax= 1.01D-05  0.00D+00 EMaxC= 1.00D-01 BMatC= 3.36D-08 BMatP= 5.04D-07
 IDIUse=1 WtCom= 1.00D+00 WtEn= 0.00D+00
 Coeff-Com:  0.142D-03-0.177D-03-0.451D-02-0.544D-02-0.163D-01 0.600D-01
 Coeff-Com:  0.307D+00 0.659D+00
 Coeff:      0.142D-03-0.177D-03-0.451D-02-0.544D-02-0.163D-01 0.600D-01
 Coeff:      0.307D+00 0.659D+00
 Gap=     0.306 Goal=   None    Shift=    0.000
 RMSDP=6.66D-07 MaxDP=3.27D-05 DE=-3.76D-07 OVMax= 3.84D-05

 Cycle   9  Pass 1  IDiag  1:
 RMSU=  4.94D-07    CP:  9.95D-01  7.02D-01  9.98D-01  5.95D-01  1.15D+00
                    CP:  9.40D-01  9.79D-01  8.89D-01
 E= -873.411419298871     Delta-E=       -0.000000026931 Rises=F Damp=F
 DIIS: error= 2.46D-06 at cycle   9 NSaved=   9.
 NSaved= 9 IEnMin= 9 EnMin= -873.411419298871     IErMin= 9 ErrMin= 2.46D-06
 ErrMax= 2.46D-06  0.00D+00 EMaxC= 1.00D-01 BMatC= 2.44D-09 BMatP= 3.36D-08
 IDIUse=1 WtCom= 1.00D+00 WtEn= 0.00D+00
 Coeff-Com: -0.937D-05 0.284D-04-0.170D-03-0.160D-03-0.222D-02-0.725D-02
 Coeff-Com:  0.339D-02 0.179D+00 0.827D+00
 Coeff:     -0.937D-05 0.284D-04-0.170D-03-0.160D-03-0.222D-02-0.725D-02
 Coeff:      0.339D-02 0.179D+00 0.827D+00
 Gap=     0.306 Goal=   None    Shift=    0.000
 RMSDP=2.49D-07 MaxDP=1.05D-05 DE=-2.69D-08 OVMax= 1.15D-05

 Cycle  10  Pass 1  IDiag  1:
 RMSU=  1.34D-07    CP:  9.95D-01  7.02D-01  9.98D-01  5.95D-01  1.15D+00
                    CP:  9.41D-01  9.89D-01  9.70D-01  1.02D+00
 E= -873.411419300783     Delta-E=       -0.000000001912 Rises=F Damp=F
 DIIS: error= 2.46D-06 at cycle  10 NSaved=  10.
 NSaved=10 IEnMin=10 EnMin= -873.411419300783     IErMin=10 ErrMin= 2.46D-06
 ErrMax= 2.46D-06  0.00D+00 EMaxC= 1.00D-01 BMatC= 6.56D-10 BMatP= 2.44D-09
 IDIUse=1 WtCom= 1.00D+00 WtEn= 0.00D+00
 Coeff-Com: -0.206D-04 0.350D-04 0.396D-03 0.490D-03 0.245D-03-0.111D-01
 Coeff-Com: -0.329D-01 0.190D-01 0.415D+00 0.609D+00
 Coeff:     -0.206D-04 0.350D-04 0.396D-03 0.490D-03 0.245D-03-0.111D-01
 Coeff:     -0.329D-01 0.190D-01 0.415D+00 0.609D+00
 Gap=     0.306 Goal=   None    Shift=    0.000
 RMSDP=9.36D-08 MaxDP=4.17D-06 DE=-1.91D-09 OVMax= 4.59D-06

 Cycle  11  Pass 1  IDiag  1:
 RMSU=  4.90D-08    CP:  9.95D-01  7.02D-01  9.98D-01  5.95D-01  1.15D+00
                    CP:  9.40D-01  9.94D-01  9.85D-01  1.12D+00  8.38D-01
 E= -873.411419301297     Delta-E=       -0.000000000513 Rises=F Damp=F
 DIIS: error= 1.82D-07 at cycle  11 NSaved=  11.
 NSaved=11 IEnMin=11 EnMin= -873.411419301297     IErMin=11 ErrMin= 1.82D-07
 ErrMax= 1.82D-07  0.00D+00 EMaxC= 1.00D-01 BMatC= 1.27D-11 BMatP= 6.56D-10
 IDIUse=1 WtCom= 1.00D+00 WtEn= 0.00D+00
 Coeff-Com:  0.390D-06-0.628D-06 0.423D-04 0.453D-04 0.239D-03-0.479D-03
 Coeff-Com: -0.415D-02-0.126D-01-0.273D-01 0.746D-01 0.970D+00
 Coeff:      0.390D-06-0.628D-06 0.423D-04 0.453D-04 0.239D-03-0.479D-03
 Coeff:     -0.415D-02-0.126D-01-0.273D-01 0.746D-01 0.970D+00
 Gap=     0.306 Goal=   None    Shift=    0.000
 RMSDP=2.60D-08 MaxDP=1.48D-06 DE=-5.13D-10 OVMax= 1.26D-06

 Cycle  12  Pass 1  IDiag  1:
 RMSU=  1.21D-08    CP:  9.95D-01  7.02D-01  9.98D-01  5.95D-01  1.15D+00
                    CP:  9.40D-01  9.94D-01  9.90D-01  1.15D+00  9.35D-01
                    CP:  1.06D+00
 E= -873.411419301307     Delta-E=       -0.000000000011 Rises=F Damp=F
 DIIS: error= 3.81D-08 at cycle  12 NSaved=  12.
 NSaved=12 IEnMin=12 EnMin= -873.411419301307     IErMin=12 ErrMin= 3.81D-08
 ErrMax= 3.81D-08  0.00D+00 EMaxC= 1.00D-01 BMatC= 1.08D-12 BMatP= 1.27D-11
 IDIUse=1 WtCom= 1.00D+00 WtEn= 0.00D+00
 Coeff-Com:  0.937D-06-0.160D-05-0.329D-06-0.196D-05 0.679D-04 0.283D-03
 Coeff-Com:  0.280D-04-0.421D-02-0.240D-01-0.489D-02 0.286D+00 0.747D+00
 Coeff:      0.937D-06-0.160D-05-0.329D-06-0.196D-05 0.679D-04 0.283D-03
 Coeff:      0.280D-04-0.421D-02-0.240D-01-0.489D-02 0.286D+00 0.747D+00
 Gap=     0.306 Goal=   None    Shift=    0.000
 RMSDP=4.54D-09 MaxDP=1.75D-07 DE=-1.09D-11 OVMax= 2.20D-07

 SCF Done:  E(RM062X) =  -873.411419301     A.U. after   12 cycles
            NFock= 12  Conv=0.45D-08     -V/T= 2.0026
 KE= 8.711098734378D+02 PE=-3.090978607953D+03 EE= 8.353691424993D+02
 Leave Link  502 at Mon Feb 20 08:51:24 2023, MaxMem=  6710886400 cpu:             364.3 elap:              15.3
 (Enter /data0/home/software/g16/l601.exe)
 Copying SCF densities to generalized density rwf, IOpCl= 0 IROHF=0.

 **********************************************************************

            Population analysis using the SCF density.

 **********************************************************************

 Alpha  occ. eigenvalues --  -78.19936 -19.72904 -19.72066 -19.70371 -19.64620
 Alpha  occ. eigenvalues --  -19.61589 -19.61272 -19.60094  -7.00715  -5.12637
 Alpha  occ. eigenvalues --   -5.12620  -5.12374  -1.27514  -1.20381  -1.19218
 Alpha  occ. eigenvalues --   -1.15077  -1.13065  -1.11556  -1.10988  -0.75502
 Alpha  occ. eigenvalues --   -0.68856  -0.66196  -0.62750  -0.61978  -0.60250
 Alpha  occ. eigenvalues --   -0.59165  -0.56673  -0.54447  -0.52409  -0.49365
 Alpha  occ. eigenvalues --   -0.49113  -0.48485  -0.48221  -0.47031  -0.45477
 Alpha  occ. eigenvalues --   -0.41808  -0.41154  -0.40112  -0.39149  -0.37868
 Alpha virt. eigenvalues --   -0.07247  -0.01224  -0.00563   0.02579   0.03950
 Alpha virt. eigenvalues --    0.05925   0.07355   0.08334   0.09593   0.10097
 Alpha virt. eigenvalues --    0.11391   0.12037   0.13883   0.14764   0.15267
 Alpha virt. eigenvalues --    0.15472   0.15885   0.16921   0.17324   0.17537
 Alpha virt. eigenvalues --    0.18021   0.18587   0.19191   0.19584   0.21086
 Alpha virt. eigenvalues --    0.21512   0.21931   0.22285   0.23687   0.24132
 Alpha virt. eigenvalues --    0.24811   0.25098   0.26138   0.27064   0.27773
 Alpha virt. eigenvalues --    0.28101   0.28777   0.29177   0.30976   0.32811
 Alpha virt. eigenvalues --    0.33033   0.34228   0.35536   0.36497   0.38645
 Alpha virt. eigenvalues --    0.41304   0.42404   0.44492   0.47039   0.48004
 Alpha virt. eigenvalues --    0.51608   0.52142   0.53350   0.55126   0.56663
 Alpha virt. eigenvalues --    0.58630   0.58880   0.65813   0.67570   0.72704
 Alpha virt. eigenvalues --    0.74080   0.74590   0.83186   0.95780   0.96981
 Alpha virt. eigenvalues --    0.97908   0.98534   1.00738   1.01722   1.02333
 Alpha virt. eigenvalues --    1.03610   1.04527   1.05754   1.08265   1.08973
 Alpha virt. eigenvalues --    1.09805   1.10725   1.12419   1.14417   1.14845
 Alpha virt. eigenvalues --    1.15868   1.17391   1.17893   1.18269   1.18912
 Alpha virt. eigenvalues --    1.19091   1.20481   1.22144   1.23905   1.24162
 Alpha virt. eigenvalues --    1.24975   1.25870   1.26478   1.30244   1.31187
 Alpha virt. eigenvalues --    1.31453   1.34215   1.35007   1.37288   1.39732
 Alpha virt. eigenvalues --    1.40867   1.43185   1.47507   1.51321   1.51815
 Alpha virt. eigenvalues --    1.52379   1.54686   1.57508   1.58992   1.60429
 Alpha virt. eigenvalues --    1.64146   1.64824   1.67227   1.67755   1.69412
 Alpha virt. eigenvalues --    1.71878   1.73060   1.75014   1.75337   1.78293
 Alpha virt. eigenvalues --    1.79179   1.79707   1.81138   1.83672   1.84702
 Alpha virt. eigenvalues --    1.85896   1.95021   1.95698   2.00726   2.02522
 Alpha virt. eigenvalues --    2.04412   2.05411   2.07395   2.07934   2.08415
 Alpha virt. eigenvalues --    2.09715   2.11346   2.15435   2.17494   2.19498
 Alpha virt. eigenvalues --    2.20529   2.22777   2.24936   2.34684   2.35047
 Alpha virt. eigenvalues --    2.40618   2.42484   2.43152   2.44773   2.45381
 Alpha virt. eigenvalues --    2.52717   2.53596   2.56910   2.59205   2.60208
 Alpha virt. eigenvalues --    2.61355   2.62344   2.66097   2.68024   2.73579
 Alpha virt. eigenvalues --    2.80065   2.84951   2.85521   2.87933   2.91922
 Alpha virt. eigenvalues --    2.93529   2.95929   3.00945   3.12545   3.16183
 Alpha virt. eigenvalues --    4.99743   5.02505   5.03918   5.04426   5.04717
 Alpha virt. eigenvalues --    5.08754   5.09314   5.13774   5.15477   5.16915
 Alpha virt. eigenvalues --    5.25175   5.34987   5.39416   5.41992   5.44700
 Alpha virt. eigenvalues --    5.50116   5.51454   5.55927   5.90395   5.97395
 Alpha virt. eigenvalues --    5.98825   6.69278   6.71164   6.72293   6.74615
 Alpha virt. eigenvalues --    6.76255   6.76929   6.78254   6.78552   6.79646
 Alpha virt. eigenvalues --    6.80608   6.81286   6.82362   6.83081   6.83963
 Alpha virt. eigenvalues --    6.85067   6.88188   6.88960   6.89511   6.90442
 Alpha virt. eigenvalues --    6.92238   6.93014   6.94609   6.95227   6.97903
 Alpha virt. eigenvalues --    6.98965   7.02006   7.08310   7.08856   7.15685
 Alpha virt. eigenvalues --    7.18175   7.22571   7.23432   7.25275   7.29099
 Alpha virt. eigenvalues --    7.39111   7.62062  14.20966  14.22630  14.31119
 Alpha virt. eigenvalues --   49.93775  49.94974  49.97082  49.98666  50.01428
 Alpha virt. eigenvalues --   50.03602  50.08542 163.84532
          Condensed to atoms (all electrons):
               1          2          3          4          5          6
     1  P   12.586594   0.530615   0.237485   0.005665   0.139730   0.037413
     2  O    0.530615   8.145310  -0.031348  -0.016790  -0.029743   0.000392
     3  O    0.237485  -0.031348   8.046769   0.249061   0.016231  -0.018762
     4  H    0.005665  -0.016790   0.249061   0.457830  -0.001364   0.002089
     5  O    0.139730  -0.029743   0.016231  -0.001364   8.125185   0.224250
     6  H    0.037413   0.000392  -0.018762   0.002089   0.224250   0.453730
     7  O    0.225160   0.001915   0.030550  -0.005833  -0.005876  -0.010600
     8  H    0.008821  -0.009245  -0.011574  -0.003016  -0.001797   0.002149
     9  O    0.002219  -0.002232   0.001804   0.000718   0.000161  -0.000001
    10  H    0.001428  -0.000088   0.000752   0.001646   0.000135   0.000001
    11  H    0.001226   0.000399  -0.000936   0.000749   0.000013   0.000001
    12  O    0.000525   0.000075   0.000017   0.000011  -0.000015   0.000000
    13  H   -0.000147   0.000002   0.000004  -0.000001   0.000000  -0.000000
    14  H    0.000203   0.000043  -0.000029  -0.000063   0.000012  -0.000000
    15  O   -0.014975  -0.014549   0.008255  -0.002199  -0.001809  -0.000036
    16  H    0.004969  -0.000584  -0.001668   0.000074  -0.000036  -0.000008
    17  H    0.016158   0.042392  -0.004855   0.000502   0.000980   0.000110
               7          8          9         10         11         12
     1  P    0.225160   0.008821   0.002219   0.001428   0.001226   0.000525
     2  O    0.001915  -0.009245  -0.002232  -0.000088   0.000399   0.000075
     3  O    0.030550  -0.011574   0.001804   0.000752  -0.000936   0.000017
     4  H   -0.005833  -0.003016   0.000718   0.001646   0.000749   0.000011
     5  O   -0.005876  -0.001797   0.000161   0.000135   0.000013  -0.000015
     6  H   -0.010600   0.002149  -0.000001   0.000001   0.000001   0.000000
     7  O    8.023457   0.242215  -0.000258  -0.000401  -0.000001  -0.000875
     8  H    0.242215   0.479639  -0.000121  -0.000172  -0.000009   0.002852
     9  O   -0.000258  -0.000121   8.032825   0.290343   0.295821  -0.000003
    10  H   -0.000401  -0.000172   0.290343   0.507985  -0.030889  -0.000011
    11  H   -0.000001  -0.000009   0.295821  -0.030889   0.343598   0.000001
    12  O   -0.000875   0.002852  -0.000003  -0.000011   0.000001   7.905133
    13  H    0.000082  -0.000147  -0.000000   0.000000  -0.000000   0.328519
    14  H   -0.000946   0.001344  -0.000001   0.000024  -0.000001   0.306863
    15  O   -0.000907  -0.000004   0.018563   0.003329  -0.037033   0.000000
    16  H    0.000103  -0.000007  -0.006953  -0.000504   0.004587   0.000000
    17  H    0.001083   0.000323  -0.005676  -0.000386   0.009158  -0.000000
              13         14         15         16         17
     1  P   -0.000147   0.000203  -0.014975   0.004969   0.016158
     2  O    0.000002   0.000043  -0.014549  -0.000584   0.042392
     3  O    0.000004  -0.000029   0.008255  -0.001668  -0.004855
     4  H   -0.000001  -0.000063  -0.002199   0.000074   0.000502
     5  O    0.000000   0.000012  -0.001809  -0.000036   0.000980
     6  H   -0.000000  -0.000000  -0.000036  -0.000008   0.000110
     7  O    0.000082  -0.000946  -0.000907   0.000103   0.001083
     8  H   -0.000147   0.001344  -0.000004  -0.000007   0.000323
     9  O   -0.000000  -0.000001   0.018563  -0.006953  -0.005676
    10  H    0.000000   0.000024   0.003329  -0.000504  -0.000386
    11  H   -0.000000  -0.000001  -0.037033   0.004587   0.009158
    12  O    0.328519   0.306863   0.000000   0.000000  -0.000000
    13  H    0.417334  -0.026460   0.000000  -0.000000  -0.000000
    14  H   -0.026460   0.453485   0.000001  -0.000000  -0.000001
    15  O    0.000000   0.000001   8.177566   0.281384   0.248440
    16  H   -0.000000  -0.000000   0.281384   0.447425  -0.008761
    17  H   -0.000000  -0.000001   0.248440  -0.008761   0.353262
 Mulliken charges:
               1
     1  P    1.216912
     2  O   -0.616565
     3  O   -0.521758
     4  H    0.310921
     5  O   -0.466056
     6  H    0.309273
     7  O   -0.498866
     8  H    0.288748
     9  O   -0.627208
    10  H    0.226809
    11  H    0.413315
    12  O   -0.543090
    13  H    0.280815
    14  H    0.265526
    15  O   -0.666027
    16  H    0.279980
    17  H    0.347271
 Sum of Mulliken charges =  -0.00000
 Mulliken charges with hydrogens summed into heavy atoms:
               1
     1  P    1.216912
     2  O   -0.616565
     3  O   -0.210837
     5  O   -0.156783
     7  O   -0.210118
     9  O    0.012916
    12  O    0.003251
    15  O   -0.038775
         Mulliken charges condensed to fragments:
      1      0.022609
      2      0.012916
      3      0.003251
      4     -0.038775
 Electronic spatial extent (au):  <R**2>=          74185.0297
 Charge=             -0.0000 electrons
 Dipole moment (field-independent basis, Debye):
    X=              8.9199    Y=              0.1585    Z=             -2.0600  Tot=              9.1560
 Quadrupole moment (field-independent basis, Debye-Ang):
   XX=            121.3468   YY=            -59.5017   ZZ=           -104.8075
   XY=             86.2749   XZ=             61.9982   YZ=            -11.3895
 Traceless Quadrupole moment (field-independent basis, Debye-Ang):
   XX=            135.6676   YY=            -45.1809   ZZ=            -90.4867
   XY=             86.2749   XZ=             61.9982   YZ=            -11.3895
 Octapole moment (field-independent basis, Debye-Ang**2):
  XXX=           1032.0414  YYY=          -1677.8066  ZZZ=          -2246.8094  XYY=            236.5314
  XXY=           1214.1721  XXZ=            969.2242  XZZ=           -241.8856  YZZ=           -854.6913
  YYZ=           -584.7293  XYZ=            661.2210
 Hexadecapole moment (field-independent basis, Debye-Ang**3):
 XXXX=           3387.2236 YYYY=         -32024.6646 ZZZZ=         -37528.4031 XXXY=          11065.8843
 XXXZ=           9037.8399 YYYX=          -8561.5639 YYYZ=         -14863.4397 ZZZX=         -14327.2117
 ZZZY=         -19593.3879 XXYY=           6184.9040 XXZZ=           1390.0683 YYZZ=         -12183.4725
 XXYZ=          10284.3474 YYXZ=           1797.4645 ZZXY=          -1153.9607
 N-N= 5.110881727142D+02 E-N=-3.090978610582D+03  KE= 8.711098734378D+02
 No NMR shielding tensors so no spin-rotation constants.
 Leave Link  601 at Mon Feb 20 08:51:24 2023, MaxMem=  6710886400 cpu:               2.3 elap:               0.1
 (Enter /data0/home/software/g16/l122.exe)
 CPIOFr:  IOpCl= 0 IRwI=-1 IRwCP=  731 ICalc= -1 LCPTot=      120517 Len1MO=      315166 IndFrg=      120517
 CPIOFr:  IOpCl= 0 IRwI=-1 IRwCP=  731 ICalc=  0 LCPTot=      120517 Len1MO=      315166 IndFrg=      435683
 Counterpoise: doing calculation for fragment   1 using the basis set of the full-system, NewBq=T
 Leave Link  122 at Mon Feb 20 08:51:24 2023, MaxMem=  6710886400 cpu:               0.2 elap:               0.0
 (Enter /data0/home/software/g16/l301.exe)
 Basis read from rwf:  (5D, 7F)
 No pseudopotential information found on rwf file.
   278 basis functions,   422 primitive gaussians,   294 cartesian basis functions
    25 alpha electrons       25 beta electrons
       nuclear repulsion energy       279.9159468340 Hartrees.
 IExCor= 4336 DFT=T Ex+Corr=M062X ExCW=0 ScaHFX=  0.540000
 ScaDFX=  1.000000  1.000000  1.000000  1.000000 ScalE2=  1.000000  1.000000
 IRadAn=      5 IRanWt=     -1 IRanGd=            0 ICorTp=0 IEmpDi=131
 NAtoms=   17 NActive=   17 NUniq=   17 SFac= 1.00D+00 NAtFMM=   60 NAOKFM=F Big=F
 Integral buffers will be    131072 words long.
 Raffenetti 2 integral format.
 Two-electron integral symmetry is turned off.
 R6Disp:  Grimme-D3 Dispersion energy=       -0.0000437749 Hartrees.
 Nuclear repulsion after empirical dispersion term =      279.9159030591 Hartrees.
 No density basis found on file   718.
 Leave Link  301 at Mon Feb 20 08:51:24 2023, MaxMem=  6710886400 cpu:               1.3 elap:               0.1
 (Enter /data0/home/software/g16/l302.exe)
 NPDir=0 NMtPBC=     1 NCelOv=     1 NCel=       1 NClECP=     1 NCelD=      1
         NCelK=      1 NCelE2=     1 NClLst=     1 CellRange=     0.0.
 One-electron integrals computed using PRISM.
 NBasis=   278 RedAO= T EigKep=  4.97D-04  NBF=   278
 NBsUse=   278 1.00D-06 EigRej= -1.00D+00 NBFU=   278
 Precomputing XC quadrature grid using
 IXCGrd= 4 IRadAn=           5 IRanWt=          -1 IRanGd=           0 AccXCQ= 0.00D+00.
 Generated NRdTot=       0 NPtTot=           0 NUsed=           0 NTot=          32
 NSgBfM=   290   286   286   287   290 MxSgAt=    17 MxSgA2=    17.
 Leave Link  302 at Mon Feb 20 08:51:24 2023, MaxMem=  6710886400 cpu:               4.4 elap:               0.2
 (Enter /data0/home/software/g16/l303.exe)
 DipDrv:  MaxL=1.
 Leave Link  303 at Mon Feb 20 08:51:24 2023, MaxMem=  6710886400 cpu:               0.6 elap:               0.0
 (Enter /data0/home/software/g16/l401.exe)
 ExpMin= 3.48D-02 ExpMax= 7.75D+04 ExpMxC= 2.65D+03 IAcc=3 IRadAn=         5 AccDes= 0.00D+00
 Harris functional with IExCor= 1009 and IRadAn=       5 diagonalized for initial guess.
 HarFok:  IExCor= 1009 AccDes= 0.00D+00 IRadAn=         5 IDoV= 1 UseB2=F ITyADJ=14
 ICtDFT=  3500011 ScaDFX=  1.000000  1.000000  1.000000  1.000000
 FoFCou: FMM=F IPFlag=           0 FMFlag=      100000 FMFlg1=           0
         NFxFlg=           0 DoJE=T BraDBF=F KetDBF=T FulRan=T
         wScrn=  0.000000 ICntrl=       500 IOpCl=  0 I1Cent=   200000004 NGrid=           0
         NMat0=    1 NMatS0=      1 NMatT0=    0 NMatD0=    1 NMtDS0=    0 NMtDT0=    0
 Symmetry not used in FoFCou.
 Harris En= -643.936552207669    
 JPrj=0 DoOrth=F DoCkMO=F.
 Leave Link  401 at Mon Feb 20 08:51:25 2023, MaxMem=  6710886400 cpu:              12.4 elap:               0.5
 (Enter /data0/home/software/g16/l502.exe)
 Two-electron integral symmetry not used.
 Closed shell SCF:
 Using DIIS extrapolation, IDIIS=  1040.
 NGot=  6710886400 LenX=  6710704303 LenY=  6710617426
 Requested convergence on RMS density matrix=1.00D-08 within 128 cycles.
 Requested convergence on MAX density matrix=1.00D-06.
 Requested convergence on             energy=1.00D-06.
 No special actions if energy rises.
 Fock matrices will be formed incrementally for  20 cycles.

 Cycle   1  Pass 1  IDiag  1:
 FoFJK:  IHMeth= 1 ICntrl=       0 DoSepK=F KAlg= 0 I1Cent=           0 FoldK=F
 IRaf= 830000000 NMat=       1 IRICut=       1 DoRegI=T DoRafI=F ISym2E= 0 IDoP0=0 IntGTp=1.
 FoFCou: FMM=F IPFlag=           0 FMFlag=      100000 FMFlg1=           0
         NFxFlg=           0 DoJE=F BraDBF=F KetDBF=F FulRan=T
         wScrn=  0.000000 ICntrl=         0 IOpCl=  0 I1Cent=           0 NGrid=           0
         NMat0=    1 NMatS0=      1 NMatT0=    0 NMatD0=    1 NMtDS0=    0 NMtDT0=    0
 Symmetry not used in FoFCou.
 E= -643.830795181925    
 DIIS: error= 3.50D-02 at cycle   1 NSaved=   1.
 NSaved= 1 IEnMin= 1 EnMin= -643.830795181925     IErMin= 1 ErrMin= 3.50D-02
 ErrMax= 3.50D-02  0.00D+00 EMaxC= 1.00D-01 BMatC= 5.15D-01 BMatP= 5.15D-01
 IDIUse=3 WtCom= 6.50D-01 WtEn= 3.50D-01
 Coeff-Com:  0.100D+01
 Coeff-En:   0.100D+01
 Coeff:      0.100D+01
 Gap=     0.208 Goal=   None    Shift=    0.000
 GapD=    0.208 DampG=1.000 DampE=0.500 DampFc=0.5000 IDamp=-1.
 Damping current iteration by 5.00D-01
 RMSDP=5.00D-03 MaxDP=2.49D-01              OVMax= 2.88D-01

 Cycle   2  Pass 1  IDiag  1:
 RMSU=  2.50D-03    CP:  1.01D+00
 E= -643.947116355417     Delta-E=       -0.116321173492 Rises=F Damp=T
 DIIS: error= 9.59D-03 at cycle   2 NSaved=   2.
 NSaved= 2 IEnMin= 2 EnMin= -643.947116355417     IErMin= 2 ErrMin= 9.59D-03
 ErrMax= 9.59D-03  0.00D+00 EMaxC= 1.00D-01 BMatC= 2.94D-02 BMatP= 5.15D-01
 IDIUse=3 WtCom= 9.04D-01 WtEn= 9.59D-02
 Coeff-Com:  0.846D-01 0.915D+00
 Coeff-En:   0.225D+00 0.775D+00
 Coeff:      0.981D-01 0.902D+00
 Gap=     0.324 Goal=   None    Shift=    0.000
 RMSDP=1.26D-03 MaxDP=8.29D-02 DE=-1.16D-01 OVMax= 1.93D-01

 Cycle   3  Pass 1  IDiag  1:
 RMSU=  8.12D-04    CP:  9.97D-01  6.14D-01
 E= -644.123276626858     Delta-E=       -0.176160271441 Rises=F Damp=F
 DIIS: error= 4.94D-03 at cycle   3 NSaved=   3.
 NSaved= 3 IEnMin= 3 EnMin= -644.123276626858     IErMin= 3 ErrMin= 4.94D-03
 ErrMax= 4.94D-03  0.00D+00 EMaxC= 1.00D-01 BMatC= 1.15D-02 BMatP= 2.94D-02
 IDIUse=3 WtCom= 9.51D-01 WtEn= 4.94D-02
 Coeff-Com: -0.105D-01 0.347D+00 0.664D+00
 Coeff-En:   0.000D+00 0.000D+00 0.100D+01
 Coeff:     -0.100D-01 0.330D+00 0.680D+00
 Gap=     0.313 Goal=   None    Shift=    0.000
 RMSDP=4.10D-04 MaxDP=1.55D-02 DE=-1.76D-01 OVMax= 3.64D-02

 Cycle   4  Pass 1  IDiag  1:
 RMSU=  3.50D-04    CP:  9.98D-01  6.89D-01  8.78D-01
 E= -644.128787799145     Delta-E=       -0.005511172287 Rises=F Damp=F
 DIIS: error= 2.92D-03 at cycle   4 NSaved=   4.
 NSaved= 4 IEnMin= 4 EnMin= -644.128787799145     IErMin= 4 ErrMin= 2.92D-03
 ErrMax= 2.92D-03  0.00D+00 EMaxC= 1.00D-01 BMatC= 3.93D-03 BMatP= 1.15D-02
 IDIUse=3 WtCom= 9.71D-01 WtEn= 2.92D-02
 Coeff-Com: -0.226D-01 0.502D-01 0.390D+00 0.583D+00
 Coeff-En:   0.000D+00 0.000D+00 0.250D+00 0.750D+00
 Coeff:     -0.220D-01 0.487D-01 0.386D+00 0.587D+00
 Gap=     0.319 Goal=   None    Shift=    0.000
 RMSDP=1.59D-04 MaxDP=6.05D-03 DE=-5.51D-03 OVMax= 1.10D-02

 Cycle   5  Pass 1  IDiag  1:
 RMSU=  5.33D-05    CP:  9.97D-01  6.72D-01  9.72D-01  6.55D-01
 E= -644.131383557530     Delta-E=       -0.002595758385 Rises=F Damp=F
 DIIS: error= 1.82D-04 at cycle   5 NSaved=   5.
 NSaved= 5 IEnMin= 5 EnMin= -644.131383557530     IErMin= 5 ErrMin= 1.82D-04
 ErrMax= 1.82D-04  0.00D+00 EMaxC= 1.00D-01 BMatC= 1.60D-05 BMatP= 3.93D-03
 IDIUse=3 WtCom= 9.98D-01 WtEn= 1.82D-03
 Coeff-Com: -0.276D-02 0.305D-03 0.520D-01 0.114D+00 0.837D+00
 Coeff-En:   0.000D+00 0.000D+00 0.000D+00 0.000D+00 0.100D+01
 Coeff:     -0.275D-02 0.304D-03 0.519D-01 0.114D+00 0.837D+00
 Gap=     0.318 Goal=   None    Shift=    0.000
 RMSDP=1.83D-05 MaxDP=6.41D-04 DE=-2.60D-03 OVMax= 8.12D-04

 Cycle   6  Pass 1  IDiag  1:
 RMSU=  1.20D-05    CP:  9.97D-01  6.68D-01  9.76D-01  6.80D-01  1.08D+00
 E= -644.131394016549     Delta-E=       -0.000010459019 Rises=F Damp=F
 DIIS: error= 5.50D-05 at cycle   6 NSaved=   6.
 NSaved= 6 IEnMin= 6 EnMin= -644.131394016549     IErMin= 6 ErrMin= 5.50D-05
 ErrMax= 5.50D-05  0.00D+00 EMaxC= 1.00D-01 BMatC= 1.76D-06 BMatP= 1.60D-05
 IDIUse=1 WtCom= 1.00D+00 WtEn= 0.00D+00
 Coeff-Com: -0.857D-04-0.158D-02 0.191D-02 0.126D-01 0.256D+00 0.732D+00
 Coeff:     -0.857D-04-0.158D-02 0.191D-02 0.126D-01 0.256D+00 0.732D+00
 Gap=     0.319 Goal=   None    Shift=    0.000
 RMSDP=6.93D-06 MaxDP=3.27D-04 DE=-1.05D-05 OVMax= 3.14D-04

 Cycle   7  Pass 1  IDiag  1:
 RMSU=  4.00D-06    CP:  9.97D-01  6.67D-01  9.78D-01  6.82D-01  1.16D+00
                    CP:  8.81D-01
 E= -644.131395136329     Delta-E=       -0.000001119780 Rises=F Damp=F
 DIIS: error= 3.62D-05 at cycle   7 NSaved=   7.
 NSaved= 7 IEnMin= 7 EnMin= -644.131395136329     IErMin= 7 ErrMin= 3.62D-05
 ErrMax= 3.62D-05  0.00D+00 EMaxC= 1.00D-01 BMatC= 4.73D-07 BMatP= 1.76D-06
 IDIUse=1 WtCom= 1.00D+00 WtEn= 0.00D+00
 Coeff-Com:  0.442D-03-0.725D-03-0.895D-02-0.152D-01-0.261D-01 0.345D+00
 Coeff-Com:  0.706D+00
 Coeff:      0.442D-03-0.725D-03-0.895D-02-0.152D-01-0.261D-01 0.345D+00
 Coeff:      0.706D+00
 Gap=     0.319 Goal=   None    Shift=    0.000
 RMSDP=2.93D-06 MaxDP=1.05D-04 DE=-1.12D-06 OVMax= 1.37D-04

 Cycle   8  Pass 1  IDiag  1:
 RMSU=  1.73D-06    CP:  9.97D-01  6.66D-01  9.78D-01  6.83D-01  1.18D+00
                    CP:  9.77D-01  8.21D-01
 E= -644.131395466537     Delta-E=       -0.000000330208 Rises=F Damp=F
 DIIS: error= 9.07D-06 at cycle   8 NSaved=   8.
 NSaved= 8 IEnMin= 8 EnMin= -644.131395466537     IErMin= 8 ErrMin= 9.07D-06
 ErrMax= 9.07D-06  0.00D+00 EMaxC= 1.00D-01 BMatC= 2.64D-08 BMatP= 4.73D-07
 IDIUse=1 WtCom= 1.00D+00 WtEn= 0.00D+00
 Coeff-Com:  0.152D-03-0.191D-03-0.349D-02-0.582D-02-0.162D-01 0.950D-01
 Coeff-Com:  0.275D+00 0.655D+00
 Coeff:      0.152D-03-0.191D-03-0.349D-02-0.582D-02-0.162D-01 0.950D-01
 Coeff:      0.275D+00 0.655D+00
 Gap=     0.318 Goal=   None    Shift=    0.000
 RMSDP=5.25D-07 MaxDP=2.65D-05 DE=-3.30D-07 OVMax= 3.41D-05

 Cycle   9  Pass 1  IDiag  1:
 RMSU=  3.58D-07    CP:  9.97D-01  6.66D-01  9.79D-01  6.83D-01  1.18D+00
                    CP:  9.88D-01  8.89D-01  8.90D-01
 E= -644.131395487741     Delta-E=       -0.000000021204 Rises=F Damp=F
 DIIS: error= 1.39D-06 at cycle   9 NSaved=   9.
 NSaved= 9 IEnMin= 9 EnMin= -644.131395487741     IErMin= 9 ErrMin= 1.39D-06
 ErrMax= 1.39D-06  0.00D+00 EMaxC= 1.00D-01 BMatC= 1.14D-09 BMatP= 2.64D-08
 IDIUse=1 WtCom= 1.00D+00 WtEn= 0.00D+00
 Coeff-Com: -0.312D-04 0.596D-04 0.292D-03 0.663D-03-0.766D-03-0.218D-01
 Coeff-Com: -0.303D-01 0.974D-01 0.954D+00
 Coeff:     -0.312D-04 0.596D-04 0.292D-03 0.663D-03-0.766D-03-0.218D-01
 Coeff:     -0.303D-01 0.974D-01 0.954D+00
 Gap=     0.318 Goal=   None    Shift=    0.000
 RMSDP=2.43D-07 MaxDP=1.12D-05 DE=-2.12D-08 OVMax= 1.48D-05

 Cycle  10  Pass 1  IDiag  1:
 RMSU=  1.02D-07    CP:  9.97D-01  6.66D-01  9.79D-01  6.83D-01  1.19D+00
                    CP:  9.88D-01  9.06D-01  9.74D-01  1.12D+00
 E= -644.131395489166     Delta-E=       -0.000000001425 Rises=F Damp=F
 DIIS: error= 2.26D-07 at cycle  10 NSaved=  10.
 NSaved=10 IEnMin=10 EnMin= -644.131395489166     IErMin=10 ErrMin= 2.26D-07
 ErrMax= 2.26D-07  0.00D+00 EMaxC= 1.00D-01 BMatC= 2.38D-11 BMatP= 1.14D-09
 IDIUse=1 WtCom= 1.00D+00 WtEn= 0.00D+00
 Coeff-Com: -0.386D-05 0.622D-05 0.109D-03 0.185D-03 0.530D-03-0.416D-02
 Coeff-Com: -0.119D-01-0.198D-01 0.242D-01 0.101D+01
 Coeff:     -0.386D-05 0.622D-05 0.109D-03 0.185D-03 0.530D-03-0.416D-02
 Coeff:     -0.119D-01-0.198D-01 0.242D-01 0.101D+01
 Gap=     0.318 Goal=   None    Shift=    0.000
 RMSDP=4.85D-08 MaxDP=1.56D-06 DE=-1.42D-09 OVMax= 3.90D-06

 Cycle  11  Pass 1  IDiag  1:
 RMSU=  2.48D-08    CP:  9.97D-01  6.66D-01  9.79D-01  6.83D-01  1.19D+00
                    CP:  9.88D-01  9.08D-01  9.86D-01  1.19D+00  1.16D+00
 E= -644.131395489198     Delta-E=       -0.000000000032 Rises=F Damp=F
 DIIS: error= 1.73D-07 at cycle  11 NSaved=  11.
 NSaved=11 IEnMin=11 EnMin= -644.131395489198     IErMin=11 ErrMin= 1.73D-07
 ErrMax= 1.73D-07  0.00D+00 EMaxC= 1.00D-01 BMatC= 1.07D-11 BMatP= 2.38D-11
 IDIUse=1 WtCom= 1.00D+00 WtEn= 0.00D+00
 Coeff-Com:  0.284D-06-0.925D-06 0.326D-04 0.450D-04 0.283D-03-0.659D-03
 Coeff-Com: -0.355D-02-0.140D-01-0.465D-01 0.468D+00 0.596D+00
 Coeff:      0.284D-06-0.925D-06 0.326D-04 0.450D-04 0.283D-03-0.659D-03
 Coeff:     -0.355D-02-0.140D-01-0.465D-01 0.468D+00 0.596D+00
 Gap=     0.318 Goal=   None    Shift=    0.000
 RMSDP=1.20D-08 MaxDP=5.05D-07 DE=-3.21D-11 OVMax= 7.61D-07

 Cycle  12  Pass 1  IDiag  1:
 RMSU=  9.17D-09    CP:  9.97D-01  6.66D-01  9.79D-01  6.83D-01  1.19D+00
                    CP:  9.88D-01  9.09D-01  9.87D-01  1.20D+00  1.22D+00
                    CP:  9.20D-01
 E= -644.131395489214     Delta-E=       -0.000000000016 Rises=F Damp=F
 DIIS: error= 4.75D-08 at cycle  12 NSaved=  12.
 NSaved=12 IEnMin=12 EnMin= -644.131395489214     IErMin=12 ErrMin= 4.75D-08
 ErrMax= 4.75D-08  0.00D+00 EMaxC= 1.00D-01 BMatC= 1.09D-12 BMatP= 1.07D-11
 IDIUse=1 WtCom= 1.00D+00 WtEn= 0.00D+00
 Coeff-Com:  0.800D-06-0.146D-05-0.637D-05-0.141D-04 0.908D-05 0.478D-03
 Coeff-Com:  0.930D-03-0.122D-02-0.224D-01-0.813D-02 0.236D+00 0.794D+00
 Coeff:      0.800D-06-0.146D-05-0.637D-05-0.141D-04 0.908D-05 0.478D-03
 Coeff:      0.930D-03-0.122D-02-0.224D-01-0.813D-02 0.236D+00 0.794D+00
 Gap=     0.318 Goal=   None    Shift=    0.000
 RMSDP=5.42D-09 MaxDP=1.84D-07 DE=-1.59D-11 OVMax= 3.83D-07

 SCF Done:  E(RM062X) =  -644.131395489     A.U. after   12 cycles
            NFock= 12  Conv=0.54D-08     -V/T= 2.0026
 KE= 6.424846625495D+02 PE=-2.087445789093D+03 EE= 5.209138279953D+02
 Leave Link  502 at Mon Feb 20 08:51:39 2023, MaxMem=  6710886400 cpu:             337.9 elap:              14.2
 (Enter /data0/home/software/g16/l601.exe)
 Copying SCF densities to generalized density rwf, IOpCl= 0 IROHF=0.

 **********************************************************************

            Population analysis using the SCF density.

 **********************************************************************

 Alpha  occ. eigenvalues --  -78.16743 -19.70094 -19.69392 -19.67900 -19.57514
 Alpha  occ. eigenvalues --   -6.97541  -5.09460  -5.09454  -5.09181  -1.24746
 Alpha  occ. eigenvalues --   -1.17664  -1.16696  -1.07743  -0.72737  -0.66121
 Alpha  occ. eigenvalues --   -0.63597  -0.59138  -0.53876  -0.51733  -0.49690
 Alpha  occ. eigenvalues --   -0.46310  -0.45758  -0.44712  -0.37316  -0.36410
 Alpha virt. eigenvalues --   -0.04560   0.00628   0.01941   0.04374   0.06397
 Alpha virt. eigenvalues --    0.06994   0.08873   0.10006   0.10605   0.12057
 Alpha virt. eigenvalues --    0.12752   0.13421   0.15356   0.15722   0.16047
 Alpha virt. eigenvalues --    0.17000   0.17304   0.18140   0.18259   0.19425
 Alpha virt. eigenvalues --    0.20141   0.20510   0.20908   0.22672   0.23106
 Alpha virt. eigenvalues --    0.24464   0.24903   0.26405   0.26753   0.27545
 Alpha virt. eigenvalues --    0.28052   0.28178   0.29086   0.29526   0.30677
 Alpha virt. eigenvalues --    0.31550   0.32134   0.32417   0.34682   0.35203
 Alpha virt. eigenvalues --    0.36795   0.37162   0.38580   0.40063   0.41192
 Alpha virt. eigenvalues --    0.43459   0.45208   0.47587   0.49161   0.51443
 Alpha virt. eigenvalues --    0.53969   0.55603   0.58101   0.59549   0.64355
 Alpha virt. eigenvalues --    0.70033   0.75320   0.76013   0.77115   0.77877
 Alpha virt. eigenvalues --    0.78177   0.78720   0.79036   0.80378   0.80839
 Alpha virt. eigenvalues --    0.82120   0.86671   0.91776   0.94472   0.96675
 Alpha virt. eigenvalues --    0.99873   1.00516   1.01157   1.02050   1.03356
 Alpha virt. eigenvalues --    1.05918   1.07097   1.09782   1.10814   1.13582
 Alpha virt. eigenvalues --    1.15122   1.16854   1.18887   1.20024   1.20923
 Alpha virt. eigenvalues --    1.22040   1.23513   1.26341   1.28242   1.32553
 Alpha virt. eigenvalues --    1.35492   1.39750   1.43417   1.45479   1.50359
 Alpha virt. eigenvalues --    1.53496   1.55061   1.55971   1.59182   1.60745
 Alpha virt. eigenvalues --    1.66781   1.67671   1.69490   1.71684   1.73829
 Alpha virt. eigenvalues --    1.77164   1.81632   1.82431   1.82874   1.83456
 Alpha virt. eigenvalues --    1.85015   1.85340   1.86455   1.87182   1.88934
 Alpha virt. eigenvalues --    1.90597   1.94624   1.95703   1.97600   1.98395
 Alpha virt. eigenvalues --    2.04196   2.05111   2.09584   2.11822   2.14465
 Alpha virt. eigenvalues --    2.17955   2.18681   2.20993   2.21789   2.23603
 Alpha virt. eigenvalues --    2.25202   2.26125   2.26551   2.30313   2.37532
 Alpha virt. eigenvalues --    2.43682   2.45204   2.47862   2.48529   2.51219
 Alpha virt. eigenvalues --    2.56488   2.57315   2.58668   2.59814   2.60808
 Alpha virt. eigenvalues --    2.62752   2.63217   2.64224   2.65130   2.67639
 Alpha virt. eigenvalues --    2.69954   2.70580   2.72249   2.72775   2.74149
 Alpha virt. eigenvalues --    2.75535   2.76704   2.77791   2.82984   2.84118
 Alpha virt. eigenvalues --    2.85001   2.88744   2.89882   2.96534   2.97179
 Alpha virt. eigenvalues --    2.98669   3.00529   3.06257   3.06997   3.13679
 Alpha virt. eigenvalues --    3.55745   3.57063   3.57199   3.65291   3.69923
 Alpha virt. eigenvalues --    3.73237   4.58578   4.59231   4.67057   5.02570
 Alpha virt. eigenvalues --    5.05189   5.06753   5.07049   5.11455   5.14240
 Alpha virt. eigenvalues --    5.17111   5.20235   5.23348   5.26020   5.29886
 Alpha virt. eigenvalues --    5.40136   5.42257   5.44821   5.52880   6.71991
 Alpha virt. eigenvalues --    6.74151   6.75467   6.77853   6.79981   6.81106
 Alpha virt. eigenvalues --    6.85137   6.86160   6.92166   6.92765   6.95354
 Alpha virt. eigenvalues --    6.97995   7.00862   7.04934   7.11640   7.25275
 Alpha virt. eigenvalues --    7.26610   7.28352   7.31706   7.42533   7.65093
 Alpha virt. eigenvalues --    9.87648   9.89466   9.99812  10.02723  10.14566
 Alpha virt. eigenvalues --   10.18516  10.21884  10.21942  10.25591  10.26461
 Alpha virt. eigenvalues --   10.30820  10.33063  10.39123  10.52753  10.55364
 Alpha virt. eigenvalues --   12.99032  13.29663  13.36098  13.37250  13.69670
 Alpha virt. eigenvalues --   13.74316  13.84714  14.24025  14.24914  14.25809
 Alpha virt. eigenvalues --   14.26478  14.34312  17.82380  18.32438  18.35260
 Alpha virt. eigenvalues --   49.97880  49.99715  50.01405  50.12069 137.04156
 Alpha virt. eigenvalues --  139.62225 139.70930 163.87721
          Condensed to atoms (all electrons):
               1          2          3          4          5          6
     1  P   12.556315   0.542541   0.238186   0.008774   0.139814   0.042083
     2  O    0.542541   8.122725  -0.020845  -0.014702  -0.025155   0.001877
     3  O    0.238186  -0.020845   8.051061   0.248433   0.010298  -0.020048
     4  H    0.008774  -0.014702   0.248433   0.455286  -0.001731   0.001995
     5  O    0.139814  -0.025155   0.010298  -0.001731   8.134012   0.216061
     6  H    0.042083   0.001877  -0.020048   0.001995   0.216061   0.466761
     7  O    0.232228   0.001223   0.027777  -0.006257   0.007391  -0.011889
     8  H    0.005815  -0.012429  -0.010097  -0.001914  -0.001139   0.002368
     9  O    0.000125  -0.000552   0.000413   0.000403  -0.000032   0.000001
    10  H   -0.000225   0.000153   0.000753  -0.000406   0.000083  -0.000000
    11  H   -0.000243   0.000276  -0.000697   0.000256  -0.000058  -0.000001
    12  O    0.000148  -0.000040   0.000000   0.000028  -0.000006   0.000001
    13  H   -0.000064   0.000002   0.000003  -0.000002   0.000000  -0.000000
    14  H   -0.000145   0.000033  -0.000049  -0.000061   0.000016  -0.000001
    15  O    0.000660   0.008048   0.000432  -0.000605   0.000225  -0.000021
    16  H   -0.000193  -0.000519  -0.000384  -0.000000  -0.000015  -0.000006
    17  H    0.001346  -0.002921   0.000538   0.000758  -0.000288   0.000160
               7          8          9         10         11         12
     1  P    0.232228   0.005815   0.000125  -0.000225  -0.000243   0.000148
     2  O    0.001223  -0.012429  -0.000552   0.000153   0.000276  -0.000040
     3  O    0.027777  -0.010097   0.000413   0.000753  -0.000697   0.000000
     4  H   -0.006257  -0.001914   0.000403  -0.000406   0.000256   0.000028
     5  O    0.007391  -0.001139  -0.000032   0.000083  -0.000058  -0.000006
     6  H   -0.011889   0.002368   0.000001  -0.000000  -0.000001   0.000001
     7  O    8.025200   0.251806   0.000119  -0.000127  -0.000002  -0.000216
     8  H    0.251806   0.464583  -0.000029  -0.000099   0.000024   0.000989
     9  O    0.000119  -0.000029   0.001368  -0.000669  -0.000942   0.000002
    10  H   -0.000127  -0.000099  -0.000669   0.001925  -0.001010  -0.000005
    11  H   -0.000002   0.000024  -0.000942  -0.001010   0.002470   0.000001
    12  O   -0.000216   0.000989   0.000002  -0.000005   0.000001   0.001204
    13  H    0.000057  -0.000168  -0.000000   0.000000  -0.000000  -0.000601
    14  H    0.000157  -0.000724  -0.000004   0.000010  -0.000001  -0.000592
    15  O   -0.000217  -0.000163   0.000492   0.000526  -0.001696  -0.000000
    16  H    0.000034   0.000002  -0.000200  -0.000116   0.000636   0.000000
    17  H    0.000640   0.000349   0.000057  -0.000030  -0.000063   0.000000
              13         14         15         16         17
     1  P   -0.000064  -0.000145   0.000660  -0.000193   0.001346
     2  O    0.000002   0.000033   0.008048  -0.000519  -0.002921
     3  O    0.000003  -0.000049   0.000432  -0.000384   0.000538
     4  H   -0.000002  -0.000061  -0.000605  -0.000000   0.000758
     5  O    0.000000   0.000016   0.000225  -0.000015  -0.000288
     6  H   -0.000000  -0.000001  -0.000021  -0.000006   0.000160
     7  O    0.000057   0.000157  -0.000217   0.000034   0.000640
     8  H   -0.000168  -0.000724  -0.000163   0.000002   0.000349
     9  O   -0.000000  -0.000004   0.000492  -0.000200   0.000057
    10  H    0.000000   0.000010   0.000526  -0.000116  -0.000030
    11  H   -0.000000  -0.000001  -0.001696   0.000636  -0.000063
    12  O   -0.000601  -0.000592  -0.000000   0.000000   0.000000
    13  H    0.000440   0.000147  -0.000000  -0.000000  -0.000000
    14  H    0.000147   0.000530   0.000001  -0.000000  -0.000000
    15  O   -0.000000   0.000001   0.010655  -0.002727  -0.006699
    16  H   -0.000000  -0.000000  -0.002727   0.002109  -0.000260
    17  H   -0.000000  -0.000000  -0.006699  -0.000260   0.010002
 Mulliken charges:
               1
     1  P    1.232834
     2  O   -0.599715
     3  O   -0.525774
     4  H    0.309743
     5  O   -0.479476
     6  H    0.300659
     7  O   -0.527924
     8  H    0.300824
     9  O   -0.000553
    10  H   -0.000763
    11  H    0.001050
    12  O   -0.000914
    13  H    0.000186
    14  H    0.000682
    15  O   -0.008909
    16  H    0.001639
    17  H   -0.003588
 Sum of Mulliken charges =  -0.00000
 Mulliken charges with hydrogens summed into heavy atoms:
               1
     1  P    1.232834
     2  O   -0.599715
     3  O   -0.216031
     5  O   -0.178817
     7  O   -0.227100
     9  O   -0.000266
    12  O   -0.000046
    15  O   -0.010858
         Mulliken charges condensed to fragments:
      1      0.011170
      2     -0.000266
      3     -0.000046
      4     -0.010858
 Electronic spatial extent (au):  <R**2>=          44397.1836
 Charge=              0.0000 electrons
 Dipole moment (field-independent basis, Debye):
    X=              5.1203    Y=             -0.5601    Z=              3.3011  Tot=              6.1179
 Quadrupole moment (field-independent basis, Debye-Ang):
   XX=             67.5541   YY=            -48.2222   ZZ=             20.2644
   XY=             42.2097   XZ=             71.1797   YZ=             26.5319
 Traceless Quadrupole moment (field-independent basis, Debye-Ang):
   XX=             54.3553   YY=            -61.4210   ZZ=              7.0657
   XY=             42.2097   XZ=             71.1797   YZ=             26.5319
 Octapole moment (field-independent basis, Debye-Ang**2):
  XXX=            457.1528  YYY=          -1205.6238  ZZZ=            -46.3163  XYY=            -53.3340
  XXY=            573.6927  XXZ=            842.0806  XZZ=            486.8921  YZZ=            155.0470
  YYZ=            -55.6162  XYZ=            622.1557
 Hexadecapole moment (field-independent basis, Debye-Ang**3):
 XXXX=          -1952.3150 YYYY=         -21789.4576 ZZZZ=          -2847.2797 XXXY=           3676.0410
 XXXZ=           6959.4545 YYYX=          -8379.1221 YYYZ=          -5821.0975 ZZZX=           1665.1551
 ZZZY=           -712.2794 XXYY=            633.9121 XXZZ=           5863.5334 YYZZ=           -745.8015
 XXYZ=           7436.2747 YYXZ=           2661.1262 ZZXY=           4210.7983
 N-N= 2.799159030591D+02 E-N=-2.087445793538D+03  KE= 6.424846625495D+02
 No NMR shielding tensors so no spin-rotation constants.
 Leave Link  601 at Mon Feb 20 08:51:39 2023, MaxMem=  6710886400 cpu:               2.3 elap:               0.1
 (Enter /data0/home/software/g16/l122.exe)
 CPIOFr:  IOpCl= 0 IRwI=-1 IRwCP=  731 ICalc=  1 LCPTot=      120517 Len1MO=      315166 IndFrg=      750849
 Counterpoise: doing calculation for fragment   2 using the basis set of the full-system, NewBq=T
 Leave Link  122 at Mon Feb 20 08:51:39 2023, MaxMem=  6710886400 cpu:               0.1 elap:               0.0
 (Enter /data0/home/software/g16/l301.exe)
 Basis read from rwf:  (5D, 7F)
 No pseudopotential information found on rwf file.
   278 basis functions,   422 primitive gaussians,   294 cartesian basis functions
     5 alpha electrons        5 beta electrons
       nuclear repulsion energy         9.1239410491 Hartrees.
 IExCor= 4336 DFT=T Ex+Corr=M062X ExCW=0 ScaHFX=  0.540000
 ScaDFX=  1.000000  1.000000  1.000000  1.000000 ScalE2=  1.000000  1.000000
 IRadAn=      5 IRanWt=     -1 IRanGd=            0 ICorTp=0 IEmpDi=131
 NAtoms=   17 NActive=   17 NUniq=   17 SFac= 1.00D+00 NAtFMM=   60 NAOKFM=F Big=F
 Integral buffers will be    131072 words long.
 Raffenetti 2 integral format.
 Two-electron integral symmetry is turned off.
 R6Disp:  Grimme-D3 Dispersion energy=       -0.0000000079 Hartrees.
 Nuclear repulsion after empirical dispersion term =        9.1239410412 Hartrees.
 No density basis found on file   718.
 Leave Link  301 at Mon Feb 20 08:51:39 2023, MaxMem=  6710886400 cpu:               1.3 elap:               0.1
 (Enter /data0/home/software/g16/l302.exe)
 NPDir=0 NMtPBC=     1 NCelOv=     1 NCel=       1 NClECP=     1 NCelD=      1
         NCelK=      1 NCelE2=     1 NClLst=     1 CellRange=     0.0.
 One-electron integrals computed using PRISM.
 NBasis=   278 RedAO= T EigKep=  4.97D-04  NBF=   278
 NBsUse=   278 1.00D-06 EigRej= -1.00D+00 NBFU=   278
 Precomputing XC quadrature grid using
 IXCGrd= 4 IRadAn=           5 IRanWt=          -1 IRanGd=           0 AccXCQ= 0.00D+00.
 Generated NRdTot=       0 NPtTot=           0 NUsed=           0 NTot=          32
 NSgBfM=   290   286   286   287   290 MxSgAt=    17 MxSgA2=    17.
 Leave Link  302 at Mon Feb 20 08:51:40 2023, MaxMem=  6710886400 cpu:               4.3 elap:               0.2
 (Enter /data0/home/software/g16/l303.exe)
 DipDrv:  MaxL=1.
 Leave Link  303 at Mon Feb 20 08:51:40 2023, MaxMem=  6710886400 cpu:               0.7 elap:               0.0
 (Enter /data0/home/software/g16/l401.exe)
 ExpMin= 3.48D-02 ExpMax= 7.75D+04 ExpMxC= 2.65D+03 IAcc=3 IRadAn=         5 AccDes= 0.00D+00
 Harris functional with IExCor= 1009 and IRadAn=       5 diagonalized for initial guess.
 HarFok:  IExCor= 1009 AccDes= 0.00D+00 IRadAn=         5 IDoV= 1 UseB2=F ITyADJ=14
 ICtDFT=  3500011 ScaDFX=  1.000000  1.000000  1.000000  1.000000
 FoFCou: FMM=F IPFlag=           0 FMFlag=      100000 FMFlg1=           0
         NFxFlg=           0 DoJE=T BraDBF=F KetDBF=T FulRan=T
         wScrn=  0.000000 ICntrl=       500 IOpCl=  0 I1Cent=   200000004 NGrid=           0
         NMat0=    1 NMatS0=      1 NMatT0=    0 NMatD0=    1 NMtDS0=    0 NMtDT0=    0
 Symmetry not used in FoFCou.
 Harris En= -76.4173242114794    
 JPrj=0 DoOrth=F DoCkMO=F.
 Leave Link  401 at Mon Feb 20 08:51:40 2023, MaxMem=  6710886400 cpu:              11.4 elap:               0.5
 (Enter /data0/home/software/g16/l502.exe)
 Two-electron integral symmetry not used.
 Closed shell SCF:
 Using DIIS extrapolation, IDIIS=  1040.
 NGot=  6710886400 LenX=  6710704303 LenY=  6710617426
 Requested convergence on RMS density matrix=1.00D-08 within 128 cycles.
 Requested convergence on MAX density matrix=1.00D-06.
 Requested convergence on             energy=1.00D-06.
 No special actions if energy rises.
 Fock matrices will be formed incrementally for  20 cycles.

 Cycle   1  Pass 1  IDiag  1:
 FoFJK:  IHMeth= 1 ICntrl=       0 DoSepK=F KAlg= 0 I1Cent=           0 FoldK=F
 IRaf= 830000000 NMat=       1 IRICut=       1 DoRegI=T DoRafI=F ISym2E= 0 IDoP0=0 IntGTp=1.
 FoFCou: FMM=F IPFlag=           0 FMFlag=      100000 FMFlg1=           0
         NFxFlg=           0 DoJE=F BraDBF=F KetDBF=F FulRan=T
         wScrn=  0.000000 ICntrl=         0 IOpCl=  0 I1Cent=           0 NGrid=           0
         NMat0=    1 NMatS0=      1 NMatT0=    0 NMatD0=    1 NMtDS0=    0 NMtDT0=    0
 Symmetry not used in FoFCou.
 E= -76.3467295220044    
 DIIS: error= 3.31D-02 at cycle   1 NSaved=   1.
 NSaved= 1 IEnMin= 1 EnMin= -76.3467295220044     IErMin= 1 ErrMin= 3.31D-02
 ErrMax= 3.31D-02  0.00D+00 EMaxC= 1.00D-01 BMatC= 1.21D-01 BMatP= 1.21D-01
 IDIUse=3 WtCom= 6.69D-01 WtEn= 3.31D-01
 Coeff-Com:  0.100D+01
 Coeff-En:   0.100D+01
 Coeff:      0.100D+01
 Gap=     0.269 Goal=   None    Shift=    0.000
 GapD=    0.269 DampG=1.000 DampE=0.500 DampFc=0.5000 IDamp=-1.
 Damping current iteration by 5.00D-01
 RMSDP=1.34D-03 MaxDP=1.00D-01              OVMax= 1.71D-01

 Cycle   2  Pass 1  IDiag  1:
 RMSU=  6.57D-04    CP:  9.67D-01
 E= -76.3780986478063     Delta-E=       -0.031369125802 Rises=F Damp=T
 DIIS: error= 4.58D-03 at cycle   2 NSaved=   2.
 NSaved= 2 IEnMin= 2 EnMin= -76.3780986478063     IErMin= 2 ErrMin= 4.58D-03
 ErrMax= 4.58D-03  0.00D+00 EMaxC= 1.00D-01 BMatC= 4.90D-03 BMatP= 1.21D-01
 IDIUse=3 WtCom= 9.54D-01 WtEn= 4.58D-02
 Coeff-Com:  0.832D-01 0.917D+00
 Coeff-En:   0.190D+00 0.810D+00
 Coeff:      0.881D-01 0.912D+00
 Gap=     0.394 Goal=   None    Shift=    0.000
 RMSDP=1.92D-04 MaxDP=1.44D-02 DE=-3.14D-02 OVMax= 1.03D-01

 Cycle   3  Pass 1  IDiag  1:
 RMSU=  1.49D-04    CP:  9.77D-01  8.27D-01
 E= -76.4222993574993     Delta-E=       -0.044200709693 Rises=F Damp=F
 DIIS: error= 1.21D-03 at cycle   3 NSaved=   3.
 NSaved= 3 IEnMin= 3 EnMin= -76.4222993574993     IErMin= 3 ErrMin= 1.21D-03
 ErrMax= 1.21D-03  0.00D+00 EMaxC= 1.00D-01 BMatC= 1.63D-04 BMatP= 4.90D-03
 IDIUse=3 WtCom= 9.88D-01 WtEn= 1.21D-02
 Coeff-Com: -0.286D-01 0.544D-01 0.974D+00
 Coeff-En:   0.000D+00 0.000D+00 0.100D+01
 Coeff:     -0.283D-01 0.537D-01 0.975D+00
 Gap=     0.396 Goal=   None    Shift=    0.000
 RMSDP=2.57D-05 MaxDP=1.31D-03 DE=-4.42D-02 OVMax= 3.99D-03

 Cycle   4  Pass 1  IDiag  1:
 RMSU=  1.62D-05    CP:  9.75D-01  8.48D-01  1.09D+00
 E= -76.4224282676767     Delta-E=       -0.000128910177 Rises=F Damp=F
 DIIS: error= 1.72D-04 at cycle   4 NSaved=   4.
 NSaved= 4 IEnMin= 4 EnMin= -76.4224282676767     IErMin= 4 ErrMin= 1.72D-04
 ErrMax= 1.72D-04  0.00D+00 EMaxC= 1.00D-01 BMatC= 2.87D-06 BMatP= 1.63D-04
 IDIUse=3 WtCom= 9.98D-01 WtEn= 1.72D-03
 Coeff-Com: -0.329D-02 0.829D-03 0.152D+00 0.851D+00
 Coeff-En:   0.000D+00 0.000D+00 0.000D+00 0.100D+01
 Coeff:     -0.328D-02 0.828D-03 0.152D+00 0.851D+00
 Gap=     0.396 Goal=   None    Shift=    0.000
 RMSDP=3.66D-06 MaxDP=3.26D-04 DE=-1.29D-04 OVMax= 5.10D-04

 Cycle   5  Pass 1  IDiag  1:
 RMSU=  2.75D-06    CP:  9.76D-01  8.47D-01  1.10D+00  1.06D+00
 E= -76.4224300550058     Delta-E=       -0.000001787329 Rises=F Damp=F
 DIIS: error= 3.78D-05 at cycle   5 NSaved=   5.
 NSaved= 5 IEnMin= 5 EnMin= -76.4224300550058     IErMin= 5 ErrMin= 3.78D-05
 ErrMax= 3.78D-05  0.00D+00 EMaxC= 1.00D-01 BMatC= 7.82D-08 BMatP= 2.87D-06
 IDIUse=1 WtCom= 1.00D+00 WtEn= 0.00D+00
 Coeff-Com:  0.150D-02-0.236D-02-0.363D-01-0.562D-01 0.109D+01
 Coeff:      0.150D-02-0.236D-02-0.363D-01-0.562D-01 0.109D+01
 Gap=     0.396 Goal=   None    Shift=    0.000
 RMSDP=2.20D-06 MaxDP=9.45D-05 DE=-1.79D-06 OVMax= 2.03D-04

 Cycle   6  Pass 1  IDiag  1:
 RMSU=  8.50D-07    CP:  9.76D-01  8.45D-01  1.11D+00  1.14D+00  1.17D+00
 E= -76.4224301865732     Delta-E=       -0.000000131567 Rises=F Damp=F
 DIIS: error= 2.34D-06 at cycle   6 NSaved=   6.
 NSaved= 6 IEnMin= 6 EnMin= -76.4224301865732     IErMin= 6 ErrMin= 2.34D-06
 ErrMax= 2.34D-06  0.00D+00 EMaxC= 1.00D-01 BMatC= 1.55D-09 BMatP= 7.82D-08
 IDIUse=1 WtCom= 1.00D+00 WtEn= 0.00D+00
 Coeff-Com: -0.279D-03 0.393D-03 0.385D-02-0.372D-02-0.166D+00 0.117D+01
 Coeff:     -0.279D-03 0.393D-03 0.385D-02-0.372D-02-0.166D+00 0.117D+01
 Gap=     0.396 Goal=   None    Shift=    0.000
 RMSDP=2.93D-07 MaxDP=1.93D-05 DE=-1.32D-07 OVMax= 3.78D-05

 Cycle   7  Pass 1  IDiag  1:
 RMSU=  8.25D-08    CP:  9.76D-01  8.45D-01  1.11D+00  1.15D+00  1.20D+00
                    CP:  1.22D+00
 E= -76.4224301897646     Delta-E=       -0.000000003191 Rises=F Damp=F
 DIIS: error= 4.60D-07 at cycle   7 NSaved=   7.
 NSaved= 7 IEnMin= 7 EnMin= -76.4224301897646     IErMin= 7 ErrMin= 4.60D-07
 ErrMax= 4.60D-07  0.00D+00 EMaxC= 1.00D-01 BMatC= 1.85D-11 BMatP= 1.55D-09
 IDIUse=1 WtCom= 1.00D+00 WtEn= 0.00D+00
 Coeff-Com:  0.304D-04-0.247D-04-0.369D-03 0.158D-02 0.594D-02-0.148D+00
 Coeff-Com:  0.114D+01
 Coeff:      0.304D-04-0.247D-04-0.369D-03 0.158D-02 0.594D-02-0.148D+00
 Coeff:      0.114D+01
 Gap=     0.396 Goal=   None    Shift=    0.000
 RMSDP=3.50D-08 MaxDP=2.33D-06 DE=-3.19D-09 OVMax= 4.90D-06

 Cycle   8  Pass 1  IDiag  1:
 RMSU=  1.37D-08    CP:  9.76D-01  8.45D-01  1.11D+00  1.15D+00  1.20D+00
                    CP:  1.24D+00  1.17D+00
 E= -76.4224301898079     Delta-E=       -0.000000000043 Rises=F Damp=F
 DIIS: error= 7.06D-08 at cycle   8 NSaved=   8.
 NSaved= 8 IEnMin= 8 EnMin= -76.4224301898079     IErMin= 8 ErrMin= 7.06D-08
 ErrMax= 7.06D-08  0.00D+00 EMaxC= 1.00D-01 BMatC= 6.75D-13 BMatP= 1.85D-11
 IDIUse=1 WtCom= 1.00D+00 WtEn= 0.00D+00
 Coeff-Com:  0.788D-05-0.110D-04-0.751D-04 0.262D-03 0.362D-02-0.332D-01
 Coeff-Com:  0.675D-01 0.962D+00
 Coeff:      0.788D-05-0.110D-04-0.751D-04 0.262D-03 0.362D-02-0.332D-01
 Coeff:      0.675D-01 0.962D+00
 Gap=     0.396 Goal=   None    Shift=    0.000
 RMSDP=3.39D-09 MaxDP=1.25D-07 DE=-4.32D-11 OVMax= 4.75D-07

 SCF Done:  E(RM062X) =  -76.4224301898     A.U. after    8 cycles
            NFock=  8  Conv=0.34D-08     -V/T= 2.0029
 KE= 7.619865614492D+01 PE=-1.990985444737D+02 EE= 3.735351709778D+01
 Leave Link  502 at Mon Feb 20 08:51:48 2023, MaxMem=  6710886400 cpu:             187.0 elap:               7.8
 (Enter /data0/home/software/g16/l601.exe)
 Copying SCF densities to generalized density rwf, IOpCl= 0 IROHF=0.

 **********************************************************************

            Population analysis using the SCF density.

 **********************************************************************

 Alpha  occ. eigenvalues --  -19.62571  -1.13401  -0.61014  -0.47413  -0.40006
 Alpha virt. eigenvalues --   -0.00368   0.03563   0.04142   0.04682   0.08090
 Alpha virt. eigenvalues --    0.09581   0.10812   0.12440   0.13320   0.14696
 Alpha virt. eigenvalues --    0.15294   0.15590   0.17079   0.17219   0.18126
 Alpha virt. eigenvalues --    0.19538   0.19899   0.20191   0.20698   0.21561
 Alpha virt. eigenvalues --    0.21668   0.22853   0.24025   0.24637   0.25428
 Alpha virt. eigenvalues --    0.27239   0.27648   0.27956   0.29772   0.30348
 Alpha virt. eigenvalues --    0.31176   0.31533   0.32972   0.34287   0.34864
 Alpha virt. eigenvalues --    0.36341   0.37414   0.38258   0.38644   0.40942
 Alpha virt. eigenvalues --    0.41977   0.42554   0.45491   0.47422   0.47812
 Alpha virt. eigenvalues --    0.56714   0.58599   0.60062   0.64649   0.69327
 Alpha virt. eigenvalues --    0.71671   0.72470   0.72954   0.73957   0.74970
 Alpha virt. eigenvalues --    0.75216   0.76455   0.79989   0.80189   0.81339
 Alpha virt. eigenvalues --    0.81477   0.83167   0.85094   0.85562   0.87415
 Alpha virt. eigenvalues --    0.90552   0.92283   0.95809   0.97077   0.98119
 Alpha virt. eigenvalues --    1.01116   1.02787   1.04660   1.05667   1.06946
 Alpha virt. eigenvalues --    1.07587   1.09021   1.11304   1.14197   1.14586
 Alpha virt. eigenvalues --    1.16147   1.20001   1.20494   1.21831   1.23953
 Alpha virt. eigenvalues --    1.26724   1.29372   1.31531   1.35180   1.37704
 Alpha virt. eigenvalues --    1.43189   1.45578   1.47494   1.56554   1.68128
 Alpha virt. eigenvalues --    1.74203   1.76635   1.78480   1.82124   1.85674
 Alpha virt. eigenvalues --    1.87213   1.89387   1.93586   1.96711   1.98731
 Alpha virt. eigenvalues --    1.99256   2.04520   2.05853   2.08302   2.08859
 Alpha virt. eigenvalues --    2.19056   2.21838   2.22324   2.25517   2.29843
 Alpha virt. eigenvalues --    2.30593   2.31011   2.31817   2.32828   2.36280
 Alpha virt. eigenvalues --    2.39405   2.42042   2.43089   2.44190   2.47353
 Alpha virt. eigenvalues --    2.50714   2.51980   2.53293   2.55153   2.56565
 Alpha virt. eigenvalues --    2.57398   2.59489   2.60379   2.60553   2.61928
 Alpha virt. eigenvalues --    2.63133   2.63416   2.66250   2.68634   2.68711
 Alpha virt. eigenvalues --    2.69762   2.70418   2.73823   2.74106   2.75884
 Alpha virt. eigenvalues --    2.76117   2.78571   2.79726   2.82450   2.86865
 Alpha virt. eigenvalues --    2.87409   2.89264   2.91950   2.92952   2.97459
 Alpha virt. eigenvalues --    2.98393   2.98835   3.01284   3.01679   3.02753
 Alpha virt. eigenvalues --    3.05371   3.06397   3.09715   3.10364   3.13516
 Alpha virt. eigenvalues --    3.15686   3.19947   3.24272   3.27308   3.29075
 Alpha virt. eigenvalues --    3.32631   3.34590   3.37879   3.45593   3.50169
 Alpha virt. eigenvalues --    3.51674   3.59662   3.67511   3.70326   3.72337
 Alpha virt. eigenvalues --    3.80309   3.83452   4.42773   4.50135   4.56413
 Alpha virt. eigenvalues --    4.57890   4.61530   4.64486   4.66793   4.75508
 Alpha virt. eigenvalues --    4.94964   4.97898   5.05121   5.06922   5.13980
 Alpha virt. eigenvalues --    5.27547   5.49638   5.98230   6.78437   6.80677
 Alpha virt. eigenvalues --    6.89846   6.92082   7.13387   9.80033   9.81079
 Alpha virt. eigenvalues --    9.92026   9.95024  10.08964  10.12820  10.17031
 Alpha virt. eigenvalues --   10.19278  10.23506  10.24290  10.25329  10.26125
 Alpha virt. eigenvalues --   10.29131  10.30537  10.32455  10.33449  10.34202
 Alpha virt. eigenvalues --   10.40605  10.41260  10.42268  10.42847  10.47113
 Alpha virt. eigenvalues --   10.51102  10.53730  10.55934  10.56353  10.58990
 Alpha virt. eigenvalues --   10.72031  10.73647  10.77303  10.79801  10.86217
 Alpha virt. eigenvalues --   10.91486  12.90768  13.26326  13.33155  13.38225
 Alpha virt. eigenvalues --   13.39729  13.40100  13.45578  13.47999  13.50436
 Alpha virt. eigenvalues --   13.55208  13.63990  13.72524  13.77003  13.78003
 Alpha virt. eigenvalues --   13.78921  13.91735  13.97256  14.30551  14.38081
 Alpha virt. eigenvalues --   17.70282  18.35169  18.39344  18.48691  18.54145
 Alpha virt. eigenvalues --   18.55438  49.99513  53.36291  53.39463  53.49063
 Alpha virt. eigenvalues --   71.27274 136.05433 139.18985 139.65722 139.75217
 Alpha virt. eigenvalues --  139.78089 139.78625 485.09823
          Condensed to atoms (all electrons):
               1          2          3          4          5          6
     1  P    0.014395  -0.005391  -0.001889  -0.000245  -0.005416  -0.000215
     2  O   -0.005391   0.005908   0.000939   0.000129  -0.000393  -0.000032
     3  O   -0.001889   0.000939   0.000980   0.000136  -0.000191   0.000029
     4  H   -0.000245   0.000129   0.000136   0.000082   0.000049  -0.000006
     5  O   -0.005416  -0.000393  -0.000191   0.000049   0.006355   0.000066
     6  H   -0.000215  -0.000032   0.000029  -0.000006   0.000066   0.000046
     7  O   -0.001481   0.000014   0.000101  -0.000082  -0.000371   0.000108
     8  H   -0.000181   0.000021   0.000015  -0.000025  -0.000242   0.000002
     9  O    0.001906  -0.000899   0.001219   0.000493   0.000156  -0.000001
    10  H    0.000797  -0.000033   0.000463   0.000360   0.000027   0.000000
    11  H    0.000428  -0.000621  -0.000081  -0.000005   0.000009   0.000000
    12  O    0.000001  -0.000000  -0.000001  -0.000001  -0.000001   0.000000
    13  H   -0.000005   0.000000   0.000000   0.000000  -0.000000  -0.000000
    14  H    0.000004   0.000001   0.000001   0.000002   0.000002  -0.000000
    15  O   -0.006824   0.005878   0.001610   0.000210   0.000203  -0.000012
    16  H    0.001826  -0.001454  -0.000412  -0.000036  -0.000036   0.000002
    17  H    0.005375  -0.005675  -0.001021  -0.000115   0.000074   0.000011
               7          8          9         10         11         12
     1  P   -0.001481  -0.000181   0.001906   0.000797   0.000428   0.000001
     2  O    0.000014   0.000021  -0.000899  -0.000033  -0.000621  -0.000000
     3  O    0.000101   0.000015   0.001219   0.000463  -0.000081  -0.000001
     4  H   -0.000082  -0.000025   0.000493   0.000360  -0.000005  -0.000001
     5  O   -0.000371  -0.000242   0.000156   0.000027   0.000009  -0.000001
     6  H    0.000108   0.000002  -0.000001   0.000000   0.000000   0.000000
     7  O    0.001482   0.000191  -0.000246  -0.000104   0.000004  -0.000004
     8  H    0.000191   0.000205  -0.000091  -0.000044   0.000001   0.000015
     9  O   -0.000246  -0.000091   7.962876   0.320975   0.307037  -0.000005
    10  H   -0.000104  -0.000044   0.320975   0.420515  -0.026471  -0.000002
    11  H    0.000004   0.000001   0.307037  -0.026471   0.349540   0.000000
    12  O   -0.000004   0.000015  -0.000005  -0.000002   0.000000   0.000069
    13  H    0.000002  -0.000000  -0.000000  -0.000000  -0.000000  -0.000019
    14  H    0.000003  -0.000027   0.000005   0.000003  -0.000000  -0.000061
    15  O   -0.000114  -0.000021   0.025513   0.001161   0.010590  -0.000000
    16  H    0.000010   0.000001  -0.005421  -0.000216  -0.001172   0.000000
    17  H    0.000032   0.000002  -0.002860  -0.000190  -0.000597   0.000000
              13         14         15         16         17
     1  P   -0.000005   0.000004  -0.006824   0.001826   0.005375
     2  O    0.000000   0.000001   0.005878  -0.001454  -0.005675
     3  O    0.000000   0.000001   0.001610  -0.000412  -0.001021
     4  H    0.000000   0.000002   0.000210  -0.000036  -0.000115
     5  O   -0.000000   0.000002   0.000203  -0.000036   0.000074
     6  H   -0.000000  -0.000000  -0.000012   0.000002   0.000011
     7  O    0.000002   0.000003  -0.000114   0.000010   0.000032
     8  H   -0.000000  -0.000027  -0.000021   0.000001   0.000002
     9  O   -0.000000   0.000005   0.025513  -0.005421  -0.002860
    10  H   -0.000000   0.000003   0.001161  -0.000216  -0.000190
[...]

 **********************************************************************

 Alpha  occ. eigenvalues --  -19.62619  -1.13103  -0.60748  -0.47242  -0.39921
 Alpha virt. eigenvalues --    0.06153   0.13245   0.17398   0.17958   0.18969
 Alpha virt. eigenvalues --    0.23226   0.50026   0.53907   0.97754   1.00486
 Alpha virt. eigenvalues --    1.06031   1.19279   1.19577   1.32709   1.34079
 Alpha virt. eigenvalues --    1.68563   1.73504   1.75948   2.06050   2.10108
 Alpha virt. eigenvalues --    2.34246   2.43075   2.53902   2.87383   3.01073
 Alpha virt. eigenvalues --    5.05683   5.45996   5.91921   6.78138   6.80436
 Alpha virt. eigenvalues --    6.86841   6.91418   7.10014  49.95611
          Condensed to atoms (all electrons):
              12         13         14
    12  O    7.920032   0.324661   0.316715
    13  H    0.324661   0.422571  -0.024357
    14  H    0.316715  -0.024357   0.423359
 Mulliken charges:
               1
     1  P    0.000000
     2  O    0.000000
     3  O    0.000000
     4  H    0.000000
     5  O    0.000000
     6  H    0.000000
     7  O    0.000000
     8  H    0.000000
     9  O    0.000000
    10  H    0.000000
    11  H    0.000000
    12  O   -0.561407
    13  H    0.277125
    14  H    0.284282
    15  O    0.000000
    16  H    0.000000
    17  H    0.000000
 Sum of Mulliken charges =   0.00000
 Mulliken charges with hydrogens summed into heavy atoms:
               1
     1  P    0.000000
     2  O    0.000000
     3  O    0.000000
     5  O    0.000000
     7  O    0.000000
     9  O    0.000000
    12  O    0.000000
    15  O    0.000000
         Mulliken charges condensed to fragments:
      1      0.000000
      2      0.000000
      3      0.000000
      4      0.000000
 Electronic spatial extent (au):  <R**2>=          15248.0868
 Charge=              0.0000 electrons
 Dipole moment (field-independent basis, Debye):
    X=              1.6085    Y=             -0.6145    Z=             -1.2087  Tot=              2.1038
 Quadrupole moment (field-independent basis, Debye-Ang):
   XX=             30.5167   YY=            -20.6227   ZZ=            -35.6376
   XY=             14.1892   XZ=              5.0802   YZ=            -21.3895
 Traceless Quadrupole moment (field-independent basis, Debye-Ang):
   XX=             39.0979   YY=            -12.0415   ZZ=            -27.0564
   XY=             14.1892   XZ=              5.0802   YZ=            -21.3895
 Octapole moment (field-independent basis, Debye-Ang**2):
  XXX=            418.0253  YYY=           -486.3983  ZZZ=           -757.9424  XYY=             44.0645
  XXY=            326.7721  XXZ=            199.8895  XZZ=           -184.9091  YZZ=           -508.5657
  YYZ=           -408.8299  XYZ=              4.7081
 Hexadecapole moment (field-independent basis, Debye-Ang**3):
 XXXX=           4791.7156 YYYY=          -9794.1025 ZZZZ=         -13953.3169 XXXY=           4752.1843
 XXXZ=           3082.3927 YYYX=          -1869.5240 YYYZ=          -7678.3624 ZZZX=          -6039.5358
 ZZZY=         -10094.1758 XXYY=           2729.5682 XXZZ=           -453.0312 YYZZ=          -7901.5244
 XXYZ=           1978.5314 YYXZ=          -1386.3941 ZZXY=          -2880.0903
 N-N= 9.061751859832D+00 E-N=-1.989699129490D+02  KE= 7.618005550632D+01
 No NMR shielding tensors so no spin-rotation constants.
 Leave Link  601 at Mon Feb 20 08:52:15 2023, MaxMem=  6710886400 cpu:               1.8 elap:               0.1
 (Enter /data0/home/software/g16/l122.exe)
 CPIOFr:  IOpCl= 0 IRwI=-1 IRwCP=  731 ICalc=  7 LCPTot=      120517 Len1MO=      315166 IndFrg=     2641845
 Counterpoise: doing calculation for fragment   4 using the basis set of the fragment.
 Leave Link  122 at Mon Feb 20 08:52:15 2023, MaxMem=  6710886400 cpu:               0.1 elap:               0.0
 (Enter /data0/home/software/g16/l301.exe)
 Basis read from rwf:  (5D, 7F)
 No pseudopotential information found on rwf file.
    39 basis functions,    58 primitive gaussians,    41 cartesian basis functions
     5 alpha electrons        5 beta electrons
       nuclear repulsion energy         9.1242575124 Hartrees.
 IExCor= 4336 DFT=T Ex+Corr=M062X ExCW=0 ScaHFX=  0.540000
 ScaDFX=  1.000000  1.000000  1.000000  1.000000 ScalE2=  1.000000  1.000000
 IRadAn=      5 IRanWt=     -1 IRanGd=            0 ICorTp=0 IEmpDi=131
 NAtoms=   17 NActive=    3 NUniq=    3 SFac= 1.00D+00 NAtFMM=   60 NAOKFM=F Big=F
 Integral buffers will be    131072 words long.
 Raffenetti 2 integral format.
 Two-electron integral symmetry is turned off.
 R6Disp:  Grimme-D3 Dispersion energy=       -0.0000000075 Hartrees.
 Nuclear repulsion after empirical dispersion term =        9.1242575049 Hartrees.
 No density basis found on file   718.
 Leave Link  301 at Mon Feb 20 08:52:16 2023, MaxMem=  6710886400 cpu:               1.2 elap:               0.1
 (Enter /data0/home/software/g16/l302.exe)
 NPDir=0 NMtPBC=     1 NCelOv=     1 NCel=       1 NClECP=     1 NCelD=      1
         NCelK=      1 NCelE2=     1 NClLst=     1 CellRange=     0.0.
 One-electron integrals computed using PRISM.
 NBasis=    39 RedAO= T EigKep=  3.01D-03  NBF=    39
 NBsUse=    39 1.00D-06 EigRej= -1.00D+00 NBFU=    39
 Precomputing XC quadrature grid using
 IXCGrd= 4 IRadAn=           5 IRanWt=          -1 IRanGd=           0 AccXCQ= 0.00D+00.
 Generated NRdTot=       0 NPtTot=           0 NUsed=           0 NTot=          32
 NSgBfM=    41    41    41    41    41 MxSgAt=     3 MxSgA2=     3.
 Leave Link  302 at Mon Feb 20 08:52:16 2023, MaxMem=  6710886400 cpu:               2.3 elap:               0.1
 (Enter /data0/home/software/g16/l303.exe)
 DipDrv:  MaxL=1.
 Leave Link  303 at Mon Feb 20 08:52:16 2023, MaxMem=  6710886400 cpu:               0.4 elap:               0.0
 (Enter /data0/home/software/g16/l401.exe)
 ExpMin= 8.45D-02 ExpMax= 8.59D+03 ExpMxC= 1.30D+03 IAcc=3 IRadAn=         5 AccDes= 0.00D+00
 Harris functional with IExCor= 1009 and IRadAn=       5 diagonalized for initial guess.
 HarFok:  IExCor= 1009 AccDes= 0.00D+00 IRadAn=         5 IDoV= 1 UseB2=F ITyADJ=14
 ICtDFT=  3500011 ScaDFX=  1.000000  1.000000  1.000000  1.000000
 FoFCou: FMM=F IPFlag=           0 FMFlag=      100000 FMFlg1=           0
         NFxFlg=           0 DoJE=T BraDBF=F KetDBF=T FulRan=T
         wScrn=  0.000000 ICntrl=       500 IOpCl=  0 I1Cent=   200000004 NGrid=           0
         NMat0=    1 NMatS0=      1 NMatT0=    0 NMatD0=    1 NMtDS0=    0 NMtDT0=    0
 Symmetry not used in FoFCou.
 Harris En= -76.4167491470890    
 JPrj=0 DoOrth=F DoCkMO=F.
 Leave Link  401 at Mon Feb 20 08:52:16 2023, MaxMem=  6710886400 cpu:               2.9 elap:               0.1
 (Enter /data0/home/software/g16/l502.exe)
 Keep R1 ints in memory in canonical form, NReq=21038482.
 FoFCou: FMM=F IPFlag=           0 FMFlag=           0 FMFlg1=           0
         NFxFlg=           0 DoJE=F BraDBF=F KetDBF=F FulRan=T
         wScrn=  0.000000 ICntrl=       600 IOpCl=  0 I1Cent=           0 NGrid=           0
         NMat0=    1 NMatS0=    780 NMatT0=    0 NMatD0=    1 NMtDS0=    0 NMtDT0=    0
 Symmetry not used in FoFCou.
 Two-electron integral symmetry not used.
 Closed shell SCF:
 Using DIIS extrapolation, IDIIS=  1040.
 NGot=  6710886400 LenX=  6710576560 LenY=  6710574438
 Requested convergence on RMS density matrix=1.00D-08 within 128 cycles.
 Requested convergence on MAX density matrix=1.00D-06.
 Requested convergence on             energy=1.00D-06.
 No special actions if energy rises.
 Integral accuracy reduced to 1.0D-05 until final iterations.

 Cycle   1  Pass 0  IDiag  1:
 E= -76.3462015995641    
 DIIS: error= 7.04D-02 at cycle   1 NSaved=   1.
 NSaved= 1 IEnMin= 1 EnMin= -76.3462015995641     IErMin= 1 ErrMin= 7.04D-02
 ErrMax= 7.04D-02  0.00D+00 EMaxC= 1.00D-01 BMatC= 1.21D-01 BMatP= 1.21D-01
 IDIUse=3 WtCom= 2.96D-01 WtEn= 7.04D-01
 Coeff-Com:  0.100D+01
 Coeff-En:   0.100D+01
 Coeff:      0.100D+01
 Gap=     0.325 Goal=   None    Shift=    0.000
 GapD=    0.325 DampG=1.000 DampE=0.500 DampFc=0.5000 IDamp=-1.
 Damping current iteration by 5.00D-01
 RMSDP=7.92D-03 MaxDP=1.01D-01              OVMax= 1.68D-01

 Cycle   2  Pass 0  IDiag  1:
 E= -76.3777999574491     Delta-E=       -0.031598357885 Rises=F Damp=T
 DIIS: error= 1.15D-02 at cycle   2 NSaved=   2.
 NSaved= 2 IEnMin= 2 EnMin= -76.3777999574491     IErMin= 2 ErrMin= 1.15D-02
 ErrMax= 1.15D-02  0.00D+00 EMaxC= 1.00D-01 BMatC= 4.80D-03 BMatP= 1.21D-01
 IDIUse=3 WtCom= 8.85D-01 WtEn= 1.15D-01
 Coeff-Com:  0.812D-01 0.919D+00
 Coeff-En:   0.186D+00 0.814D+00
 Coeff:      0.932D-01 0.907D+00
 Gap=     0.458 Goal=   None    Shift=    0.000
 RMSDP=9.37D-04 MaxDP=1.39D-02 DE=-3.16D-02 OVMax= 1.00D-01

 Cycle   3  Pass 0  IDiag  1:
 E= -76.4217779438815     Delta-E=       -0.043977986432 Rises=F Damp=F
 DIIS: error= 2.16D-03 at cycle   3 NSaved=   3.
 NSaved= 3 IEnMin= 3 EnMin= -76.4217779438815     IErMin= 3 ErrMin= 2.16D-03
 ErrMax= 2.16D-03  0.00D+00 EMaxC= 1.00D-01 BMatC= 9.03D-05 BMatP= 4.80D-03
 IDIUse=3 WtCom= 9.78D-01 WtEn= 2.16D-02
 Coeff-Com: -0.199D-01 0.392D-01 0.981D+00
 Coeff-En:   0.000D+00 0.000D+00 0.100D+01
 Coeff:     -0.195D-01 0.383D-01 0.981D+00
 Gap=     0.462 Goal=   None    Shift=    0.000
 RMSDP=1.14D-04 MaxDP=1.02D-03 DE=-4.40D-02 OVMax= 3.29D-03

 Cycle   4  Pass 0  IDiag  1:
 E= -76.4218548841873     Delta-E=       -0.000076940306 Rises=F Damp=F
 DIIS: error= 4.09D-04 at cycle   4 NSaved=   4.
 NSaved= 4 IEnMin= 4 EnMin= -76.4218548841873     IErMin= 4 ErrMin= 4.09D-04
 ErrMax= 4.09D-04  0.00D+00 EMaxC= 1.00D-01 BMatC= 3.24D-06 BMatP= 9.03D-05
 IDIUse=3 WtCom= 9.96D-01 WtEn= 4.09D-03
 Coeff-Com: -0.186D-02-0.222D-02 0.162D+00 0.843D+00
 Coeff-En:   0.000D+00 0.000D+00 0.000D+00 0.100D+01
 Coeff:     -0.185D-02-0.221D-02 0.161D+00 0.843D+00
 Gap=     0.463 Goal=   None    Shift=    0.000
 RMSDP=2.20D-05 MaxDP=3.52D-04 DE=-7.69D-05 OVMax= 5.30D-04

 Cycle   5  Pass 0  IDiag  1:
 E= -76.4218568819274     Delta-E=       -0.000001997740 Rises=F Damp=F
 DIIS: error= 8.77D-05 at cycle   5 NSaved=   5.
 NSaved= 5 IEnMin= 5 EnMin= -76.4218568819274     IErMin= 5 ErrMin= 8.77D-05
 ErrMax= 8.77D-05  0.00D+00 EMaxC= 1.00D-01 BMatC= 8.12D-08 BMatP= 3.24D-06
 IDIUse=1 WtCom= 1.00D+00 WtEn= 0.00D+00
 Coeff-Com:  0.117D-02-0.178D-02-0.363D-01-0.636D-01 0.110D+01
 Coeff:      0.117D-02-0.178D-02-0.363D-01-0.636D-01 0.110D+01
 Gap=     0.463 Goal=   None    Shift=    0.000
 RMSDP=8.87D-06 MaxDP=1.02D-04 DE=-2.00D-06 OVMax= 1.99D-04

 Initial convergence to 1.0D-05 achieved.  Increase integral accuracy.
 Cycle   6  Pass 1  IDiag  1:
 E= -76.4218595964224     Delta-E=       -0.000002714495 Rises=F Damp=F
 DIIS: error= 3.12D-05 at cycle   1 NSaved=   1.
 NSaved= 1 IEnMin= 1 EnMin= -76.4218595964224     IErMin= 1 ErrMin= 3.12D-05
 ErrMax= 3.12D-05  0.00D+00 EMaxC= 1.00D-01 BMatC= 1.66D-08 BMatP= 1.66D-08
 IDIUse=1 WtCom= 1.00D+00 WtEn= 0.00D+00
 Coeff-Com:  0.100D+01
 Coeff:      0.100D+01
 Gap=     0.463 Goal=   None    Shift=    0.000
 RMSDP=8.87D-06 MaxDP=1.02D-04 DE=-2.71D-06 OVMax= 3.35D-05

 Cycle   7  Pass 1  IDiag  1:
 E= -76.4218596094445     Delta-E=       -0.000000013022 Rises=F Damp=F
 DIIS: error= 8.18D-06 at cycle   2 NSaved=   2.
 NSaved= 2 IEnMin= 2 EnMin= -76.4218596094445     IErMin= 2 ErrMin= 8.18D-06
 ErrMax= 8.18D-06  0.00D+00 EMaxC= 1.00D-01 BMatC= 9.79D-10 BMatP= 1.66D-08
 IDIUse=1 WtCom= 1.00D+00 WtEn= 0.00D+00
 Coeff-Com:  0.234D-01 0.977D+00
 Coeff:      0.234D-01 0.977D+00
 Gap=     0.463 Goal=   None    Shift=    0.000
 RMSDP=6.90D-07 MaxDP=1.02D-05 DE=-1.30D-08 OVMax= 1.90D-05

 Cycle   8  Pass 1  IDiag  1:
 E= -76.4218596095743     Delta-E=       -0.000000000130 Rises=F Damp=F
 DIIS: error= 6.51D-06 at cycle   3 NSaved=   3.
 NSaved= 3 IEnMin= 3 EnMin= -76.4218596095743     IErMin= 3 ErrMin= 6.51D-06
 ErrMax= 6.51D-06  0.00D+00 EMaxC= 1.00D-01 BMatC= 1.03D-09 BMatP= 9.79D-10
 IDIUse=1 WtCom= 1.00D+00 WtEn= 0.00D+00
 Coeff-Com: -0.483D-01 0.527D+00 0.522D+00
 Coeff:     -0.483D-01 0.527D+00 0.522D+00
 Gap=     0.463 Goal=   None    Shift=    0.000
 RMSDP=3.56D-07 MaxDP=5.13D-06 DE=-1.30D-10 OVMax= 7.72D-06

 Cycle   9  Pass 1  IDiag  1:
 E= -76.4218596102475     Delta-E=       -0.000000000673 Rises=F Damp=F
 DIIS: error= 4.98D-07 at cycle   4 NSaved=   4.
 NSaved= 4 IEnMin= 4 EnMin= -76.4218596102475     IErMin= 4 ErrMin= 4.98D-07
 ErrMax= 4.98D-07  0.00D+00 EMaxC= 1.00D-01 BMatC= 2.62D-12 BMatP= 9.79D-10
 IDIUse=1 WtCom= 1.00D+00 WtEn= 0.00D+00
 Coeff-Com:  0.600D-02-0.100D+00-0.619D-01 0.116D+01
 Coeff:      0.600D-02-0.100D+00-0.619D-01 0.116D+01
 Gap=     0.463 Goal=   None    Shift=    0.000
 RMSDP=7.54D-08 MaxDP=6.24D-07 DE=-6.73D-10 OVMax= 1.77D-06

 Cycle  10  Pass 1  IDiag  1:
 E= -76.4218596102537     Delta-E=       -0.000000000006 Rises=F Damp=F
 DIIS: error= 5.41D-08 at cycle   5 NSaved=   5.
 NSaved= 5 IEnMin= 5 EnMin= -76.4218596102537     IErMin= 5 ErrMin= 5.41D-08
 ErrMax= 5.41D-08  0.00D+00 EMaxC= 1.00D-01 BMatC= 7.92D-14 BMatP= 2.62D-12
 IDIUse=1 WtCom= 1.00D+00 WtEn= 0.00D+00
 Coeff-Com:  0.166D-02-0.201D-01-0.205D-01 0.316D-01 0.101D+01
 Coeff:      0.166D-02-0.201D-01-0.205D-01 0.316D-01 0.101D+01
 Gap=     0.463 Goal=   None    Shift=    0.000
 RMSDP=1.66D-08 MaxDP=1.65D-07 DE=-6.11D-12 OVMax= 3.28D-07

 Cycle  11  Pass 1  IDiag  1:
 E= -76.4218596102535     Delta-E=        0.000000000000 Rises=F Damp=F
 DIIS: error= 9.00D-09 at cycle   6 NSaved=   6.
 NSaved= 6 IEnMin= 5 EnMin= -76.4218596102537     IErMin= 6 ErrMin= 9.00D-09
 ErrMax= 9.00D-09  0.00D+00 EMaxC= 1.00D-01 BMatC= 4.40D-15 BMatP= 7.92D-14
 IDIUse=1 WtCom= 1.00D+00 WtEn= 0.00D+00
 Coeff-Com: -0.170D-03 0.334D-02 0.129D-02-0.534D-01 0.922D-01 0.957D+00
 Coeff:     -0.170D-03 0.334D-02 0.129D-02-0.534D-01 0.922D-01 0.957D+00
 Gap=     0.463 Goal=   None    Shift=    0.000
 RMSDP=3.19D-09 MaxDP=3.54D-08 DE= 1.99D-13 OVMax= 6.67D-08

 SCF Done:  E(RM062X) =  -76.4218596103     A.U. after   11 cycles
            NFock= 11  Conv=0.32D-08     -V/T= 2.0029
 KE= 7.620368105210D+01 PE=-1.991028629700D+02 EE= 3.735306480279D+01
 Leave Link  502 at Mon Feb 20 08:52:16 2023, MaxMem=  6710886400 cpu:               8.7 elap:               0.4
 (Enter /data0/home/software/g16/l601.exe)
 Copying SCF densities to generalized density rwf, IOpCl= 0 IROHF=0.

 **********************************************************************

            Population analysis using the SCF density.

 **********************************************************************

 Alpha  occ. eigenvalues --  -19.62572  -1.13451  -0.60833  -0.47550  -0.40005
 Alpha virt. eigenvalues --    0.06312   0.13360   0.17391   0.17944   0.18934
 Alpha virt. eigenvalues --    0.23282   0.51279   0.53600   0.97894   1.00178
 Alpha virt. eigenvalues --    1.06035   1.18391   1.20010   1.32384   1.33774
 Alpha virt. eigenvalues --    1.69966   1.74267   1.75776   2.07925   2.09467
 Alpha virt. eigenvalues --    2.35782   2.41601   2.54599   2.88680   3.01571
 Alpha virt. eigenvalues --    5.05691   5.48417   5.93207   6.78306   6.80198
 Alpha virt. eigenvalues --    6.87152   6.91514   7.09350  49.96039
          Condensed to atoms (all electrons):
              15         16         17
    15  O    7.913972   0.322189   0.319486
    16  H    0.322189   0.425683  -0.024480
    17  H    0.319486  -0.024480   0.425955
 Mulliken charges:
               1
     1  P    0.000000
     2  O    0.000000
     3  O    0.000000
     4  H    0.000000
     5  O    0.000000
     6  H    0.000000
     7  O    0.000000
     8  H    0.000000
     9  O    0.000000
    10  H    0.000000
    11  H    0.000000
    12  O    0.000000
    13  H    0.000000
    14  H    0.000000
    15  O   -0.555647
    16  H    0.276607
    17  H    0.279040
 Sum of Mulliken charges =  -0.00000
 Mulliken charges with hydrogens summed into heavy atoms:
               1
     1  P    0.000000
     2  O    0.000000
     3  O    0.000000
     5  O    0.000000
     7  O    0.000000
     9  O    0.000000
    12  O    0.000000
    15  O   -0.000000
         Mulliken charges condensed to fragments:
      1      0.000000
      2      0.000000
      3      0.000000
      4     -0.000000
 Electronic spatial extent (au):  <R**2>=           6186.9215
 Charge=             -0.0000 electrons
 Dipole moment (field-independent basis, Debye):
    X=              1.3411    Y=             -0.1723    Z=             -1.6280  Tot=              2.1163
 Quadrupole moment (field-independent basis, Debye-Ang):
   XX=             12.5077   YY=             -7.2053   ZZ=            -33.3376
   XY=              9.4037   XZ=             -1.4704   YZ=            -12.9180
 Traceless Quadrupole moment (field-independent basis, Debye-Ang):
   XX=             21.8527   YY=              2.1398   ZZ=            -23.9925
   XY=              9.4037   XZ=             -1.4704   YZ=            -12.9180
 Octapole moment (field-independent basis, Debye-Ang**2):
  XXX=             61.5527  YYY=           -131.2029  ZZZ=           -491.2498  XYY=             32.7078
  XXY=             94.7329  XXZ=              7.4657  XZZ=           -162.0137  YZZ=           -249.3079
  YYZ=           -140.9447  XYZ=            -11.3759
 Hexadecapole moment (field-independent basis, Debye-Ang**3):
 XXXX=           -122.7077 YYYY=          -1802.1276 ZZZZ=          -6261.1689 XXXY=            519.3224
 XXXZ=           -218.0190 YYYX=           -271.9666 YYYZ=          -1662.4911 ZZZX=          -2946.0945
 ZZZY=          -3618.6473 XXYY=            480.5837 XXZZ=          -1064.0263 YYZZ=          -2191.3313
 XXYZ=             99.1538 YYXZ=           -364.2434 ZZXY=          -1171.3768
 N-N= 9.124257504866D+00 E-N=-1.991028629341D+02  KE= 7.620368105210D+01
 No NMR shielding tensors so no spin-rotation constants.
 Leave Link  601 at Mon Feb 20 08:52:16 2023, MaxMem=  6710886400 cpu:               1.8 elap:               0.1
 (Enter /data0/home/software/g16/l122.exe)
 CPIOFr:  IOpCl= 0 IRwI=-1 IRwCP=  731 ICalc=  8 LCPTot=      120517 Len1MO=      315166 IndFrg=     2957011
 Restoring MOs from calculation   1 to rwf.
 CPIOFr:  IOpCl= 0 IRwI=-2 IRwCP=  731 ICalc=  0 LCPTot=      120517 Len1MO=      315166 IndFrg=      435683
 Counterpoise corrected energy =    -873.409318835540
                   BSSE energy =       0.002100465767
              sum of fragments =    -873.395503624822
           complexation energy =      -9.99 kcal/mole (raw)
           complexation energy =      -8.67 kcal/mole (corrected)
 Leave Link  122 at Mon Feb 20 08:52:16 2023, MaxMem=  6710886400 cpu:               0.2 elap:               0.0
 (Enter /data0/home/software/g16/l9999.exe)
 1\1\GINC-LOCALHOST\SP\RM062X\6-311+G(2d,p)\H9O7P1\WUHANYU\20-Feb-2023\
 0\\#p M062X/6-311+G(2d,p) nosymm em=GD3 counterpoise=4\\Title Card Req
 uired\\0,1\P,0,10.338659,9.340932,7.101706\O,0,8.874535,9.452103,7.212
 651\O,0,10.990602,8.019934,7.660698\H,0,11.025402,8.077787,8.738108\O,
 0,10.743814,9.352399,5.560659\H,0,11.774316,9.284946,5.516526\O,0,11.1
 21618,10.584385,7.696369\H,0,11.219787,10.468202,8.754817\O,0,8.470898
 ,6.876046,10.718795\H,0,9.368435,7.199403,10.564588\H,0,8.023076,6.969
 913,9.871807\O,0,11.315486,12.544952,11.888769\H,0,12.130073,13.012322
 ,11.758161\H,0,11.395056,11.720235,11.337715\O,0,7.173737,7.353745,8.2
 15462\H,0,7.341317,6.581196,7.676528\H,0,7.759569,8.034842,7.842249\\V
 ersion=ES64L-G16RevA.03\HF=-76.4218596\RMSD=3.192e-09\Dipole=3.5358007
 ,0.0704143,-0.8581783\Quadrupole=101.885765,-33.1529824,-68.7327826,64
 .6400509,45.8050945,-9.0001346\PG=C01 [X(H9O7P1)]\\@


 THE THINKER DIES, BUT HIS THOUGHTS ARE BEYOND THE 
 REACH OF DESTRUCTION.  MEN ARE MORTAL; BUT IDEAS 
 ARE IMMORTAL.
                              -- WALTER LIPPMANN
 Job cpu time:       0 days  0 hours 26 minutes 12.8 seconds.
 Elapsed time:       0 days  0 hours  1 minutes  8.5 seconds.
 File lengths (MBytes):  RWF=     75 Int=      0 D2E=      0 Chk=     28 Scr=      1
 Normal termination of Gaussian 16 at Mon Feb 20 08:52:16 2023.
