 Entering Gaussian System, Link 0=g16
 Initial command:
 /data0/home/software/g16/l1.exe "/data0/home/software/g16/scratch/Gau-1598496.inp" -scrdir="/data0/home/software/g16/scratch/"
 Default is to use a total of  22 processors:
                               22 via shared-memory
                                1 via Linda
 Entering Link 1 = /data0/home/software/g16/l1.exe PID=   1598497.
  
 Copyright (c) 1988,1990,1992,1993,1995,1998,2003,2009,2016,
            Gaussian, Inc.  All Rights Reserved.
  
 This is part of the Gaussian(R) 16 program.  It is based on
 the Gaussian(R) 09 system (copyright 2009, Gaussian, Inc.),
 the Gaussian(R) 03 system (copyright 2003, Gaussian, Inc.),
 the Gaussian(R) 98 system (copyright 1998, Gaussian, Inc.),
 the Gaussian(R) 94 system (copyright 1995, Gaussian, Inc.),
 the Gaussian 92(TM) system (copyright 1992, Gaussian, Inc.),
 the Gaussian 90(TM) system (copyright 1990, Gaussian, Inc.),
 the Gaussian 88(TM) system (copyright 1988, Gaussian, Inc.),
 the Gaussian 86(TM) system (copyright 1986, Carnegie Mellon
 University), and the Gaussian 82(TM) system (copyright 1983,
 Carnegie Mellon University). Gaussian is a federally registered
 trademark of Gaussian, Inc.
  
 This software contains proprietary and confidential information,
 including trade secrets, belonging to Gaussian, Inc.
  
 This software is provided under written license and may be
 used, copied, transmitted, or stored only in accord with that
 written license.
  
 The following legend is applicable only to US Government
 contracts under FAR:
  
                    RESTRICTED RIGHTS LEGEND
  
 Use, reproduction and disclosure by the US Government is
 subject to restrictions as set forth in subparagraphs (a)
 and (c) of the Commercial Computer Software - Restricted
 Rights clause in FAR 52.227-19.
  
 Gaussian, Inc.
 340 Quinnipiac St., Bldg. 40, Wallingford CT 06492
  
  
 ---------------------------------------------------------------
 Warning -- This program may not be used in any manner that
 competes with the business of Gaussian, Inc. or will provide
 assistance to any competitor of Gaussian, Inc.  The licensee
 of this program is prohibited from giving any competitor of
 Gaussian, Inc. access to this program.  By using this program,
 the user acknowledges that Gaussian, Inc. is engaged in the
 business of creating and licensing software in the field of
 computational chemistry and represents and warrants to the
 licensee that it is not a competitor of Gaussian, Inc. and that
 it will not use this program in any manner prohibited above.
 ---------------------------------------------------------------
  

 Cite this work as:
 Gaussian 16, Revision A.03,
 M. J. Frisch, G. W. Trucks, H. B. Schlegel, G. E. Scuseria, 
 M. A. Robb, J. R. Cheeseman, G. Scalmani, V. Barone, 
 G. A. Petersson, H. Nakatsuji, X. Li, M. Caricato, A. V. Marenich, 
 J. Bloino, B. G. Janesko, R. Gomperts, B. Mennucci, H. P. Hratchian, 
 J. V. Ortiz, A. F. Izmaylov, J. L. Sonnenberg, D. Williams-Young, 
 F. Ding, F. Lipparini, F. Egidi, J. Goings, B. Peng, A. Petrone, 
 T. Henderson, D. Ranasinghe, V. G. Zakrzewski, J. Gao, N. Rega, 
 G. Zheng, W. Liang, M. Hada, M. Ehara, K. Toyota, R. Fukuda, 
 J. Hasegawa, M. Ishida, T. Nakajima, Y. Honda, O. Kitao, H. Nakai, 
 T. Vreven, K. Throssell, J. A. Montgomery, Jr., J. E. Peralta, 
 F. Ogliaro, M. J. Bearpark, J. J. Heyd, E. N. Brothers, K. N. Kudin, 
 V. N. Staroverov, T. A. Keith, R. Kobayashi, J. Normand, 
 K. Raghavachari, A. P. Rendell, J. C. Burant, S. S. Iyengar, 
 J. Tomasi, M. Cossi, J. M. Millam, M. Klene, C. Adamo, R. Cammi, 
 J. W. Ochterski, R. L. Martin, K. Morokuma, O. Farkas, 
 J. B. Foresman, and D. J. Fox, Gaussian, Inc., Wallingford CT, 2016.
 
 ******************************************
 Gaussian 16:  ES64L-G16RevA.03 25-Dec-2016
                12-Dec-2022 
 ******************************************
 %nproc=24
 Will use up to   24 processors via shared memory.
 %mem=50GB
 -------------------------------------------------------
 #p B3LYP/6-311+G(2d,p) opt freq scrf(smd,solvent=water)
 -------------------------------------------------------
 1/18=20,19=15,26=3,38=1/1,3;
 2/9=110,12=2,17=6,18=5,40=1/2;
 3/5=4,6=6,7=112,11=2,25=1,30=1,70=32201,71=1,72=1,74=-5/1,2,3;
 4//1;
 5/5=2,38=5,53=1/2;
 6/7=2,8=2,9=2,10=2,28=1/1;
 7//1,2,3,16;
 1/18=20,19=15,26=3/3(2);
 2/9=110/2;
 99//99;
 2/9=110/2;
 3/5=4,6=6,7=112,11=2,25=1,30=1,70=32205,71=1,72=1,74=-5/1,2,3;
 4/5=5,16=3,69=1/1;
 5/5=2,38=5,53=1/2;
 7//1,2,3,16;
 1/18=20,19=15,26=3/3(-5);
 2/9=110/2;
 6/7=2,8=2,9=2,10=2,19=2,28=1/1;
 99/9=1/99;
 Leave Link    1 at Mon Dec 12 00:22:33 2022, MaxMem=  6710886400 cpu:               0.7 elap:               0.0
 (Enter /data0/home/software/g16/l101.exe)
 -------------------
 Title Card Required
 -------------------
 Symbolic Z-matrix:
 Charge =  0 Multiplicity = 1
 C                     4.36393   12.69306   10.94131 
 H                     4.11575   12.1554   10.01365 
 H                     5.25454   13.31271   10.76701 
 H                     4.63474   11.91405   11.70121 
 C                     2.83475   14.52376   10.38404 
 H                     2.5845    14.03772   9.4262 
 H                     1.95472   15.11396   10.69922 
 H                     3.66243   15.22936   10.20256 
 C                     2.04207   12.58954   11.66099 
 H                     1.20941   13.08932   12.19609 
 H                     1.67142   12.159    10.7232 
 H                     2.33511   11.75161   12.33895 
 C                     3.62551   14.22462   12.70933 
 H                     4.52506   14.83552   12.49398 
 H                     3.95067   13.4287   13.43821 
 C                     2.52227   15.09145   13.33452 
 H                     1.51349   14.77821   12.98958 
 H                     2.63909   16.14877   13.03829 
 C                     2.54875   14.96295   14.85905 
 H                     1.69675   15.49151   15.32001 
 H                     3.46059   15.40629   15.29424 
 N                     3.2014    13.51314   11.43134 
 C                     2.46276   13.4761   15.26211 
 O                     1.77976   12.74495   14.50637 
 O                     3.11749   13.11509   16.24366 
 P                     4.10856   10.08197   14.64855 
 O                     4.65321   8.74646   14.4436 
 O                     4.30432   10.64485   16.10751 
 H                     3.80841   11.58459   16.20414 
 O                     4.83081   11.20954   13.7048 
 H                     5.81206   11.23432   13.91989 
 O                     2.6135    10.25449   14.19356 
 H                     2.25214   11.24702   14.45284 
 
 Add virtual bond connecting atoms H29        and O25        Dist= 3.17D+00.
 Add virtual bond connecting atoms H33        and O24        Dist= 2.97D+00.
 ITRead=  0  0  0  0  0  0  0  0  0  0  0  0  0  0  0  0  0  0  0  0
 ITRead=  0  0  0  0  0  0  0  0  0  0  0  0  0
 MicOpt= -1 -1 -1 -1 -1 -1 -1 -1 -1 -1 -1 -1 -1 -1 -1 -1 -1 -1 -1 -1
 MicOpt= -1 -1 -1 -1 -1 -1 -1 -1 -1 -1 -1 -1 -1
 NAtoms=     33 NQM=       33 NQMF=       0 NMMI=      0 NMMIF=      0
                NMic=       0 NMicF=      0.
                    Isotopes and Nuclear Properties:
 (Nuclear quadrupole moments (NQMom) in fm**2, nuclear magnetic moments (NMagM)
  in nuclear magnetons)

  Atom         1           2           3           4           5           6           7           8           9          10
 IAtWgt=          12           1           1           1          12           1           1           1          12           1
 AtmWgt=  12.0000000   1.0078250   1.0078250   1.0078250  12.0000000   1.0078250   1.0078250   1.0078250  12.0000000   1.0078250
 NucSpn=           0           1           1           1           0           1           1           1           0           1
 AtZEff=  -0.0000000  -0.0000000  -0.0000000  -0.0000000  -0.0000000  -0.0000000  -0.0000000  -0.0000000  -0.0000000  -0.0000000
 NQMom=    0.0000000   0.0000000   0.0000000   0.0000000   0.0000000   0.0000000   0.0000000   0.0000000   0.0000000   0.0000000
 NMagM=    0.0000000   2.7928460   2.7928460   2.7928460   0.0000000   2.7928460   2.7928460   2.7928460   0.0000000   2.7928460
 AtZNuc=   6.0000000   1.0000000   1.0000000   1.0000000   6.0000000   1.0000000   1.0000000   1.0000000   6.0000000   1.0000000

  Atom        11          12          13          14          15          16          17          18          19          20
 IAtWgt=           1           1          12           1           1          12           1           1          12           1
 AtmWgt=   1.0078250   1.0078250  12.0000000   1.0078250   1.0078250  12.0000000   1.0078250   1.0078250  12.0000000   1.0078250
 NucSpn=           1           1           0           1           1           0           1           1           0           1
 AtZEff=  -0.0000000  -0.0000000  -0.0000000  -0.0000000  -0.0000000  -0.0000000  -0.0000000  -0.0000000  -0.0000000  -0.0000000
 NQMom=    0.0000000   0.0000000   0.0000000   0.0000000   0.0000000   0.0000000   0.0000000   0.0000000   0.0000000   0.0000000
 NMagM=    2.7928460   2.7928460   0.0000000   2.7928460   2.7928460   0.0000000   2.7928460   2.7928460   0.0000000   2.7928460
 AtZNuc=   1.0000000   1.0000000   6.0000000   1.0000000   1.0000000   6.0000000   1.0000000   1.0000000   6.0000000   1.0000000

  Atom        21          22          23          24          25          26          27          28          29          30
 IAtWgt=           1          14          12          16          16          31          16          16           1          16
 AtmWgt=   1.0078250  14.0030740  12.0000000  15.9949146  15.9949146  30.9737634  15.9949146  15.9949146   1.0078250  15.9949146
 NucSpn=           1           2           0           0           0           1           0           0           1           0
 AtZEff=  -0.0000000  -0.0000000  -0.0000000  -0.0000000  -0.0000000  -0.0000000  -0.0000000  -0.0000000  -0.0000000  -0.0000000
 NQMom=    0.0000000   2.0440000   0.0000000   0.0000000   0.0000000   0.0000000   0.0000000   0.0000000   0.0000000   0.0000000
 NMagM=    2.7928460   0.4037610   0.0000000   0.0000000   0.0000000   1.1316000   0.0000000   0.0000000   2.7928460   0.0000000
 AtZNuc=   1.0000000   7.0000000   6.0000000   8.0000000   8.0000000  15.0000000   8.0000000   8.0000000   1.0000000   8.0000000

  Atom        31          32          33
 IAtWgt=           1          16           1
 AtmWgt=   1.0078250  15.9949146   1.0078250
 NucSpn=           1           0           1
 AtZEff=  -0.0000000  -0.0000000  -0.0000000
 NQMom=    0.0000000   0.0000000   0.0000000
 NMagM=    2.7928460   0.0000000   2.7928460
 AtZNuc=   1.0000000   8.0000000   1.0000000
 Leave Link  101 at Mon Dec 12 00:22:34 2022, MaxMem=  6710886400 cpu:               8.4 elap:               0.4
 (Enter /data0/home/software/g16/l103.exe)

 GradGradGradGradGradGradGradGradGradGradGradGradGradGradGradGradGradGrad
 Berny optimization.
 Initialization pass.
                           ----------------------------
                           !    Initial Parameters    !
                           ! (Angstroms and Degrees)  !
 --------------------------                            --------------------------
 ! Name  Definition              Value          Derivative Info.                !
 --------------------------------------------------------------------------------
 ! R1    R(1,2)                  1.1005         estimate D2E/DX2                !
 ! R2    R(1,3)                  1.0989         estimate D2E/DX2                !
 ! R3    R(1,4)                  1.1215         estimate D2E/DX2                !
 ! R4    R(1,22)                 1.5047         estimate D2E/DX2                !
 ! R5    R(5,6)                  1.1029         estimate D2E/DX2                !
 ! R6    R(5,7)                  1.1055         estimate D2E/DX2                !
 ! R7    R(5,8)                  1.1027         estimate D2E/DX2                !
 ! R8    R(5,22)                 1.5009         estimate D2E/DX2                !
 ! R9    R(9,10)                 1.1088         estimate D2E/DX2                !
 ! R10   R(9,11)                 1.0964         estimate D2E/DX2                !
 ! R11   R(9,12)                 1.117          estimate D2E/DX2                !
 ! R12   R(9,22)                 1.4999         estimate D2E/DX2                !
 ! R13   R(13,14)                1.1085         estimate D2E/DX2                !
 ! R14   R(13,15)                1.1272         estimate D2E/DX2                !
 ! R15   R(13,16)                1.536          estimate D2E/DX2                !
 ! R16   R(13,22)                1.5229         estimate D2E/DX2                !
 ! R17   R(16,17)                1.1112         estimate D2E/DX2                !
 ! R18   R(16,18)                1.1042         estimate D2E/DX2                !
 ! R19   R(16,19)                1.5302         estimate D2E/DX2                !
 ! R20   R(19,20)                1.1035         estimate D2E/DX2                !
 ! R21   R(19,21)                1.1034         estimate D2E/DX2                !
 ! R22   R(19,23)                1.5429         estimate D2E/DX2                !
 ! R23   R(23,24)                1.2539         estimate D2E/DX2                !
 ! R24   R(23,25)                1.2339         estimate D2E/DX2                !
 ! R25   R(24,33)                1.5716         estimate D2E/DX2                !
 ! R26   R(25,29)                1.6797         estimate D2E/DX2                !
 ! R27   R(26,27)                1.4568         estimate D2E/DX2                !
 ! R28   R(26,28)                1.576          estimate D2E/DX2                !
 ! R29   R(26,30)                1.6382         estimate D2E/DX2                !
 ! R30   R(26,32)                1.5723         estimate D2E/DX2                !
 ! R31   R(28,29)                1.067          estimate D2E/DX2                !
 ! R32   R(30,31)                1.0049         estimate D2E/DX2                !
 ! R33   R(32,33)                1.0876         estimate D2E/DX2                !
 ! A1    A(2,1,3)              108.9389         estimate D2E/DX2                !
 ! A2    A(2,1,4)              106.6337         estimate D2E/DX2                !
 ! A3    A(2,1,22)             111.5022         estimate D2E/DX2                !
 ! A4    A(3,1,4)              107.6664         estimate D2E/DX2                !
 ! A5    A(3,1,22)             111.7458         estimate D2E/DX2                !
 ! A6    A(4,1,22)             110.1501         estimate D2E/DX2                !
 ! A7    A(6,5,7)              107.594          estimate D2E/DX2                !
 ! A8    A(6,5,8)              108.0226         estimate D2E/DX2                !
 ! A9    A(6,5,22)             111.39           estimate D2E/DX2                !
 ! A10   A(7,5,8)              107.6271         estimate D2E/DX2                !
 ! A11   A(7,5,22)             110.7941         estimate D2E/DX2                !
 ! A12   A(8,5,22)             111.245          estimate D2E/DX2                !
 ! A13   A(10,9,11)            109.6273         estimate D2E/DX2                !
 ! A14   A(10,9,12)            104.018          estimate D2E/DX2                !
 ! A15   A(10,9,22)            112.1333         estimate D2E/DX2                !
 ! A16   A(11,9,12)            108.2552         estimate D2E/DX2                !
 ! A17   A(11,9,22)            111.8466         estimate D2E/DX2                !
 ! A18   A(12,9,22)            110.615          estimate D2E/DX2                !
 ! A19   A(14,13,15)           106.3009         estimate D2E/DX2                !
 ! A20   A(14,13,16)           110.5435         estimate D2E/DX2                !
 ! A21   A(14,13,22)           108.6886         estimate D2E/DX2                !
 ! A22   A(15,13,16)           110.0288         estimate D2E/DX2                !
 ! A23   A(15,13,22)           107.0434         estimate D2E/DX2                !
 ! A24   A(16,13,22)           113.9021         estimate D2E/DX2                !
 ! A25   A(13,16,17)           111.5068         estimate D2E/DX2                !
 ! A26   A(13,16,18)           110.8047         estimate D2E/DX2                !
 ! A27   A(13,16,19)           110.2242         estimate D2E/DX2                !
 ! A28   A(17,16,18)           106.4203         estimate D2E/DX2                !
 ! A29   A(17,16,19)           107.5371         estimate D2E/DX2                !
 ! A30   A(18,16,19)           110.2346         estimate D2E/DX2                !
 ! A31   A(16,19,20)           111.2593         estimate D2E/DX2                !
 ! A32   A(16,19,21)           111.9334         estimate D2E/DX2                !
 ! A33   A(16,19,23)           109.8911         estimate D2E/DX2                !
 ! A34   A(20,19,21)           106.3106         estimate D2E/DX2                !
 ! A35   A(20,19,23)           108.0244         estimate D2E/DX2                !
 ! A36   A(21,19,23)           109.2832         estimate D2E/DX2                !
 ! A37   A(1,22,5)             109.1763         estimate D2E/DX2                !
 ! A38   A(1,22,9)             108.1444         estimate D2E/DX2                !
 ! A39   A(1,22,13)            108.2247         estimate D2E/DX2                !
 ! A40   A(5,22,9)             109.4294         estimate D2E/DX2                !
 ! A41   A(5,22,13)            109.8172         estimate D2E/DX2                !
 ! A42   A(9,22,13)            111.9894         estimate D2E/DX2                !
 ! A43   A(19,23,24)           115.7747         estimate D2E/DX2                !
 ! A44   A(19,23,25)           117.3995         estimate D2E/DX2                !
 ! A45   A(24,23,25)           126.7193         estimate D2E/DX2                !
 ! A46   A(23,24,33)           114.3674         estimate D2E/DX2                !
 ! A47   A(23,25,29)           117.7848         estimate D2E/DX2                !
 ! A48   A(27,26,28)           114.2821         estimate D2E/DX2                !
 ! A49   A(27,26,30)           112.6509         estimate D2E/DX2                !
 ! A50   A(27,26,32)           114.5444         estimate D2E/DX2                !
 ! A51   A(28,26,30)           103.457          estimate D2E/DX2                !
 ! A52   A(28,26,32)           110.2929         estimate D2E/DX2                !
 ! A53   A(30,26,32)           100.1945         estimate D2E/DX2                !
 ! A54   A(26,28,29)           109.9189         estimate D2E/DX2                !
 ! A55   A(26,30,31)           108.9155         estimate D2E/DX2                !
 ! A56   A(26,32,33)           110.309          estimate D2E/DX2                !
 ! A57   L(25,29,28,1,-1)      175.5727         estimate D2E/DX2                !
 ! A58   L(24,33,32,1,-1)      168.854          estimate D2E/DX2                !
 ! A59   L(25,29,28,1,-2)      177.2347         estimate D2E/DX2                !
 ! A60   L(24,33,32,1,-2)      184.7101         estimate D2E/DX2                !
 ! D1    D(2,1,22,5)           -60.3525         estimate D2E/DX2                !
 ! D2    D(2,1,22,9)            58.6327         estimate D2E/DX2                !
 ! D3    D(2,1,22,13)         -179.8511         estimate D2E/DX2                !
 ! D4    D(3,1,22,5)            61.8356         estimate D2E/DX2                !
 ! D5    D(3,1,22,9)          -179.1791         estimate D2E/DX2                !
 ! D6    D(3,1,22,13)          -57.6629         estimate D2E/DX2                !
 ! D7    D(4,1,22,5)          -178.5349         estimate D2E/DX2                !
 ! D8    D(4,1,22,9)           -59.5497         estimate D2E/DX2                !
 ! D9    D(4,1,22,13)           61.9665         estimate D2E/DX2                !
 ! D10   D(6,5,22,1)            57.8859         estimate D2E/DX2                !
 ! D11   D(6,5,22,9)           -60.2971         estimate D2E/DX2                !
 ! D12   D(6,5,22,13)          176.3942         estimate D2E/DX2                !
 ! D13   D(7,5,22,1)           177.6212         estimate D2E/DX2                !
 ! D14   D(7,5,22,9)            59.4382         estimate D2E/DX2                !
 ! D15   D(7,5,22,13)          -63.8705         estimate D2E/DX2                !
 ! D16   D(8,5,22,1)           -62.6973         estimate D2E/DX2                !
 ! D17   D(8,5,22,9)           179.1197         estimate D2E/DX2                !
 ! D18   D(8,5,22,13)           55.8109         estimate D2E/DX2                !
 ! D19   D(10,9,22,1)          169.561          estimate D2E/DX2                !
 ! D20   D(10,9,22,5)          -71.6144         estimate D2E/DX2                !
 ! D21   D(10,9,22,13)          50.4001         estimate D2E/DX2                !
 ! D22   D(11,9,22,1)          -66.8147         estimate D2E/DX2                !
 ! D23   D(11,9,22,5)           52.0099         estimate D2E/DX2                !
 ! D24   D(11,9,22,13)         174.0245         estimate D2E/DX2                !
 ! D25   D(12,9,22,1)           53.9417         estimate D2E/DX2                !
 ! D26   D(12,9,22,5)          172.7664         estimate D2E/DX2                !
 ! D27   D(12,9,22,13)         -65.2191         estimate D2E/DX2                !
 ! D28   D(14,13,16,17)        143.8086         estimate D2E/DX2                !
 ! D29   D(14,13,16,18)         25.4654         estimate D2E/DX2                !
 ! D30   D(14,13,16,19)        -96.8296         estimate D2E/DX2                !
 ! D31   D(15,13,16,17)        -99.0846         estimate D2E/DX2                !
 ! D32   D(15,13,16,18)        142.5723         estimate D2E/DX2                !
 ! D33   D(15,13,16,19)         20.2772         estimate D2E/DX2                !
 ! D34   D(22,13,16,17)         21.0999         estimate D2E/DX2                !
 ! D35   D(22,13,16,18)        -97.2433         estimate D2E/DX2                !
 ! D36   D(22,13,16,19)        140.4617         estimate D2E/DX2                !
 ! D37   D(14,13,22,1)          56.9968         estimate D2E/DX2                !
 ! D38   D(14,13,22,5)         -62.0973         estimate D2E/DX2                !
 ! D39   D(14,13,22,9)         176.1103         estimate D2E/DX2                !
 ! D40   D(15,13,22,1)         -57.4352         estimate D2E/DX2                !
 ! D41   D(15,13,22,5)        -176.5293         estimate D2E/DX2                !
 ! D42   D(15,13,22,9)          61.6783         estimate D2E/DX2                !
 ! D43   D(16,13,22,1)        -179.2847         estimate D2E/DX2                !
 ! D44   D(16,13,22,5)          61.6211         estimate D2E/DX2                !
 ! D45   D(16,13,22,9)         -60.1712         estimate D2E/DX2                !
 ! D46   D(13,16,19,20)       -173.8787         estimate D2E/DX2                !
 ! D47   D(13,16,19,21)         67.3358         estimate D2E/DX2                !
 ! D48   D(13,16,19,23)        -54.2846         estimate D2E/DX2                !
 ! D49   D(17,16,19,20)        -52.132          estimate D2E/DX2                !
 ! D50   D(17,16,19,21)       -170.9175         estimate D2E/DX2                !
 ! D51   D(17,16,19,23)         67.4621         estimate D2E/DX2                !
 ! D52   D(18,16,19,20)         63.4909         estimate D2E/DX2                !
 ! D53   D(18,16,19,21)        -55.2947         estimate D2E/DX2                !
 ! D54   D(18,16,19,23)       -176.9151         estimate D2E/DX2                !
 ! D55   D(16,19,23,24)        -33.158          estimate D2E/DX2                !
 ! D56   D(16,19,23,25)        143.3448         estimate D2E/DX2                !
 ! D57   D(20,19,23,24)         88.3909         estimate D2E/DX2                !
 ! D58   D(20,19,23,25)        -95.1063         estimate D2E/DX2                !
 ! D59   D(21,19,23,24)       -156.3485         estimate D2E/DX2                !
 ! D60   D(21,19,23,25)         20.1542         estimate D2E/DX2                !
 ! D61   D(19,23,24,33)        150.431          estimate D2E/DX2                !
 ! D62   D(25,23,24,33)        -25.695          estimate D2E/DX2                !
 ! D63   D(19,23,25,29)       -143.8804         estimate D2E/DX2                !
 ! D64   D(24,23,25,29)         32.1901         estimate D2E/DX2                !
 ! D65   D(23,24,32,26)        -17.1211         estimate D2E/DX2                !
 ! D66   D(23,25,28,26)          6.9241         estimate D2E/DX2                !
 ! D67   D(27,26,28,29)       -175.0952         estimate D2E/DX2                !
 ! D68   D(30,26,28,29)         62.0596         estimate D2E/DX2                !
 ! D69   D(32,26,28,29)        -44.3505         estimate D2E/DX2                !
 ! D70   D(27,26,30,31)        -59.9466         estimate D2E/DX2                !
 ! D71   D(28,26,30,31)         63.9733         estimate D2E/DX2                !
 ! D72   D(32,26,30,31)        177.8871         estimate D2E/DX2                !
 ! D73   D(27,26,32,33)        175.2605         estimate D2E/DX2                !
 ! D74   D(28,26,32,33)         44.6543         estimate D2E/DX2                !
 ! D75   D(30,26,32,33)        -63.9234         estimate D2E/DX2                !
 --------------------------------------------------------------------------------
 Trust Radius=3.00D-01 FncErr=1.00D-07 GrdErr=1.00D-06 EigMax=2.50D+02 EigMin=1.00D-04
 Number of steps in this run=    178 maximum allowed number of steps=    198.
 GradGradGradGradGradGradGradGradGradGradGradGradGradGradGradGradGradGrad

 Leave Link  103 at Mon Dec 12 00:22:34 2022, MaxMem=  6710886400 cpu:               0.2 elap:               0.0
 (Enter /data0/home/software/g16/l202.exe)
                          Input orientation:                          
 ---------------------------------------------------------------------
 Center     Atomic      Atomic             Coordinates (Angstroms)
 Number     Number       Type             X           Y           Z
 ---------------------------------------------------------------------
      1          6           0        4.363933   12.693059   10.941306
      2          1           0        4.115753   12.155399   10.013654
      3          1           0        5.254536   13.312712   10.767014
      4          1           0        4.634740   11.914049   11.701212
      5          6           0        2.834748   14.523762   10.384041
      6          1           0        2.584503   14.037724    9.426204
      7          1           0        1.954724   15.113960   10.699222
      8          1           0        3.662426   15.229358   10.202565
      9          6           0        2.042072   12.589536   11.660985
     10          1           0        1.209412   13.089316   12.196094
     11          1           0        1.671422   12.158998   10.723199
     12          1           0        2.335110   11.751606   12.338946
     13          6           0        3.625512   14.224620   12.709333
     14          1           0        4.525062   14.835524   12.493978
     15          1           0        3.950674   13.428699   13.438209
     16          6           0        2.522274   15.091451   13.334523
     17          1           0        1.513488   14.778210   12.989575
     18          1           0        2.639091   16.148773   13.038290
     19          6           0        2.548754   14.962947   14.859054
     20          1           0        1.696746   15.491510   15.320014
     21          1           0        3.460591   15.406291   15.294244
     22          7           0        3.201397   13.513144   11.431340
     23          6           0        2.462764   13.476101   15.262110
     24          8           0        1.779757   12.744945   14.506368
     25          8           0        3.117492   13.115089   16.243656
     26         15           0        4.108562   10.081966   14.648549
     27          8           0        4.653213    8.746464   14.443596
     28          8           0        4.304320   10.644847   16.107510
     29          1           0        3.808407   11.584592   16.204143
     30          8           0        4.830808   11.209544   13.704795
     31          1           0        5.812062   11.234315   13.919887
     32          8           0        2.613501   10.254490   14.193563
     33          1           0        2.252144   11.247021   14.452842
 ---------------------------------------------------------------------
                    Distance matrix (angstroms):
                    1          2          3          4          5
     1  C    0.000000
     2  H    1.100550   0.000000
     3  H    1.098873   1.789903   0.000000
     4  H    1.121450   1.781979   1.792521   0.000000
     5  C    2.449576   2.717959   2.732889   3.433003   0.000000
     6  H    2.696299   2.496592   3.074490   3.726812   1.102863
     7  H    3.423982   3.727349   3.760033   4.292540   1.105493
     8  H    2.733251   3.112943   2.554789   3.765981   1.102656
     9  C    2.433042   2.683715   3.412051   2.679520   2.449521
    10  H    3.417969   3.752608   4.295952   3.655001   2.825401
    11  H    2.753617   2.545235   3.764529   3.130138   2.657153
    12  H    2.637395   2.956471   3.664842   2.391943   3.428723
    13  C    2.452930   3.433467   2.694049   2.715435   2.474222
    14  H    2.650832   3.674590   2.415263   3.029113   2.721432
    15  H    2.635616   3.657338   2.974692   2.404011   3.431093
    16  C    3.856356   4.710387   4.149852   4.150434   3.020804
    17  H    4.082683   4.744157   4.591612   4.427811   2.932453
    18  H    4.394813   5.222642   4.476884   4.868601   3.118330
    19  C    4.878116   5.815128   5.175840   4.859947   4.505598
    20  H    5.841087   6.718533   6.175341   5.875863   5.157074
    21  H    5.208236   6.235557   5.300672   5.146286   5.027985
    22  N    1.504713   2.165491   2.167229   2.164349   1.500872
    23  C    4.785075   5.658879   5.294013   4.453929   5.003151
    24  O    4.403445   5.097933   5.136070   4.087813   4.612025
    25  O    5.463208   6.382042   5.882144   4.937442   6.033191
    26  P    4.541660   5.077542   5.178541   3.510012   6.287939
    27  O    5.284442   5.615522   5.893171   4.189822   7.291363
    28  O    5.557732   6.281115   6.044941   4.597338   7.068502
    29  H    5.406918   6.224342   5.885581   4.589962   6.592444
    30  O    3.171066   3.876915   3.637777   2.132865   5.098598
    31  H    3.618972   4.357122   3.817221   2.602046   5.673365
    32  O    4.425811   4.831341   5.298021   3.612666   5.726089
    33  H    4.345292   4.899447   5.183316   3.700427   5.256577
                    6          7          8          9         10
     6  H    0.000000
     7  H    1.781988   0.000000
     8  H    1.784558   1.782198   0.000000
     9  C    2.717669   2.702838   3.423623   0.000000
    10  H    3.234601   2.625890   3.817226   1.108803   0.000000
    11  H    2.458765   2.968608   3.696250   1.096443   1.802322
    12  H    3.711145   3.760161   4.291929   1.116973   1.754158
    13  C    3.449285   2.760979   2.700879   2.505956   2.718431
    14  H    3.716651   3.147271   2.479883   3.450156   3.759190
    15  H    4.281766   3.784966   3.714142   2.739613   3.028621
    16  C    4.048354   2.695817   3.335885   3.048098   2.651070
    17  H    3.793811   2.356509   3.548083   2.614354   1.890618
    18  H    4.184098   2.647723   3.151805   3.862845   3.480453
    19  C    5.511186   4.204745   4.795219   4.014655   3.520751
    20  H    6.135031   4.643363   5.488252   4.682862   3.970756
    21  H    6.088875   4.844308   5.098749   4.811120   4.476015
    22  N    2.162478   2.157036   2.160515   1.499941   2.175427
    23  C    5.864132   4.874488   5.487449   3.732436   3.334809
    24  O    5.303486   4.487450   5.314082   2.861672   2.404423
    25  O    6.900216   6.007351   6.423540   4.736413   4.474840
    26  P    6.726341   6.749605   6.816264   4.414049   4.843941
    27  O    7.579658   7.864298   7.809988   5.415735   5.980919
    28  O    7.688253   7.398861   7.503209   5.354546   5.554553
    29  H    7.311378   6.796818   7.023145   4.976961   5.008336
    30  O    5.599181   5.705243   5.457988   3.722712   4.350199
    31  H    6.202373   6.348495   5.865133   4.599140   5.253273
    32  O    6.086166   6.021533   6.463561   3.491837   3.741335
    33  H    5.758956   5.397346   5.992725   3.104987   3.094229
                   11         12         13         14         15
    11  H    0.000000
    12  H    1.793624   0.000000
    13  C    3.468428   2.813916   0.000000
    14  H    4.294498   3.785561   1.108500   0.000000
    15  H    3.765423   2.575086   1.127156   1.789036   0.000000
    16  C    4.017741   3.490096   1.536031   2.187047   2.194498
    17  H    3.467229   3.202923   2.201282   3.052618   2.821760
    18  H    4.713208   4.462798   2.187145   2.361733   3.046143
    19  C    5.073178   4.087701   2.515121   3.084739   2.517558
    20  H    5.677762   4.825055   3.484366   4.051687   3.588394
    21  H    5.885617   4.832930   2.846983   3.049650   2.756069
    22  N    2.162406   2.162688   1.522937   2.151738   2.143845
    23  C    4.791941   3.396331   2.903263   3.709941   2.354302
    24  O    3.829809   2.448031   2.970789   3.994613   2.514232
    25  O    5.786249   4.209272   3.739062   4.359041   2.943310
    26  P    5.065776   3.356649   4.599508   5.235643   3.562369
    27  O    5.863260   4.339819   5.837297   6.394848   4.840216
    28  O    6.181878   4.393720   4.982285   5.537880   3.872992
    29  H    5.910786   4.139836   4.383708   4.984724   3.327366
    30  O    4.446695   2.896184   3.396228   3.835008   2.402156
    31  H    5.312133   3.854369   3.897225   4.081457   2.917550
    32  O    4.069163   2.399680   4.357641   5.246763   3.526215
    33  H    3.883192   2.174867   3.713766   4.677677   2.945200
                   16         17         18         19         20
    16  C    0.000000
    17  H    1.111197   0.000000
    18  H    1.104233   1.774204   0.000000
    19  C    1.530166   2.144960   2.174747   0.000000
    20  H    2.187171   2.444039   2.554657   1.103531   0.000000
    21  H    2.195466   3.081752   2.513060   1.103354   1.766090
    22  N    2.564053   2.622504   3.137677   3.778504   4.615159
    23  C    2.515649   2.785862   3.481328   1.542906   2.156852
    24  O    2.725921   2.550633   3.805227   2.373874   2.865751
    25  O    3.566980   3.990970   4.439198   2.378059   2.918734
    26  P    5.416448   5.616165   6.446583   5.128478   5.960779
    27  O    6.784527   6.953705   7.799087   6.576170   7.416499
    28  O    5.535109   5.881747   6.518152   4.825623   5.559652
    29  H    4.710299   5.079301   5.676414   3.848282   4.528223
    30  O    4.531626   4.924584   5.444615   4.541819   5.546757
    31  H    5.103220   5.648222   5.915814   5.043204   6.084397
    32  O    4.913498   4.808707   6.006487   4.755695   5.434677
    33  H    4.012885   3.893078   5.116430   3.749812   4.367624
                   21         22         23         24         25
    21  H    0.000000
    22  N    4.309665   0.000000
    23  C    2.173091   3.901506   0.000000
    24  O    3.244798   3.473757   1.253887   0.000000
    25  O    2.503739   4.829480   1.233868   2.223671   0.000000
    26  P    5.402335   4.790236   3.821683   3.540481   3.567411
    27  O    6.819035   5.822602   5.276125   4.924281   4.968253
    28  O    4.903532   5.595546   3.481670   3.653421   2.743937
    29  H    3.943891   5.183379   2.505192   2.888647   1.679686
    30  O    4.692177   3.623555   3.629069   3.508402   3.607266
    31  H    4.982334   4.266322   4.247936   4.345739   4.024664
    32  O    5.335739   4.312114   3.397542   2.644871   3.555266
    33  H    4.412236   3.894338   2.380772   1.571557   2.728648
                   26         27         28         29         30
    26  P    0.000000
    27  O    1.456783   0.000000
    28  O    1.575983   2.548371   0.000000
    29  H    2.183541   3.445024   1.066953   0.000000
    30  O    1.638213   2.577621   2.523710   2.726299   0.000000
    31  H    2.181919   2.794030   2.721480   3.058619   1.004857
    32  O    1.572254   2.548938   2.583494   2.690614   2.463224
    33  H    2.200441   3.466699   2.704065   2.367058   2.685235
                   31         32         33
    31  H    0.000000
    32  O    3.356449   0.000000
    33  H    3.599614   1.087622   0.000000
 Stoichiometry    C7H18NO6P
 Framework group  C1[X(C7H18NO6P)]
 Deg. of freedom    93
 Full point group                 C1      NOp   1
 Largest Abelian subgroup         C1      NOp   1
 Largest concise Abelian subgroup C1      NOp   1
                         Standard orientation:                         
 ---------------------------------------------------------------------
 Center     Atomic      Atomic             Coordinates (Angstroms)
 Number     Number       Type             X           Y           Z
 ---------------------------------------------------------------------
      1          6           0       -1.594781   -2.315201   -0.741219
      2          1           0       -1.776235   -3.258695   -0.204466
      3          1           0       -1.972940   -2.410889   -1.768526
      4          1           0       -0.482117   -2.187416   -0.798662
      5          6           0       -3.697547   -1.355980    0.070382
      6          1           0       -3.937273   -2.296627    0.593851
      7          1           0       -4.175550   -0.531010    0.629892
      8          1           0       -4.161280   -1.394129   -0.929291
      9          6           0       -1.629739   -1.078710    1.353910
     10          1           0       -1.897910   -0.138102    1.876198
     11          1           0       -1.928715   -1.937927    1.965912
     12          1           0       -0.514021   -1.053661    1.307276
     13          6           0       -1.922895    0.114048   -0.830398
     14          1           0       -2.316189   -0.021811   -1.857839
     15          1           0       -0.802666    0.191608   -0.928134
     16          6           0       -2.486367    1.397855   -0.202918
     17          1           0       -2.677365    1.270066    0.884256
     18          1           0       -3.454909    1.665730   -0.660630
     19          6           0       -1.489060    2.547150   -0.363880
     20          1           0       -1.827433    3.448935    0.174699
     21          1           0       -1.368884    2.843694   -1.419820
     22          7           0       -2.214603   -1.145587   -0.025686
     23          6           0       -0.116884    2.135601    0.209114
     24          8           0       -0.147764    1.364315    1.197243
     25          8           0        0.888912    2.537508   -0.381881
     26         15           0        2.544312   -0.599328    0.000647
     27          8           0        3.588971   -1.614625    0.009274
     28          8           0        3.004650    0.799454   -0.560798
     29          1           0        2.215724    1.510253   -0.457117
     30          8           0        1.282400   -1.000692   -0.963837
     31          1           0        1.615485   -1.116356   -1.904801
     32          8           0        1.798880   -0.417550    1.372970
     33          1           0        1.095057    0.409512    1.313599
 ---------------------------------------------------------------------
 Rotational constants (GHZ):           0.7283787           0.3809100           0.2912472
 Leave Link  202 at Mon Dec 12 00:22:34 2022, MaxMem=  6710886400 cpu:               0.1 elap:               0.0
 (Enter /data0/home/software/g16/l301.exe)
 Standard basis: 6-311+G(2d,p) (5D, 7F)
 Ernie: Thresh=  0.10000D-02 Tol=  0.10000D-05 Strict=F.
 There are   551 symmetry adapted cartesian basis functions of A   symmetry.
 There are   521 symmetry adapted basis functions of A   symmetry.
   521 basis functions,   788 primitive gaussians,   551 cartesian basis functions
    65 alpha electrons       65 beta electrons
       nuclear repulsion energy      1351.2991351054 Hartrees.
 IExCor=  402 DFT=T Ex+Corr=B3LYP ExCW=0 ScaHFX=  0.200000
 ScaDFX=  0.800000  0.720000  1.000000  0.810000 ScalE2=  1.000000  1.000000
 IRadAn=      5 IRanWt=     -1 IRanGd=            0 ICorTp=0 IEmpDi=  4
 NAtoms=   33 NActive=   33 NUniq=   33 SFac= 1.00D+00 NAtFMM=   60 NAOKFM=F Big=F
 Integral buffers will be    131072 words long.
 Raffenetti 2 integral format.
 Two-electron integral symmetry is turned on.
 ------------------------------------------------------------------------------
 Polarizable Continuum Model (PCM)
 =================================
 Model                : PCM.
 Atomic radii         : SMD-Coulomb.
 Polarization charges : Total charges.
 Charge compensation  : None.
 Solution method      : On-the-fly selection.
 Cavity type          : VdW (van der Waals Surface) (Alpha=1.000).
 Cavity algorithm     : GePol (No added spheres)
                        Default sphere list used, NSphG=   33.
                        Lebedev-Laikov grids with approx.  5.0 points / Ang**2.
                        Smoothing algorithm: York/Karplus (Gamma=1.0000).
                        Polarization charges: spherical gaussians, with
                                              point-specific exponents (IZeta= 3).
                        Self-potential: point-specific (ISelfS= 7).
                        Self-field    : sphere-specific E.n sum rule (ISelfD= 2).
 1st derivatives      : Analytical E(r).r(x)/FMM algorithm (CHGder, D1EAlg=3).
                        Cavity 1st derivative terms included.
 Solvent              : Water, Eps=  78.355300 Eps(inf)=   1.777849
 ------------------------------------------------------------------------------
 GePol: Number of generator spheres                  =      33
 GePol: Total number of spheres                      =      33
 GePol: Number of exposed spheres                    =      33 (100.00%)
 GePol: Number of points                             =    2118
 GePol: Average weight of points                     =       0.12
 GePol: Minimum weight of points                     =   0.49D-10
 GePol: Maximum weight of points                     =    0.21991
 GePol: Number of points with low weight             =     155
 GePol: Fraction of low-weight points (<1% of avg)   =       7.32%
 GePol: Cavity surface area                          =    249.752 Ang**2
 GePol: Cavity volume                                =    223.205 Ang**3
 ------------------------------------------------------------------------------
 Atomic radii for non-electrostatic terms: SMD-CDS.
 ------------------------------------------------------------------------------
 PCM non-electrostatic energy =         0.0154038828 Hartrees.
 Nuclear repulsion after PCM non-electrostatic terms =     1351.3145389882 Hartrees.
 Leave Link  301 at Mon Dec 12 00:22:34 2022, MaxMem=  6710886400 cpu:               1.8 elap:               0.1
 (Enter /data0/home/software/g16/l302.exe)
 NPDir=0 NMtPBC=     1 NCelOv=     1 NCel=       1 NClECP=     1 NCelD=      1
         NCelK=      1 NCelE2=     1 NClLst=     1 CellRange=     0.0.
 One-electron integrals computed using PRISM.
 One-electron integral symmetry used in STVInt
 NBasis=   521 RedAO= T EigKep=  8.82D-06  NBF=   521
 NBsUse=   521 1.00D-06 EigRej= -1.00D+00 NBFU=   521
 Precomputing XC quadrature grid using
 IXCGrd= 4 IRadAn=           5 IRanWt=          -1 IRanGd=           0 AccXCQ= 0.00D+00.
 Generated NRdTot=       0 NPtTot=           0 NUsed=           0 NTot=          32
 NSgBfM=   551   551   551   551   551 MxSgAt=    33 MxSgA2=    33.
 Leave Link  302 at Mon Dec 12 00:22:34 2022, MaxMem=  6710886400 cpu:              12.9 elap:               0.6
 (Enter /data0/home/software/g16/l303.exe)
 DipDrv:  MaxL=1.
 Leave Link  303 at Mon Dec 12 00:22:35 2022, MaxMem=  6710886400 cpu:               1.3 elap:               0.1
 (Enter /data0/home/software/g16/l401.exe)
 ExpMin= 3.48D-02 ExpMax= 7.75D+04 ExpMxC= 2.65D+03 IAcc=3 IRadAn=         5 AccDes= 0.00D+00
 Harris functional with IExCor=  402 and IRadAn=       5 diagonalized for initial guess.
 HarFok:  IExCor=  402 AccDes= 0.00D+00 IRadAn=         5 IDoV= 1 UseB2=F ITyADJ=14
 ICtDFT=  3500011 ScaDFX=  1.000000  1.000000  1.000000  1.000000
 FoFCou: FMM=F IPFlag=           0 FMFlag=      100000 FMFlg1=           0
         NFxFlg=           0 DoJE=T BraDBF=F KetDBF=T FulRan=T
         wScrn=  0.000000 ICntrl=       500 IOpCl=  0 I1Cent=   200000004 NGrid=           0
         NMat0=    1 NMatS0=      1 NMatT0=    0 NMatD0=    1 NMtDS0=    0 NMtDT0=    0
 Petite list used in FoFCou.
 Harris En= -1125.56397615707    
 JPrj=0 DoOrth=F DoCkMO=F.
 Leave Link  401 at Mon Dec 12 00:22:37 2022, MaxMem=  6710886400 cpu:              53.1 elap:               2.2
 (Enter /data0/home/software/g16/l502.exe)
 Integral symmetry usage will be decided dynamically.
 Closed shell SCF:
 Using DIIS extrapolation, IDIIS=  1040.
 NGot=  6710886400 LenX=  6710260768 LenY=  6709956616
 Requested convergence on RMS density matrix=1.00D-08 within 128 cycles.
 Requested convergence on MAX density matrix=1.00D-06.
 Requested convergence on             energy=1.00D-06.
 No special actions if energy rises.
 Fock matrices will be formed incrementally for  20 cycles.

 Cycle   1  Pass 1  IDiag  1:
 FoFJK:  IHMeth= 1 ICntrl=       0 DoSepK=F KAlg= 0 I1Cent=           0 FoldK=F
 IRaf= 880000000 NMat=       1 IRICut=       1 DoRegI=T DoRafI=F ISym2E= 0 IDoP0=0 IntGTp=1.
 FoFCou: FMM=F IPFlag=           0 FMFlag=      100000 FMFlg1=           0
         NFxFlg=           0 DoJE=F BraDBF=F KetDBF=F FulRan=T
         wScrn=  0.000000 ICntrl=         0 IOpCl=  0 I1Cent=           0 NGrid=           0
         NMat0=    1 NMatS0=      1 NMatT0=    0 NMatD0=    1 NMtDS0=    0 NMtDT0=    0
 Symmetry not used in FoFCou.
 Inv3:  Mode=1 IEnd=    13457772.
 Iteration    1 A*A^-1 deviation from unit magnitude is 7.55D-15 for   2118.
 Iteration    1 A*A^-1 deviation from orthogonality  is 3.06D-15 for   1274    458.
 Iteration    1 A^-1*A deviation from unit magnitude is 7.44D-15 for   2118.
 Iteration    1 A^-1*A deviation from orthogonality  is 3.14D-15 for   1971   1279.
 E= -1124.85878553350    
 DIIS: error= 2.75D-02 at cycle   1 NSaved=   1.
 NSaved= 1 IEnMin= 1 EnMin= -1124.85878553350     IErMin= 1 ErrMin= 2.75D-02
 ErrMax= 2.75D-02  0.00D+00 EMaxC= 1.00D-01 BMatC= 9.32D-01 BMatP= 9.32D-01
 IDIUse=3 WtCom= 7.25D-01 WtEn= 2.75D-01
 Coeff-Com:  0.100D+01
 Coeff-En:   0.100D+01
 Coeff:      0.100D+01
 Gap=     0.218 Goal=   None    Shift=    0.000
 GapD=    0.218 DampG=1.000 DampE=0.500 DampFc=0.5000 IDamp=-1.
 Damping current iteration by 5.00D-01
 RMSDP=3.84D-03 MaxDP=1.86D-01              OVMax= 2.51D-01

 Cycle   2  Pass 1  IDiag  1:
 RMSU=  1.90D-03    CP:  9.74D-01
 E= -1125.06076263979     Delta-E=       -0.201977106292 Rises=F Damp=T
 DIIS: error= 1.03D-02 at cycle   2 NSaved=   2.
 NSaved= 2 IEnMin= 2 EnMin= -1125.06076263979     IErMin= 2 ErrMin= 1.03D-02
 ErrMax= 1.03D-02  0.00D+00 EMaxC= 1.00D-01 BMatC= 7.49D-02 BMatP= 9.32D-01
 IDIUse=3 WtCom= 8.97D-01 WtEn= 1.03D-01
 Coeff-Com:  0.174D+00 0.826D+00
 Coeff-En:   0.312D+00 0.688D+00
 Coeff:      0.188D+00 0.812D+00
 Gap=     0.272 Goal=   None    Shift=    0.000
 RMSDP=1.44D-03 MaxDP=2.70D-01 DE=-2.02D-01 OVMax= 1.69D-01

 Cycle   3  Pass 1  IDiag  1:
 RMSU=  1.21D-03    CP:  9.32D-01  6.50D-01
 E= -1125.46923063420     Delta-E=       -0.408467994408 Rises=F Damp=F
 DIIS: error= 7.19D-03 at cycle   3 NSaved=   3.
 NSaved= 3 IEnMin= 3 EnMin= -1125.46923063420     IErMin= 3 ErrMin= 7.19D-03
 ErrMax= 7.19D-03  0.00D+00 EMaxC= 1.00D-01 BMatC= 2.29D-02 BMatP= 7.49D-02
 IDIUse=3 WtCom= 9.28D-01 WtEn= 7.19D-02
 Coeff-Com:  0.463D-01 0.368D+00 0.586D+00
 Coeff-En:   0.000D+00 0.000D+00 0.100D+01
 Coeff:      0.430D-01 0.341D+00 0.616D+00
 Gap=     0.274 Goal=   None    Shift=    0.000
 RMSDP=3.69D-04 MaxDP=2.25D-02 DE=-4.08D-01 OVMax= 4.33D-02

 Cycle   4  Pass 1  IDiag  1:
 RMSU=  3.63D-04    CP:  9.33D-01  6.72D-01  9.64D-01
 E= -1125.48110908958     Delta-E=       -0.011878455377 Rises=F Damp=F
 DIIS: error= 3.93D-03 at cycle   4 NSaved=   4.
 NSaved= 4 IEnMin= 4 EnMin= -1125.48110908958     IErMin= 4 ErrMin= 3.93D-03
 ErrMax= 3.93D-03  0.00D+00 EMaxC= 1.00D-01 BMatC= 7.66D-03 BMatP= 2.29D-02
 IDIUse=3 WtCom= 9.61D-01 WtEn= 3.93D-02
 Coeff-Com: -0.240D-02 0.847D-01 0.377D+00 0.541D+00
 Coeff-En:   0.000D+00 0.000D+00 0.258D+00 0.742D+00
 Coeff:     -0.231D-02 0.814D-01 0.372D+00 0.549D+00
 Gap=     0.271 Goal=   None    Shift=    0.000
 RMSDP=1.64D-04 MaxDP=1.52D-02 DE=-1.19D-02 OVMax= 1.70D-02

 Cycle   5  Pass 1  IDiag  1:
 RMSU=  9.34D-05    CP:  9.29D-01  6.65D-01  1.01D+00  6.87D-01
 E= -1125.48636440536     Delta-E=       -0.005255315782 Rises=F Damp=F
 DIIS: error= 6.39D-04 at cycle   5 NSaved=   5.
 NSaved= 5 IEnMin= 5 EnMin= -1125.48636440536     IErMin= 5 ErrMin= 6.39D-04
 ErrMax= 6.39D-04  0.00D+00 EMaxC= 1.00D-01 BMatC= 3.60D-04 BMatP= 7.66D-03
 IDIUse=3 WtCom= 9.94D-01 WtEn= 6.39D-03
 Coeff-Com: -0.366D-02 0.195D-01 0.150D+00 0.283D+00 0.552D+00
 Coeff-En:   0.000D+00 0.000D+00 0.000D+00 0.000D+00 0.100D+01
 Coeff:     -0.364D-02 0.193D-01 0.149D+00 0.281D+00 0.555D+00
 Gap=     0.269 Goal=   None    Shift=    0.000
 RMSDP=3.88D-05 MaxDP=3.29D-03 DE=-5.26D-03 OVMax= 3.35D-03

 Cycle   6  Pass 1  IDiag  1:
 RMSU=  3.38D-05    CP:  9.28D-01  6.69D-01  1.01D+00  7.07D-01  8.88D-01
 E= -1125.48661212910     Delta-E=       -0.000247723738 Rises=F Damp=F
 DIIS: error= 1.68D-04 at cycle   6 NSaved=   6.
 NSaved= 6 IEnMin= 6 EnMin= -1125.48661212910     IErMin= 6 ErrMin= 1.68D-04
 ErrMax= 1.68D-04  0.00D+00 EMaxC= 1.00D-01 BMatC= 2.66D-05 BMatP= 3.60D-04
 IDIUse=3 WtCom= 9.98D-01 WtEn= 1.68D-03
 Coeff-Com: -0.134D-02 0.178D-02 0.364D-01 0.834D-01 0.278D+00 0.602D+00
 Coeff-En:   0.000D+00 0.000D+00 0.000D+00 0.000D+00 0.361D-02 0.996D+00
 Coeff:     -0.134D-02 0.177D-02 0.363D-01 0.833D-01 0.278D+00 0.602D+00
 Gap=     0.269 Goal=   None    Shift=    0.000
 RMSDP=1.51D-05 MaxDP=2.00D-03 DE=-2.48D-04 OVMax= 6.23D-04

 Cycle   7  Pass 1  IDiag  1:
 RMSU=  6.94D-06    CP:  9.28D-01  6.68D-01  1.01D+00  7.19D-01  8.60D-01
                    CP:  6.54D-01
 E= -1125.48663500189     Delta-E=       -0.000022872799 Rises=F Damp=F
 DIIS: error= 2.83D-05 at cycle   7 NSaved=   7.
 NSaved= 7 IEnMin= 7 EnMin= -1125.48663500189     IErMin= 7 ErrMin= 2.83D-05
 ErrMax= 2.83D-05  0.00D+00 EMaxC= 1.00D-01 BMatC= 1.06D-06 BMatP= 2.66D-05
 IDIUse=1 WtCom= 1.00D+00 WtEn= 0.00D+00
 Coeff-Com: -0.467D-03 0.467D-04 0.129D-01 0.310D-01 0.118D+00 0.284D+00
 Coeff-Com:  0.555D+00
 Coeff:     -0.467D-03 0.467D-04 0.129D-01 0.310D-01 0.118D+00 0.284D+00
 Coeff:      0.555D+00
 Gap=     0.269 Goal=   None    Shift=    0.000
 RMSDP=2.27D-06 MaxDP=2.42D-04 DE=-2.29D-05 OVMax= 2.03D-04

 Cycle   8  Pass 1  IDiag  1:
 RMSU=  1.69D-06    CP:  9.28D-01  6.68D-01  1.01D+00  7.18D-01  8.67D-01
                    CP:  6.77D-01  8.58D-01
 E= -1125.48663564576     Delta-E=       -0.000000643870 Rises=F Damp=F
 DIIS: error= 1.23D-05 at cycle   8 NSaved=   8.
 NSaved= 8 IEnMin= 8 EnMin= -1125.48663564576     IErMin= 8 ErrMin= 1.23D-05
 ErrMax= 1.23D-05  0.00D+00 EMaxC= 1.00D-01 BMatC= 1.96D-07 BMatP= 1.06D-06
 IDIUse=1 WtCom= 1.00D+00 WtEn= 0.00D+00
 Coeff-Com:  0.323D-05-0.243D-03 0.147D-02 0.367D-02 0.218D-01 0.611D-01
 Coeff-Com:  0.314D+00 0.599D+00
 Coeff:      0.323D-05-0.243D-03 0.147D-02 0.367D-02 0.218D-01 0.611D-01
 Coeff:      0.314D+00 0.599D+00
 Gap=     0.269 Goal=   None    Shift=    0.000
 RMSDP=8.01D-07 MaxDP=5.64D-05 DE=-6.44D-07 OVMax= 8.97D-05

 Cycle   9  Pass 1  IDiag  1:
 RMSU=  6.15D-07    CP:  9.28D-01  6.68D-01  1.02D+00  7.18D-01  8.69D-01
                    CP:  6.77D-01  8.79D-01  8.00D-01
 E= -1125.48663576908     Delta-E=       -0.000000123312 Rises=F Damp=F
 DIIS: error= 3.45D-06 at cycle   9 NSaved=   9.
 NSaved= 9 IEnMin= 9 EnMin= -1125.48663576908     IErMin= 9 ErrMin= 3.45D-06
 ErrMax= 3.45D-06  0.00D+00 EMaxC= 1.00D-01 BMatC= 1.63D-08 BMatP= 1.96D-07
 IDIUse=1 WtCom= 1.00D+00 WtEn= 0.00D+00
 Coeff-Com:  0.327D-04-0.131D-03 0.591D-05 0.364D-04 0.435D-02 0.144D-01
 Coeff-Com:  0.128D+00 0.321D+00 0.533D+00
 Coeff:      0.327D-04-0.131D-03 0.591D-05 0.364D-04 0.435D-02 0.144D-01
 Coeff:      0.128D+00 0.321D+00 0.533D+00
 Gap=     0.269 Goal=   None    Shift=    0.000
 RMSDP=2.81D-07 MaxDP=1.72D-05 DE=-1.23D-07 OVMax= 4.34D-05

 Cycle  10  Pass 1  IDiag  1:
 RMSU=  1.94D-07    CP:  9.28D-01  6.68D-01  1.02D+00  7.19D-01  8.69D-01
                    CP:  6.76D-01  8.93D-01  8.33D-01  7.78D-01
 E= -1125.48663577894     Delta-E=       -0.000000009867 Rises=F Damp=F
 DIIS: error= 1.89D-06 at cycle  10 NSaved=  10.
 NSaved=10 IEnMin=10 EnMin= -1125.48663577894     IErMin=10 ErrMin= 1.89D-06
 ErrMax= 1.89D-06  0.00D+00 EMaxC= 1.00D-01 BMatC= 2.69D-09 BMatP= 1.63D-08
 IDIUse=1 WtCom= 1.00D+00 WtEn= 0.00D+00
 Coeff-Com:  0.162D-04-0.587D-04-0.915D-04-0.211D-03 0.964D-03 0.371D-02
 Coeff-Com:  0.481D-01 0.139D+00 0.336D+00 0.473D+00
 Coeff:      0.162D-04-0.587D-04-0.915D-04-0.211D-03 0.964D-03 0.371D-02
 Coeff:      0.481D-01 0.139D+00 0.336D+00 0.473D+00
 Gap=     0.269 Goal=   None    Shift=    0.000
 RMSDP=9.59D-08 MaxDP=6.42D-06 DE=-9.87D-09 OVMax= 1.66D-05

 Cycle  11  Pass 1  IDiag  1:
 RMSU=  6.84D-08    CP:  9.28D-01  6.68D-01  1.02D+00  7.19D-01  8.69D-01
                    CP:  6.76D-01  8.95D-01  8.34D-01  8.10D-01  6.86D-01
 E= -1125.48663578066     Delta-E=       -0.000000001720 Rises=F Damp=F
 DIIS: error= 3.14D-07 at cycle  11 NSaved=  11.
 NSaved=11 IEnMin=11 EnMin= -1125.48663578066     IErMin=11 ErrMin= 3.14D-07
 ErrMax= 3.14D-07  0.00D+00 EMaxC= 1.00D-01 BMatC= 1.42D-10 BMatP= 2.69D-09
 IDIUse=1 WtCom= 1.00D+00 WtEn= 0.00D+00
 Coeff-Com:  0.409D-05-0.131D-04-0.622D-04-0.142D-03-0.148D-03-0.720D-04
 Coeff-Com:  0.867D-02 0.323D-01 0.110D+00 0.238D+00 0.612D+00
 Coeff:      0.409D-05-0.131D-04-0.622D-04-0.142D-03-0.148D-03-0.720D-04
 Coeff:      0.867D-02 0.323D-01 0.110D+00 0.238D+00 0.612D+00
 Gap=     0.269 Goal=   None    Shift=    0.000
 RMSDP=3.13D-08 MaxDP=2.89D-06 DE=-1.72D-09 OVMax= 3.05D-06

 Cycle  12  Pass 1  IDiag  1:
 RMSU=  2.00D-08    CP:  9.28D-01  6.68D-01  1.02D+00  7.19D-01  8.69D-01
                    CP:  6.76D-01  8.96D-01  8.38D-01  8.26D-01  7.42D-01
                    CP:  8.57D-01
 E= -1125.48663578086     Delta-E=       -0.000000000191 Rises=F Damp=F
 DIIS: error= 9.44D-08 at cycle  12 NSaved=  12.
 NSaved=12 IEnMin=12 EnMin= -1125.48663578086     IErMin=12 ErrMin= 9.44D-08
 ErrMax= 9.44D-08  0.00D+00 EMaxC= 1.00D-01 BMatC= 1.56D-11 BMatP= 1.42D-10
 IDIUse=1 WtCom= 1.00D+00 WtEn= 0.00D+00
 Coeff-Com:  0.769D-07-0.205D-06-0.230D-04-0.476D-04-0.160D-03-0.350D-03
 Coeff-Com: -0.453D-03 0.233D-02 0.201D-01 0.674D-01 0.307D+00 0.604D+00
 Coeff:      0.769D-07-0.205D-06-0.230D-04-0.476D-04-0.160D-03-0.350D-03
 Coeff:     -0.453D-03 0.233D-02 0.201D-01 0.674D-01 0.307D+00 0.604D+00
 Gap=     0.269 Goal=   None    Shift=    0.000
 RMSDP=9.32D-09 MaxDP=7.60D-07 DE=-1.91D-10 OVMax= 5.20D-07

 Error on total polarization charges =  0.07030
 SCF Done:  E(RB3LYP) =  -1125.48663578     A.U. after   12 cycles
            NFock= 12  Conv=0.93D-08     -V/T= 2.0035
 KE= 1.121541508041D+03 PE=-5.352755525836D+03 EE= 1.754412843026D+03
 SMD-CDS (non-electrostatic) energy       (kcal/mol) =       9.67
 (included in total energy above)
 Leave Link  502 at Mon Dec 12 00:24:13 2022, MaxMem=  6710886400 cpu:            2277.1 elap:              96.3
 (Enter /data0/home/software/g16/l601.exe)
 Copying SCF densities to generalized density rwf, IOpCl= 0 IROHF=0.

 **********************************************************************

            Population analysis using the SCF density.

 **********************************************************************

 Orbital symmetries:
       Occupied  (A) (A) (A) (A) (A) (A) (A) (A) (A) (A) (A) (A)
                 (A) (A) (A) (A) (A) (A) (A) (A) (A) (A) (A) (A)
                 (A) (A) (A) (A) (A) (A) (A) (A) (A) (A) (A) (A)
                 (A) (A) (A) (A) (A) (A) (A) (A) (A) (A) (A) (A)
                 (A) (A) (A) (A) (A) (A) (A) (A) (A) (A) (A) (A)
                 (A) (A) (A) (A) (A)
       Virtual   (A) (A) (A) (A) (A) (A) (A) (A) (A) (A) (A) (A)
                 (A) (A) (A) (A) (A) (A) (A) (A) (A) (A) (A) (A)
                 (A) (A) (A) (A) (A) (A) (A) (A) (A) (A) (A) (A)
                 (A) (A) (A) (A) (A) (A) (A) (A) (A) (A) (A) (A)
                 (A) (A) (A) (A) (A) (A) (A) (A) (A) (A) (A) (A)
                 (A) (A) (A) (A) (A) (A) (A) (A) (A) (A) (A) (A)
                 (A) (A) (A) (A) (A) (A) (A) (A) (A) (A) (A) (A)
                 (A) (A) (A) (A) (A) (A) (A) (A) (A) (A) (A) (A)
                 (A) (A) (A) (A) (A) (A) (A) (A) (A) (A) (A) (A)
                 (A) (A) (A) (A) (A) (A) (A) (A) (A) (A) (A) (A)
                 (A) (A) (A) (A) (A) (A) (A) (A) (A) (A) (A) (A)
                 (A) (A) (A) (A) (A) (A) (A) (A) (A) (A) (A) (A)
                 (A) (A) (A) (A) (A) (A) (A) (A) (A) (A) (A) (A)
                 (A) (A) (A) (A) (A) (A) (A) (A) (A) (A) (A) (A)
                 (A) (A) (A) (A) (A) (A) (A) (A) (A) (A) (A) (A)
                 (A) (A) (A) (A) (A) (A) (A) (A) (A) (A) (A) (A)
                 (A) (A) (A) (A) (A) (A) (A) (A) (A) (A) (A) (A)
                 (A) (A) (A) (A) (A) (A) (A) (A) (A) (A) (A) (A)
                 (A) (A) (A) (A) (A) (A) (A) (A) (A) (A) (A) (A)
                 (A) (A) (A) (A) (A) (A) (A) (A) (A) (A) (A) (A)
                 (A) (A) (A) (A) (A) (A) (A) (A) (A) (A) (A) (A)
                 (A) (A) (A) (A) (A) (A) (A) (A) (A) (A) (A) (A)
                 (A) (A) (A) (A) (A) (A) (A) (A) (A) (A) (A) (A)
                 (A) (A) (A) (A) (A) (A) (A) (A) (A) (A) (A) (A)
                 (A) (A) (A) (A) (A) (A) (A) (A) (A) (A) (A) (A)
                 (A) (A) (A) (A) (A) (A) (A) (A) (A) (A) (A) (A)
                 (A) (A) (A) (A) (A) (A) (A) (A) (A) (A) (A) (A)
                 (A) (A) (A) (A) (A) (A) (A) (A) (A) (A) (A) (A)
                 (A) (A) (A) (A) (A) (A) (A) (A) (A) (A) (A) (A)
                 (A) (A) (A) (A) (A) (A) (A) (A) (A) (A) (A) (A)
                 (A) (A) (A) (A) (A) (A) (A) (A) (A) (A) (A) (A)
                 (A) (A) (A) (A) (A) (A) (A) (A) (A) (A) (A) (A)
                 (A) (A) (A) (A) (A) (A) (A) (A) (A) (A) (A) (A)
                 (A) (A) (A) (A) (A) (A) (A) (A) (A) (A) (A) (A)
                 (A) (A) (A) (A) (A) (A) (A) (A) (A) (A) (A) (A)
                 (A) (A) (A) (A) (A) (A) (A) (A) (A) (A) (A) (A)
                 (A) (A) (A) (A) (A) (A) (A) (A) (A) (A) (A) (A)
                 (A) (A) (A) (A) (A) (A) (A) (A) (A) (A) (A) (A)
 The electronic state is 1-A.
 Alpha  occ. eigenvalues --  -77.18115 -19.14957 -19.14859 -19.14336 -19.10074
 Alpha  occ. eigenvalues --  -19.09826 -19.09556 -14.44032 -10.28018 -10.21933
 Alpha  occ. eigenvalues --  -10.21176 -10.20709 -10.20508 -10.17467 -10.16903
 Alpha  occ. eigenvalues --   -6.66018  -4.82297  -4.82268  -4.82086  -1.09413
 Alpha  occ. eigenvalues --   -1.07311  -1.01770  -1.01428  -1.00819  -0.98412
 Alpha  occ. eigenvalues --   -0.98203  -0.79818  -0.73462  -0.73085  -0.71770
 Alpha  occ. eigenvalues --   -0.64401  -0.61345  -0.59731  -0.55933  -0.55086
 Alpha  occ. eigenvalues --   -0.52398  -0.51935  -0.51280  -0.49820  -0.48051
 Alpha  occ. eigenvalues --   -0.46659  -0.46269  -0.45341  -0.44479  -0.43466
 Alpha  occ. eigenvalues --   -0.42318  -0.41907  -0.40546  -0.39771  -0.39353
 Alpha  occ. eigenvalues --   -0.39140  -0.38684  -0.38457  -0.38159  -0.37442
 Alpha  occ. eigenvalues --   -0.35988  -0.35822  -0.35140  -0.33593  -0.33286
 Alpha  occ. eigenvalues --   -0.33005  -0.31072  -0.29588  -0.27871  -0.27348
 Alpha virt. eigenvalues --   -0.00414   0.00808   0.01795   0.02304   0.02560
 Alpha virt. eigenvalues --    0.03513   0.03862   0.04161   0.04474   0.04983
 Alpha virt. eigenvalues --    0.05531   0.06277   0.06763   0.07219   0.07573
 Alpha virt. eigenvalues --    0.07962   0.08395   0.08663   0.10160   0.10451
 Alpha virt. eigenvalues --    0.11145   0.11472   0.11966   0.11993   0.12519
 Alpha virt. eigenvalues --    0.12712   0.13034   0.13358   0.13866   0.14073
 Alpha virt. eigenvalues --    0.14822   0.15285   0.15530   0.15590   0.15798
 Alpha virt. eigenvalues --    0.16150   0.16590   0.17199   0.17348   0.17728
 Alpha virt. eigenvalues --    0.17940   0.18203   0.19073   0.19357   0.19931
 Alpha virt. eigenvalues --    0.20401   0.20946   0.21450   0.22064   0.22333
 Alpha virt. eigenvalues --    0.22638   0.22926   0.23196   0.23586   0.24052
 Alpha virt. eigenvalues --    0.24502   0.25089   0.25458   0.25891   0.26197
 Alpha virt. eigenvalues --    0.26370   0.26639   0.27067   0.27376   0.27737
 Alpha virt. eigenvalues --    0.28199   0.28778   0.29050   0.29180   0.29430
 Alpha virt. eigenvalues --    0.30042   0.30240   0.31550   0.31882   0.32281
 Alpha virt. eigenvalues --    0.33438   0.33764   0.34159   0.34456   0.35120
 Alpha virt. eigenvalues --    0.35554   0.36670   0.37856   0.38035   0.38703
 Alpha virt. eigenvalues --    0.38818   0.39744   0.40791   0.41660   0.41822
 Alpha virt. eigenvalues --    0.42257   0.44481   0.45220   0.45875   0.47086
 Alpha virt. eigenvalues --    0.47728   0.48573   0.49324   0.49676   0.50672
 Alpha virt. eigenvalues --    0.51778   0.51816   0.52019   0.52990   0.53630
 Alpha virt. eigenvalues --    0.54483   0.55368   0.56466   0.56606   0.57424
 Alpha virt. eigenvalues --    0.59196   0.59709   0.60101   0.60544   0.61293
 Alpha virt. eigenvalues --    0.62118   0.62475   0.63799   0.64441   0.65447
 Alpha virt. eigenvalues --    0.66116   0.66739   0.67575   0.68913   0.69268
 Alpha virt. eigenvalues --    0.69628   0.70092   0.70837   0.71950   0.72325
 Alpha virt. eigenvalues --    0.73594   0.73793   0.74561   0.74939   0.75566
 Alpha virt. eigenvalues --    0.75768   0.76614   0.77469   0.78136   0.78720
 Alpha virt. eigenvalues --    0.80128   0.81243   0.82533   0.84240   0.84869
 Alpha virt. eigenvalues --    0.85380   0.87073   0.88790   0.89301   0.90886
 Alpha virt. eigenvalues --    0.92746   0.93465   0.95563   0.96089   0.99007
 Alpha virt. eigenvalues --    1.00922   1.01844   1.04723   1.05414   1.06425
 Alpha virt. eigenvalues --    1.06936   1.08011   1.09293   1.09687   1.10432
 Alpha virt. eigenvalues --    1.10689   1.11418   1.12847   1.13109   1.13579
 Alpha virt. eigenvalues --    1.14536   1.15954   1.16255   1.16910   1.17378
 Alpha virt. eigenvalues --    1.18207   1.19062   1.19943   1.20651   1.21338
 Alpha virt. eigenvalues --    1.21555   1.22418   1.23323   1.24117   1.24368
 Alpha virt. eigenvalues --    1.25889   1.26439   1.27050   1.28268   1.30127
 Alpha virt. eigenvalues --    1.30733   1.31396   1.32217   1.33050   1.33420
 Alpha virt. eigenvalues --    1.34383   1.35056   1.36961   1.38363   1.38824
 Alpha virt. eigenvalues --    1.39640   1.39888   1.41680   1.42362   1.43438
 Alpha virt. eigenvalues --    1.44926   1.45640   1.47045   1.49920   1.50064
 Alpha virt. eigenvalues --    1.50639   1.52185   1.54533   1.55014   1.56798
 Alpha virt. eigenvalues --    1.57288   1.58219   1.59790   1.60199   1.62049
 Alpha virt. eigenvalues --    1.64450   1.65521   1.65865   1.67222   1.68451
 Alpha virt. eigenvalues --    1.69960   1.71572   1.72164   1.73281   1.73965
 Alpha virt. eigenvalues --    1.75630   1.76857   1.77414   1.78400   1.79826
 Alpha virt. eigenvalues --    1.80947   1.81196   1.82210   1.83295   1.84713
 Alpha virt. eigenvalues --    1.86437   1.87868   1.88527   1.90745   1.92006
 Alpha virt. eigenvalues --    1.92404   1.93199   1.95147   1.95664   1.97254
 Alpha virt. eigenvalues --    1.98603   2.00555   2.01702   2.02550   2.04172
 Alpha virt. eigenvalues --    2.05440   2.05858   2.07474   2.08485   2.09451
 Alpha virt. eigenvalues --    2.10249   2.11375   2.13524   2.14365   2.16760
 Alpha virt. eigenvalues --    2.20667   2.22296   2.23472   2.24504   2.24969
 Alpha virt. eigenvalues --    2.26166   2.27637   2.28126   2.29156   2.29856
 Alpha virt. eigenvalues --    2.30920   2.32240   2.33895   2.36288   2.36936
 Alpha virt. eigenvalues --    2.37208   2.38472   2.39666   2.39792   2.40822
 Alpha virt. eigenvalues --    2.41562   2.43149   2.43335   2.43872   2.45344
 Alpha virt. eigenvalues --    2.47638   2.48406   2.50588   2.52873   2.54398
 Alpha virt. eigenvalues --    2.55557   2.56769   2.58454   2.59811   2.63764
 Alpha virt. eigenvalues --    2.64629   2.67790   2.68568   2.69941   2.70721
 Alpha virt. eigenvalues --    2.72323   2.75000   2.78862   2.79388   2.81000
 Alpha virt. eigenvalues --    2.83258   2.83907   2.86706   2.88419   2.90011
 Alpha virt. eigenvalues --    2.90894   2.93474   2.94934   2.97054   2.98597
 Alpha virt. eigenvalues --    3.02310   3.03191   3.05588   3.08523   3.08887
 Alpha virt. eigenvalues --    3.11764   3.14637   3.16180   3.18916   3.22170
 Alpha virt. eigenvalues --    3.23120   3.25395   3.30293   3.31535   3.33427
 Alpha virt. eigenvalues --    3.34311   3.35295   3.37554   3.38375   3.40038
 Alpha virt. eigenvalues --    3.41314   3.43634   3.46283   3.48193   3.50772
 Alpha virt. eigenvalues --    3.55329   3.55905   3.56189   3.59907   3.60852
 Alpha virt. eigenvalues --    3.61568   3.62345   3.65269   3.66238   3.66971
 Alpha virt. eigenvalues --    3.68744   3.69703   3.71925   3.74284   3.77135
 Alpha virt. eigenvalues --    3.77652   3.82478   3.83348   3.84114   3.86827
 Alpha virt. eigenvalues --    3.87310   3.91692   3.97310   4.02933   4.14869
 Alpha virt. eigenvalues --    4.16742   4.17588   4.19127   4.20171   4.21732
 Alpha virt. eigenvalues --    4.22925   4.24582   4.29009   4.34061   4.41635
 Alpha virt. eigenvalues --    4.54571   4.77847   4.79865   4.81416   4.96113
 Alpha virt. eigenvalues --    4.99781   5.00708   5.03055   5.05640   5.08329
 Alpha virt. eigenvalues --    5.12908   5.14581   5.19175   5.22175   5.27387
 Alpha virt. eigenvalues --    5.28611   5.30876   5.31232   5.34761   5.51173
 Alpha virt. eigenvalues --    5.51762   5.52650   5.54822   5.58167   5.59080
 Alpha virt. eigenvalues --    5.84784   6.14407   6.74195   6.75685   6.77512
 Alpha virt. eigenvalues --    6.80440   6.81119   6.81532   6.82443   6.86270
 Alpha virt. eigenvalues --    6.87689   6.89720   6.94743   6.95955   6.98187
 Alpha virt. eigenvalues --    6.99249   7.01034   7.03876   7.04453   7.06772
 Alpha virt. eigenvalues --    7.08653   7.15686   7.17267   7.20392   7.26705
 Alpha virt. eigenvalues --    7.29965   7.32146   7.34385   7.35857   7.41773
 Alpha virt. eigenvalues --    7.42922   7.45783   7.61401  14.04922  14.11709
 Alpha virt. eigenvalues --   14.23293  23.90098  23.94592  24.00565  24.01992
 Alpha virt. eigenvalues --   24.04871  24.06692  24.18112  35.45287  49.94041
 Alpha virt. eigenvalues --   49.95461  49.96977  50.00182  50.04606  50.08596
 Alpha virt. eigenvalues --  163.62621
          Condensed to atoms (all electrons):
               1          2          3          4          5          6
     1  C    5.464462   0.396491   0.400920   0.402500  -0.145365  -0.015408
     2  H    0.396491   0.471004  -0.020168  -0.021820  -0.014735   0.001697
     3  H    0.400920  -0.020168   0.473917  -0.017822  -0.010588   0.000229
     4  H    0.402500  -0.021820  -0.017822   0.445059   0.012575   0.000201
     5  C   -0.145365  -0.014735  -0.010588   0.012575   5.391581   0.393234
     6  H   -0.015408   0.001697   0.000229   0.000201   0.393234   0.471092
     7  H    0.017050   0.000112   0.000071  -0.000282   0.400111  -0.021023
     8  H   -0.017279   0.000367   0.001985   0.000075   0.414964  -0.020947
     9  C   -0.157253  -0.013960   0.019233  -0.005635  -0.172350  -0.013603
    10  H    0.017029   0.000045  -0.000355   0.000077  -0.013430   0.000262
    11  H   -0.014667   0.000467   0.000047  -0.000155  -0.011310   0.001571
    12  H   -0.004458  -0.000340   0.000389   0.001948   0.006980   0.000157
    13  C   -0.222269   0.028386  -0.014821  -0.016089  -0.314584   0.031344
    14  H   -0.001728   0.000195   0.002416   0.000492  -0.012772   0.000095
    15  H    0.001923  -0.000040   0.000135   0.000290   0.011727  -0.000200
    16  C   -0.013556   0.000483  -0.002502  -0.004308   0.091160   0.001250
    17  H    0.004662  -0.000002   0.000026   0.000056   0.002192  -0.000159
    18  H   -0.002445   0.000005  -0.000001  -0.000001  -0.005887   0.000032
    19  C   -0.036285   0.000191   0.001478  -0.002637  -0.065689   0.002040
    20  H    0.000193  -0.000001  -0.000000   0.000001   0.000261  -0.000001
    21  H    0.000743  -0.000000   0.000002   0.000005   0.000325  -0.000001
    22  N    0.271329  -0.021322  -0.027257  -0.020729   0.344632  -0.027210
    23  C    0.019209   0.000278   0.000451   0.001463   0.013820  -0.000372
    24  O   -0.012301   0.000027   0.000150  -0.000535   0.001314   0.000038
    25  O   -0.000370  -0.000001  -0.000004   0.000039  -0.000171  -0.000002
    26  P   -0.008559   0.000185   0.000203   0.001269  -0.004898   0.000057
    27  O    0.000389  -0.000002  -0.000012  -0.000659  -0.000525   0.000000
    28  O   -0.000906   0.000012   0.000013  -0.000102  -0.000160   0.000000
    29  H    0.000618  -0.000001  -0.000002   0.000120   0.000036   0.000000
    30  O   -0.003874   0.000391  -0.000329   0.005960  -0.003691  -0.000019
    31  H    0.006657  -0.000095  -0.000344  -0.000416   0.000502  -0.000003
    32  O   -0.010131   0.000078   0.000027   0.001111   0.004883  -0.000008
    33  H    0.002863  -0.000050  -0.000043  -0.000452   0.000317  -0.000007
               7          8          9         10         11         12
     1  C    0.017050  -0.017279  -0.157253   0.017029  -0.014667  -0.004458
     2  H    0.000112   0.000367  -0.013960   0.000045   0.000467  -0.000340
     3  H    0.000071   0.001985   0.019233  -0.000355   0.000047   0.000389
     4  H   -0.000282   0.000075  -0.005635   0.000077  -0.000155   0.001948
     5  C    0.400111   0.414964  -0.172350  -0.013430  -0.011310   0.006980
     6  H   -0.021023  -0.020947  -0.013603   0.000262   0.001571   0.000157
     7  H    0.472709  -0.022061  -0.007914   0.001805   0.000250   0.000100
     8  H   -0.022061   0.461619   0.013947   0.000038   0.000324  -0.000264
     9  C   -0.007914   0.013947   5.447892   0.409775   0.402383   0.398608
    10  H    0.001805   0.000038   0.409775   0.473966  -0.019272  -0.021770
    11  H    0.000250   0.000324   0.402383  -0.019272   0.468490  -0.022368
    12  H    0.000100  -0.000264   0.398608  -0.021770  -0.022368   0.480165
    13  C   -0.046604  -0.004851  -0.059268   0.001450   0.019309  -0.012567
    14  H    0.000020   0.000603   0.010553   0.000070  -0.000085   0.000332
    15  H    0.000135   0.000355  -0.002808  -0.000615   0.000001  -0.000656
    16  C    0.018457  -0.005933  -0.133424  -0.017430   0.001680   0.005595
    17  H   -0.000709   0.000207  -0.010678   0.004360   0.000107   0.000366
    18  H   -0.000557   0.000589   0.006336   0.000205  -0.000011  -0.000121
    19  C    0.004294  -0.002889   0.093620   0.003713  -0.001207   0.001013
    20  H    0.000019   0.000001   0.000912   0.000003  -0.000002  -0.000032
    21  H   -0.000004   0.000005  -0.000107  -0.000015   0.000002   0.000041
    22  N   -0.016002  -0.024235   0.221689  -0.026405  -0.023546  -0.024852
    23  C    0.000646   0.000467  -0.056543  -0.000372   0.001296  -0.001801
    24  O    0.000187   0.000097  -0.005779  -0.008674   0.002896  -0.008366
    25  O   -0.000001  -0.000006   0.004036  -0.000063  -0.000015  -0.000434
    26  P   -0.000023  -0.000026  -0.002335   0.000847   0.000125   0.003003
    27  O    0.000001   0.000000   0.000140   0.000031   0.000011  -0.000767
    28  O   -0.000000  -0.000000   0.001111  -0.000033   0.000004   0.000996
    29  H    0.000000   0.000000  -0.000132   0.000018  -0.000000   0.000052
    30  O   -0.000006  -0.000005  -0.012524  -0.000202   0.000321   0.007037
    31  H   -0.000002  -0.000005  -0.000201  -0.000019  -0.000013  -0.000100
    32  O   -0.000005  -0.000004   0.011859  -0.002820  -0.000096   0.004694
    33  H   -0.000016  -0.000003   0.001790   0.002047  -0.000227  -0.006654
              13         14         15         16         17         18
     1  C   -0.222269  -0.001728   0.001923  -0.013556   0.004662  -0.002445
     2  H    0.028386   0.000195  -0.000040   0.000483  -0.000002   0.000005
     3  H   -0.014821   0.002416   0.000135  -0.002502   0.000026  -0.000001
     4  H   -0.016089   0.000492   0.000290  -0.004308   0.000056  -0.000001
     5  C   -0.314584  -0.012772   0.011727   0.091160   0.002192  -0.005887
     6  H    0.031344   0.000095  -0.000200   0.001250  -0.000159   0.000032
     7  H   -0.046604   0.000020   0.000135   0.018457  -0.000709  -0.000557
     8  H   -0.004851   0.000603   0.000355  -0.005933   0.000207   0.000589
     9  C   -0.059268   0.010553  -0.002808  -0.133424  -0.010678   0.006336
    10  H    0.001450   0.000070  -0.000615  -0.017430   0.004360   0.000205
    11  H    0.019309  -0.000085   0.000001   0.001680   0.000107  -0.000011
    12  H   -0.012567   0.000332  -0.000656   0.005595   0.000366  -0.000121
    13  C    7.198214   0.396263   0.366355  -0.753788  -0.117434  -0.048172
    14  H    0.396263   0.486629  -0.023601  -0.026400   0.004475  -0.010418
    15  H    0.366355  -0.023601   0.480823  -0.028618   0.001183   0.004954
    16  C   -0.753788  -0.026400  -0.028618   6.363436   0.521523   0.396009
    17  H   -0.117434   0.004475   0.001183   0.521523   0.532345  -0.036388
    18  H   -0.048172  -0.010418   0.004954   0.396009  -0.036388   0.550523
    19  C    0.214226   0.007949  -0.047120  -0.566651  -0.075765  -0.002874
    20  H    0.007069  -0.000239   0.000612  -0.045323  -0.007610  -0.002316
    21  H    0.011224   0.000611   0.000198  -0.072812   0.007208  -0.006555
    22  N   -0.154796  -0.025965  -0.000823   0.129350   0.027315  -0.006267
    23  C   -0.272990  -0.001496   0.040817   0.270044  -0.006562   0.020289
    24  O    0.005148   0.001718  -0.002717  -0.071078  -0.001629   0.000713
    25  O   -0.008319  -0.000544   0.005160   0.009614  -0.000420  -0.000826
    26  P   -0.002061  -0.000061   0.002531  -0.014177   0.000119   0.000095
    27  O   -0.000181   0.000011   0.000451  -0.001358   0.000005   0.000000
    28  O    0.004794  -0.000013  -0.001472   0.003231  -0.000020  -0.000006
    29  H   -0.008047   0.000014   0.000335   0.003525   0.000004   0.000006
    30  O    0.037034  -0.000920  -0.021688  -0.003044  -0.000248  -0.000061
    31  H    0.009352  -0.000165   0.000397   0.000300  -0.000009   0.000000
    32  O   -0.020155   0.000002   0.002092   0.012980  -0.000184   0.000007
    33  H    0.002356  -0.000020  -0.001147   0.004768   0.000494  -0.000035
              19         20         21         22         23         24
     1  C   -0.036285   0.000193   0.000743   0.271329   0.019209  -0.012301
     2  H    0.000191  -0.000001  -0.000000  -0.021322   0.000278   0.000027
     3  H    0.001478  -0.000000   0.000002  -0.027257   0.000451   0.000150
     4  H   -0.002637   0.000001   0.000005  -0.020729   0.001463  -0.000535
     5  C   -0.065689   0.000261   0.000325   0.344632   0.013820   0.001314
     6  H    0.002040  -0.000001  -0.000001  -0.027210  -0.000372   0.000038
     7  H    0.004294   0.000019  -0.000004  -0.016002   0.000646   0.000187
     8  H   -0.002889   0.000001   0.000005  -0.024235   0.000467   0.000097
     9  C    0.093620   0.000912  -0.000107   0.221689  -0.056543  -0.005779
    10  H    0.003713   0.000003  -0.000015  -0.026405  -0.000372  -0.008674
    11  H   -0.001207  -0.000002   0.000002  -0.023546   0.001296   0.002896
    12  H    0.001013  -0.000032   0.000041  -0.024852  -0.001801  -0.008366
    13  C    0.214226   0.007069   0.011224  -0.154796  -0.272990   0.005148
    14  H    0.007949  -0.000239   0.000611  -0.025965  -0.001496   0.001718
    15  H   -0.047120   0.000612   0.000198  -0.000823   0.040817  -0.002717
    16  C   -0.566651  -0.045323  -0.072812   0.129350   0.270044  -0.071078
    17  H   -0.075765  -0.007610   0.007208   0.027315  -0.006562  -0.001629
    18  H   -0.002874  -0.002316  -0.006555  -0.006267   0.020289   0.000713
    19  C    6.665117   0.427544   0.463503  -0.062903  -0.416859  -0.054649
    20  H    0.427544   0.534990  -0.034548  -0.000032  -0.044977  -0.000464
    21  H    0.463503  -0.034548   0.545626   0.001014  -0.069523   0.007303
    22  N   -0.062903  -0.000032   0.001014   6.418070   0.048356  -0.031806
    23  C   -0.416859  -0.044977  -0.069523   0.048356   5.212675   0.325193
    24  O   -0.054649  -0.000464   0.007303  -0.031806   0.325193   8.555932
    25  O   -0.060683   0.002977  -0.006627  -0.001844   0.354982  -0.043758
    26  P    0.028644  -0.000126  -0.000677   0.002553  -0.019739   0.026535
    27  O    0.003192   0.000001  -0.000007  -0.000913  -0.002403   0.002906
    28  O   -0.012469   0.000014   0.000271  -0.002390   0.011191  -0.018763
    29  H   -0.001044  -0.000095  -0.000165   0.000460   0.007311   0.009738
    30  O   -0.010476  -0.000031   0.000040  -0.019097   0.005536   0.007133
    31  H   -0.000931   0.000001  -0.000010  -0.003104  -0.000662  -0.001817
    32  O   -0.002426   0.000013   0.000087   0.012634   0.012928  -0.043817
    33  H    0.011975  -0.000194   0.000093   0.000098  -0.030164   0.085760
              25         26         27         28         29         30
     1  C   -0.000370  -0.008559   0.000389  -0.000906   0.000618  -0.003874
     2  H   -0.000001   0.000185  -0.000002   0.000012  -0.000001   0.000391
     3  H   -0.000004   0.000203  -0.000012   0.000013  -0.000002  -0.000329
     4  H    0.000039   0.001269  -0.000659  -0.000102   0.000120   0.005960
     5  C   -0.000171  -0.004898  -0.000525  -0.000160   0.000036  -0.003691
     6  H   -0.000002   0.000057   0.000000   0.000000   0.000000  -0.000019
     7  H   -0.000001  -0.000023   0.000001  -0.000000   0.000000  -0.000006
     8  H   -0.000006  -0.000026   0.000000  -0.000000   0.000000  -0.000005
     9  C    0.004036  -0.002335   0.000140   0.001111  -0.000132  -0.012524
    10  H   -0.000063   0.000847   0.000031  -0.000033   0.000018  -0.000202
    11  H   -0.000015   0.000125   0.000011   0.000004  -0.000000   0.000321
    12  H   -0.000434   0.003003  -0.000767   0.000996   0.000052   0.007037
    13  C   -0.008319  -0.002061  -0.000181   0.004794  -0.008047   0.037034
    14  H   -0.000544  -0.000061   0.000011  -0.000013   0.000014  -0.000920
    15  H    0.005160   0.002531   0.000451  -0.001472   0.000335  -0.021688
    16  C    0.009614  -0.014177  -0.001358   0.003231   0.003525  -0.003044
    17  H   -0.000420   0.000119   0.000005  -0.000020   0.000004  -0.000248
    18  H   -0.000826   0.000095   0.000000  -0.000006   0.000006  -0.000061
    19  C   -0.060683   0.028644   0.003192  -0.012469  -0.001044  -0.010476
    20  H    0.002977  -0.000126   0.000001   0.000014  -0.000095  -0.000031
    21  H   -0.006627  -0.000677  -0.000007   0.000271  -0.000165   0.000040
    22  N   -0.001844   0.002553  -0.000913  -0.002390   0.000460  -0.019097
    23  C    0.354982  -0.019739  -0.002403   0.011191   0.007311   0.005536
    24  O   -0.043758   0.026535   0.002906  -0.018763   0.009738   0.007133
    25  O    8.397678   0.019653   0.001070  -0.036524   0.070493  -0.003278
    26  P    0.019653  12.169438   0.490567   0.246995   0.009038   0.220966
    27  O    0.001070   0.490567   8.337070  -0.023080   0.006605  -0.007219
    28  O   -0.036524   0.246995  -0.023080   8.291992   0.214959   0.050505
    29  H    0.070493   0.009038   0.006605   0.214959   0.247886  -0.014348
    30  O   -0.003278   0.220966  -0.007219   0.050505  -0.014348   8.198505
[...]
 00020520,0.00214975,-0.00062557,0.00116664,-0.00133402,0.00513210,0.00
 905187,-0.00603314,-0.05368001,-0.03002082,-0.02672352,0.00751120,-0.0
 0376419,-0.00078389,0.07292427,0.00011144,-0.00002795,0.00004380,-0.00
 003165,0.00001101,0.00002712,-0.00000270,0.00000491,-0.00000136,-0.000
 00532,-0.00000117,-0.00000346,0.00001738,0.00007353,0.00001916,-0.0000
 0969,-0.00000897,0.00002325,-0.00003546,0.00000989,-0.00001840,0.00000
 661,-0.00000243,-0.00000465,-0.00004682,-0.00007720,0.00000888,-0.0000
 2738,0.00000520,-0.00001901,0.00000551,0.00001502,0.00001574,0.0000051
 4,0.00000019,-0.00000438,0.00038866,-0.00011033,-0.00038800,-0.0000219
 8,-0.00000655,0.00003802,0.00000256,0.00002179,-0.00002367,0.00022955,
 -0.00173069,0.00009502,0.00001561,0.00009594,0.00004397,0.00019766,-0.
 00008385,0.00076004,0.00368358,0.00031542,0.00348832,0.00028268,-0.000
 40853,0.00033192,0.00002558,0.00041451,0.00020044,-0.00012386,0.000042
 26,0.00019862,-0.02140502,-0.01551513,-0.01909499,0.00635520,0.0127610
 3,0.00427576,0.02481660,-0.05345999,0.04993315,-0.03333772,-0.20555996
 ,-0.08315358,-0.01096416,-0.04706300,-0.00703967,0.00856572,0.47025970
 ,-0.00004867,0.00000660,-0.00001701,0.00001296,-0.00000407,-0.00001169
 ,0.00000120,-0.00000182,0.00000139,0.00000281,0.00000408,0.00000178,-0
 .00000366,-0.00003982,-0.00000677,0.00000327,0.00000563,-0.00001030,0.
 00001366,-0.00000373,0.00000758,-0.00000213,0.00000212,0.00000139,0.00
 001946,0.00002470,-0.00000347,0.00001374,-0.00000280,0.00000841,-0.000
 00181,-0.00000475,-0.00000776,-0.00000376,0.00000377,0.00000294,-0.000
 15592,0.00002646,0.00016797,0.00000984,0.00000620,-0.00001861,-0.00001
 371,0.00000023,0.00001498,-0.00004738,0.00066623,0.00000295,0.00000704
 ,-0.00004515,-0.00001389,-0.00008259,0.00004162,-0.00029618,-0.0008655
 6,-0.00010371,-0.00150515,-0.00007915,0.00010168,-0.00008018,-0.000001
 10,-0.00004578,-0.00008711,0.00004991,-0.00000705,-0.00008577,0.007118
 99,0.00374439,0.00699788,-0.00250200,-0.00118950,-0.00208009,-0.008697
 62,0.02430480,-0.01024576,-0.02875090,-0.07735010,-0.11512220,0.004039
 88,0.01789773,0.00743222,0.06183345,-0.00423252,0.23609078,0.00003237,
 -0.00001048,0.00000991,-0.00000962,0.00000357,0.00000768,-0.00000103,0
 .00000002,0.00000104,0.00000029,0.00000040,0.00000040,0.00000143,0.000
 02192,0.00000587,-0.00000119,-0.00000326,0.00000627,-0.00000825,0.0000
 0233,-0.00000475,0.00000171,-0.00000101,-0.00000122,-0.00001159,-0.000
 01477,0.00000318,-0.00000985,0.00000319,-0.00000520,0.00000074,0.00000
 298,0.00000508,0.00000383,-0.00000167,-0.00000275,0.00008707,0.0000013
 5,-0.00009579,-0.00000662,-0.00000735,0.00001382,0.00001437,0.00000222
 ,-0.00000919,0.00012114,-0.00017122,-0.00000742,-0.00000641,0.00001252
 ,0.00002699,0.00001578,-0.00003894,0.00013882,0.00169123,-0.00080902,-
 0.00069225,0.00017951,-0.00042712,0.00030840,0.00010418,0.00020620,0.0
 0014954,-0.00003635,0.00000725,0.00005504,-0.00863449,0.00467870,-0.01
 026168,0.00178005,0.00289843,0.00329902,-0.01260385,-0.01433461,0.0094
 6553,0.00065903,-0.00217002,0.00824293,0.00104078,-0.00568199,-0.00093
 586,-0.02693427,0.02548624,-0.02491325,0.04461280,-0.00014981,0.000034
 25,-0.00005657,0.00004284,-0.00001501,-0.00003575,0.00000357,-0.000005
 49,0.00000121,0.00000584,0.00000242,0.00000263,-0.00002174,-0.00010160
 ,-0.00002537,0.00001235,0.00001317,-0.00003104,0.00004579,-0.00001330,
 0.00002376,-0.00000809,0.00000420,0.00000570,0.00005933,0.00009618,-0.
 00001233,0.00003764,-0.00000780,0.00002615,-0.00000669,-0.00001874,-0.
 00002102,-0.00000852,0.00000285,0.00000565,-0.00052281,0.00014731,0.00
 050186,0.00002823,0.00001657,-0.00005466,-0.00001924,-0.00003034,0.000
 04386,-0.00021103,0.00221658,-0.00015962,0.00000428,-0.00013324,-0.000
 02978,-0.00023034,0.00014136,-0.00099216,-0.00487659,0.00025738,-0.004
 01389,-0.00037161,0.00061862,-0.00059596,-0.00007327,-0.00040400,-0.00
 035125,0.00016974,-0.00005050,-0.00026404,0.02780227,0.01886807,0.0254
 1793,-0.00915859,-0.01476728,-0.00712455,-0.02412549,0.01011846,-0.037
 31563,-0.00869096,-0.06158846,-0.02110860,0.00302566,0.01231906,0.0000
 0878,0.02268860,-0.14094858,0.08359064,-0.00704767,0.15783772,0.000100
 52,-0.00002027,0.00003827,-0.00002820,0.00000953,0.00002390,-0.0000021
 5,0.00000405,-0.00000143,-0.00000484,-0.00000381,-0.00000266,0.0000107
 0,0.00007337,0.00001769,-0.00000750,-0.00001045,0.00002108,-0.00002896
 ,0.00000894,-0.00001606,0.00000488,-0.00000285,-0.00000334,-0.00003903
 ,-0.00006336,0.00000985,-0.00002638,0.00000535,-0.00001766,0.00000437,
 0.00001199,0.00001472,0.00000545,-0.00000387,-0.00000430,0.00034629,-0
 .00009760,-0.00033109,-0.00001924,-0.00001167,0.00003871,0.00002411,0.
 00000749,-0.00004196,0.00005522,-0.00136464,0.00012738,-0.00001718,0.0
 0008060,0.00001645,0.00015660,-0.00011269,0.00060715,0.00151661,0.0000
 0608,0.00342824,0.00011315,-0.00005477,0.00017045,0.00005277,0.0001143
 3,0.00020943,-0.00010777,0.00002522,0.00017787,-0.01893341,-0.00113621
 ,-0.02057955,0.00728649,0.00777255,0.00449595,0.01272249,-0.02552410,0
 .00751066,0.00894946,-0.00297316,0.01817117,-0.00320843,-0.00946785,0.
 00003868,-0.02350093,0.08702486,-0.09851916,0.01883194,-0.04772481,0.0
 9481487,-0.00001886,0.00000842,-0.00000106,0.00000551,-0.00000249,-0.0
 0000336,0.00000099,0.00000216,-0.00000149,-0.00000207,-0.00000358,-0.0
 0000094,-0.00000131,-0.00000796,-0.00000278,0.00000014,0.00000142,-0.0
 0000233,0.00000342,-0.00000211,0.00000184,-0.00000021,0.00000090,0.000
 00103,0.00000128,0.00000252,-0.00000125,0.00000606,-0.00000341,0.00000
 385,0.00000016,0.00000040,-0.00000251,-0.00000473,0.00000253,0.0000019
 1,-0.00003919,0.00000857,0.00003927,0.00000298,0.00000864,-0.00000932,
 -0.00001698,-0.00000029,0.00001076,0.00002367,0.00007419,0.00004210,0.
 00001987,-0.00001293,0.00000945,-0.00000598,0.00001538,-0.00005384,0.0
 0003997,0.00026182,0.00007220,-0.00000963,0.00006700,-0.00003099,-0.00
 000010,0.00011718,-0.00005255,0.00002123,-0.00000354,-0.00002308,-0.00
 086179,-0.00103179,-0.00087117,0.00019394,0.00464174,-0.00119796,0.000
 08709,0.00149437,-0.00052077,-0.14224880,0.01731435,0.08663097,-0.0065
 5534,-0.00354437,0.01944980,0.00062148,0.00858793,0.01025573,0.0006845
 5,-0.00476413,0.00160848,0.56213114,0.00000817,0.,0.00000188,-0.000000
 94,0.00000006,0.00000263,-0.00000052,0.00000174,-0.00000083,-0.0000017
 2,-0.00000204,-0.00000177,-0.00000009,0.00000759,0.00000148,-0.0000000
 7,-0.00000151,0.00000202,-0.00000179,0.00000022,-0.00000117,0.00000072
 ,0.,-0.00000056,-0.00000388,-0.00000614,0.00000104,-0.00000207,0.00000
 078,-0.00000174,0.00000094,0.00000042,0.00000206,0.00000020,-0.0000009
 8,-0.00000189,0.00001916,-0.00000127,-0.00002559,-0.00000075,0.0000008
 1,0.00000199,-0.00000029,-0.00000264,-0.00000395,-0.00000431,-0.000069
 20,-0.00000270,-0.00000244,0.00000624,0.00000042,0.00000719,-0.0000088
 6,0.00003313,0.00012945,-0.00004632,0.00006758,0.00001199,-0.00002613,
 0.00002189,0.00000308,-0.00000145,0.00001805,-0.00000311,-0.00000043,0
 .00001477,-0.00071177,0.00001071,-0.00063368,0.00027448,-0.00035151,0.
 00038446,0.00066963,-0.00170610,0.00133604,0.02008721,-0.04587417,-0.0
 1182286,-0.01491755,0.00284925,0.01831860,0.01632051,-0.01235379,-0.02
 334348,-0.00103124,0.00574068,-0.00205914,-0.14143176,0.08424835,0.000
 00794,-0.00001091,0.00000336,-0.00000350,0.00000182,0.00000172,-0.0000
 0069,-0.00000076,0.00000094,0.00000160,0.00000530,0.00000074,0.0000042
 0,-0.00000276,0.00000303,-0.00000076,0.00000075,0.00000083,-0.00000288
 ,0.00000155,-0.00000119,0.00000027,0.00000060,-0.00000120,-0.00000159,
 -0.00000753,0.00000090,-0.00000174,0.00000106,-0.00000060,0.00000024,0
 .00000126,0.00000032,0.00000143,0.00000178,-0.00000083,0.00003221,-0.0
 0002316,-0.00001794,-0.00000208,-0.00000123,0.00000198,-0.00000160,0.0
 0000512,-0.00000041,0.00001076,-0.00009438,0.00000311,0.00000126,0.000
 00400,0.00000195,0.00000851,-0.00000235,0.00004459,0.00018250,0.000002
 00,0.00015449,0.00001377,-0.00002343,0.00002179,0.00000355,0.00001056,
 0.00001536,-0.00001265,0.00001246,0.00001022,-0.00115959,-0.00064502,-
 0.00107017,0.00037829,0.00051970,0.00027024,0.00098147,-0.00239704,0.0
 0233712,0.06228968,-0.00422862,-0.12800601,0.02508640,0.00719047,-0.01
 796456,0.01641059,-0.02048742,-0.01066623,-0.00013404,0.00604441,-0.00
 521055,0.07087806,-0.04066342,0.27466206,0.00000156,0.00000069,-0.0000
 0052,-0.00000036,-0.00000003,0.00000024,0.00000015,-0.00000038,0.00000
 005,0.00000046,-0.00000067,0.00000017,-0.00000015,0.00000189,0.0000001
 3,0.00000005,-0.00000027,0.00000028,-0.00000039,0.00000009,-0.00000019
 ,0.00000005,-0.00000022,-0.00000012,-0.00000014,0.00000120,-0.00000003
 ,-0.00000075,0.00000018,-0.00000035,0.,-0.00000023,0.00000023,0.000000
 39,-0.00000075,-0.00000039,0.00000283,0.00000374,-0.00000512,-0.000000
 15,-0.00000078,0.00000084,0.00000210,-0.00000057,-0.00000168,0.0000037
 5,-0.00001684,0.00000115,-0.00000100,0.00000139,0.00000050,0.00000216,
 -0.00000111,0.00000802,0.00003388,-0.00000040,0.00003868,0.00000254,-0
 .00000286,0.00000376,0.00000008,0.00000437,0.00000278,-0.00000156,-0.0
 0000144,0.00000274,-0.00024370,-0.00008266,-0.00024365,0.00010732,0.00
 015768,0.00001776,0.00020534,-0.00046764,0.00043265,-0.03083751,0.0081
 1181,-0.00463259,0.00521516,0.00134722,-0.00315876,0.00204104,-0.00350
 275,-0.00158951,-0.00001933,0.00130159,-0.00076598,-0.37003117,0.10878
 025,-0.16148412,0.39419322,-0.00000073,-0.00000048,-0.00000023,-0.0000
 0028,0.00000023,-0.00000049,0.,-0.00000109,0.00000045,0.00000071,0.000
 00116,0.00000062,0.00000032,-0.00000177,0.00000025,-0.00000010,0.00000
 038,-0.00000042,0.00000033,0.00000016,0.00000028,-0.00000039,-0.000000
 11,0.00000002,0.00000124,0.00000177,-0.00000023,0.00000037,0.00000005,
 0.00000038,-0.00000029,-0.00000016,-0.00000037,0.00000024,0.00000024,0
 .00000060,-0.00000270,-0.00000061,0.00000540,-0.00000009,-0.00000148,0
 .00000046,0.00000131,0.00000167,-0.00000145,0.00000412,0.00000849,0.00
 000027,-0.00000066,-0.00000155,-0.00000050,-0.00000137,0.00000205,-0.0
 0000358,-0.00001329,0.00000750,-0.00000051,-0.00000158,0.00000481,-0.0
 0000170,-0.00000122,-0.00000024,-0.00000201,-0.00000112,0.00000036,-0.
 00000314,0.00005169,0.00002588,0.00003476,0.00001233,0.00011054,-0.000
 07093,-0.00007476,0.00015162,-0.00013445,0.00569405,-0.00381256,0.0004
 5158,0.00015039,-0.00085239,0.00110283,-0.00150671,0.00108198,-0.00058
 356,-0.00002375,-0.00022370,0.00037672,0.11286130,-0.03615489,0.052901
 26,-0.11632037,0.03636558,0.00000013,0.00000095,0.00000068,0.00000014,
 -0.00000001,-0.00000002,0.00000014,0.00000053,-0.00000033,-0.00000063,
 -0.00000068,-0.00000020,-0.00000032,0.00000144,-0.00000037,0.,-0.00000
 021,0.00000014,0.00000005,-0.00000009,-0.00000005,-0.00000002,-0.00000
 005,0.00000013,-0.00000034,-0.00000026,-0.00000034,-0.00000013,0.00000
 018,-0.00000029,-0.00000008,0.00000018,0.00000006,0.,-0.00000013,0.000
 00025,0.00000089,0.00000025,-0.00000195,-0.00000011,0.00000062,0.00000
 046,0.00000059,-0.00000032,-0.00000066,-0.00000200,0.00000063,-0.00000
 217,-0.00000091,0.00000049,-0.00000093,0.,-0.00000130,0.00000114,-0.00
 001148,-0.00001952,-0.00001159,0.00000038,-0.00000279,0.00000077,-0.00
 000007,-0.00000769,0.00000297,0.00000026,-0.00000104,0.00000118,0.0001
 0856,0.00011048,0.00010646,-0.00003245,-0.00035319,0.00006764,-0.00004
 726,0.00001378,-0.00009074,0.02340006,-0.00685494,0.00233040,-0.001497
 03,0.00011555,-0.00094742,-0.00045527,-0.00017577,-0.00196248,-0.00014
 282,0.00011375,0.00025120,-0.19573172,0.06118618,-0.12087122,0.1694992
 0,-0.05371634,0.12039847,-0.00003328,0.00001219,-0.00000556,0.00000942
 ,-0.00000414,-0.00000633,0.00000118,0.00000080,-0.00000051,-0.00000159
 ,-0.00000175,-0.00000198,-0.00000003,-0.00002234,-0.00000420,-0.000000
 37,0.00000481,-0.00000503,0.00000537,-0.00000238,0.00000387,-0.0000008
 1,0.00000151,0.00000056,0.00000776,0.00000669,-0.00000025,0.00001099,-
 0.00000589,0.00000688,-0.00000016,-0.00000049,-0.00000553,-0.00000858,
 0.00000656,0.00000347,-0.00006202,-0.00000657,0.00007707,0.00000616,0.
 00001632,-0.00001861,-0.00003880,0.00001545,0.00002476,0.00013139,-0.0
 0004754,0.00017749,0.00004770,-0.00003383,0.00002566,0.00000238,0.0000
 3492,-0.00006010,0.00054154,0.00112496,0.00107452,-0.00000140,0.000267
 16,-0.00006029,-0.00000433,0.00046096,-0.00012551,0.00003389,0.0000019
 5,-0.00004778,-0.00687358,-0.00246865,-0.00744831,0.00906609,0.0237953
 2,-0.00451408,0.00350504,-0.00212922,0.00428359,-0.18577153,0.01783672
 ,-0.10893932,-0.00142102,0.00479297,-0.00872435,-0.01016304,-0.0105948
 0,-0.01834328,-0.00089687,0.00867407,-0.00301907,-0.04431585,0.0126855
 3,-0.01333684,-0.00026488,-0.00018998,0.00488022,0.26360702,0.00012222
 ,-0.00002966,0.00003486,-0.00003166,0.00001077,0.00002948,-0.00000325,
 0.00000467,-0.00000126,-0.00000421,-0.00000380,-0.00000373,0.00000552,
 0.00009335,0.00002194,-0.00000094,-0.00001921,0.00002356,-0.00002469,0
 .00000705,-0.00001707,0.00000606,-0.00000255,-0.00000358,-0.00005041,-
 0.00006930,0.00000996,-0.00003188,0.00000959,-0.00002202,0.00000525,0.
 00001163,0.00002041,0.00001039,-0.00001016,-0.00000677,0.00025775,0.00
 000921,-0.00037462,-0.00001815,-0.00003508,0.00006961,0.00012502,-0.00
 006136,-0.00008983,-0.00037193,-0.00029084,-0.00056217,-0.00019585,0.0
 0012679,-0.00012577,0.00001605,-0.00015218,0.00034278,-0.00235387,-0.0
 0312509,-0.00188997,0.00005974,-0.00062198,0.00015093,0.00005573,-0.00
 152767,0.00051610,-0.00011648,-0.00000138,0.00019093,0.02002435,0.0121
 2397,0.01975222,0.00019761,-0.07292567,0.01858122,-0.00792972,-0.00033
 916,-0.00881013,0.02245283,-0.07407165,0.02624990,0.02229770,-0.011372
 93,0.03015287,-0.01716543,0.00242443,-0.01826014,0.00186543,0.00151321
 ,0.00175139,0.01584976,0.00207757,0.00202569,0.00084398,0.00332911,-0.
 00115225,-0.05086556,0.32582810,-0.00005441,0.00000670,-0.00000873,0.0
 0001293,-0.00000345,-0.00001214,0.00000227,-0.00000063,-0.00000015,0.0
 0000143,0.00000516,0.00000181,0.00000277,-0.00004790,-0.00000726,-0.00
 000088,0.00000975,-0.00001034,0.00000871,-0.00000241,0.00000680,-0.000
 00181,0.00000283,0.00000105,0.00001998,0.00001243,-0.00000615,0.000017
 07,-0.00000611,0.00001227,-0.00000141,-0.00000132,-0.00001004,-0.00000
 880,0.00001164,0.00000668,-0.00009223,-0.00002170,0.00015389,0.0000046
 9,0.00001980,-0.00003029,-0.00006705,0.00002541,0.00004575,0.00019414,
 0.00004803,0.00027436,0.00007908,-0.00006799,0.00005376,-0.00001034,0.
 00006034,-0.00012218,0.00183197,0.00157097,0.00088662,-0.00001776,0.00
 018851,-0.00002995,-0.00004025,0.00085401,-0.00029424,0.00004620,0.000
 01385,-0.00007918,-0.01148699,-0.00488078,-0.01124876,0.00102597,0.039
 40089,0.00006806,0.00489067,-0.00261386,0.00676029,-0.11094149,0.02368
 448,-0.13194398,-0.01911356,0.01484310,-0.01571722,-0.02563587,-0.0153
 1699,-0.01401424,-0.00097076,0.00968998,-0.00472302,0.00416650,-0.0018
 2641,0.00606230,0.00168293,-0.00069078,0.00110546,0.16011546,-0.111239
 93,0.19878604,0.00001648,-0.00001109,0.00000806,-0.00000585,0.00000346
 ,0.00000268,0.00000016,0.,-0.00000017,0.00000126,0.00000189,0.00000149
 ,0.00000146,0.00001146,0.00000249,-0.00000015,-0.00000256,0.00000265,-
 0.00000331,0.00000147,-0.00000154,0.00000080,-0.00000059,-0.00000033,-
 0.00000613,-0.00000842,0.00000252,-0.00000403,0.00000269,-0.00000298,0
 .00000019,0.00000119,0.00000234,0.00000511,-0.00000046,-0.00000269,0.0
 0005613,0.00001544,-0.00002817,-0.00000236,-0.00001416,0.00000718,0.00
 001619,-0.00001217,-0.00001227,-0.00012265,0.00016664,-0.00012405,0.00
 000984,0.00002639,0.00002162,0.00000901,-0.00001135,0.00003254,0.00074
 081,-0.00102221,-0.00184661,-0.00001852,-0.00055095,0.00016049,0.00000
 619,-0.00018609,-0.00001852,-0.00002585,0.00000268,0.00003244,0.005070
 35,-0.00573355,0.00719012,-0.02249752,-0.00185702,-0.00429264,-0.00236
 282,0.00138343,-0.00092474,-0.01712409,0.02401626,-0.01653400,0.001299
 87,-0.00105050,0.00008032,0.00168052,0.00132570,0.00272005,-0.00185115
 ,-0.00361520,-0.00208047,0.00026850,-0.00088424,-0.00015063,-0.0004109
 9,-0.00063900,0.00003206,-0.02711780,-0.00503137,-0.00565917,0.0623703
 4,-0.00019522,0.00004809,-0.00005633,0.00005197,-0.00001731,-0.0000466
 3,0.00000457,-0.00000778,0.00000108,0.00000623,0.00000541,0.00000411,-
 0.00001001,-0.00014845,-0.00003789,0.00000122,0.00003154,-0.00003800,0
 .00003944,-0.00001134,0.00002653,-0.00000953,0.00000317,0.00000541,0.0
 0008296,0.00011745,-0.00001430,0.00004989,-0.00001350,0.00003577,-0.00
 000839,-0.00002119,-0.00003090,-0.00001468,0.00001332,0.00000938,-0.00
 040868,-0.00002119,0.00057783,0.00002492,0.00006517,-0.00011749,-0.000
 21624,0.00010357,0.00015907,0.00058051,0.00049919,0.00084955,0.0003452
 3,-0.00016935,0.00020981,0.00000572,0.00027692,-0.00054690,0.00280654,
 0.00521929,0.00277706,-0.00001215,0.00104915,-0.00032567,-0.00004243,0
 .00224000,-0.00083607,0.00018596,0.00000974,-0.00030010,-0.03107059,-0
 .02860087,-0.02798684,0.00880465,0.04836602,-0.00552399,0.01481533,0.0
 0093477,0.01640390,0.04167694,-0.00153454,0.02904503,-0.00802308,0.007
 96921,-0.01219546,-0.00569058,-0.01017868,-0.00520893,-0.00341865,0.00
 835996,-0.00664123,-0.01051224,0.00166300,-0.00014176,-0.00015613,-0.0
 0004255,0.00074158,-0.00336573,-0.18290976,0.04627239,-0.00632775,0.14
 670155,0.00006570,-0.00000852,0.00001120,-0.00001618,0.00000356,0.0000
 1485,-0.00000263,0.00000117,-0.00000009,-0.00000232,-0.00000394,-0.000
 00207,-0.00000235,0.00005088,0.00001315,0.00000024,-0.00001043,0.00001
 209,-0.00001160,0.00000307,-0.00000876,0.00000202,-0.00000219,-0.00000
 123,-0.00002193,-0.00002669,0.00001001,-0.00001848,0.00000647,-0.00001
 407,0.00000118,0.00000387,0.00001097,0.00000628,-0.00000811,-0.0000090
 6,0.00011955,0.00000169,-0.00016782,-0.00000193,-0.00001865,0.00003566
 ,0.00006757,-0.00002492,-0.00004376,-0.00019725,-0.00014672,-0.0002821
 0,-0.00005681,0.00010105,-0.00004134,0.00003282,-0.00005785,0.00017994
 ,-0.00300413,-0.00186929,-0.00030303,0.00001772,0.00002052,-0.00001066
 ,0.00011050,-0.00113177,0.00048712,-0.00005246,-0.00000919,0.00009474,
 0.01327371,0.00107664,0.01399546,-0.00689270,-0.01727552,-0.02139747,-
 0.00399245,0.00084511,-0.00663140,-0.02198565,0.01642973,-0.02336802,-
 0.00018296,-0.00072165,0.00297172,0.00423967,0.00343579,0.00402378,-0.
 00239447,-0.00555928,-0.00073294,0.00533517,-0.00100503,0.00021387,0.0
 0019089,0.00033478,-0.00037666,-0.00600661,0.04263541,-0.03596728,0.02
 137992,-0.03707000,0.06728316\\-0.00000946,-0.00000167,0.00000708,-0.0
 0000128,-0.00000777,-0.00000280,0.00000125,-0.00000420,-0.00000301,0.0
 0000199,-0.00000420,0.,-0.00000878,-0.00000614,-0.00000684,-0.00000190
 ,-0.00000935,-0.00000462,-0.00000303,-0.00000452,-0.00000729,-0.000002
 78,-0.00000418,-0.00000646,-0.00000563,-0.00001153,-0.00000250,0.00000
 054,-0.00000734,-0.00000049,0.00000072,-0.00000882,-0.00000194,0.00000
 131,-0.00000502,0.00000092,-0.00000061,-0.00000486,-0.00001459,-0.0000
 0179,0.00000069,-0.00000245,0.00000021,0.00000124,0.00000128,-0.000002
 15,0.00000046,0.00000242,0.00000085,-0.00000332,-0.00000109,-0.0000034
 5,-0.00000095,-0.00000545,-0.00000027,0.00000781,-0.00000456,-0.000003
 37,0.00000113,-0.00000334,-0.00000207,0.00000236,-0.00000590,0.0000135
 0,-0.00000278,0.00000317,-0.00002431,-0.00000741,-0.00000766,0.0000126
 5,0.00000579,0.00001077,0.00000726,0.00000952,0.00000964,0.00000988,0.
 00000459,-0.00000043,0.00000354,0.00001062,0.00000706,0.00000470,0.000
 01050,0.00001442,0.00000346,0.00000953,-0.00000191,0.00000012,0.000002
 46,0.00000613,0.00000754,0.00001180,0.00001415,0.00000209,0.00000112,0
 .00001505,-0.00000074,0.00001444,-0.00000874\\\@


 Once you get people laughing, they're
 listening and you can tell them almost anything.
                                 -- Herb Gardner
 Job cpu time:       0 days  8 hours 25 minutes 20.3 seconds.
 Elapsed time:       0 days  0 hours 21 minutes 10.8 seconds.
 File lengths (MBytes):  RWF=    895 Int=      0 D2E=      0 Chk=     33 Scr=      1
 Normal termination of Gaussian 16 at Mon Dec 12 01:57:16 2022.
