 Entering Gaussian System, Link 0=g16
 Initial command:
 /data0/hywu0/study/g16/l1.exe "/data0/hywu0/study/g16/scratch/Gau-869214.inp" -scrdir="/data0/hywu0/study/g16/scratch/"
 Default is to use a total of   8 processors:
                                8 via shared-memory
                                1 via Linda
 Entering Link 1 = /data0/hywu0/study/g16/l1.exe PID=    869215.
  
 Copyright (c) 1988,1990,1992,1993,1995,1998,2003,2009,2016,
            Gaussian, Inc.  All Rights Reserved.
  
 This is part of the Gaussian(R) 16 program.  It is based on
 the Gaussian(R) 09 system (copyright 2009, Gaussian, Inc.),
 the Gaussian(R) 03 system (copyright 2003, Gaussian, Inc.),
 the Gaussian(R) 98 system (copyright 1998, Gaussian, Inc.),
 the Gaussian(R) 94 system (copyright 1995, Gaussian, Inc.),
 the Gaussian 92(TM) system (copyright 1992, Gaussian, Inc.),
 the Gaussian 90(TM) system (copyright 1990, Gaussian, Inc.),
 the Gaussian 88(TM) system (copyright 1988, Gaussian, Inc.),
 the Gaussian 86(TM) system (copyright 1986, Carnegie Mellon
 University), and the Gaussian 82(TM) system (copyright 1983,
 Carnegie Mellon University). Gaussian is a federally registered
 trademark of Gaussian, Inc.
  
 This software contains proprietary and confidential information,
 including trade secrets, belonging to Gaussian, Inc.
  
 This software is provided under written license and may be
 used, copied, transmitted, or stored only in accord with that
 written license.
  
 The following legend is applicable only to US Government
 contracts under FAR:
  
                    RESTRICTED RIGHTS LEGEND
  
 Use, reproduction and disclosure by the US Government is
 subject to restrictions as set forth in subparagraphs (a)
 and (c) of the Commercial Computer Software - Restricted
 Rights clause in FAR 52.227-19.
  
 Gaussian, Inc.
 340 Quinnipiac St., Bldg. 40, Wallingford CT 06492
  
  
 ---------------------------------------------------------------
 Warning -- This program may not be used in any manner that
 competes with the business of Gaussian, Inc. or will provide
 assistance to any competitor of Gaussian, Inc.  The licensee
 of this program is prohibited from giving any competitor of
 Gaussian, Inc. access to this program.  By using this program,
 the user acknowledges that Gaussian, Inc. is engaged in the
 business of creating and licensing software in the field of
 computational chemistry and represents and warrants to the
 licensee that it is not a competitor of Gaussian, Inc. and that
 it will not use this program in any manner prohibited above.
 ---------------------------------------------------------------
  

 Cite this work as:
 Gaussian 16, Revision A.03,
 M. J. Frisch, G. W. Trucks, H. B. Schlegel, G. E. Scuseria, 
 M. A. Robb, J. R. Cheeseman, G. Scalmani, V. Barone, 
 G. A. Petersson, H. Nakatsuji, X. Li, M. Caricato, A. V. Marenich, 
 J. Bloino, B. G. Janesko, R. Gomperts, B. Mennucci, H. P. Hratchian, 
 J. V. Ortiz, A. F. Izmaylov, J. L. Sonnenberg, D. Williams-Young, 
 F. Ding, F. Lipparini, F. Egidi, J. Goings, B. Peng, A. Petrone, 
 T. Henderson, D. Ranasinghe, V. G. Zakrzewski, J. Gao, N. Rega, 
 G. Zheng, W. Liang, M. Hada, M. Ehara, K. Toyota, R. Fukuda, 
 J. Hasegawa, M. Ishida, T. Nakajima, Y. Honda, O. Kitao, H. Nakai, 
 T. Vreven, K. Throssell, J. A. Montgomery, Jr., J. E. Peralta, 
 F. Ogliaro, M. J. Bearpark, J. J. Heyd, E. N. Brothers, K. N. Kudin, 
 V. N. Staroverov, T. A. Keith, R. Kobayashi, J. Normand, 
 K. Raghavachari, A. P. Rendell, J. C. Burant, S. S. Iyengar, 
 J. Tomasi, M. Cossi, J. M. Millam, M. Klene, C. Adamo, R. Cammi, 
 J. W. Ochterski, R. L. Martin, K. Morokuma, O. Farkas, 
 J. B. Foresman, and D. J. Fox, Gaussian, Inc., Wallingford CT, 2016.
 
 ******************************************
 Gaussian 16:  ES64L-G16RevA.03 25-Dec-2016
                10-Jul-2023 
 ******************************************
 %chk=MImSO3_PA.chk
 %nproc=16
 Will use up to   16 processors via shared memory.
 %mem=50GB
 ---------------------------------------------------
 #p M062X/6-311+G(2d,p) nosymm em=GD3 counterpoise=2
 ---------------------------------------------------
 1/38=1,62=2,172=1/1;
 2/12=2,15=1,17=6,18=5,40=1/2;
 1/38=1,53=2,62=2,63=1/22;
 3/5=4,6=6,7=112,11=2,25=1,30=1,74=-55,124=31/1,2,3;
 4//1;
 5/5=2,38=5/2;
 6/7=2,8=2,9=2,10=2,28=1/1;
 1/53=2,62=2,63=1/22;
 3/5=7,6=11,7=112,11=2,25=1,30=1,74=-55,82=7,124=31/1,2,3;
 4//1;
 5/5=2,38=5/2;
 6/7=2,8=2,9=2,10=2,28=1/1;
 1/53=2,62=2,63=1/22(-4);
 99/5=1,9=1/99;
 Leave Link    1 at Mon Jul 10 18:27:08 2023, MaxMem=  6710886400 cpu:               0.5 elap:               0.0
 (Enter /data0/hywu0/study/g16/l101.exe)
 -------------------
 Title Card Required
 -------------------
 Symbolic Z-matrix:
 Charge =  0 Multiplicity = 1 in supermolecule
 Charge =  0 Multiplicity = 1 in fragment      1.
 Charge =  0 Multiplicity = 1 in fragment      2.
 C                     18.41983   2.62125   13.84377    
 C                     18.59049   1.60008   14.76655    
 C                     16.43296   1.58605   14.09971    
 N                     17.08195   2.59229   13.43847    
 H                     19.12644   3.33653   13.46912    
 H                     19.46516   1.29815   15.3089    
 H                     15.38015   1.2831    13.98625    
 C                     16.47348   3.54188   12.52452    
 H                     17.23346   4.12795   11.98574    
 H                     15.8309   3.02458   11.77636    
 H                     15.8124   4.2482    13.08441    
 N                     17.35622   0.95664   14.8998    
 C                     17.03691  -0.03928   15.92327    
 H                     17.79165  -0.85506   15.87754    
 H                     16.04207  -0.50471   15.68341    
 C                     17.01262   0.61256   17.32382    
 H                     17.63794   0.01174   18.01475    
 H                     17.49786   1.61443   17.28915    
 C                     15.61083   0.74358   17.89351    
 H                     15.6517   1.17656   18.9113    
 H                     15.13597  -0.24666   18.01836    
 S                     14.49118   1.77378   16.89552    
 O                     13.67043   2.49481   17.8525    
 O                     15.34928   2.61664   15.99578    
 O                     13.79431   0.77603   16.01754    
 P                     12.8046   2.67079   13.28536    
 O                     13.71265   1.96826   12.37475    
 O                     13.52628   3.85528   14.08305    
 H                     14.18185   3.47753   14.79346    
 O                     11.6865   3.46865   12.47775    
 H                     11.09318   3.94722   13.17554    
 O                     11.97821   1.81379   14.31221    
 H                     12.66056   1.28737   14.96783    
 
 ITRead=  0  0  0  0  0  0  0  0  0  0  0  0  0  0  0  0  0  0  0  0
 ITRead=  0  0  0  0  0  0  0  0  0  0  0  0  0
 MicOpt= -1 -1 -1 -1 -1 -1 -1 -1 -1 -1 -1 -1 -1 -1 -1 -1 -1 -1 -1 -1
 MicOpt= -1 -1 -1 -1 -1 -1 -1 -1 -1 -1 -1 -1 -1
 NAtoms=     33 NQM=       33 NQMF=       0 NMMI=      0 NMMIF=      0
                NMic=       0 NMicF=      0.
                    Isotopes and Nuclear Properties:
 (Nuclear quadrupole moments (NQMom) in fm**2, nuclear magnetic moments (NMagM)
  in nuclear magnetons)

  Atom         1           2           3           4           5           6           7           8           9          10
 IAtWgt=          12          12          12          14           1           1           1          12           1           1
 AtmWgt=  12.0000000  12.0000000  12.0000000  14.0030740   1.0078250   1.0078250   1.0078250  12.0000000   1.0078250   1.0078250
 NucSpn=           0           0           0           2           1           1           1           0           1           1
 AtZEff=  -0.0000000  -0.0000000  -0.0000000  -0.0000000  -0.0000000  -0.0000000  -0.0000000  -0.0000000  -0.0000000  -0.0000000
 NQMom=    0.0000000   0.0000000   0.0000000   2.0440000   0.0000000   0.0000000   0.0000000   0.0000000   0.0000000   0.0000000
 NMagM=    0.0000000   0.0000000   0.0000000   0.4037610   2.7928460   2.7928460   2.7928460   0.0000000   2.7928460   2.7928460
 AtZNuc=   6.0000000   6.0000000   6.0000000   7.0000000   1.0000000   1.0000000   1.0000000   6.0000000   1.0000000   1.0000000

  Atom        11          12          13          14          15          16          17          18          19          20
 IAtWgt=           1          14          12           1           1          12           1           1          12           1
 AtmWgt=   1.0078250  14.0030740  12.0000000   1.0078250   1.0078250  12.0000000   1.0078250   1.0078250  12.0000000   1.0078250
 NucSpn=           1           2           0           1           1           0           1           1           0           1
 AtZEff=  -0.0000000  -0.0000000  -0.0000000  -0.0000000  -0.0000000  -0.0000000  -0.0000000  -0.0000000  -0.0000000  -0.0000000
 NQMom=    0.0000000   2.0440000   0.0000000   0.0000000   0.0000000   0.0000000   0.0000000   0.0000000   0.0000000   0.0000000
 NMagM=    2.7928460   0.4037610   0.0000000   2.7928460   2.7928460   0.0000000   2.7928460   2.7928460   0.0000000   2.7928460
 AtZNuc=   1.0000000   7.0000000   6.0000000   1.0000000   1.0000000   6.0000000   1.0000000   1.0000000   6.0000000   1.0000000

  Atom        21          22          23          24          25          26          27          28          29          30
 IAtWgt=           1          32          16          16          16          31          16          16           1          16
 AtmWgt=   1.0078250  31.9720718  15.9949146  15.9949146  15.9949146  30.9737634  15.9949146  15.9949146   1.0078250  15.9949146
 NucSpn=           1           0           0           0           0           1           0           0           1           0
 AtZEff=  -0.0000000  -0.0000000  -0.0000000  -0.0000000  -0.0000000  -0.0000000  -0.0000000  -0.0000000  -0.0000000  -0.0000000
 NQMom=    0.0000000   0.0000000   0.0000000   0.0000000   0.0000000   0.0000000   0.0000000   0.0000000   0.0000000   0.0000000
 NMagM=    2.7928460   0.0000000   0.0000000   0.0000000   0.0000000   1.1316000   0.0000000   0.0000000   2.7928460   0.0000000
 AtZNuc=   1.0000000  16.0000000   8.0000000   8.0000000   8.0000000  15.0000000   8.0000000   8.0000000   1.0000000   8.0000000

  Atom        31          32          33
 IAtWgt=           1          16           1
 AtmWgt=   1.0078250  15.9949146   1.0078250
 NucSpn=           1           0           1
 AtZEff=  -0.0000000  -0.0000000  -0.0000000
 NQMom=    0.0000000   0.0000000   0.0000000
 NMagM=    2.7928460   0.0000000   2.7928460
 AtZNuc=   1.0000000   8.0000000   1.0000000
 Leave Link  101 at Mon Jul 10 18:27:09 2023, MaxMem=  6710886400 cpu:               1.9 elap:               0.1
 (Enter /data0/hywu0/study/g16/l202.exe)
                          Input orientation:                          
 ---------------------------------------------------------------------
 Center     Atomic      Atomic             Coordinates (Angstroms)
 Number     Number       Type             X           Y           Z
 ---------------------------------------------------------------------
      1          6           0       18.419831    2.621246   13.843774
      2          6           0       18.590494    1.600082   14.766547
      3          6           0       16.432963    1.586050   14.099707
      4          7           0       17.081952    2.592291   13.438470
      5          1           0       19.126443    3.336532   13.469123
      6          1           0       19.465161    1.298154   15.308900
      7          1           0       15.380153    1.283101   13.986253
      8          6           0       16.473479    3.541883   12.524521
      9          1           0       17.233460    4.127946   11.985744
     10          1           0       15.830903    3.024579   11.776363
     11          1           0       15.812398    4.248203   13.084407
     12          7           0       17.356221    0.956641   14.899799
     13          6           0       17.036909   -0.039279   15.923271
     14          1           0       17.791655   -0.855059   15.877536
     15          1           0       16.042073   -0.504708   15.683414
     16          6           0       17.012617    0.612555   17.323820
     17          1           0       17.637940    0.011737   18.014754
     18          1           0       17.497860    1.614430   17.289153
     19          6           0       15.610827    0.743578   17.893510
     20          1           0       15.651696    1.176559   18.911303
     21          1           0       15.135966   -0.246663   18.018358
     22         16           0       14.491181    1.773780   16.895517
     23          8           0       13.670431    2.494807   17.852502
     24          8           0       15.349278    2.616642   15.995785
     25          8           0       13.794312    0.776025   16.017540
     26         15           0       12.804603    2.670792   13.285356
     27          8           0       13.712647    1.968259   12.374746
     28          8           0       13.526276    3.855278   14.083052
     29          1           0       14.181852    3.477527   14.793464
     30          8           0       11.686500    3.468651   12.477753
     31          1           0       11.093177    3.947216   13.175541
     32          8           0       11.978208    1.813793   14.312213
     33          1           0       12.660562    1.287372   14.967829
 ---------------------------------------------------------------------
                    Distance matrix (angstroms):
                    1          2          3          4          5
     1  C    0.000000
     2  C    1.386871   0.000000
     3  C    2.254945   2.258276   0.000000
     4  N    1.398224   2.241421   1.367824   0.000000
     5  H    1.072986   2.232893   3.273631   2.175954   0.000000
     6  H    2.233804   1.072544   3.277080   3.294387   2.766676
     7  H    3.324240   3.318980   1.101389   2.215889   4.303335
     8  C    2.525131   3.644040   2.511600   1.451643   2.823590
     9  H    2.670187   3.995560   3.401598   2.119340   2.531824
    10  H    3.337576   4.311118   2.798172   2.124758   3.717975
    11  H    3.165807   4.190460   2.915989   2.116406   3.458619
    12  N    2.239948   1.398285   1.374303   2.210443   3.293084
    13  C    3.648996   2.537546   2.516313   3.619589   4.667451
    14  H    4.076210   2.810722   3.311455   4.282166   5.015132
    15  H    4.337003   3.430049   2.651828   3.963903   5.401069
    16  C    4.257442   3.162997   3.417396   4.361205   5.171750
    17  H    4.981763   3.739124   4.388397   5.283063   5.825175
    18  H    3.705988   2.749108   3.362644   3.994615   4.495614
    19  C    5.274135   4.403398   3.972230   5.042750   6.217569
    20  H    5.952272   5.098520   4.891781   5.831109   6.808574
    21  H    6.036209   5.091022   4.516289   5.729040   7.032690
    22  S    5.046348   4.622451   3.409151   4.396957   5.972271
    23  O    6.216324   5.876280   4.747725   5.579575   7.049155
    24  O    3.749596   3.612465   2.414872   3.089112   4.601004
    25  O    5.433740   5.024681   3.361057   4.556205   6.440671
    26  P    5.643144   6.067692   3.873607   4.280808   6.359453
    27  O    4.974135   5.445150   3.243716   3.587916   5.690257
    28  O    5.052422   5.585640   3.687615   3.827983   5.657550
    29  H    4.426691   4.791831   3.021007   3.321179   5.120814
    30  O    6.922561   7.509678   5.357596   5.549945   7.506865
    31  H    7.475600   8.015616   5.911218   6.145761   8.061792
    32  O    6.508911   6.631321   4.465632   5.236190   7.357092
    33  H    6.017632   5.941582   3.882506   4.856999   6.946423
                    6          7          8          9         10
     6  H    0.000000
     7  H    4.293823   0.000000
     8  C    4.662322   2.904155   0.000000
     9  H    4.902201   3.940803   1.100601   0.000000
    10  H    5.354175   2.849480   1.113664   1.796782   0.000000
    11  H    5.195559   3.129216   1.117760   1.800261   1.791250
    12  N    2.175229   2.201360   3.620035   4.308592   4.044603
    13  C    2.839469   2.871510   4.969273   5.736594   5.295141
    14  H    2.785731   3.736846   5.684487   6.347280   5.976266
    15  H    3.886914   2.552402   5.151661   6.045961   5.269299
    16  C    3.247294   3.775437   5.648443   6.395452   6.163488
    17  H    3.509309   4.789863   6.630276   7.311343   7.159617
    18  H    2.809218   3.937462   5.240816   5.874846   5.929428
    19  C    4.673720   3.951070   6.115613   6.999185   6.532296
    20  H    5.247343   4.933681   6.860107   7.692596   7.372561
    21  H    5.335687   4.319453   6.806193   7.741390   7.081417
    22  S    5.242523   3.081372   5.114812   6.096562   5.437379
    23  O    6.440558   4.397643   6.110714   7.055577   6.470530
    24  O    4.376153   2.411950   3.764249   4.681304   4.266368
    25  O    5.738756   2.626432   5.198951   6.270446   5.214526
    26  P    7.095202   3.008388   3.846859   4.840151   3.400105
    27  O    6.492281   2.418051   3.181339   4.148698   2.441492
    28  O    6.581181   3.172117   3.348618   4.268051   3.364845
    29  H    5.738353   2.627360   3.225492   4.197457   3.468058
    30  O    8.557688   4.549206   4.787768   5.607629   4.226727
    31  H    9.036530   5.112037   5.434682   6.257104   5.025436
    32  O    7.570583   3.458484   5.137081   6.195598   4.768626
    33  H    6.813150   2.891312   5.058746   6.154111   4.822282
                   11         12         13         14         15
    11  H    0.000000
    12  N    4.063671   0.000000
    13  C    5.285932   1.463322   0.000000
    14  H    6.145105   2.104241   1.112309   0.000000
    15  H    5.421969   2.115793   1.124213   1.794844   0.000000
    16  C    5.712362   2.472314   1.544997   2.202846   2.209336
    17  H    6.751931   3.267285   2.176727   2.311420   2.872047
    18  H    5.239984   2.482289   2.193824   2.859607   3.031247
    19  C    5.954032   3.471902   2.555077   3.372803   2.574629
    20  H    6.588895   4.364165   3.510757   4.232096   3.660372
    21  H    6.708595   4.012840   2.836544   3.464960   2.517852
    22  S    4.732118   3.585953   3.273099   4.340531   3.010974
    23  O    5.513361   4.966836   4.634296   5.666267   4.396216
    24  O    3.369361   2.825705   3.147582   4.246398   3.212533
    25  O    4.973124   3.737534   3.344853   4.319582   2.608514
    26  P    3.402269   5.124643   5.675869   6.634886   5.129882
    27  O    3.179735   4.546965   5.260509   6.072806   4.742265
    28  O    2.525477   4.872130   5.556845   6.603098   5.282033
    29  H    2.484652   4.054971   4.668591   5.742577   4.484488
    30  O    4.242495   6.657495   7.266639   8.217415   6.710802
    31  H    4.729688   7.151386   7.666167   8.673651   7.113412
    32  O    4.704771   5.477499   5.623152   6.585528   4.875514
    33  H    4.716765   4.707783   4.671754   5.634332   3.893357
                   16         17         18         19         20
    16  C    0.000000
    17  H    1.108784   0.000000
    18  H    1.113740   1.764864   0.000000
    19  C    1.518792   2.158583   2.164376   0.000000
    20  H    2.165712   2.470987   2.496282   1.106818   0.000000
    21  H    2.177718   2.515285   3.094180   1.105286   1.757524
    22  S    2.808830   3.776186   3.036521   1.819592   2.401429
    23  O    3.872026   4.683278   3.967573   2.614120   2.604659
    24  O    2.923481   4.012448   2.700673   2.679205   3.265814
    25  O    3.477151   4.398463   4.004521   2.611521   3.461816
    26  P    6.184894   7.266287   6.258830   5.729235   6.479965
    27  O    6.100907   7.144620   6.213246   5.963194   6.863911
    28  O    5.759549   6.865630   5.574402   5.342997   5.916498
    29  H    4.756469   5.859433   4.549231   4.373412   4.940799
    30  O    7.746559   8.833361   7.769145   7.221966   7.897280
    31  H    7.960399   9.041012   7.961385   7.275417   7.832982
    32  O    5.988157   6.999199   6.274430   5.212194   5.920491
    33  H    4.994643   5.973716   5.375404   4.190392   4.950773
                   21         22         23         24         25
    21  H    0.000000
    22  S    2.399731   0.000000
    23  O    3.113030   1.452354   0.000000
    24  O    3.512096   1.502087   2.506146   0.000000
    25  O    2.617097   1.500662   2.517269   2.409619   0.000000
    26  P    6.028939   4.084414   4.651822   3.718162   3.469077
    27  O    6.227525   4.591439   5.503167   4.026274   3.833802
    28  O    5.907932   3.629550   4.010039   2.918236   3.646352
    29  H    5.017954   2.723429   3.253460   1.884034   2.991097
    30  O    7.510038   5.500497   5.811392   5.149603   4.921707
    31  H    7.575331   5.487119   5.534049   5.276230   5.042771
    32  O    5.287005   3.604177   3.982593   3.852674   2.698766
    33  H    4.217418   2.702543   3.286194   3.170622   1.627501
                   26         27         28         29         30
    26  P    0.000000
    27  O    1.465369   0.000000
    28  O    1.600043   2.552231   0.000000
    29  H    2.195911   2.889332   1.037864   0.000000
    30  O    1.593410   2.523303   2.472092   3.404318   0.000000
    31  H    2.137825   3.379226   2.598461   3.518266   1.033424
    32  O    1.572200   2.604979   2.572293   2.802795   2.487748
    33  H    2.182960   2.880029   2.850690   2.672360   3.450689
                   31         32         33
    31  H    0.000000
    32  O    2.574257   0.000000
    33  H    3.569841   1.082847   0.000000
 Symmetry turned off by external request.
 Stoichiometry    C7H15N2O7PS
 Framework group  C1[X(C7H15N2O7PS)]
 Deg. of freedom    93
 Full point group                 C1      NOp   1
 Rotational constants (GHZ):           0.4609023           0.3039524           0.2103915
 Leave Link  202 at Mon Jul 10 18:27:09 2023, MaxMem=  6710886400 cpu:               0.1 elap:               0.0
 (Enter /data0/hywu0/study/g16/l122.exe)
 Counterpoise: doing full-system calculation.
 Leave Link  122 at Mon Jul 10 18:27:09 2023, MaxMem=  6710886400 cpu:               0.0 elap:               0.0
 (Enter /data0/hywu0/study/g16/l301.exe)
 Standard basis: 6-311+G(2d,p) (5D, 7F)
 Ernie: Thresh=  0.10000D-02 Tol=  0.10000D-05 Strict=F.
   592 basis functions,   904 primitive gaussians,   628 cartesian basis functions
    79 alpha electrons       79 beta electrons
       nuclear repulsion energy      1915.3915470585 Hartrees.
 IExCor= 4336 DFT=T Ex+Corr=M062X ExCW=0 ScaHFX=  0.540000
 ScaDFX=  1.000000  1.000000  1.000000  1.000000 ScalE2=  1.000000  1.000000
 IRadAn=      5 IRanWt=     -1 IRanGd=            0 ICorTp=0 IEmpDi=131
 NAtoms=   33 NActive=   33 NUniq=   33 SFac= 1.00D+00 NAtFMM=   60 NAOKFM=F Big=F
 Integral buffers will be    131072 words long.
 Raffenetti 2 integral format.
 Two-electron integral symmetry is turned off.
 R6Disp:  Grimme-D3 Dispersion energy=       -0.0023215898 Hartrees.
 Nuclear repulsion after empirical dispersion term =     1915.3892254687 Hartrees.
 Leave Link  301 at Mon Jul 10 18:27:09 2023, MaxMem=  6710886400 cpu:               0.7 elap:               0.0
 (Enter /data0/hywu0/study/g16/l302.exe)
 NPDir=0 NMtPBC=     1 NCelOv=     1 NCel=       1 NClECP=     1 NCelD=      1
         NCelK=      1 NCelE2=     1 NClLst=     1 CellRange=     0.0.
 One-electron integrals computed using PRISM.
 NBasis=   592 RedAO= T EigKep=  1.14D-05  NBF=   592
 NBsUse=   592 1.00D-06 EigRej= -1.00D+00 NBFU=   592
 Precomputing XC quadrature grid using
 IXCGrd= 4 IRadAn=           5 IRanWt=          -1 IRanGd=           0 AccXCQ= 0.00D+00.
 Generated NRdTot=       0 NPtTot=           0 NUsed=           0 NTot=          32
 NSgBfM=   628   628   628   628   628 MxSgAt=    33 MxSgA2=    33.
 Leave Link  302 at Mon Jul 10 18:27:09 2023, MaxMem=  6710886400 cpu:              10.7 elap:               0.7
 (Enter /data0/hywu0/study/g16/l303.exe)
 DipDrv:  MaxL=1.
 Leave Link  303 at Mon Jul 10 18:27:09 2023, MaxMem=  6710886400 cpu:               1.3 elap:               0.1
 (Enter /data0/hywu0/study/g16/l401.exe)
 ExpMin= 3.48D-02 ExpMax= 9.34D+04 ExpMxC= 3.17D+03 IAcc=3 IRadAn=         5 AccDes= 0.00D+00
 Harris functional with IExCor= 1009 and IRadAn=       5 diagonalized for initial guess.
 HarFok:  IExCor= 1009 AccDes= 0.00D+00 IRadAn=         5 IDoV= 1 UseB2=F ITyADJ=14
 ICtDFT=  3500011 ScaDFX=  1.000000  1.000000  1.000000  1.000000
 FoFCou: FMM=F IPFlag=           0 FMFlag=      100000 FMFlg1=           0
         NFxFlg=           0 DoJE=T BraDBF=F KetDBF=T FulRan=T
         wScrn=  0.000000 ICntrl=       500 IOpCl=  0 I1Cent=   200000004 NGrid=           0
         NMat0=    1 NMatS0=      1 NMatT0=    0 NMatD0=    1 NMtDS0=    0 NMtDT0=    0
 Symmetry not used in FoFCou.
 Harris En= -1650.75691016050    
 JPrj=0 DoOrth=F DoCkMO=F.
 Leave Link  401 at Mon Jul 10 18:27:12 2023, MaxMem=  6710886400 cpu:              43.7 elap:               2.7
 (Enter /data0/hywu0/study/g16/l502.exe)
 Two-electron integral symmetry not used.
 Closed shell SCF:
 Using DIIS extrapolation, IDIIS=  1040.
 NGot=  6710886400 LenX=  6710083249 LenY=  6709688237
 Requested convergence on RMS density matrix=1.00D-08 within 128 cycles.
 Requested convergence on MAX density matrix=1.00D-06.
 Requested convergence on             energy=1.00D-06.
 No special actions if energy rises.
 Fock matrices will be formed incrementally for  20 cycles.

 Cycle   1  Pass 1  IDiag  1:
 FoFJK:  IHMeth= 1 ICntrl=       0 DoSepK=F KAlg= 0 I1Cent=           0 FoldK=F
 IRaf= 840000000 NMat=       1 IRICut=       1 DoRegI=T DoRafI=F ISym2E= 0 IDoP0=0 IntGTp=1.
 FoFCou: FMM=F IPFlag=           0 FMFlag=      100000 FMFlg1=           0
         NFxFlg=           0 DoJE=F BraDBF=F KetDBF=F FulRan=T
         wScrn=  0.000000 ICntrl=         0 IOpCl=  0 I1Cent=           0 NGrid=           0
         NMat0=    1 NMatS0=      1 NMatT0=    0 NMatD0=    1 NMtDS0=    0 NMtDT0=    0
 Symmetry not used in FoFCou.
 E= -1650.73552561716    
 DIIS: error= 2.80D-02 at cycle   1 NSaved=   1.
 NSaved= 1 IEnMin= 1 EnMin= -1650.73552561716     IErMin= 1 ErrMin= 2.80D-02
 ErrMax= 2.80D-02  0.00D+00 EMaxC= 1.00D-01 BMatC= 1.18D+00 BMatP= 1.18D+00
 IDIUse=3 WtCom= 7.20D-01 WtEn= 2.80D-01
 Coeff-Com:  0.100D+01
 Coeff-En:   0.100D+01
 Coeff:      0.100D+01
 Gap=     0.298 Goal=   None    Shift=    0.000
 GapD=    0.298 DampG=1.000 DampE=0.500 DampFc=0.5000 IDamp=-1.
 Damping current iteration by 5.00D-01
 RMSDP=4.24D-03 MaxDP=2.91D-01              OVMax= 2.36D-01

 Cycle   2  Pass 1  IDiag  1:
 RMSU=  2.12D-03    CP:  9.90D-01
 E= -1651.03470570089     Delta-E=       -0.299180083727 Rises=F Damp=T
 DIIS: error= 6.68D-03 at cycle   2 NSaved=   2.
 NSaved= 2 IEnMin= 2 EnMin= -1651.03470570089     IErMin= 2 ErrMin= 6.68D-03
 ErrMax= 6.68D-03  0.00D+00 EMaxC= 1.00D-01 BMatC= 7.21D-02 BMatP= 1.18D+00
 IDIUse=3 WtCom= 9.33D-01 WtEn= 6.68D-02
 Coeff-Com:  0.332D-01 0.967D+00
 Coeff-En:   0.129D+00 0.871D+00
 Coeff:      0.396D-01 0.960D+00
 Gap=     0.333 Goal=   None    Shift=    0.000
 RMSDP=1.47D-03 MaxDP=2.13D-01 DE=-2.99D-01 OVMax= 1.45D-01

 Cycle   3  Pass 1  IDiag  1:
 RMSU=  1.31D-03    CP:  9.30D-01  8.95D-01
 E= -1651.40301035268     Delta-E=       -0.368304651793 Rises=F Damp=F
 DIIS: error= 4.28D-03 at cycle   3 NSaved=   3.
 NSaved= 3 IEnMin= 3 EnMin= -1651.40301035268     IErMin= 3 ErrMin= 4.28D-03
 ErrMax= 4.28D-03  0.00D+00 EMaxC= 1.00D-01 BMatC= 2.59D-02 BMatP= 7.21D-02
 IDIUse=3 WtCom= 9.57D-01 WtEn= 4.28D-02
 Coeff-Com: -0.498D-01 0.337D+00 0.713D+00
 Coeff-En:   0.000D+00 0.000D+00 0.100D+01
 Coeff:     -0.477D-01 0.323D+00 0.725D+00
 Gap=     0.310 Goal=   None    Shift=    0.000
 RMSDP=4.52D-04 MaxDP=2.77D-02 DE=-3.68D-01 OVMax= 3.56D-02

 Cycle   4  Pass 1  IDiag  1:
 RMSU=  4.08D-04    CP:  9.27D-01  9.78D-01  9.40D-01
 E= -1651.41700459457     Delta-E=       -0.013994241884 Rises=F Damp=F
 DIIS: error= 1.90D-03 at cycle   4 NSaved=   4.
 NSaved= 4 IEnMin= 4 EnMin= -1651.41700459457     IErMin= 4 ErrMin= 1.90D-03
 ErrMax= 1.90D-03  0.00D+00 EMaxC= 1.00D-01 BMatC= 7.02D-03 BMatP= 2.59D-02
 IDIUse=3 WtCom= 9.81D-01 WtEn= 1.90D-02
 Coeff-Com: -0.285D-01 0.823D-01 0.390D+00 0.556D+00
 Coeff-En:   0.000D+00 0.000D+00 0.195D+00 0.805D+00
 Coeff:     -0.280D-01 0.807D-01 0.386D+00 0.561D+00
 Gap=     0.308 Goal=   None    Shift=    0.000
 RMSDP=1.70D-04 MaxDP=9.46D-03 DE=-1.40D-02 OVMax= 1.18D-02

 Cycle   5  Pass 1  IDiag  1:
 RMSU=  1.09D-04    CP:  9.25D-01  9.75D-01  9.74D-01  7.03D-01
 E= -1651.42206807124     Delta-E=       -0.005063476675 Rises=F Damp=F
 DIIS: error= 2.94D-04 at cycle   5 NSaved=   5.
 NSaved= 5 IEnMin= 5 EnMin= -1651.42206807124     IErMin= 5 ErrMin= 2.94D-04
 ErrMax= 2.94D-04  0.00D+00 EMaxC= 1.00D-01 BMatC= 2.40D-04 BMatP= 7.02D-03
 IDIUse=3 WtCom= 9.97D-01 WtEn= 2.94D-03
 Coeff-Com: -0.871D-02 0.175D-01 0.126D+00 0.243D+00 0.622D+00
 Coeff-En:   0.000D+00 0.000D+00 0.000D+00 0.000D+00 0.100D+01
 Coeff:     -0.869D-02 0.174D-01 0.125D+00 0.243D+00 0.623D+00
 Gap=     0.306 Goal=   None    Shift=    0.000
 RMSDP=3.88D-05 MaxDP=3.06D-03 DE=-5.06D-03 OVMax= 2.55D-03

 Cycle   6  Pass 1  IDiag  1:
 RMSU=  2.78D-05    CP:  9.25D-01  9.73D-01  9.77D-01  7.35D-01  7.90D-01
 E= -1651.42223235109     Delta-E=       -0.000164279844 Rises=F Damp=F
 DIIS: error= 1.05D-04 at cycle   6 NSaved=   6.
 NSaved= 6 IEnMin= 6 EnMin= -1651.42223235109     IErMin= 6 ErrMin= 1.05D-04
 ErrMax= 1.05D-04  0.00D+00 EMaxC= 1.00D-01 BMatC= 2.62D-05 BMatP= 2.40D-04
 IDIUse=3 WtCom= 9.99D-01 WtEn= 1.05D-03
 Coeff-Com: -0.180D-02 0.172D-02 0.272D-01 0.703D-01 0.303D+00 0.599D+00
 Coeff-En:   0.000D+00 0.000D+00 0.000D+00 0.000D+00 0.000D+00 0.100D+01
 Coeff:     -0.179D-02 0.172D-02 0.272D-01 0.702D-01 0.303D+00 0.599D+00
 Gap=     0.306 Goal=   None    Shift=    0.000
 RMSDP=1.36D-05 MaxDP=8.62D-04 DE=-1.64D-04 OVMax= 8.62D-04

 Cycle   7  Pass 1  IDiag  1:
 RMSU=  1.14D-05    CP:  9.24D-01  9.74D-01  9.79D-01  7.40D-01  8.23D-01
                    CP:  7.94D-01
 E= -1651.42225146373     Delta-E=       -0.000019112641 Rises=F Damp=F
 DIIS: error= 3.47D-05 at cycle   7 NSaved=   7.
 NSaved= 7 IEnMin= 7 EnMin= -1651.42225146373     IErMin= 7 ErrMin= 3.47D-05
 ErrMax= 3.47D-05  0.00D+00 EMaxC= 1.00D-01 BMatC= 2.45D-06 BMatP= 2.62D-05
 IDIUse=1 WtCom= 1.00D+00 WtEn= 0.00D+00
 Coeff-Com:  0.144D-03-0.112D-02-0.217D-02 0.461D-02 0.731D-01 0.268D+00
 Coeff-Com:  0.657D+00
 Coeff:      0.144D-03-0.112D-02-0.217D-02 0.461D-02 0.731D-01 0.268D+00
 Coeff:      0.657D+00
 Gap=     0.306 Goal=   None    Shift=    0.000
 RMSDP=4.78D-06 MaxDP=5.62D-04 DE=-1.91D-05 OVMax= 3.01D-04

 Cycle   8  Pass 1  IDiag  1:
 RMSU=  3.48D-06    CP:  9.24D-01  9.73D-01  9.79D-01  7.43D-01  8.31D-01
                    CP:  8.62D-01  8.65D-01
 E= -1651.42225334667     Delta-E=       -0.000001882939 Rises=F Damp=F
 DIIS: error= 1.26D-05 at cycle   8 NSaved=   8.
 NSaved= 8 IEnMin= 8 EnMin= -1651.42225334667     IErMin= 8 ErrMin= 1.26D-05
 ErrMax= 1.26D-05  0.00D+00 EMaxC= 1.00D-01 BMatC= 2.72D-07 BMatP= 2.45D-06
 IDIUse=1 WtCom= 1.00D+00 WtEn= 0.00D+00
 Coeff-Com:  0.312D-03-0.679D-03-0.525D-02-0.885D-02-0.148D-01 0.124D-01
 Coeff-Com:  0.260D+00 0.756D+00
 Coeff:      0.312D-03-0.679D-03-0.525D-02-0.885D-02-0.148D-01 0.124D-01
 Coeff:      0.260D+00 0.756D+00
 Gap=     0.306 Goal=   None    Shift=    0.000
 RMSDP=2.08D-06 MaxDP=1.34D-04 DE=-1.88D-06 OVMax= 1.62D-04

 Cycle   9  Pass 1  IDiag  1:
 RMSU=  1.60D-06    CP:  9.24D-01  9.73D-01  9.79D-01  7.44D-01  8.40D-01
                    CP:  8.77D-01  9.04D-01  8.75D-01
 E= -1651.42225359339     Delta-E=       -0.000000246726 Rises=F Damp=F
 DIIS: error= 4.73D-06 at cycle   9 NSaved=   9.
 NSaved= 9 IEnMin= 9 EnMin= -1651.42225359339     IErMin= 9 ErrMin= 4.73D-06
 ErrMax= 4.73D-06  0.00D+00 EMaxC= 1.00D-01 BMatC= 4.30D-08 BMatP= 2.72D-07
 IDIUse=1 WtCom= 1.00D+00 WtEn= 0.00D+00
 Coeff-Com:  0.129D-03-0.214D-03-0.237D-02-0.461D-02-0.130D-01-0.156D-01
 Coeff-Com:  0.693D-01 0.363D+00 0.603D+00
 Coeff:      0.129D-03-0.214D-03-0.237D-02-0.461D-02-0.130D-01-0.156D-01
 Coeff:      0.693D-01 0.363D+00 0.603D+00
 Gap=     0.306 Goal=   None    Shift=    0.000
 RMSDP=6.00D-07 MaxDP=2.04D-05 DE=-2.47D-07 OVMax= 5.15D-05

 Cycle  10  Pass 1  IDiag  1:
 RMSU=  4.16D-07    CP:  9.24D-01  9.73D-01  9.79D-01  7.44D-01  8.40D-01
                    CP:  8.79D-01  9.27D-01  9.38D-01  8.62D-01
 E= -1651.42225363228     Delta-E=       -0.000000038890 Rises=F Damp=F
 DIIS: error= 1.69D-06 at cycle  10 NSaved=  10.
 NSaved=10 IEnMin=10 EnMin= -1651.42225363228     IErMin=10 ErrMin= 1.69D-06
 ErrMax= 1.69D-06  0.00D+00 EMaxC= 1.00D-01 BMatC= 3.30D-09 BMatP= 4.30D-08
 IDIUse=1 WtCom= 1.00D+00 WtEn= 0.00D+00
 Coeff-Com:  0.488D-05 0.754D-05-0.188D-03-0.480D-03-0.278D-02-0.686D-02
 Coeff-Com: -0.845D-02 0.319D-01 0.213D+00 0.774D+00
 Coeff:      0.488D-05 0.754D-05-0.188D-03-0.480D-03-0.278D-02-0.686D-02
 Coeff:     -0.845D-02 0.319D-01 0.213D+00 0.774D+00
 Gap=     0.306 Goal=   None    Shift=    0.000
 RMSDP=2.08D-07 MaxDP=1.55D-05 DE=-3.89D-08 OVMax= 2.25D-05

 Cycle  11  Pass 1  IDiag  1:
 RMSU=  1.64D-07    CP:  9.24D-01  9.73D-01  9.79D-01  7.44D-01  8.40D-01
                    CP:  8.80D-01  9.27D-01  9.56D-01  9.25D-01  9.75D-01
 E= -1651.42225363615     Delta-E=       -0.000000003872 Rises=F Damp=F
 DIIS: error= 4.99D-07 at cycle  11 NSaved=  11.
 NSaved=11 IEnMin=11 EnMin= -1651.42225363615     IErMin=11 ErrMin= 4.99D-07
 ErrMax= 4.99D-07  0.00D+00 EMaxC= 1.00D-01 BMatC= 5.92D-10 BMatP= 3.30D-09
 IDIUse=1 WtCom= 1.00D+00 WtEn= 0.00D+00
 Coeff-Com: -0.153D-04 0.323D-04 0.256D-03 0.435D-03 0.530D-03-0.799D-03
 Coeff-Com: -0.138D-01-0.410D-01-0.693D-02 0.319D+00 0.743D+00
 Coeff:     -0.153D-04 0.323D-04 0.256D-03 0.435D-03 0.530D-03-0.799D-03
 Coeff:     -0.138D-01-0.410D-01-0.693D-02 0.319D+00 0.743D+00
 Gap=     0.306 Goal=   None    Shift=    0.000
 RMSDP=9.34D-08 MaxDP=4.50D-06 DE=-3.87D-09 OVMax= 9.77D-06

 Cycle  12  Pass 1  IDiag  1:
 RMSU=  5.59D-08    CP:  9.24D-01  9.73D-01  9.79D-01  7.44D-01  8.40D-01
                    CP:  8.80D-01  9.26D-01  9.61D-01  9.59D-01  1.07D+00
                    CP:  1.00D+00
 E= -1651.42225363673     Delta-E=       -0.000000000574 Rises=F Damp=F
 DIIS: error= 1.60D-07 at cycle  12 NSaved=  12.
 NSaved=12 IEnMin=12 EnMin= -1651.42225363673     IErMin=12 ErrMin= 1.60D-07
 ErrMax= 1.60D-07  0.00D+00 EMaxC= 1.00D-01 BMatC= 5.47D-11 BMatP= 5.92D-10
 IDIUse=1 WtCom= 1.00D+00 WtEn= 0.00D+00
 Coeff-Com: -0.483D-05 0.900D-05 0.104D-03 0.189D-03 0.455D-03 0.508D-03
 Coeff-Com: -0.362D-02-0.168D-01-0.260D-01 0.317D-01 0.264D+00 0.749D+00
 Coeff:     -0.483D-05 0.900D-05 0.104D-03 0.189D-03 0.455D-03 0.508D-03
 Coeff:     -0.362D-02-0.168D-01-0.260D-01 0.317D-01 0.264D+00 0.749D+00
 Gap=     0.306 Goal=   None    Shift=    0.000
 RMSDP=2.60D-08 MaxDP=1.94D-06 DE=-5.74D-10 OVMax= 3.01D-06

 Cycle  13  Pass 1  IDiag  1:
 RMSU=  1.93D-08    CP:  9.24D-01  9.73D-01  9.79D-01  7.44D-01  8.40D-01
                    CP:  8.80D-01  9.26D-01  9.62D-01  9.65D-01  1.08D+00
                    CP:  1.08D+00  1.00D+00
 E= -1651.42225363677     Delta-E=       -0.000000000044 Rises=F Damp=F
 DIIS: error= 7.62D-08 at cycle  13 NSaved=  13.
 NSaved=13 IEnMin=13 EnMin= -1651.42225363677     IErMin=13 ErrMin= 7.62D-08
 ErrMax= 7.62D-08  0.00D+00 EMaxC= 1.00D-01 BMatC= 9.36D-12 BMatP= 5.47D-11
 IDIUse=1 WtCom= 1.00D+00 WtEn= 0.00D+00
 Coeff-Com:  0.795D-07-0.610D-06 0.120D-04 0.237D-04 0.121D-03 0.308D-03
 Coeff-Com:  0.170D-03-0.166D-02-0.996D-02-0.271D-01 0.147D-01 0.323D+00
 Coeff-Com:  0.701D+00
 Coeff:      0.795D-07-0.610D-06 0.120D-04 0.237D-04 0.121D-03 0.308D-03
 Coeff:      0.170D-03-0.166D-02-0.996D-02-0.271D-01 0.147D-01 0.323D+00
 Coeff:      0.701D+00
 Gap=     0.306 Goal=   None    Shift=    0.000
 RMSDP=1.17D-08 MaxDP=8.16D-07 DE=-4.41D-11 OVMax= 1.43D-06

 Cycle  14  Pass 1  IDiag  1:
 RMSU=  8.05D-09    CP:  9.24D-01  9.73D-01  9.79D-01  7.44D-01  8.40D-01
                    CP:  8.80D-01  9.26D-01  9.62D-01  9.64D-01  1.08D+00
                    CP:  1.10D+00  1.11D+00  8.77D-01
 E= -1651.42225363682     Delta-E=       -0.000000000052 Rises=F Damp=F
 DIIS: error= 2.42D-08 at cycle  14 NSaved=  14.
 NSaved=14 IEnMin=14 EnMin= -1651.42225363682     IErMin=14 ErrMin= 2.42D-08
 ErrMax= 2.42D-08  0.00D+00 EMaxC= 1.00D-01 BMatC= 1.70D-12 BMatP= 9.36D-12
 IDIUse=1 WtCom= 1.00D+00 WtEn= 0.00D+00
 Coeff-Com:  0.664D-06-0.145D-05-0.683D-05-0.121D-04 0.111D-05 0.831D-04
 Coeff-Com:  0.529D-03 0.139D-02-0.167D-02-0.189D-01-0.292D-01 0.666D-01
 Coeff-Com:  0.359D+00 0.622D+00
 Coeff:      0.664D-06-0.145D-05-0.683D-05-0.121D-04 0.111D-05 0.831D-04
 Coeff:      0.529D-03 0.139D-02-0.167D-02-0.189D-01-0.292D-01 0.666D-01
 Coeff:      0.359D+00 0.622D+00
 Gap=     0.306 Goal=   None    Shift=    0.000
 RMSDP=4.41D-09 MaxDP=6.03D-07 DE=-5.23D-11 OVMax= 4.53D-07

 SCF Done:  E(RM062X) =  -1651.42225364     A.U. after   14 cycles
            NFock= 14  Conv=0.44D-08     -V/T= 2.0031
 KE= 1.646349154411D+03 PE=-7.727558064056D+03 EE= 2.514397430539D+03
 Leave Link  502 at Mon Jul 10 18:30:05 2023, MaxMem=  6710886400 cpu:            2755.8 elap:             172.7
 (Enter /data0/hywu0/study/g16/l601.exe)
 Copying SCF densities to generalized density rwf, IOpCl= 0 IROHF=0.

 **********************************************************************

            Population analysis using the SCF density.

 **********************************************************************

 Alpha  occ. eigenvalues --  -90.09245 -78.13313 -19.64501 -19.63272 -19.62376
 Alpha  occ. eigenvalues --  -19.60551 -19.60508 -19.59532 -19.56420 -14.87512
 Alpha  occ. eigenvalues --  -14.87169 -10.68227 -10.63629 -10.63542 -10.63236
 Alpha  occ. eigenvalues --  -10.60744 -10.58334 -10.57771  -8.42726  -6.94053
 Alpha  occ. eigenvalues --   -6.35012  -6.34958  -6.34937  -5.05989  -5.05916
 Alpha  occ. eigenvalues --   -5.05769  -1.23785  -1.20239  -1.19940  -1.12515
 Alpha  occ. eigenvalues --   -1.11696  -1.10422  -1.09235  -1.08987  -1.06775
 Alpha  occ. eigenvalues --   -0.94246  -0.91298  -0.87323  -0.82325  -0.76708
 Alpha  occ. eigenvalues --   -0.73883  -0.72057  -0.68797  -0.66744  -0.65849
 Alpha  occ. eigenvalues --   -0.61590  -0.61248  -0.60174  -0.59128  -0.57891
 Alpha  occ. eigenvalues --   -0.57256  -0.56936  -0.55965  -0.55604  -0.54667
 Alpha  occ. eigenvalues --   -0.54117  -0.52858  -0.51532  -0.50730  -0.49377
 Alpha  occ. eigenvalues --   -0.48461  -0.47565  -0.46975  -0.46675  -0.45970
 Alpha  occ. eigenvalues --   -0.44864  -0.43003  -0.42422  -0.41913  -0.41228
 Alpha  occ. eigenvalues --   -0.39962  -0.39366  -0.37601  -0.37172  -0.36550
 Alpha  occ. eigenvalues --   -0.35664  -0.34989  -0.34655  -0.32739
 Alpha virt. eigenvalues --   -0.02144  -0.01118  -0.00588  -0.00001   0.00774
 Alpha virt. eigenvalues --    0.01267   0.02204   0.02476   0.02923   0.03929
 Alpha virt. eigenvalues --    0.04267   0.04902   0.05356   0.05753   0.06445
 Alpha virt. eigenvalues --    0.06960   0.07442   0.08004   0.08322   0.08510
 Alpha virt. eigenvalues --    0.09581   0.09809   0.10062   0.10846   0.11053
 Alpha virt. eigenvalues --    0.11582   0.11883   0.12162   0.13017   0.13463
 Alpha virt. eigenvalues --    0.13535   0.13762   0.14543   0.14713   0.14981
 Alpha virt. eigenvalues --    0.15329   0.15879   0.16020   0.16400   0.16787
 Alpha virt. eigenvalues --    0.17062   0.17438   0.17763   0.18138   0.18370
 Alpha virt. eigenvalues --    0.18482   0.19072   0.19121   0.20000   0.20221
 Alpha virt. eigenvalues --    0.20498   0.21531   0.21966   0.22420   0.22533
 Alpha virt. eigenvalues --    0.23061   0.23411   0.23758   0.24055   0.24491
 Alpha virt. eigenvalues --    0.24874   0.25439   0.25817   0.26194   0.26607
 Alpha virt. eigenvalues --    0.26778   0.27488   0.27966   0.28297   0.28721
 Alpha virt. eigenvalues --    0.28964   0.29720   0.30125   0.30248   0.30409
 Alpha virt. eigenvalues --    0.31030   0.31559   0.31701   0.32216   0.32683
 Alpha virt. eigenvalues --    0.33160   0.33536   0.33895   0.34305   0.34822
 Alpha virt. eigenvalues --    0.34997   0.35765   0.36246   0.36867   0.37463
 Alpha virt. eigenvalues --    0.37570   0.38029   0.38512   0.39653   0.39871
 Alpha virt. eigenvalues --    0.39982   0.40418   0.41301   0.41509   0.42153
 Alpha virt. eigenvalues --    0.42605   0.43331   0.43908   0.44140   0.44380
 Alpha virt. eigenvalues --    0.45036   0.46313   0.46499   0.47091   0.47698
 Alpha virt. eigenvalues --    0.48084   0.48925   0.50239   0.51874   0.52711
 Alpha virt. eigenvalues --    0.53296   0.53431   0.54318   0.55061   0.55510
 Alpha virt. eigenvalues --    0.56232   0.57094   0.57743   0.58968   0.59186
 Alpha virt. eigenvalues --    0.60326   0.60632   0.60928   0.61826   0.62911
 Alpha virt. eigenvalues --    0.63110   0.64160   0.64908   0.65637   0.66447
 Alpha virt. eigenvalues --    0.67050   0.67118   0.67826   0.68507   0.68767
 Alpha virt. eigenvalues --    0.70063   0.70779   0.71661   0.71857   0.73238
 Alpha virt. eigenvalues --    0.74427   0.74638   0.75611   0.76251   0.76631
 Alpha virt. eigenvalues --    0.77392   0.78204   0.78501   0.80024   0.80718
 Alpha virt. eigenvalues --    0.81085   0.83074   0.83456   0.83889   0.85090
 Alpha virt. eigenvalues --    0.86201   0.87025   0.87845   0.88783   0.89405
 Alpha virt. eigenvalues --    0.91113   0.91839   0.92370   0.92750   0.93792
 Alpha virt. eigenvalues --    0.95358   0.95641   0.96240   0.97823   0.99286
 Alpha virt. eigenvalues --    1.01976   1.03110   1.03333   1.04150   1.05658
 Alpha virt. eigenvalues --    1.06792   1.07847   1.09468   1.09886   1.11172
 Alpha virt. eigenvalues --    1.12588   1.12811   1.14072   1.14729   1.15123
 Alpha virt. eigenvalues --    1.15719   1.16443   1.18404   1.19019   1.20246
 Alpha virt. eigenvalues --    1.20701   1.21457   1.22047   1.22288   1.23387
 Alpha virt. eigenvalues --    1.23986   1.24375   1.24709   1.26016   1.27037
 Alpha virt. eigenvalues --    1.27140   1.27694   1.28146   1.28863   1.29316
 Alpha virt. eigenvalues --    1.30152   1.30347   1.31205   1.31882   1.33495
 Alpha virt. eigenvalues --    1.34263   1.34699   1.35123   1.35899   1.36733
 Alpha virt. eigenvalues --    1.37441   1.38021   1.38762   1.39255   1.39854
 Alpha virt. eigenvalues --    1.40755   1.41427   1.42148   1.43398   1.44383
 Alpha virt. eigenvalues --    1.45412   1.45662   1.46712   1.49147   1.49952
 Alpha virt. eigenvalues --    1.50614   1.51545   1.52697   1.53245   1.54330
 Alpha virt. eigenvalues --    1.55081   1.55862   1.56355   1.58037   1.58592
 Alpha virt. eigenvalues --    1.59475   1.60038   1.60671   1.62405   1.63751
 Alpha virt. eigenvalues --    1.64232   1.67535   1.68631   1.69182   1.70970
 Alpha virt. eigenvalues --    1.71541   1.72687   1.74383   1.75479   1.76542
 Alpha virt. eigenvalues --    1.77940   1.78924   1.79330   1.80454   1.80951
 Alpha virt. eigenvalues --    1.81335   1.82722   1.83681   1.83932   1.85317
 Alpha virt. eigenvalues --    1.86392   1.86670   1.87938   1.90287   1.90814
 Alpha virt. eigenvalues --    1.91665   1.92414   1.92573   1.94118   1.95318
 Alpha virt. eigenvalues --    1.95473   1.98052   1.98752   2.00150   2.01679
 Alpha virt. eigenvalues --    2.02274   2.02823   2.04338   2.05717   2.06704
 Alpha virt. eigenvalues --    2.08153   2.08535   2.10541   2.12325   2.13633
 Alpha virt. eigenvalues --    2.14670   2.15170   2.15723   2.17354   2.18696
 Alpha virt. eigenvalues --    2.20902   2.22637   2.23894   2.24223   2.25160
 Alpha virt. eigenvalues --    2.26105   2.26997   2.27891   2.28364   2.30031
 Alpha virt. eigenvalues --    2.30496   2.31606   2.32481   2.33464   2.34120
 Alpha virt. eigenvalues --    2.34875   2.35092   2.37102   2.39228   2.40141
 Alpha virt. eigenvalues --    2.40933   2.41424   2.43063   2.47316   2.47500
 Alpha virt. eigenvalues --    2.48391   2.51933   2.53073   2.54474   2.56913
 Alpha virt. eigenvalues --    2.61012   2.65845   2.67771   2.69920   2.70258
 Alpha virt. eigenvalues --    2.70433   2.73370   2.76506   2.77056   2.77632
 Alpha virt. eigenvalues --    2.79276   2.81555   2.82450   2.83170   2.84385
 Alpha virt. eigenvalues --    2.85719   2.87643   2.88573   2.88790   2.92112
 Alpha virt. eigenvalues --    2.92299   2.92784   2.95803   2.96912   2.98017
 Alpha virt. eigenvalues --    2.98270   3.00750   3.01757   3.03913   3.04994
 Alpha virt. eigenvalues --    3.07394   3.09871   3.12886   3.14030   3.17284
 Alpha virt. eigenvalues --    3.19903   3.24949   3.26099   3.28918   3.29699
 Alpha virt. eigenvalues --    3.30551   3.33119   3.34028   3.35437   3.37896
 Alpha virt. eigenvalues --    3.40079   3.41695   3.45140   3.45459   3.45838
 Alpha virt. eigenvalues --    3.49286   3.49746   3.51612   3.52486   3.54268
 Alpha virt. eigenvalues --    3.56117   3.56647   3.57759   3.59532   3.61211
 Alpha virt. eigenvalues --    3.62447   3.63600   3.64846   3.66498   3.67367
 Alpha virt. eigenvalues --    3.67670   3.72271   3.72492   3.80109   3.81813
 Alpha virt. eigenvalues --    3.86718   3.88192   3.89518   3.91560   3.96380
 Alpha virt. eigenvalues --    3.99704   4.02564   4.04342   4.11576   4.13867
 Alpha virt. eigenvalues --    4.15591   4.19437   4.20480   4.23593   4.39482
 Alpha virt. eigenvalues --    4.51293   4.52554   4.96205   5.00055   5.03065
 Alpha virt. eigenvalues --    5.03163   5.05720   5.11120   5.11296   5.11585
 Alpha virt. eigenvalues --    5.14129   5.15514   5.17636   5.17907   5.18528
 Alpha virt. eigenvalues --    5.20673   5.21995   5.24331   5.27381   5.29018
 Alpha virt. eigenvalues --    5.30660   5.31616   5.33605   5.34835   5.36521
 Alpha virt. eigenvalues --    5.41195   5.42362   5.45133   5.46412   5.50485
 Alpha virt. eigenvalues --    5.55474   5.56285   5.57078   5.61635   5.62610
 Alpha virt. eigenvalues --    5.70795   5.81872   6.76446   6.77819   6.78358
 Alpha virt. eigenvalues --    6.79773   6.81201   6.81561   6.81729   6.84141
 Alpha virt. eigenvalues --    6.85607   6.85996   6.86642   6.88990   6.90209
 Alpha virt. eigenvalues --    6.92262   6.95201   6.96399   6.97408   6.99436
 Alpha virt. eigenvalues --    7.01259   7.02716   7.05123   7.05572   7.06798
 Alpha virt. eigenvalues --    7.09094   7.17227   7.19991   7.21943   7.28887
 Alpha virt. eigenvalues --    7.30585   7.32905   7.35328   7.38597   7.41085
 Alpha virt. eigenvalues --    7.42569   7.46578   7.72739   8.61600  14.31000
 Alpha virt. eigenvalues --   14.32292  14.42075  17.74329  17.79713  17.84856
 Alpha virt. eigenvalues --   23.89415  23.95498  23.98713  24.02032  24.04357
 Alpha virt. eigenvalues --   24.11303  24.14709  35.60248  35.67128  50.05414
 Alpha virt. eigenvalues --   50.08331  50.09474  50.09824  50.12356  50.15690
 Alpha virt. eigenvalues --   50.18315 163.96942 189.92440
          Condensed to atoms (all electrons):
               1          2          3          4          5          6
     1  C    5.798016   0.164104  -0.642781   0.398796   0.390779  -0.024009
     2  C    0.164104   5.635791  -0.253541  -0.063249  -0.008345   0.399860
     3  C   -0.642781  -0.253541   8.048396  -0.001454   0.015418   0.004711
     4  N    0.398796  -0.063249  -0.001454   6.337990  -0.041869   0.011779
     5  H    0.390779  -0.008345   0.015418  -0.041869   0.477355  -0.001074
     6  H   -0.024009   0.399860   0.004711   0.011779  -0.001074   0.473877
     7  H    0.022056  -0.005346   0.304668  -0.016429  -0.000032  -0.000069
     8  C   -0.096872   0.037612  -0.265377   0.261461   0.000216  -0.000043
     9  H   -0.025921   0.030163   0.036214  -0.071229   0.002041  -0.000022
    10  H   -0.002927  -0.000728  -0.012610  -0.032122   0.000051   0.000010
    11  H    0.000642  -0.004505  -0.018594  -0.017817   0.000134   0.000010
    12  N    0.050294   0.358408  -0.188876  -0.013291   0.006560  -0.038549
    13  C   -0.042116  -0.090561  -0.262299  -0.079399   0.000961   0.009439
    14  H    0.005932  -0.017889   0.011063  -0.004592  -0.000017   0.000060
    15  H   -0.000636  -0.006230  -0.005623   0.002675   0.000008  -0.000026
    16  C    0.080468  -0.080696  -0.073123  -0.030414  -0.000734   0.003251
    17  H   -0.001376   0.004868   0.003498   0.000412   0.000001  -0.000261
    18  H    0.001268   0.004291  -0.019809  -0.002656  -0.000013  -0.000569
    19  C   -0.026080   0.032220   0.126662   0.025427   0.000193  -0.001742
    20  H   -0.000086   0.000928  -0.001601   0.000066   0.000000   0.000004
    21  H    0.000175  -0.000148  -0.006339  -0.000016  -0.000000   0.000000
    22  S    0.039284   0.037754  -0.409897   0.037886  -0.000223   0.000233
    23  O   -0.000944   0.002172  -0.008464   0.000108  -0.000001  -0.000002
    24  O    0.024627   0.027009  -0.157263   0.002242  -0.000066   0.000178
    25  O   -0.004331  -0.007721   0.106683  -0.001549   0.000004  -0.000011
    26  P    0.000285  -0.008148   0.024369  -0.019086   0.000096  -0.000024
    27  O   -0.002093   0.007484   0.020224  -0.020458  -0.000006  -0.000001
    28  O    0.001603   0.004751  -0.016854  -0.009770   0.000002   0.000001
    29  H   -0.003952  -0.000478   0.026325   0.003296  -0.000008  -0.000001
    30  O    0.000160  -0.000287   0.012239  -0.001535  -0.000000   0.000000
    31  H   -0.000028  -0.000009  -0.001852   0.000086  -0.000000   0.000000
    32  O   -0.002394   0.000380   0.016227  -0.002485  -0.000000   0.000000
    33  H    0.000944   0.000617  -0.013698   0.001879  -0.000000  -0.000000
               7          8          9         10         11         12
     1  C    0.022056  -0.096872  -0.025921  -0.002927   0.000642   0.050294
     2  C   -0.005346   0.037612   0.030163  -0.000728  -0.004505   0.358408
     3  C    0.304668  -0.265377   0.036214  -0.012610  -0.018594  -0.188876
     4  N   -0.016429   0.261461  -0.071229  -0.032122  -0.017817  -0.013291
     5  H   -0.000032   0.000216   0.002041   0.000051   0.000134   0.006560
     6  H   -0.000069  -0.000043  -0.000022   0.000010   0.000010  -0.038549
     7  H    0.391145   0.005100  -0.000254   0.000842   0.000315  -0.007057
     8  C    0.005100   5.391719   0.387435   0.421931   0.406129  -0.030847
     9  H   -0.000254   0.387435   0.508565  -0.013469  -0.020437  -0.004928
    10  H    0.000842   0.421931  -0.013469   0.416539  -0.023463   0.001320
    11  H    0.000315   0.406129  -0.020437  -0.023463   0.443430   0.001209
    12  N   -0.007057  -0.030847  -0.004928   0.001320   0.001209   6.406545
    13  C    0.011377  -0.014617   0.001011  -0.000149  -0.000235   0.149550
    14  H   -0.000052  -0.000550  -0.000003  -0.000004   0.000001  -0.047164
    15  H    0.001941  -0.000023  -0.000001  -0.000002   0.000005  -0.049537
    16  C    0.009687  -0.012217  -0.000244   0.000261  -0.000180  -0.037150
    17  H   -0.000041   0.000140  -0.000000  -0.000000   0.000000  -0.000361
    18  H    0.000157  -0.000834  -0.000002   0.000001   0.000002   0.004254
    19  C   -0.010945   0.004267   0.000051  -0.000001   0.000100   0.047059
    20  H    0.000012   0.000011  -0.000000   0.000000  -0.000000  -0.000947
    21  H    0.000023  -0.000047  -0.000000   0.000000   0.000000   0.001867
    22  S    0.021735   0.009047  -0.000378   0.000337  -0.001392   0.084112
    23  O    0.000648   0.000285  -0.000000   0.000011   0.000043  -0.001164
    24  O   -0.011680  -0.004362   0.000064  -0.001116   0.001047   0.030029
    25  O   -0.005107   0.000123   0.000012   0.000022   0.000304  -0.034031
    26  P    0.011005   0.000954   0.001026   0.002173   0.002234  -0.009202
    27  O    0.016971  -0.032894   0.001360   0.001882  -0.003157   0.014131
    28  O   -0.006162  -0.004696   0.000574  -0.002135   0.005448   0.006093
    29  H   -0.000153   0.004240  -0.000029   0.000134   0.001280  -0.004810
    30  O    0.000579  -0.006162  -0.000052   0.000137   0.000168   0.000168
    31  H   -0.000103   0.001202  -0.000001   0.000032   0.000021  -0.000043
    32  O   -0.005536   0.000283   0.000013   0.000500   0.000373  -0.003035
    33  H    0.002374   0.000241  -0.000001  -0.000088  -0.000085   0.002725
              13         14         15         16         17         18
     1  C   -0.042116   0.005932  -0.000636   0.080468  -0.001376   0.001268
     2  C   -0.090561  -0.017889  -0.006230  -0.080696   0.004868   0.004291
     3  C   -0.262299   0.011063  -0.005623  -0.073123   0.003498  -0.019809
     4  N   -0.079399  -0.004592   0.002675  -0.030414   0.000412  -0.002656
     5  H    0.000961  -0.000017   0.000008  -0.000734   0.000001  -0.000013
     6  H    0.009439   0.000060  -0.000026   0.003251  -0.000261  -0.000569
     7  H    0.011377  -0.000052   0.001941   0.009687  -0.000041   0.000157
     8  C   -0.014617  -0.000550  -0.000023  -0.012217   0.000140  -0.000834
     9  H    0.001011  -0.000003  -0.000001  -0.000244  -0.000000  -0.000002
    10  H   -0.000149  -0.000004  -0.000002   0.000261  -0.000000   0.000001
    11  H   -0.000235   0.000001   0.000005  -0.000180   0.000000   0.000002
    12  N    0.149550  -0.047164  -0.049537  -0.037150  -0.000361   0.004254
    13  C    6.376792   0.439833   0.459775  -0.269782  -0.027563  -0.031892
    14  H    0.439833   0.499268  -0.018370  -0.063722  -0.009422   0.001801
    15  H    0.459775  -0.018370   0.418148  -0.029624   0.001677   0.001955
    16  C   -0.269782  -0.063722  -0.029624   6.546501   0.377068   0.481958
    17  H   -0.027563  -0.009422   0.001677   0.377068   0.530630  -0.032838
    18  H   -0.031892   0.001801   0.001955   0.481958  -0.032838   0.472525
    19  C   -0.198201   0.014775  -0.020736  -0.478604  -0.001613  -0.072022
    20  H    0.022759  -0.000132   0.000080  -0.084984  -0.004595  -0.004113
    21  H   -0.007362   0.000006   0.000267  -0.019756  -0.006473   0.005147
    22  S    0.012937  -0.001082   0.016621  -0.069756   0.001584   0.008054
    23  O    0.026601  -0.000096   0.000077  -0.042212  -0.000200   0.000490
    24  O   -0.015535   0.001652  -0.002146  -0.027920  -0.000770  -0.008119
    25  O   -0.025569   0.000813   0.000081   0.007990  -0.000410   0.000855
    26  P    0.010379   0.000005   0.000134  -0.004271  -0.000019   0.000140
    27  O    0.006681  -0.000010  -0.000357  -0.000398   0.000001  -0.000012
    28  O   -0.003331   0.000007   0.000019  -0.006998  -0.000001   0.000067
    29  H    0.005242  -0.000020  -0.000041   0.007876   0.000006  -0.000146
    30  O    0.000419  -0.000000   0.000008   0.000317  -0.000000   0.000000
    31  H   -0.000049   0.000000   0.000000  -0.000031   0.000000   0.000000
    32  O   -0.000650  -0.000003  -0.000160  -0.003867   0.000001   0.000009
    33  H   -0.002688  -0.000002   0.000238  -0.000095   0.000005  -0.000034
              19         20         21         22         23         24
     1  C   -0.026080  -0.000086   0.000175   0.039284  -0.000944   0.024627
     2  C    0.032220   0.000928  -0.000148   0.037754   0.002172   0.027009
     3  C    0.126662  -0.001601  -0.006339  -0.409897  -0.008464  -0.157263
     4  N    0.025427   0.000066  -0.000016   0.037886   0.000108   0.002242
     5  H    0.000193   0.000000  -0.000000  -0.000223  -0.000001  -0.000066
     6  H   -0.001742   0.000004   0.000000   0.000233  -0.000002   0.000178
     7  H   -0.010945   0.000012   0.000023   0.021735   0.000648  -0.011680
     8  C    0.004267   0.000011  -0.000047   0.009047   0.000285  -0.004362
     9  H    0.000051  -0.000000  -0.000000  -0.000378  -0.000000   0.000064
    10  H   -0.000001   0.000000   0.000000   0.000337   0.000011  -0.001116
    11  H    0.000100  -0.000000   0.000000  -0.001392   0.000043   0.001047
    12  N    0.047059  -0.000947   0.001867   0.084112  -0.001164   0.030029
    13  C   -0.198201   0.022759  -0.007362   0.012937   0.026601  -0.015535
    14  H    0.014775  -0.000132   0.000006  -0.001082  -0.000096   0.001652
    15  H   -0.020736   0.000080   0.000267   0.016621   0.000077  -0.002146
    16  C   -0.478604  -0.084984  -0.019756  -0.069756  -0.042212  -0.027920
    17  H   -0.001613  -0.004595  -0.006473   0.001584  -0.000200  -0.000770
    18  H   -0.072022  -0.004113   0.005147   0.008054   0.000490  -0.008119
    19  C    6.506971   0.456474   0.417162  -0.094169  -0.115705  -0.055063
    20  H    0.456474   0.458699  -0.025210  -0.047966   0.015573   0.004550
    21  H    0.417162  -0.025210   0.456797  -0.035981  -0.000887  -0.005404
    22  S   -0.094169  -0.047966  -0.035981  14.350735   0.524875   0.244854
    23  O   -0.115705   0.015573  -0.000887   0.524875   8.048990  -0.009487
    24  O   -0.055063   0.004550  -0.005404   0.244854  -0.009487   8.649250
    25  O   -0.026783  -0.003700   0.012573   0.266064  -0.062614  -0.108225
    26  P   -0.007512   0.000102  -0.000027  -0.026467  -0.000988   0.031149
    27  O    0.001547  -0.000002  -0.000002   0.011025  -0.000883  -0.008301
    28  O    0.002356   0.000006  -0.000013  -0.007908  -0.010387   0.032118
    29  H   -0.001308   0.000004   0.000003   0.037765   0.006621   0.015522
    30  O   -0.000808   0.000000   0.000000  -0.008221   0.000541   0.003081
    31  H   -0.000014   0.000000   0.000000  -0.001037   0.000038   0.000028
    32  O    0.009219  -0.000040   0.000130  -0.014555  -0.002725  -0.016292
    33  H   -0.004266   0.000073  -0.000361   0.054271   0.002851   0.007679
              25         26         27         28         29         30
     1  C   -0.004331   0.000285  -0.002093   0.001603  -0.003952   0.000160
     2  C   -0.007721  -0.008148   0.007484   0.004751  -0.000478  -0.000287
     3  C    0.106683   0.024369   0.020224  -0.016854   0.026325   0.012239
     4  N   -0.001549  -0.019086  -0.020458  -0.009770   0.003296  -0.001535
     5  H    0.000004   0.000096  -0.000006   0.000002  -0.000008  -0.000000
     6  H   -0.000011  -0.000024  -0.000001   0.000001  -0.000001   0.000000
     7  H   -0.005107   0.011005   0.016971  -0.006162  -0.000153   0.000579
     8  C    0.000123   0.000954  -0.032894  -0.004696   0.004240  -0.006162
     9  H    0.000012   0.001026   0.001360   0.000574  -0.000029  -0.000052
    10  H    0.000022   0.002173   0.001882  -0.002135   0.000134   0.000137
    11  H    0.000304   0.002234  -0.003157   0.005448   0.001280   0.000168
    12  N   -0.034031  -0.009202   0.014131   0.006093  -0.004810   0.000168
    13  C   -0.025569   0.010379   0.006681  -0.003331   0.005242   0.000419
    14  H    0.000813   0.000005  -0.000010   0.000007  -0.000020  -0.000000
    15  H    0.000081   0.000134  -0.000357   0.000019  -0.000041   0.000008
    16  C    0.007990  -0.004271  -0.000398  -0.006998   0.007876   0.000317
    17  H   -0.000410  -0.000019   0.000001  -0.000001   0.000006  -0.000000
    18  H    0.000855   0.000140  -0.000012   0.000067  -0.000146   0.000000
    19  C   -0.026783  -0.007512   0.001547   0.002356  -0.001308  -0.000808
    20  H   -0.003700   0.000102  -0.000002   0.000006   0.000004   0.000000
    21  H    0.012573  -0.000027  -0.000002  -0.000013   0.000003   0.000000
    22  S    0.266064  -0.026467   0.011025  -0.007908   0.037765  -0.008221
    23  O   -0.062614  -0.000988  -0.000883  -0.010387   0.006621   0.000541
    24  O   -0.108225   0.031149  -0.008301   0.032118   0.015522   0.003081
    25  O    8.522958   0.041678  -0.018153  -0.019706   0.005114   0.004666
    26  P    0.041678  12.594681   0.427482   0.305690  -0.001979   0.182592
    27  O   -0.018153   0.427482   8.310894  -0.035914  -0.009246  -0.042735
    28  O   -0.019706   0.305690  -0.035914   8.139314   0.198111   0.012264
    29  H    0.005114  -0.001979  -0.009246   0.198111   0.373794  -0.001971
    30  O    0.004666   0.182592  -0.042735   0.012264  -0.001971   8.064195
    31  H    0.000366   0.013141  -0.007001  -0.010332   0.001482   0.242264
    32  O    0.009715   0.299986  -0.026486   0.000765  -0.006982  -0.004873
    33  H    0.025217   0.003381   0.013256  -0.000571   0.001855  -0.002468
              31         32         33
     1  C   -0.000028  -0.002394   0.000944
     2  C   -0.000009   0.000380   0.000617
     3  C   -0.001852   0.016227  -0.013698
     4  N    0.000086  -0.002485   0.001879
     5  H   -0.000000  -0.000000  -0.000000
     6  H    0.000000   0.000000  -0.000000
     7  H   -0.000103  -0.005536   0.002374
     8  C    0.001202   0.000283   0.000241
     9  H   -0.000001   0.000013  -0.000001
    10  H    0.000032   0.000500  -0.000088
    11  H    0.000021   0.000373  -0.000085
    12  N   -0.000043  -0.003035   0.002725
    13  C   -0.000049  -0.000650  -0.002688
    14  H    0.000000  -0.000003  -0.000002
    15  H    0.000000  -0.000160   0.000238
    16  C   -0.000031  -0.003867  -0.000095
    17  H    0.000000   0.000001   0.000005
    18  H    0.000000   0.000009  -0.000034
    19  C   -0.000014   0.009219  -0.004266
    20  H    0.000000  -0.000040   0.000073
    21  H    0.000000   0.000130  -0.000361
    22  S   -0.001037  -0.014555   0.054271
    23  O    0.000038  -0.002725   0.002851
    24  O    0.000028  -0.016292   0.007679
    25  O    0.000366   0.009715   0.025217
    26  P    0.013141   0.299986   0.003381
    27  O   -0.007001  -0.026486   0.013256
    28  O   -0.010332   0.000765  -0.000571
    29  H    0.001482  -0.006982   0.001855
    30  O    0.242264  -0.004873  -0.002468
    31  H    0.456322  -0.004251  -0.000403
    32  O   -0.004251   8.106865   0.220093
    33  H   -0.000403   0.220093   0.246121
 Mulliken charges:
               1
     1  C   -0.102888
     2  C   -0.200528
     3  C   -0.396643
     4  N    0.345320
     5  H    0.158570
     6  H    0.162989
     7  H    0.268330
     8  C   -0.462854
     9  H    0.168440
    10  H    0.242630
    11  H    0.226966
    12  N    0.306670
    13  C   -0.461760
    14  H    0.187914
    15  H    0.229805
    16  C   -0.178600
    17  H    0.166051
    18  H    0.190086
    19  C   -0.528906
    20  H    0.214036
    21  H    0.213875
    22  S    0.959861
    23  O   -0.373162
    24  O   -0.643330
    25  O   -0.687328
    26  P    1.125041
    27  O   -0.624829
    28  O   -0.574413
    29  H    0.342455
    30  O   -0.454688
    31  H    0.310173
    32  O   -0.570225
    33  H    0.440940
 Sum of Mulliken charges =  -0.00000
 Mulliken charges with hydrogens summed into heavy atoms:
               1
     1  C    0.055682
     2  C   -0.037538
     3  C   -0.128313
     4  N    0.345320
     8  C    0.175182
    12  N    0.306670
    13  C   -0.044040
    16  C    0.177538
    19  C   -0.100995
    22  S    0.959861
    23  O   -0.373162
    24  O   -0.643330
    25  O   -0.687328
    26  P    1.125041
    27  O   -0.624829
    28  O   -0.231959
    30  O   -0.144515
    32  O   -0.129286
         Mulliken charges condensed to fragments:
      1      0.005548
      2     -0.005548
 Electronic spatial extent (au):  <R**2>=         260134.4035
 Charge=             -0.0000 electrons
 Dipole moment (field-independent basis, Debye):
    X=             11.3784    Y=             -1.5440    Z=              0.3149  Tot=             11.4870
 Quadrupole moment (field-independent basis, Debye-Ang):
   XX=            239.1095   YY=           -119.8171   ZZ=           -121.2399
   XY=             -6.1978   XZ=            173.5462   YZ=            -37.0679
 Traceless Quadrupole moment (field-independent basis, Debye-Ang):
   XX=            239.7587   YY=           -119.1679   ZZ=           -120.5907
   XY=             -6.1978   XZ=            173.5462   YZ=            -37.0679
 Octapole moment (field-independent basis, Debye-Ang**2):
  XXX=           3115.2086  YYY=           -710.2887  ZZZ=          -5613.0155  XYY=          -1773.4878
  XXY=            -17.3531  XXZ=           3604.0227  XZZ=            741.2953  YZZ=          -1037.0084
  YYZ=          -1847.2669  XYZ=           -324.4943
 Hexadecapole moment (field-independent basis, Debye-Ang**3):
 XXXX=          14956.8647 YYYY=          -3791.0221 ZZZZ=        -171453.4617 XXXY=          -1566.2905
 XXXZ=          46427.3615 YYYX=         -10380.2737 YYYZ=         -10402.4247 ZZZX=         -44813.6225
 ZZZY=         -26410.7330 XXYY=         -27146.8702 XXZZ=          25575.3813 YYZZ=         -29577.4103
 XXYZ=          -4024.1582 YYXZ=         -27504.8026 ZZXY=         -12180.4118
 N-N= 1.915389225469D+03 E-N=-7.727558070483D+03  KE= 1.646349154411D+03
 No NMR shielding tensors so no spin-rotation constants.
 Leave Link  601 at Mon Jul 10 18:30:05 2023, MaxMem=  6710886400 cpu:               3.0 elap:               0.2
 (Enter /data0/hywu0/study/g16/l122.exe)
 CPIOFr:  IOpCl= 0 IRwI=-1 IRwCP=  731 ICalc= -1 LCPTot=      536908 Len1MO=     1413956 IndFrg=      536908
 CPIOFr:  IOpCl= 0 IRwI=-1 IRwCP=  731 ICalc=  0 LCPTot=      536908 Len1MO=     1413956 IndFrg=     1950864
 Counterpoise: doing calculation for fragment   1 using the basis set of the full-system, NewBq=T
 Leave Link  122 at Mon Jul 10 18:30:05 2023, MaxMem=  6710886400 cpu:               0.3 elap:               0.0
 (Enter /data0/hywu0/study/g16/l301.exe)
 Basis read from rwf:  (5D, 7F)
 No pseudopotential information found on rwf file.
   592 basis functions,   904 primitive gaussians,   628 cartesian basis functions
    54 alpha electrons       54 beta electrons
       nuclear repulsion energy      1013.8203740263 Hartrees.
 IExCor= 4336 DFT=T Ex+Corr=M062X ExCW=0 ScaHFX=  0.540000
 ScaDFX=  1.000000  1.000000  1.000000  1.000000 ScalE2=  1.000000  1.000000
 IRadAn=      5 IRanWt=     -1 IRanGd=            0 ICorTp=0 IEmpDi=131
 NAtoms=   33 NActive=   33 NUniq=   33 SFac= 1.00D+00 NAtFMM=   60 NAOKFM=F Big=F
 Integral buffers will be    131072 words long.
 Raffenetti 2 integral format.
 Two-electron integral symmetry is turned off.
 R6Disp:  Grimme-D3 Dispersion energy=       -0.0011857919 Hartrees.
 Nuclear repulsion after empirical dispersion term =     1013.8191882344 Hartrees.
 No density basis found on file   718.
 Leave Link  301 at Mon Jul 10 18:30:05 2023, MaxMem=  6710886400 cpu:               0.8 elap:               0.1
 (Enter /data0/hywu0/study/g16/l302.exe)
 NPDir=0 NMtPBC=     1 NCelOv=     1 NCel=       1 NClECP=     1 NCelD=      1
         NCelK=      1 NCelE2=     1 NClLst=     1 CellRange=     0.0.
 One-electron integrals computed using PRISM.
 NBasis=   592 RedAO= T EigKep=  1.14D-05  NBF=   592
 NBsUse=   592 1.00D-06 EigRej= -1.00D+00 NBFU=   592
 Precomputing XC quadrature grid using
 IXCGrd= 4 IRadAn=           5 IRanWt=          -1 IRanGd=           0 AccXCQ= 0.00D+00.
 Generated NRdTot=       0 NPtTot=           0 NUsed=           0 NTot=          32
 NSgBfM=   628   628   628   628   628 MxSgAt=    33 MxSgA2=    33.
 Leave Link  302 at Mon Jul 10 18:30:06 2023, MaxMem=  6710886400 cpu:              10.5 elap:               0.7
 (Enter /data0/hywu0/study/g16/l303.exe)
 DipDrv:  MaxL=1.
 Leave Link  303 at Mon Jul 10 18:30:06 2023, MaxMem=  6710886400 cpu:               1.3 elap:               0.1
 (Enter /data0/hywu0/study/g16/l401.exe)
 ExpMin= 3.48D-02 ExpMax= 9.34D+04 ExpMxC= 3.17D+03 IAcc=3 IRadAn=         5 AccDes= 0.00D+00
 Harris functional with IExCor= 1009 and IRadAn=       5 diagonalized for initial guess.
 HarFok:  IExCor= 1009 AccDes= 0.00D+00 IRadAn=         5 IDoV= 1 UseB2=F ITyADJ=14
 ICtDFT=  3500011 ScaDFX=  1.000000  1.000000  1.000000  1.000000
 FoFCou: FMM=F IPFlag=           0 FMFlag=      100000 FMFlg1=           0
         NFxFlg=           0 DoJE=T BraDBF=F KetDBF=T FulRan=T
         wScrn=  0.000000 ICntrl=       500 IOpCl=  0 I1Cent=   200000004 NGrid=           0
         NMat0=    1 NMatS0=      1 NMatT0=    0 NMatD0=    1 NMtDS0=    0 NMtDT0=    0
 Symmetry not used in FoFCou.
 Harris En= -1006.80653379467    
 JPrj=0 DoOrth=F DoCkMO=F.
 Leave Link  401 at Mon Jul 10 18:30:09 2023, MaxMem=  6710886400 cpu:              43.2 elap:               2.7
 (Enter /data0/hywu0/study/g16/l502.exe)
 Two-electron integral symmetry not used.
 Closed shell SCF:
 Using DIIS extrapolation, IDIIS=  1040.
 NGot=  6710886400 LenX=  6710083249 LenY=  6709688237
 Requested convergence on RMS density matrix=1.00D-08 within 128 cycles.
 Requested convergence on MAX density matrix=1.00D-06.
 Requested convergence on             energy=1.00D-06.
 No special actions if energy rises.
 Fock matrices will be formed incrementally for  20 cycles.

 Cycle   1  Pass 1  IDiag  1:
 FoFJK:  IHMeth= 1 ICntrl=       0 DoSepK=F KAlg= 0 I1Cent=           0 FoldK=F
 IRaf= 840000000 NMat=       1 IRICut=       1 DoRegI=T DoRafI=F ISym2E= 0 IDoP0=0 IntGTp=1.
 FoFCou: FMM=F IPFlag=           0 FMFlag=      100000 FMFlg1=           0
         NFxFlg=           0 DoJE=F BraDBF=F KetDBF=F FulRan=T
         wScrn=  0.000000 ICntrl=         0 IOpCl=  0 I1Cent=           0 NGrid=           0
         NMat0=    1 NMatS0=      1 NMatT0=    0 NMatD0=    1 NMtDS0=    0 NMtDT0=    0
 Symmetry not used in FoFCou.
 E= -1006.77078128614    
 DIIS: error= 1.79D-02 at cycle   1 NSaved=   1.
 NSaved= 1 IEnMin= 1 EnMin= -1006.77078128614     IErMin= 1 ErrMin= 1.79D-02
 ErrMax= 1.79D-02  0.00D+00 EMaxC= 1.00D-01 BMatC= 7.12D-01 BMatP= 7.12D-01
 IDIUse=3 WtCom= 8.21D-01 WtEn= 1.79D-01
 Coeff-Com:  0.100D+01
 Coeff-En:   0.100D+01
 Coeff:      0.100D+01
 Gap=     0.292 Goal=   None    Shift=    0.000
 GapD=    0.292 DampG=1.000 DampE=0.500 DampFc=0.5000 IDamp=-1.
 Damping current iteration by 5.00D-01
 RMSDP=4.84D-03 MaxDP=7.50D-01              OVMax= 1.88D-01

 Cycle   2  Pass 1  IDiag  1:
 RMSU=  2.42D-03    CP:  1.01D+00
 E= -1006.96305285396     Delta-E=       -0.192271567821 Rises=F Damp=T
 DIIS: error= 4.49D-03 at cycle   2 NSaved=   2.
 NSaved= 2 IEnMin= 2 EnMin= -1006.96305285396     IErMin= 2 ErrMin= 4.49D-03
 ErrMax= 4.49D-03  0.00D+00 EMaxC= 1.00D-01 BMatC= 5.02D-02 BMatP= 7.12D-01
 IDIUse=3 WtCom= 9.55D-01 WtEn= 4.49D-02
 Coeff-Com:  0.321D-01 0.968D+00
 Coeff-En:   0.112D+00 0.888D+00
 Coeff:      0.357D-01 0.964D+00
 Gap=     0.260 Goal=   None    Shift=    0.000
 RMSDP=1.74D-03 MaxDP=3.32D-01 DE=-1.92D-01 OVMax= 1.12D-01

 Cycle   3  Pass 1  IDiag  1:
 RMSU=  1.41D-03    CP:  9.19D-01  7.07D-01
 E= -1007.19593304496     Delta-E=       -0.232880191004 Rises=F Damp=F
 DIIS: error= 3.17D-03 at cycle   3 NSaved=   3.
 NSaved= 3 IEnMin= 3 EnMin= -1007.19593304496     IErMin= 3 ErrMin= 3.17D-03
 ErrMax= 3.17D-03  0.00D+00 EMaxC= 1.00D-01 BMatC= 1.88D-02 BMatP= 5.02D-02
 IDIUse=3 WtCom= 9.68D-01 WtEn= 3.17D-02
 Coeff-Com: -0.634D-01 0.349D+00 0.714D+00
 Coeff-En:   0.000D+00 0.000D+00 0.100D+01
 Coeff:     -0.614D-01 0.338D+00 0.723D+00
 Gap=     0.257 Goal=   None    Shift=    0.000
 RMSDP=3.94D-04 MaxDP=2.56D-02 DE=-2.33D-01 OVMax= 2.71D-02

 Cycle   4  Pass 1  IDiag  1:
 RMSU=  3.58D-04    CP:  9.16D-01  7.74D-01  9.84D-01
 E= -1007.20754933500     Delta-E=       -0.011616290038 Rises=F Damp=F
 DIIS: error= 1.35D-03 at cycle   4 NSaved=   4.
 NSaved= 4 IEnMin= 4 EnMin= -1007.20754933500     IErMin= 4 ErrMin= 1.35D-03
 ErrMax= 1.35D-03  0.00D+00 EMaxC= 1.00D-01 BMatC= 2.74D-03 BMatP= 1.88D-02
 IDIUse=3 WtCom= 9.87D-01 WtEn= 1.35D-02
 Coeff-Com: -0.291D-01 0.806D-01 0.339D+00 0.609D+00
 Coeff-En:   0.000D+00 0.000D+00 0.910D-01 0.909D+00
 Coeff:     -0.287D-01 0.796D-01 0.336D+00 0.613D+00
 Gap=     0.257 Goal=   None    Shift=    0.000
 RMSDP=1.38D-04 MaxDP=1.25D-02 DE=-1.16D-02 OVMax= 1.12D-02

 Cycle   5  Pass 1  IDiag  1:
 RMSU=  8.07D-05    CP:  9.13D-01  7.57D-01  1.01D+00  7.43D-01
 E= -1007.21002721213     Delta-E=       -0.002477877136 Rises=F Damp=F
 DIIS: error= 2.68D-04 at cycle   5 NSaved=   5.
 NSaved= 5 IEnMin= 5 EnMin= -1007.21002721213     IErMin= 5 ErrMin= 2.68D-04
 ErrMax= 2.68D-04  0.00D+00 EMaxC= 1.00D-01 BMatC= 8.39D-05 BMatP= 2.74D-03
 IDIUse=3 WtCom= 9.97D-01 WtEn= 2.68D-03
 Coeff-Com: -0.719D-02 0.133D-01 0.866D-01 0.226D+00 0.681D+00
 Coeff-En:   0.000D+00 0.000D+00 0.000D+00 0.000D+00 0.100D+01
 Coeff:     -0.718D-02 0.133D-01 0.863D-01 0.226D+00 0.682D+00
 Gap=     0.257 Goal=   None    Shift=    0.000
 RMSDP=3.36D-05 MaxDP=2.76D-03 DE=-2.48D-03 OVMax= 2.05D-03

 Cycle   6  Pass 1  IDiag  1:
 RMSU=  2.49D-05    CP:  9.14D-01  7.59D-01  1.01D+00  7.87D-01  8.13D-01
 E= -1007.21009698225     Delta-E=       -0.000069770114 Rises=F Damp=F
 DIIS: error= 8.62D-05 at cycle   6 NSaved=   6.
 NSaved= 6 IEnMin= 6 EnMin= -1007.21009698225     IErMin= 6 ErrMin= 8.62D-05
 ErrMax= 8.62D-05  0.00D+00 EMaxC= 1.00D-01 BMatC= 1.22D-05 BMatP= 8.39D-05
 IDIUse=1 WtCom= 1.00D+00 WtEn= 0.00D+00
 Coeff-Com: -0.117D-02 0.416D-03 0.149D-01 0.618D-01 0.326D+00 0.598D+00
 Coeff:     -0.117D-02 0.416D-03 0.149D-01 0.618D-01 0.326D+00 0.598D+00
 Gap=     0.257 Goal=   None    Shift=    0.000
 RMSDP=1.07D-05 MaxDP=1.49D-03 DE=-6.98D-05 OVMax= 1.12D-03

 Cycle   7  Pass 1  IDiag  1:
 RMSU=  7.46D-06    CP:  9.13D-01  7.57D-01  1.02D+00  7.93D-01  8.46D-01
                    CP:  9.69D-01
 E= -1007.21010725952     Delta-E=       -0.000010277269 Rises=F Damp=F
 DIIS: error= 3.23D-05 at cycle   7 NSaved=   7.
 NSaved= 7 IEnMin= 7 EnMin= -1007.21010725952     IErMin= 7 ErrMin= 3.23D-05
 ErrMax= 3.23D-05  0.00D+00 EMaxC= 1.00D-01 BMatC= 1.61D-06 BMatP= 1.22D-05
 IDIUse=1 WtCom= 1.00D+00 WtEn= 0.00D+00
 Coeff-Com:  0.520D-03-0.183D-02-0.637D-02-0.385D-02 0.587D-01 0.285D+00
 Coeff-Com:  0.668D+00
 Coeff:      0.520D-03-0.183D-02-0.637D-02-0.385D-02 0.587D-01 0.285D+00
 Coeff:      0.668D+00
 Gap=     0.257 Goal=   None    Shift=    0.000
 RMSDP=4.01D-06 MaxDP=5.71D-04 DE=-1.03D-05 OVMax= 3.05D-04

 Cycle   8  Pass 1  IDiag  1:
 RMSU=  2.83D-06    CP:  9.13D-01  7.56D-01  1.02D+00  7.95D-01  8.64D-01
                    CP:  9.99D-01  9.39D-01
 E= -1007.21010874341     Delta-E=       -0.000001483895 Rises=F Damp=F
 DIIS: error= 9.34D-06 at cycle   8 NSaved=   8.
 NSaved= 8 IEnMin= 8 EnMin= -1007.21010874341     IErMin= 8 ErrMin= 9.34D-06
 ErrMax= 9.34D-06  0.00D+00 EMaxC= 1.00D-01 BMatC= 1.55D-07 BMatP= 1.61D-06
 IDIUse=1 WtCom= 1.00D+00 WtEn= 0.00D+00
 Coeff-Com:  0.354D-03-0.729D-03-0.492D-02-0.107D-01-0.246D-01 0.216D-01
 Coeff-Com:  0.263D+00 0.756D+00
 Coeff:      0.354D-03-0.729D-03-0.492D-02-0.107D-01-0.246D-01 0.216D-01
 Coeff:      0.263D+00 0.756D+00
 Gap=     0.257 Goal=   None    Shift=    0.000
 RMSDP=1.52D-06 MaxDP=1.16D-04 DE=-1.48D-06 OVMax= 1.62D-04

 Cycle   9  Pass 1  IDiag  1:
 RMSU=  1.06D-06    CP:  9.13D-01  7.56D-01  1.02D+00  7.96D-01  8.72D-01
                    CP:  1.02D+00  1.00D+00  9.90D-01
 E= -1007.21010891995     Delta-E=       -0.000000176536 Rises=F Damp=F
 DIIS: error= 3.62D-06 at cycle   9 NSaved=   9.
 NSaved= 9 IEnMin= 9 EnMin= -1007.21010891995     IErMin= 9 ErrMin= 3.62D-06
 ErrMax= 3.62D-06  0.00D+00 EMaxC= 1.00D-01 BMatC= 1.42D-08 BMatP= 1.55D-07
 IDIUse=1 WtCom= 1.00D+00 WtEn= 0.00D+00
 Coeff-Com:  0.101D-03-0.159D-03-0.160D-02-0.411D-02-0.138D-01-0.983D-02
 Coeff-Com:  0.586D-01 0.295D+00 0.676D+00
 Coeff:      0.101D-03-0.159D-03-0.160D-02-0.411D-02-0.138D-01-0.983D-02
 Coeff:      0.586D-01 0.295D+00 0.676D+00
 Gap=     0.258 Goal=   None    Shift=    0.000
 RMSDP=4.23D-07 MaxDP=3.44D-05 DE=-1.77D-07 OVMax= 5.26D-05

 Cycle  10  Pass 1  IDiag  1:
 RMSU=  3.13D-07    CP:  9.13D-01  7.56D-01  1.02D+00  7.97D-01  8.71D-01
                    CP:  1.02D+00  1.02D+00  1.02D+00  9.45D-01
 E= -1007.21010893518     Delta-E=       -0.000000015227 Rises=F Damp=F
 DIIS: error= 1.46D-06 at cycle  10 NSaved=  10.
 NSaved=10 IEnMin=10 EnMin= -1007.21010893518     IErMin=10 ErrMin= 1.46D-06
 ErrMax= 1.46D-06  0.00D+00 EMaxC= 1.00D-01 BMatC= 2.00D-09 BMatP= 1.42D-08
 IDIUse=1 WtCom= 1.00D+00 WtEn= 0.00D+00
 Coeff-Com: -0.166D-04 0.484D-04 0.115D-03-0.241D-04-0.193D-02-0.734D-02
 Coeff-Com: -0.180D-01-0.309D-03 0.267D+00 0.761D+00
 Coeff:     -0.166D-04 0.484D-04 0.115D-03-0.241D-04-0.193D-02-0.734D-02
 Coeff:     -0.180D-01-0.309D-03 0.267D+00 0.761D+00
 Gap=     0.258 Goal=   None    Shift=    0.000
 RMSDP=1.82D-07 MaxDP=1.46D-05 DE=-1.52D-08 OVMax= 2.48D-05

 Cycle  11  Pass 1  IDiag  1:
 RMSU=  1.15D-07    CP:  9.13D-01  7.56D-01  1.02D+00  7.97D-01  8.72D-01
                    CP:  1.02D+00  1.03D+00  1.05D+00  1.04D+00  1.06D+00
 E= -1007.21010893780     Delta-E=       -0.000000002623 Rises=F Damp=F
 DIIS: error= 6.14D-07 at cycle  11 NSaved=  11.
 NSaved=11 IEnMin=11 EnMin= -1007.21010893780     IErMin=11 ErrMin= 6.14D-07
 ErrMax= 6.14D-07  0.00D+00 EMaxC= 1.00D-01 BMatC= 2.58D-10 BMatP= 2.00D-09
 IDIUse=1 WtCom= 1.00D+00 WtEn= 0.00D+00
 Coeff-Com: -0.176D-04 0.371D-04 0.235D-03 0.473D-03 0.908D-03-0.142D-02
 Coeff-Com: -0.140D-01-0.370D-01 0.153D-01 0.302D+00 0.734D+00
 Coeff:     -0.176D-04 0.371D-04 0.235D-03 0.473D-03 0.908D-03-0.142D-02
 Coeff:     -0.140D-01-0.370D-01 0.153D-01 0.302D+00 0.734D+00
 Gap=     0.257 Goal=   None    Shift=    0.000
 RMSDP=6.26D-08 MaxDP=6.26D-06 DE=-2.62D-09 OVMax= 7.39D-06

 Cycle  12  Pass 1  IDiag  1:
 RMSU=  3.98D-08    CP:  9.13D-01  7.56D-01  1.02D+00  7.97D-01  8.72D-01
                    CP:  1.02D+00  1.03D+00  1.05D+00  1.06D+00  1.15D+00
                    CP:  9.78D-01
 E= -1007.21010893808     Delta-E=       -0.000000000284 Rises=F Damp=F
 DIIS: error= 1.82D-07 at cycle  12 NSaved=  12.
 NSaved=12 IEnMin=12 EnMin= -1007.21010893808     IErMin=12 ErrMin= 1.82D-07
 ErrMax= 1.82D-07  0.00D+00 EMaxC= 1.00D-01 BMatC= 3.91D-11 BMatP= 2.58D-10
 IDIUse=1 WtCom= 1.00D+00 WtEn= 0.00D+00
 Coeff-Com: -0.567D-05 0.113D-04 0.918D-04 0.203D-03 0.572D-03 0.648D-04
 Coeff-Com: -0.441D-02-0.158D-01-0.177D-01 0.676D-01 0.341D+00 0.628D+00
 Coeff:     -0.567D-05 0.113D-04 0.918D-04 0.203D-03 0.572D-03 0.648D-04
 Coeff:     -0.441D-02-0.158D-01-0.177D-01 0.676D-01 0.341D+00 0.628D+00
 Gap=     0.257 Goal=   None    Shift=    0.000
 RMSDP=2.01D-08 MaxDP=1.86D-06 DE=-2.84D-10 OVMax= 1.84D-06

 Cycle  13  Pass 1  IDiag  1:
 RMSU=  1.51D-08    CP:  9.13D-01  7.56D-01  1.02D+00  7.97D-01  8.72D-01
                    CP:  1.02D+00  1.03D+00  1.06D+00  1.07D+00  1.15D+00
                    CP:  1.05D+00  9.22D-01
 E= -1007.21010893817     Delta-E=       -0.000000000090 Rises=F Damp=F
 DIIS: error= 6.26D-08 at cycle  13 NSaved=  13.
 NSaved=13 IEnMin=13 EnMin= -1007.21010893817     IErMin=13 ErrMin= 6.26D-08
 ErrMax= 6.26D-08  0.00D+00 EMaxC= 1.00D-01 BMatC= 7.34D-12 BMatP= 3.91D-11
 IDIUse=1 WtCom= 1.00D+00 WtEn= 0.00D+00
 Coeff-Com:  0.573D-06-0.140D-05 0.330D-05 0.114D-04 0.108D-03 0.220D-03
 Coeff-Com:  0.301D-03-0.872D-03-0.115D-01-0.235D-01 0.334D-01 0.328D+00
 Coeff-Com:  0.673D+00
 Coeff:      0.573D-06-0.140D-05 0.330D-05 0.114D-04 0.108D-03 0.220D-03
 Coeff:      0.301D-03-0.872D-03-0.115D-01-0.235D-01 0.334D-01 0.328D+00
 Coeff:      0.673D+00
 Gap=     0.257 Goal=   None    Shift=    0.000
 RMSDP=9.03D-09 MaxDP=1.18D-06 DE=-8.96D-11 OVMax= 8.23D-07

 Cycle  14  Pass 1  IDiag  1:
 RMSU=  5.71D-09    CP:  9.13D-01  7.56D-01  1.02D+00  7.97D-01  8.72D-01
                    CP:  1.02D+00  1.03D+00  1.06D+00  1.06D+00  1.16D+00
                    CP:  1.08D+00  1.02D+00  9.33D-01
 E= -1007.21010893801     Delta-E=        0.000000000165 Rises=F Damp=F
 DIIS: error= 1.26D-08 at cycle  14 NSaved=  14.
 NSaved=14 IEnMin=13 EnMin= -1007.21010893817     IErMin=14 ErrMin= 1.26D-08
 ErrMax= 1.26D-08  0.00D+00 EMaxC= 1.00D-01 BMatC= 2.80D-13 BMatP= 7.34D-12
 IDIUse=1 WtCom= 1.00D+00 WtEn= 0.00D+00
 Coeff-Com:  0.681D-06-0.148D-05-0.603D-05-0.122D-04-0.684D-05 0.631D-04
 Coeff-Com:  0.488D-03 0.105D-02-0.252D-02-0.148D-01-0.206D-01 0.533D-01
 Coeff-Com:  0.204D+00 0.779D+00
 Coeff:      0.681D-06-0.148D-05-0.603D-05-0.122D-04-0.684D-05 0.631D-04
 Coeff:      0.488D-03 0.105D-02-0.252D-02-0.148D-01-0.206D-01 0.533D-01
 Coeff:      0.204D+00 0.779D+00
 Gap=     0.257 Goal=   None    Shift=    0.000
 RMSDP=2.69D-09 MaxDP=3.72D-07 DE= 1.65D-10 OVMax= 2.61D-07

 SCF Done:  E(RM062X) =  -1007.21010894     A.U. after   14 cycles
            NFock= 14  Conv=0.27D-08     -V/T= 2.0035
[...]
 Precomputing XC quadrature grid using
 IXCGrd= 4 IRadAn=           5 IRanWt=          -1 IRanGd=           0 AccXCQ= 0.00D+00.
 Generated NRdTot=       0 NPtTot=           0 NUsed=           0 NTot=          32
 NSgBfM=   171   171   171   171   171 MxSgAt=     8 MxSgA2=     8.
 Leave Link  302 at Mon Jul 10 18:36:23 2023, MaxMem=  6710886400 cpu:               1.8 elap:               0.1
 (Enter /data0/hywu0/study/g16/l303.exe)
 DipDrv:  MaxL=1.
 Leave Link  303 at Mon Jul 10 18:36:23 2023, MaxMem=  6710886400 cpu:               0.5 elap:               0.0
 (Enter /data0/hywu0/study/g16/l401.exe)
 ExpMin= 3.48D-02 ExpMax= 7.75D+04 ExpMxC= 2.65D+03 IAcc=3 IRadAn=         5 AccDes= 0.00D+00
 Harris functional with IExCor= 1009 and IRadAn=       5 diagonalized for initial guess.
 HarFok:  IExCor= 1009 AccDes= 0.00D+00 IRadAn=         5 IDoV= 1 UseB2=F ITyADJ=14
 ICtDFT=  3500011 ScaDFX=  1.000000  1.000000  1.000000  1.000000
 FoFCou: FMM=F IPFlag=           0 FMFlag=      100000 FMFlg1=           0
         NFxFlg=           0 DoJE=T BraDBF=F KetDBF=T FulRan=T
         wScrn=  0.000000 ICntrl=       500 IOpCl=  0 I1Cent=   200000004 NGrid=           0
         NMat0=    1 NMatS0=      1 NMatT0=    0 NMatD0=    1 NMtDS0=    0 NMtDT0=    0
 Symmetry not used in FoFCou.
 Harris En= -643.939808558771    
 JPrj=0 DoOrth=F DoCkMO=F.
 Leave Link  401 at Mon Jul 10 18:36:23 2023, MaxMem=  6710886400 cpu:               4.5 elap:               0.3
 (Enter /data0/hywu0/study/g16/l502.exe)
 Keep R1 ints in memory in canonical form, NReq=100992149.
 FoFCou: FMM=F IPFlag=           0 FMFlag=           0 FMFlg1=           0
         NFxFlg=           0 DoJE=F BraDBF=F KetDBF=F FulRan=T
         wScrn=  0.000000 ICntrl=       600 IOpCl=  0 I1Cent=           0 NGrid=           0
         NMat0=    1 NMatS0=  13041 NMatT0=    0 NMatD0=    1 NMtDS0=    0 NMtDT0=    0
 Symmetry not used in FoFCou.
 Two-electron integral symmetry not used.
 Closed shell SCF:
 Using DIIS extrapolation, IDIIS=  1040.
 NGot=  6710886400 LenX=  6625782771 LenY=  6625753089
 Requested convergence on RMS density matrix=1.00D-08 within 128 cycles.
 Requested convergence on MAX density matrix=1.00D-06.
 Requested convergence on             energy=1.00D-06.
 No special actions if energy rises.

 Cycle   1  Pass 1  IDiag  1:
 E= -643.844200933949    
 DIIS: error= 4.94D-02 at cycle   1 NSaved=   1.
 NSaved= 1 IEnMin= 1 EnMin= -643.844200933949     IErMin= 1 ErrMin= 4.94D-02
 ErrMax= 4.94D-02  0.00D+00 EMaxC= 1.00D-01 BMatC= 5.12D-01 BMatP= 5.12D-01
 IDIUse=3 WtCom= 5.06D-01 WtEn= 4.94D-01
 Coeff-Com:  0.100D+01
 Coeff-En:   0.100D+01
 Coeff:      0.100D+01
 Gap=     0.234 Goal=   None    Shift=    0.000
 GapD=    0.234 DampG=1.000 DampE=0.500 DampFc=0.5000 IDamp=-1.
 Damping current iteration by 5.00D-01
 RMSDP=7.86D-03 MaxDP=1.78D-01              OVMax= 2.77D-01

 Cycle   2  Pass 1  IDiag  1:
 E= -643.961277031642     Delta-E=       -0.117076097693 Rises=F Damp=T
 DIIS: error= 1.02D-02 at cycle   2 NSaved=   2.
 NSaved= 2 IEnMin= 2 EnMin= -643.961277031642     IErMin= 2 ErrMin= 1.02D-02
 ErrMax= 1.02D-02  0.00D+00 EMaxC= 1.00D-01 BMatC= 2.79D-02 BMatP= 5.12D-01
 IDIUse=3 WtCom= 8.98D-01 WtEn= 1.02D-01
 Coeff-Com:  0.770D-01 0.923D+00
 Coeff-En:   0.212D+00 0.788D+00
 Coeff:      0.908D-01 0.909D+00
 Gap=     0.338 Goal=   None    Shift=    0.000
 RMSDP=1.88D-03 MaxDP=6.39D-02 DE=-1.17D-01 OVMax= 1.82D-01

 Cycle   3  Pass 1  IDiag  1:
 E= -644.131962492676     Delta-E=       -0.170685461034 Rises=F Damp=F
 DIIS: error= 7.08D-03 at cycle   3 NSaved=   3.
 NSaved= 3 IEnMin= 3 EnMin= -644.131962492676     IErMin= 3 ErrMin= 7.08D-03
 ErrMax= 7.08D-03  0.00D+00 EMaxC= 1.00D-01 BMatC= 1.03D-02 BMatP= 2.79D-02
 IDIUse=3 WtCom= 9.29D-01 WtEn= 7.08D-02
 Coeff-Com: -0.127D-01 0.338D+00 0.675D+00
 Coeff-En:   0.000D+00 0.000D+00 0.100D+01
 Coeff:     -0.118D-01 0.314D+00 0.698D+00
 Gap=     0.328 Goal=   None    Shift=    0.000
 RMSDP=6.76D-04 MaxDP=1.51D-02 DE=-1.71D-01 OVMax= 3.58D-02

 Cycle   4  Pass 1  IDiag  1:
 E= -644.136561703213     Delta-E=       -0.004599210537 Rises=F Damp=F
 DIIS: error= 4.38D-03 at cycle   4 NSaved=   4.
 NSaved= 4 IEnMin= 4 EnMin= -644.136561703213     IErMin= 4 ErrMin= 4.38D-03
 ErrMax= 4.38D-03  0.00D+00 EMaxC= 1.00D-01 BMatC= 4.05D-03 BMatP= 1.03D-02
 IDIUse=3 WtCom= 9.56D-01 WtEn= 4.38D-02
 Coeff-Com: -0.207D-01 0.471D-01 0.406D+00 0.568D+00
 Coeff-En:   0.000D+00 0.000D+00 0.282D+00 0.718D+00
 Coeff:     -0.198D-01 0.450D-01 0.400D+00 0.575D+00
 Gap=     0.333 Goal=   None    Shift=    0.000
 RMSDP=2.68D-04 MaxDP=6.31D-03 DE=-4.60D-03 OVMax= 1.16D-02

 Cycle   5  Pass 1  IDiag  1:
 E= -644.139244372136     Delta-E=       -0.002682668924 Rises=F Damp=F
 DIIS: error= 2.27D-04 at cycle   5 NSaved=   5.
 NSaved= 5 IEnMin= 5 EnMin= -644.139244372136     IErMin= 5 ErrMin= 2.27D-04
 ErrMax= 2.27D-04  0.00D+00 EMaxC= 1.00D-01 BMatC= 1.73D-05 BMatP= 4.05D-03
 IDIUse=3 WtCom= 9.98D-01 WtEn= 2.27D-03
 Coeff-Com: -0.221D-02-0.393D-03 0.575D-01 0.118D+00 0.827D+00
 Coeff-En:   0.000D+00 0.000D+00 0.000D+00 0.000D+00 0.100D+01
 Coeff:     -0.221D-02-0.392D-03 0.574D-01 0.118D+00 0.827D+00
 Gap=     0.332 Goal=   None    Shift=    0.000
 RMSDP=2.91D-05 MaxDP=7.56D-04 DE=-2.68D-03 OVMax= 7.78D-04

 Cycle   6  Pass 1  IDiag  1:
 E= -644.139255817813     Delta-E=       -0.000011445677 Rises=F Damp=F
 DIIS: error= 8.34D-05 at cycle   6 NSaved=   6.
 NSaved= 6 IEnMin= 6 EnMin= -644.139255817813     IErMin= 6 ErrMin= 8.34D-05
 ErrMax= 8.34D-05  0.00D+00 EMaxC= 1.00D-01 BMatC= 1.60D-06 BMatP= 1.73D-05
 IDIUse=1 WtCom= 1.00D+00 WtEn= 0.00D+00
 Coeff-Com:  0.153D-04-0.175D-02 0.328D-02 0.150D-01 0.255D+00 0.728D+00
 Coeff:      0.153D-04-0.175D-02 0.328D-02 0.150D-01 0.255D+00 0.728D+00
 Gap=     0.333 Goal=   None    Shift=    0.000
 RMSDP=1.07D-05 MaxDP=1.90D-04 DE=-1.14D-05 OVMax= 2.91D-04

 Cycle   7  Pass 1  IDiag  1:
 E= -644.139256876290     Delta-E=       -0.000001058477 Rises=F Damp=F
 DIIS: error= 4.43D-05 at cycle   7 NSaved=   7.
 NSaved= 7 IEnMin= 7 EnMin= -644.139256876290     IErMin= 7 ErrMin= 4.43D-05
 ErrMax= 4.43D-05  0.00D+00 EMaxC= 1.00D-01 BMatC= 3.74D-07 BMatP= 1.60D-06
 IDIUse=1 WtCom= 1.00D+00 WtEn= 0.00D+00
 Coeff-Com:  0.385D-03-0.664D-03-0.903D-02-0.144D-01-0.242D-01 0.323D+00
 Coeff-Com:  0.725D+00
 Coeff:      0.385D-03-0.664D-03-0.903D-02-0.144D-01-0.242D-01 0.323D+00
 Coeff:      0.725D+00
 Gap=     0.333 Goal=   None    Shift=    0.000
 RMSDP=4.57D-06 MaxDP=9.96D-05 DE=-1.06D-06 OVMax= 1.26D-04

 Cycle   8  Pass 1  IDiag  1:
 E= -644.139257134713     Delta-E=       -0.000000258422 Rises=F Damp=F
 DIIS: error= 8.96D-06 at cycle   8 NSaved=   8.
 NSaved= 8 IEnMin= 8 EnMin= -644.139257134713     IErMin= 8 ErrMin= 8.96D-06
 ErrMax= 8.96D-06  0.00D+00 EMaxC= 1.00D-01 BMatC= 3.08D-08 BMatP= 3.74D-07
 IDIUse=1 WtCom= 1.00D+00 WtEn= 0.00D+00
 Coeff-Com:  0.143D-03-0.175D-03-0.383D-02-0.615D-02-0.179D-01 0.920D-01
 Coeff-Com:  0.307D+00 0.629D+00
 Coeff:      0.143D-03-0.175D-03-0.383D-02-0.615D-02-0.179D-01 0.920D-01
 Coeff:      0.307D+00 0.629D+00
 Gap=     0.333 Goal=   None    Shift=    0.000
 RMSDP=8.93D-07 MaxDP=2.69D-05 DE=-2.58D-07 OVMax= 3.69D-05

 Cycle   9  Pass 1  IDiag  1:
 E= -644.139257158393     Delta-E=       -0.000000023680 Rises=F Damp=F
 DIIS: error= 1.58D-06 at cycle   9 NSaved=   9.
 NSaved= 9 IEnMin= 9 EnMin= -644.139257158393     IErMin= 9 ErrMin= 1.58D-06
 ErrMax= 1.58D-06  0.00D+00 EMaxC= 1.00D-01 BMatC= 8.94D-10 BMatP= 3.08D-08
 IDIUse=1 WtCom= 1.00D+00 WtEn= 0.00D+00
 Coeff-Com: -0.270D-04 0.530D-04 0.279D-03 0.594D-03-0.702D-03-0.194D-01
 Coeff-Com: -0.294D-01 0.729D-01 0.976D+00
 Coeff:     -0.270D-04 0.530D-04 0.279D-03 0.594D-03-0.702D-03-0.194D-01
 Coeff:     -0.294D-01 0.729D-01 0.976D+00
 Gap=     0.333 Goal=   None    Shift=    0.000
 RMSDP=3.62D-07 MaxDP=9.18D-06 DE=-2.37D-08 OVMax= 1.26D-05

 Cycle  10  Pass 1  IDiag  1:
 E= -644.139257159533     Delta-E=       -0.000000001140 Rises=F Damp=F
 DIIS: error= 2.71D-07 at cycle  10 NSaved=  10.
 NSaved=10 IEnMin=10 EnMin= -644.139257159533     IErMin=10 ErrMin= 2.71D-07
 ErrMax= 2.71D-07  0.00D+00 EMaxC= 1.00D-01 BMatC= 1.88D-11 BMatP= 8.94D-10
 IDIUse=1 WtCom= 1.00D+00 WtEn= 0.00D+00
 Coeff-Com: -0.308D-05 0.493D-05 0.109D-03 0.174D-03 0.479D-03-0.372D-02
 Coeff-Com: -0.121D-01-0.173D-01 0.276D-01 0.100D+01
 Coeff:     -0.308D-05 0.493D-05 0.109D-03 0.174D-03 0.479D-03-0.372D-02
 Coeff:     -0.121D-01-0.173D-01 0.276D-01 0.100D+01
 Gap=     0.333 Goal=   None    Shift=    0.000
 RMSDP=7.27D-08 MaxDP=1.26D-06 DE=-1.14D-09 OVMax= 3.08D-06

 Cycle  11  Pass 1  IDiag  1:
 E= -644.139257159562     Delta-E=       -0.000000000030 Rises=F Damp=F
 DIIS: error= 2.42D-07 at cycle  11 NSaved=  11.
 NSaved=11 IEnMin=11 EnMin= -644.139257159562     IErMin=11 ErrMin= 2.42D-07
 ErrMax= 2.42D-07  0.00D+00 EMaxC= 1.00D-01 BMatC= 7.94D-12 BMatP= 1.88D-11
 IDIUse=1 WtCom= 1.00D+00 WtEn= 0.00D+00
 Coeff-Com:  0.390D-06-0.111D-05 0.322D-04 0.427D-04 0.247D-03-0.589D-03
 Coeff-Com: -0.359D-02-0.112D-01-0.443D-01 0.457D+00 0.602D+00
 Coeff:      0.390D-06-0.111D-05 0.322D-04 0.427D-04 0.247D-03-0.589D-03
 Coeff:     -0.359D-02-0.112D-01-0.443D-01 0.457D+00 0.602D+00
 Gap=     0.333 Goal=   None    Shift=    0.000
 RMSDP=1.71D-08 MaxDP=4.25D-07 DE=-2.96D-11 OVMax= 6.43D-07

 Cycle  12  Pass 1  IDiag  1:
 E= -644.139257159580     Delta-E=       -0.000000000018 Rises=F Damp=F
 DIIS: error= 7.73D-08 at cycle  12 NSaved=  12.
 NSaved=12 IEnMin=12 EnMin= -644.139257159580     IErMin=12 ErrMin= 7.73D-08
 ErrMax= 7.73D-08  0.00D+00 EMaxC= 1.00D-01 BMatC= 8.58D-13 BMatP= 7.94D-12
 IDIUse=1 WtCom= 1.00D+00 WtEn= 0.00D+00
 Coeff-Com:  0.725D-06-0.135D-05-0.573D-05-0.122D-04 0.110D-04 0.423D-03
 Coeff-Com:  0.872D-03-0.101D-02-0.232D-01-0.123D-02 0.245D+00 0.780D+00
 Coeff:      0.725D-06-0.135D-05-0.573D-05-0.122D-04 0.110D-04 0.423D-03
 Coeff:      0.872D-03-0.101D-02-0.232D-01-0.123D-02 0.245D+00 0.780D+00
 Gap=     0.333 Goal=   None    Shift=    0.000
 RMSDP=7.74D-09 MaxDP=1.74D-07 DE=-1.82D-11 OVMax= 3.10D-07

 SCF Done:  E(RM062X) =  -644.139257160     A.U. after   12 cycles
            NFock= 12  Conv=0.77D-08     -V/T= 2.0025
 KE= 6.425143358939D+02 PE=-2.087495126343D+03 EE= 5.209319199781D+02
 Leave Link  502 at Mon Jul 10 18:36:29 2023, MaxMem=  6710886400 cpu:              82.1 elap:               6.3
 (Enter /data0/hywu0/study/g16/l601.exe)
 Copying SCF densities to generalized density rwf, IOpCl= 0 IROHF=0.

 **********************************************************************

            Population analysis using the SCF density.

 **********************************************************************

 Alpha  occ. eigenvalues --  -78.16753 -19.70003 -19.68248 -19.67874 -19.58076
 Alpha  occ. eigenvalues --   -6.97545  -5.09461  -5.09439  -5.09213  -1.24485
 Alpha  occ. eigenvalues --   -1.17430  -1.16359  -1.08499  -0.72847  -0.65864
 Alpha  occ. eigenvalues --   -0.63764  -0.58561  -0.52813  -0.51907  -0.50063
 Alpha  occ. eigenvalues --   -0.46313  -0.45208  -0.44785  -0.38098  -0.36900
 Alpha virt. eigenvalues --   -0.03639   0.01040   0.02669   0.04659   0.08009
 Alpha virt. eigenvalues --    0.10094   0.10524   0.12497   0.15708   0.16933
 Alpha virt. eigenvalues --    0.17786   0.18409   0.19665   0.20033   0.21495
 Alpha virt. eigenvalues --    0.23027   0.24196   0.25612   0.25898   0.27616
 Alpha virt. eigenvalues --    0.28351   0.29122   0.30069   0.32074   0.33991
 Alpha virt. eigenvalues --    0.34359   0.36668   0.38290   0.40376   0.42532
 Alpha virt. eigenvalues --    0.44277   0.45947   0.51980   0.57095   0.57674
 Alpha virt. eigenvalues --    0.73633   0.75850   0.77154   0.86138   0.97313
 Alpha virt. eigenvalues --    0.99851   1.01335   1.05651   1.05920   1.11567
 Alpha virt. eigenvalues --    1.13141   1.15683   1.18650   1.19655   1.20386
 Alpha virt. eigenvalues --    1.21354   1.23082   1.26011   1.26996   1.33025
 Alpha virt. eigenvalues --    1.34153   1.41827   1.43574   1.50163   1.52206
 Alpha virt. eigenvalues --    1.53115   1.55083   1.58069   1.59622   1.63721
 Alpha virt. eigenvalues --    1.66459   1.66799   1.70126   1.73666   1.82472
 Alpha virt. eigenvalues --    1.83662   1.84308   1.87981   1.91668   1.96342
 Alpha virt. eigenvalues --    1.98686   2.04624   2.09958   2.12650   2.14020
 Alpha virt. eigenvalues --    2.17623   2.21671   2.25844   2.37769   2.43574
 Alpha virt. eigenvalues --    2.45025   2.55660   2.61289   2.61569   2.72208
 Alpha virt. eigenvalues --    2.72341   2.79861   2.85963   2.93441   2.95831
 Alpha virt. eigenvalues --    5.01039   5.03796   5.06404   5.06853   5.10666
 Alpha virt. eigenvalues --    5.13505   5.17272   5.23732   5.35363   5.41198
 Alpha virt. eigenvalues --    5.51101   5.52113   6.71932   6.73970   6.75359
 Alpha virt. eigenvalues --    6.76027   6.78426   6.80677   6.82327   6.85854
 Alpha virt. eigenvalues --    6.91815   6.93506   6.94416   6.98563   6.99843
 Alpha virt. eigenvalues --    7.02035   7.10657   7.25006   7.25467   7.28338
 Alpha virt. eigenvalues --    7.31336   7.40637   7.64465  14.22765  14.24962
 Alpha virt. eigenvalues --   14.34574  49.97161  49.99846  50.00807  50.10242
 Alpha virt. eigenvalues --  163.85451
          Condensed to atoms (all electrons):
              26         27         28         29         30         31
    26  P   12.455364   0.547497   0.237216   0.001773   0.187798   0.041395
    27  O    0.547497   8.158247  -0.011947  -0.014635  -0.033928   0.001667
    28  O    0.237216  -0.011947   8.043035   0.255860   0.009633  -0.013257
    29  H    0.001773  -0.014635   0.255860   0.457299   0.001097   0.001856
    30  O    0.187798  -0.033928   0.009633   0.001097   8.086058   0.227253
    31  H    0.041395   0.001667  -0.013257   0.001856   0.227253   0.449470
    32  O    0.238440  -0.012623   0.042450  -0.004528   0.007616  -0.013259
    33  H   -0.001734  -0.014034  -0.002532  -0.004079   0.002019   0.001268
              32         33
    26  P    0.238440  -0.001734
    27  O   -0.012623  -0.014034
    28  O    0.042450  -0.002532
    29  H   -0.004528  -0.004079
    30  O    0.007616   0.002019
    31  H   -0.013259   0.001268
    32  O    8.048157   0.254677
    33  H    0.254677   0.436453
 Mulliken charges:
               1
     1  C    0.000000
     2  C    0.000000
     3  C    0.000000
     4  N    0.000000
     5  H    0.000000
     6  H    0.000000
     7  H    0.000000
     8  C    0.000000
     9  H    0.000000
    10  H    0.000000
    11  H    0.000000
    12  N    0.000000
    13  C    0.000000
    14  H    0.000000
    15  H    0.000000
    16  C    0.000000
    17  H    0.000000
    18  H    0.000000
    19  C    0.000000
    20  H    0.000000
    21  H    0.000000
    22  S    0.000000
    23  O    0.000000
    24  O    0.000000
    25  O    0.000000
    26  P    1.292251
    27  O   -0.620244
    28  O   -0.560457
    29  H    0.305357
    30  O   -0.487545
    31  H    0.303607
    32  O   -0.560931
    33  H    0.327963
 Sum of Mulliken charges =  -0.00000
 Mulliken charges with hydrogens summed into heavy atoms:
               1
     1  C    0.000000
     2  C    0.000000
     3  C    0.000000
     4  N    0.000000
     8  C    0.000000
    12  N    0.000000
    13  C    0.000000
    16  C    0.000000
    19  C    0.000000
    22  S    0.000000
    23  O    0.000000
    24  O    0.000000
    25  O    0.000000
    26  P    1.292251
    27  O   -0.620244
    28  O   -0.255101
    30  O   -0.183938
    32  O   -0.232968
         Mulliken charges condensed to fragments:
      1      0.000000
      2     -0.000000
 Electronic spatial extent (au):  <R**2>=          62550.5439
 Charge=              0.0000 electrons
 Dipole moment (field-independent basis, Debye):
    X=             -0.7825    Y=              0.5212    Z=              5.4252  Tot=              5.5061
 Quadrupole moment (field-independent basis, Debye-Ang):
   XX=            -54.0372   YY=            -32.6398   ZZ=            111.0848
   XY=              2.7829   XZ=             64.0964   YZ=             17.9974
 Traceless Quadrupole moment (field-independent basis, Debye-Ang):
   XX=            -62.1731   YY=            -40.7758   ZZ=            102.9489
   XY=              2.7829   XZ=             64.0964   YZ=             17.9974
 Octapole moment (field-independent basis, Debye-Ang**2):
  XXX=          -1689.0690  YYY=           -283.6210  ZZZ=           1563.7000  XYY=           -436.6984
  XXY=            -97.6279  XXZ=            305.7815  XZZ=           1426.8804  YZZ=            290.6832
  YYZ=           -409.1778  XYZ=            189.3668
 Hexadecapole moment (field-independent basis, Debye-Ang**3):
 XXXX=         -40068.2650 YYYY=          -1748.6370 ZZZZ=          16206.0014 XXXY=          -4027.1895
 XXXZ=          -8356.7461 YYYX=          -3720.4504 YYYZ=          -3716.8677 ZZZX=          21223.8360
 ZZZY=           3292.2908 XXYY=          -6082.0666 XXZZ=          12423.6139 YYZZ=          -5430.3084
 XXYZ=            810.2024 YYXZ=          -5465.7976 ZZXY=           3347.3946
 N-N= 2.799096133109D+02 E-N=-2.087495129961D+03  KE= 6.425143358939D+02
 No NMR shielding tensors so no spin-rotation constants.
 Leave Link  601 at Mon Jul 10 18:36:30 2023, MaxMem=  6710886400 cpu:               1.2 elap:               0.1
 (Enter /data0/hywu0/study/g16/l122.exe)
 CPIOFr:  IOpCl= 0 IRwI=-1 IRwCP=  731 ICalc=  4 LCPTot=      536908 Len1MO=     1413956 IndFrg=     7606688
 Restoring MOs from calculation   1 to rwf.
 CPIOFr:  IOpCl= 0 IRwI=-2 IRwCP=  731 ICalc=  0 LCPTot=      536908 Len1MO=     1413956 IndFrg=     1950864
 Counterpoise corrected energy =   -1651.419309713302
                   BSSE energy =       0.002943923521
              sum of fragments =   -1651.348246091110
           complexation energy =     -46.44 kcal/mole (raw)
           complexation energy =     -44.59 kcal/mole (corrected)
 Leave Link  122 at Mon Jul 10 18:36:30 2023, MaxMem=  6710886400 cpu:               0.4 elap:               0.0
 (Enter /data0/hywu0/study/g16/l9999.exe)
 1\1\GINC-LOCALHOST\SP\RM062X\6-311+G(2d,p)\C7H15N2O7P1S1\HYWU0\10-Jul-
 2023\0\\#p M062X/6-311+G(2d,p) nosymm em=GD3 counterpoise=2\\Title Car
 d Required\\0,1\C,0,18.419831,2.621246,13.843774\C,0,18.590494,1.60008
 2,14.766547\C,0,16.432963,1.58605,14.099707\N,0,17.081952,2.592291,13.
 43847\H,0,19.126443,3.336532,13.469123\H,0,19.465161,1.298154,15.3089\
 H,0,15.380153,1.283101,13.986253\C,0,16.473479,3.541883,12.524521\H,0,
 17.23346,4.127946,11.985744\H,0,15.830903,3.024579,11.776363\H,0,15.81
 2398,4.248203,13.084407\N,0,17.356221,0.956641,14.899799\C,0,17.036909
 ,-0.039279,15.923271\H,0,17.791655,-0.855059,15.877536\H,0,16.042073,-
 0.504708,15.683414\C,0,17.012617,0.612555,17.32382\H,0,17.63794,0.0117
 37,18.014754\H,0,17.49786,1.61443,17.289153\C,0,15.610827,0.743578,17.
 89351\H,0,15.651696,1.176559,18.911303\H,0,15.135966,-0.246663,18.0183
 58\S,0,14.491181,1.77378,16.895517\O,0,13.670431,2.494807,17.852502\O,
 0,15.349278,2.616642,15.995785\O,0,13.794312,0.776025,16.01754\P,0,12.
 804603,2.670792,13.285356\O,0,13.712647,1.968259,12.374746\O,0,13.5262
 76,3.855278,14.083052\H,0,14.181852,3.477527,14.793464\O,0,11.6865,3.4
 68651,12.477753\H,0,11.093177,3.947216,13.175541\O,0,11.978208,1.81379
 3,14.312213\H,0,12.660562,1.287372,14.967829\\Version=ES64L-G16RevA.03
 \HF=-644.1392572\RMSD=7.742e-09\Dipole=4.5043276,-0.6222866,0.1410059\
 Quadrupole=178.9796754,-89.4990574,-89.480618,-4.9127268,130.2225457,-
 27.9124167\PG=C01 [X(C7H15N2O7P1S1)]\\@


 WE STILL HAVE JUDGEMENT HERE,
 THAT WE TEACH BUT BLOODY INSTRUCTIONS,
 WHICH, BEING TAUGHT,
 RETURN TO PLAGUE THE INVENTOR.
           MACBETH ACT I, SCENE VII
 Job cpu time:       0 days  2 hours 28 minutes 45.8 seconds.
 Elapsed time:       0 days  0 hours  9 minutes 21.1 seconds.
 File lengths (MBytes):  RWF=    264 Int=      0 D2E=      0 Chk=     79 Scr=      1
 Normal termination of Gaussian 16 at Mon Jul 10 18:36:30 2023.
