 Entering Gaussian System, Link 0=g16
 Initial command:
 /data0/home/software/g16/l1.exe "/data0/home/software/g16/scratch/Gau-388835.inp" -scrdir="/data0/home/software/g16/scratch/"
 Default is to use a total of  22 processors:
                               22 via shared-memory
                                1 via Linda
 Entering Link 1 = /data0/home/software/g16/l1.exe PID=    388836.
  
 Copyright (c) 1988,1990,1992,1993,1995,1998,2003,2009,2016,
            Gaussian, Inc.  All Rights Reserved.
  
 This is part of the Gaussian(R) 16 program.  It is based on
 the Gaussian(R) 09 system (copyright 2009, Gaussian, Inc.),
 the Gaussian(R) 03 system (copyright 2003, Gaussian, Inc.),
 the Gaussian(R) 98 system (copyright 1998, Gaussian, Inc.),
 the Gaussian(R) 94 system (copyright 1995, Gaussian, Inc.),
 the Gaussian 92(TM) system (copyright 1992, Gaussian, Inc.),
 the Gaussian 90(TM) system (copyright 1990, Gaussian, Inc.),
 the Gaussian 88(TM) system (copyright 1988, Gaussian, Inc.),
 the Gaussian 86(TM) system (copyright 1986, Carnegie Mellon
 University), and the Gaussian 82(TM) system (copyright 1983,
 Carnegie Mellon University). Gaussian is a federally registered
 trademark of Gaussian, Inc.
  
 This software contains proprietary and confidential information,
 including trade secrets, belonging to Gaussian, Inc.
  
 This software is provided under written license and may be
 used, copied, transmitted, or stored only in accord with that
 written license.
  
 The following legend is applicable only to US Government
 contracts under FAR:
  
                    RESTRICTED RIGHTS LEGEND
  
 Use, reproduction and disclosure by the US Government is
 subject to restrictions as set forth in subparagraphs (a)
 and (c) of the Commercial Computer Software - Restricted
 Rights clause in FAR 52.227-19.
  
 Gaussian, Inc.
 340 Quinnipiac St., Bldg. 40, Wallingford CT 06492
  
  
 ---------------------------------------------------------------
 Warning -- This program may not be used in any manner that
 competes with the business of Gaussian, Inc. or will provide
 assistance to any competitor of Gaussian, Inc.  The licensee
 of this program is prohibited from giving any competitor of
 Gaussian, Inc. access to this program.  By using this program,
 the user acknowledges that Gaussian, Inc. is engaged in the
 business of creating and licensing software in the field of
 computational chemistry and represents and warrants to the
 licensee that it is not a competitor of Gaussian, Inc. and that
 it will not use this program in any manner prohibited above.
 ---------------------------------------------------------------
  

 Cite this work as:
 Gaussian 16, Revision A.03,
 M. J. Frisch, G. W. Trucks, H. B. Schlegel, G. E. Scuseria, 
 M. A. Robb, J. R. Cheeseman, G. Scalmani, V. Barone, 
 G. A. Petersson, H. Nakatsuji, X. Li, M. Caricato, A. V. Marenich, 
 J. Bloino, B. G. Janesko, R. Gomperts, B. Mennucci, H. P. Hratchian, 
 J. V. Ortiz, A. F. Izmaylov, J. L. Sonnenberg, D. Williams-Young, 
 F. Ding, F. Lipparini, F. Egidi, J. Goings, B. Peng, A. Petrone, 
 T. Henderson, D. Ranasinghe, V. G. Zakrzewski, J. Gao, N. Rega, 
 G. Zheng, W. Liang, M. Hada, M. Ehara, K. Toyota, R. Fukuda, 
 J. Hasegawa, M. Ishida, T. Nakajima, Y. Honda, O. Kitao, H. Nakai, 
 T. Vreven, K. Throssell, J. A. Montgomery, Jr., J. E. Peralta, 
 F. Ogliaro, M. J. Bearpark, J. J. Heyd, E. N. Brothers, K. N. Kudin, 
 V. N. Staroverov, T. A. Keith, R. Kobayashi, J. Normand, 
 K. Raghavachari, A. P. Rendell, J. C. Burant, S. S. Iyengar, 
 J. Tomasi, M. Cossi, J. M. Millam, M. Klene, C. Adamo, R. Cammi, 
 J. W. Ochterski, R. L. Martin, K. Morokuma, O. Farkas, 
 J. B. Foresman, and D. J. Fox, Gaussian, Inc., Wallingford CT, 2016.
 
 ******************************************
 Gaussian 16:  ES64L-G16RevA.03 25-Dec-2016
                20-Feb-2023 
 ******************************************
 %nproc=24
 Will use up to   24 processors via shared memory.
 %mem=50GB
 ---------------------------------------------------
 #p M062X/6-311+G(2d,p) nosymm em=GD3 counterpoise=5
 ---------------------------------------------------
 1/38=1,62=5,172=1/1;
 2/12=2,15=1,17=6,18=5,40=1/2;
 1/38=1,53=2,62=5,63=1/22;
 3/5=4,6=6,7=112,11=2,25=1,30=1,74=-55,124=31/1,2,3;
 4//1;
 5/5=2,38=5/2;
 6/7=2,8=2,9=2,10=2,28=1/1;
 1/53=2,62=5,63=1/22;
 3/5=7,6=11,7=112,11=2,25=1,30=1,74=-55,82=7,124=31/1,2,3;
 4//1;
 5/5=2,38=5/2;
 6/7=2,8=2,9=2,10=2,28=1/1;
 1/53=2,62=5,63=1/22(-4);
 99/5=1,9=1/99;
 Leave Link    1 at Mon Feb 20 09:14:19 2023, MaxMem=  6710886400 cpu:               0.7 elap:               0.0
 (Enter /data0/home/software/g16/l101.exe)
 -------------------
 Title Card Required
 -------------------
 Symbolic Z-matrix:
 Charge =  0 Multiplicity = 1 in supermolecule
 Charge =  0 Multiplicity = 1 in fragment      1.
 Charge =  0 Multiplicity = 1 in fragment      2.
 Charge =  0 Multiplicity = 1 in fragment      3.
 Charge =  0 Multiplicity = 1 in fragment      4.
 Charge =  0 Multiplicity = 1 in fragment      5.
 P                     11.23038   9.8337    6.74366    
 O                     9.87912   10.41099   6.64558    
 O                     11.30839   8.26614   6.90511    
 H                     11.05773   8.01095   7.91938    
 O                     12.02096   10.1239   5.39192    
 H                     12.96814   9.72367   5.50265    
 O                     12.13958   10.49546   7.85839    
 H                     11.88299   10.07732   8.81154    
 O                     8.00635   6.85043   8.55878    
 H                     8.92218   7.03233   8.8359     
 H                     7.83453   7.49223   7.85299    
 O                     11.648    11.12772   12.40138    
 H                     12.54426   11.42343   12.49557    
 H                     11.6606   10.50369   11.63251    
 O                     7.49404   8.82131   6.6334     
 H                     8.32963   9.32824   6.616      
 H                     7.47265   8.37854   5.78492    
 O                     6.08283   7.34332   10.42744    
 H                     5.37189   6.73541   10.25869    
 H                     6.77908   7.10141   9.77677    
 
 ITRead=  0  0  0  0  0  0  0  0  0  0  0  0  0  0  0  0  0  0  0  0
 MicOpt= -1 -1 -1 -1 -1 -1 -1 -1 -1 -1 -1 -1 -1 -1 -1 -1 -1 -1 -1 -1
 NAtoms=     20 NQM=       20 NQMF=       0 NMMI=      0 NMMIF=      0
                NMic=       0 NMicF=      0.
                    Isotopes and Nuclear Properties:
 (Nuclear quadrupole moments (NQMom) in fm**2, nuclear magnetic moments (NMagM)
  in nuclear magnetons)

  Atom         1           2           3           4           5           6           7           8           9          10
 IAtWgt=          31          16          16           1          16           1          16           1          16           1
 AtmWgt=  30.9737634  15.9949146  15.9949146   1.0078250  15.9949146   1.0078250  15.9949146   1.0078250  15.9949146   1.0078250
 NucSpn=           1           0           0           1           0           1           0           1           0           1
 AtZEff=  -0.0000000  -0.0000000  -0.0000000  -0.0000000  -0.0000000  -0.0000000  -0.0000000  -0.0000000  -0.0000000  -0.0000000
 NQMom=    0.0000000   0.0000000   0.0000000   0.0000000   0.0000000   0.0000000   0.0000000   0.0000000   0.0000000   0.0000000
 NMagM=    1.1316000   0.0000000   0.0000000   2.7928460   0.0000000   2.7928460   0.0000000   2.7928460   0.0000000   2.7928460
 AtZNuc=  15.0000000   8.0000000   8.0000000   1.0000000   8.0000000   1.0000000   8.0000000   1.0000000   8.0000000   1.0000000

  Atom        11          12          13          14          15          16          17          18          19          20
 IAtWgt=           1          16           1           1          16           1           1          16           1           1
 AtmWgt=   1.0078250  15.9949146   1.0078250   1.0078250  15.9949146   1.0078250   1.0078250  15.9949146   1.0078250   1.0078250
 NucSpn=           1           0           1           1           0           1           1           0           1           1
 AtZEff=  -0.0000000  -0.0000000  -0.0000000  -0.0000000  -0.0000000  -0.0000000  -0.0000000  -0.0000000  -0.0000000  -0.0000000
 NQMom=    0.0000000   0.0000000   0.0000000   0.0000000   0.0000000   0.0000000   0.0000000   0.0000000   0.0000000   0.0000000
 NMagM=    2.7928460   0.0000000   2.7928460   2.7928460   0.0000000   2.7928460   2.7928460   0.0000000   2.7928460   2.7928460
 AtZNuc=   1.0000000   8.0000000   1.0000000   1.0000000   8.0000000   1.0000000   1.0000000   8.0000000   1.0000000   1.0000000
 Leave Link  101 at Mon Feb 20 09:14:20 2023, MaxMem=  6710886400 cpu:               2.1 elap:               0.1
 (Enter /data0/home/software/g16/l202.exe)
                          Input orientation:                          
 ---------------------------------------------------------------------
 Center     Atomic      Atomic             Coordinates (Angstroms)
 Number     Number       Type             X           Y           Z
 ---------------------------------------------------------------------
      1         15           0       11.230380    9.833695    6.743657
      2          8           0        9.879124   10.410991    6.645579
      3          8           0       11.308387    8.266138    6.905114
      4          1           0       11.057727    8.010951    7.919384
      5          8           0       12.020964   10.123900    5.391920
      6          1           0       12.968137    9.723673    5.502646
      7          8           0       12.139582   10.495465    7.858385
      8          1           0       11.882989   10.077316    8.811538
      9          8           0        8.006351    6.850434    8.558782
     10          1           0        8.922180    7.032332    8.835898
     11          1           0        7.834532    7.492233    7.852993
     12          8           0       11.648001   11.127721   12.401379
     13          1           0       12.544264   11.423430   12.495574
     14          1           0       11.660597   10.503689   11.632508
     15          8           0        7.494038    8.821307    6.633395
     16          1           0        8.329635    9.328237    6.616000
     17          1           0        7.472652    8.378539    5.784923
     18          8           0        6.082827    7.343318   10.427439
     19          1           0        5.371894    6.735413   10.258686
     20          1           0        6.779081    7.101409    9.776774
 ---------------------------------------------------------------------
                    Distance matrix (angstroms):
                    1          2          3          4          5
     1  P    0.000000
     2  O    1.472679   0.000000
     3  O    1.577780   2.590472   0.000000
     4  H    2.175900   2.961735   1.075497   0.000000
     5  O    1.592619   2.498312   2.499760   3.432266   0.000000
     6  H    2.138226   3.364625   2.616504   3.524728   1.034204
     7  O    1.583416   2.566652   2.563105   2.710524   2.497114
     8  H    2.182059   2.969544   2.691651   2.397261   3.422717
     9  O    4.752777   4.454794   3.955032   3.326639   6.071385
    10  H    4.189617   4.138668   3.308200   2.521558   5.569671
    11  H    4.271400   3.762626   3.683079   3.265343   5.523474
    12  O    5.818825   6.063981   6.205878   5.490989   7.090788
    13  H    6.110491   6.507722   6.538282   5.898841   7.240478
    14  H    4.953266   5.296386   5.242036   4.512703   6.262511
    15  O    3.872640   2.866335   3.864104   3.874316   4.871454
    16  H    2.947220   1.890542   3.175627   3.297960   3.969554
    17  H    4.142121   3.265379   3.997540   4.188533   4.887523
    18  O    6.802171   6.174541   6.369054   5.611212   8.267379
    19  H    7.501776   6.846863   6.987955   6.279174   8.909399
    20  H    6.039805   5.510715   5.487954   4.752260   7.472599
                    6          7          8          9         10
     6  H    0.000000
     7  O    2.613747   0.000000
     8  H    3.500197   1.072002   0.000000
     9  O    6.497291   5.555214   5.050245   0.000000
    10  H    5.892678   4.827059   4.247224   0.973973   0.000000
    11  H    6.071026   5.249084   4.898108   0.969312   1.536421
    12  O    7.162864   4.613046   3.747736   6.806052   6.075769
    13  H    7.209014   4.746410   3.977616   7.550052   6.767161
    14  H    6.316114   3.804405   2.861665   6.012286   5.231661
    15  O    5.662033   5.087680   5.058138   2.802485   3.176640
    16  H    4.786609   4.173924   4.243563   3.165189   3.248113
    17  H    5.664753   5.528187   5.612247   3.211578   3.636187
    18  O    8.793587   7.295228   6.612697   2.726675   3.269807
    19  H    9.447355   8.105618   7.460356   3.137398   3.836276
    20  H    7.965479   6.628333   5.986450   1.747193   2.341558
                   11         12         13         14         15
    11  H    0.000000
    12  O    6.960398   0.000000
    13  H    7.693468   0.948474   0.000000
    14  H    6.163795   0.990322   1.540024   0.000000
    15  O    1.835700   7.472924   8.163392   6.721737   0.000000
    16  H    2.268521   6.907989   7.531422   6.135336   0.977498
    17  H    2.278905   8.292710   8.945694   7.499960   0.957291
    18  O    3.117438   7.013509   7.916733   6.523163   4.309378
    19  H    3.524872   7.954434   8.855736   7.458892   4.690116
    20  H    2.228823   6.841500   7.701238   6.232853   3.653771
                   16         17         18         19         20
    16  H    0.000000
    17  H    1.525462   0.000000
    18  O    4.849239   4.955426   0.000000
    19  H    5.360982   5.208417   0.950501   0.000000
    20  H    4.165750   4.248173   0.983186   1.531786   0.000000
 Symmetry turned off by external request.
 Stoichiometry    H11O8P
 Framework group  C1[X(H11O8P)]
 Deg. of freedom    54
 Full point group                 C1      NOp   1
 Rotational constants (GHZ):           0.6807530           0.4529584           0.3047160
 Leave Link  202 at Mon Feb 20 09:14:20 2023, MaxMem=  6710886400 cpu:               0.1 elap:               0.0
 (Enter /data0/home/software/g16/l122.exe)
 Counterpoise: doing full-system calculation.
 Leave Link  122 at Mon Feb 20 09:14:20 2023, MaxMem=  6710886400 cpu:               0.0 elap:               0.0
 (Enter /data0/home/software/g16/l301.exe)
 Standard basis: 6-311+G(2d,p) (5D, 7F)
 Ernie: Thresh=  0.10000D-02 Tol=  0.10000D-05 Strict=F.
   317 basis functions,   480 primitive gaussians,   335 cartesian basis functions
    45 alpha electrons       45 beta electrons
       nuclear repulsion energy       598.9563987366 Hartrees.
 IExCor= 4336 DFT=T Ex+Corr=M062X ExCW=0 ScaHFX=  0.540000
 ScaDFX=  1.000000  1.000000  1.000000  1.000000 ScalE2=  1.000000  1.000000
 IRadAn=      5 IRanWt=     -1 IRanGd=            0 ICorTp=0 IEmpDi=131
 NAtoms=   20 NActive=   20 NUniq=   20 SFac= 1.00D+00 NAtFMM=   60 NAOKFM=F Big=F
 Integral buffers will be    131072 words long.
 Raffenetti 2 integral format.
 Two-electron integral symmetry is turned off.
 R6Disp:  Grimme-D3 Dispersion energy=       -0.0006963666 Hartrees.
 Nuclear repulsion after empirical dispersion term =      598.9557023700 Hartrees.
 Leave Link  301 at Mon Feb 20 09:14:20 2023, MaxMem=  6710886400 cpu:               1.1 elap:               0.1
 (Enter /data0/home/software/g16/l302.exe)
 NPDir=0 NMtPBC=     1 NCelOv=     1 NCel=       1 NClECP=     1 NCelD=      1
         NCelK=      1 NCelE2=     1 NClLst=     1 CellRange=     0.0.
 One-electron integrals computed using PRISM.
 NBasis=   317 RedAO= T EigKep=  4.29D-04  NBF=   317
 NBsUse=   317 1.00D-06 EigRej= -1.00D+00 NBFU=   317
 Precomputing XC quadrature grid using
 IXCGrd= 4 IRadAn=           5 IRanWt=          -1 IRanGd=           0 AccXCQ= 0.00D+00.
 Generated NRdTot=       0 NPtTot=           0 NUsed=           0 NTot=          32
 NSgBfM=   320   320   320   320   320 MxSgAt=    20 MxSgA2=    20.
 Leave Link  302 at Mon Feb 20 09:14:20 2023, MaxMem=  6710886400 cpu:               5.1 elap:               0.2
 (Enter /data0/home/software/g16/l303.exe)
 DipDrv:  MaxL=1.
 Leave Link  303 at Mon Feb 20 09:14:20 2023, MaxMem=  6710886400 cpu:               0.7 elap:               0.0
 (Enter /data0/home/software/g16/l401.exe)
 ExpMin= 3.48D-02 ExpMax= 7.75D+04 ExpMxC= 2.65D+03 IAcc=3 IRadAn=         5 AccDes= 0.00D+00
 Harris functional with IExCor= 1009 and IRadAn=       5 diagonalized for initial guess.
 HarFok:  IExCor= 1009 AccDes= 0.00D+00 IRadAn=         5 IDoV= 1 UseB2=F ITyADJ=14
 ICtDFT=  3500011 ScaDFX=  1.000000  1.000000  1.000000  1.000000
 FoFCou: FMM=F IPFlag=           0 FMFlag=      100000 FMFlg1=           0
         NFxFlg=           0 DoJE=T BraDBF=F KetDBF=T FulRan=T
         wScrn=  0.000000 ICntrl=       500 IOpCl=  0 I1Cent=   200000004 NGrid=           0
         NMat0=    1 NMatS0=      1 NMatT0=    0 NMatD0=    1 NMtDS0=    0 NMtDT0=    0
 Symmetry not used in FoFCou.
 Harris En= -949.608365490333    
 JPrj=0 DoOrth=F DoCkMO=F.
 Leave Link  401 at Mon Feb 20 09:14:21 2023, MaxMem=  6710886400 cpu:              15.5 elap:               0.7
 (Enter /data0/home/software/g16/l502.exe)
 Two-electron integral symmetry not used.
 Closed shell SCF:
 Using DIIS extrapolation, IDIIS=  1040.
 NGot=  6710886400 LenX=  6710651443 LenY=  6710538777
 Requested convergence on RMS density matrix=1.00D-08 within 128 cycles.
 Requested convergence on MAX density matrix=1.00D-06.
 Requested convergence on             energy=1.00D-06.
 No special actions if energy rises.
 Fock matrices will be formed incrementally for  20 cycles.

 Cycle   1  Pass 1  IDiag  1:
 FoFJK:  IHMeth= 1 ICntrl=       0 DoSepK=F KAlg= 0 I1Cent=           0 FoldK=F
 IRaf= 790000000 NMat=       1 IRICut=       1 DoRegI=T DoRafI=F ISym2E= 0 IDoP0=0 IntGTp=1.
 FoFCou: FMM=F IPFlag=           0 FMFlag=      100000 FMFlg1=           0
         NFxFlg=           0 DoJE=F BraDBF=F KetDBF=F FulRan=T
         wScrn=  0.000000 ICntrl=         0 IOpCl=  0 I1Cent=           0 NGrid=           0
         NMat0=    1 NMatS0=      1 NMatT0=    0 NMatD0=    1 NMtDS0=    0 NMtDT0=    0
 Symmetry not used in FoFCou.
 E= -949.274135202601    
 DIIS: error= 5.66D-02 at cycle   1 NSaved=   1.
 NSaved= 1 IEnMin= 1 EnMin= -949.274135202601     IErMin= 1 ErrMin= 5.66D-02
 ErrMax= 5.66D-02  0.00D+00 EMaxC= 1.00D-01 BMatC= 9.59D-01 BMatP= 9.59D-01
 IDIUse=3 WtCom= 4.34D-01 WtEn= 5.66D-01
 Coeff-Com:  0.100D+01
 Coeff-En:   0.100D+01
 Coeff:      0.100D+01
 Gap=     0.228 Goal=   None    Shift=    0.000
 GapD=    0.228 DampG=1.000 DampE=0.500 DampFc=0.5000 IDamp=-1.
 Damping current iteration by 5.00D-01
 RMSDP=5.30D-03 MaxDP=2.37D-01              OVMax= 2.16D-01

 Cycle   2  Pass 1  IDiag  1:
 RMSU=  2.65D-03    CP:  1.00D+00
 E= -949.511865725119     Delta-E=       -0.237730522517 Rises=F Damp=T
 DIIS: error= 9.27D-03 at cycle   2 NSaved=   2.
 NSaved= 2 IEnMin= 2 EnMin= -949.511865725119     IErMin= 2 ErrMin= 9.27D-03
 ErrMax= 9.27D-03  0.00D+00 EMaxC= 1.00D-01 BMatC= 4.35D-02 BMatP= 9.59D-01
 IDIUse=3 WtCom= 9.07D-01 WtEn= 9.27D-02
 Coeff-Com:  0.675D-01 0.933D+00
 Coeff-En:   0.181D+00 0.819D+00
 Coeff:      0.780D-01 0.922D+00
 Gap=     0.271 Goal=   None    Shift=    0.000
 RMSDP=1.13D-03 MaxDP=7.36D-02 DE=-2.38D-01 OVMax= 1.62D-01

 Cycle   3  Pass 1  IDiag  1:
 RMSU=  8.11D-04    CP:  9.95D-01  7.06D-01
 E= -949.837663623500     Delta-E=       -0.325797898381 Rises=F Damp=F
 DIIS: error= 4.49D-03 at cycle   3 NSaved=   3.
 NSaved= 3 IEnMin= 3 EnMin= -949.837663623500     IErMin= 3 ErrMin= 4.49D-03
 ErrMax= 4.49D-03  0.00D+00 EMaxC= 1.00D-01 BMatC= 8.96D-03 BMatP= 4.35D-02
 IDIUse=3 WtCom= 9.55D-01 WtEn= 4.49D-02
 Coeff-Com: -0.188D-01 0.237D+00 0.781D+00
 Coeff-En:   0.000D+00 0.000D+00 0.100D+01
 Coeff:     -0.179D-01 0.227D+00 0.791D+00
 Gap=     0.273 Goal=   None    Shift=    0.000
 RMSDP=3.73D-04 MaxDP=1.67D-02 DE=-3.26D-01 OVMax= 3.43D-02

 Cycle   4  Pass 1  IDiag  1:
 RMSU=  3.30D-04    CP:  9.96D-01  7.61D-01  8.82D-01
 E= -949.839980408713     Delta-E=       -0.002316785213 Rises=F Damp=F
 DIIS: error= 3.64D-03 at cycle   4 NSaved=   4.
 NSaved= 4 IEnMin= 4 EnMin= -949.839980408713     IErMin= 4 ErrMin= 3.64D-03
 ErrMax= 3.64D-03  0.00D+00 EMaxC= 1.00D-01 BMatC= 5.98D-03 BMatP= 8.96D-03
 IDIUse=3 WtCom= 9.64D-01 WtEn= 3.64D-02
 Coeff-Com: -0.191D-01 0.384D-01 0.477D+00 0.503D+00
 Coeff-En:   0.000D+00 0.000D+00 0.396D+00 0.604D+00
 Coeff:     -0.184D-01 0.370D-01 0.474D+00 0.507D+00
 Gap=     0.273 Goal=   None    Shift=    0.000
 RMSDP=1.85D-04 MaxDP=8.61D-03 DE=-2.32D-03 OVMax= 1.59D-02

 Cycle   5  Pass 1  IDiag  1:
 RMSU=  5.24D-05    CP:  9.95D-01  7.40D-01  9.80D-01  5.48D-01
 E= -949.843998092189     Delta-E=       -0.004017683476 Rises=F Damp=F
 DIIS: error= 5.84D-04 at cycle   5 NSaved=   5.
 NSaved= 5 IEnMin= 5 EnMin= -949.843998092189     IErMin= 5 ErrMin= 5.84D-04
 ErrMax= 5.84D-04  0.00D+00 EMaxC= 1.00D-01 BMatC= 2.83D-05 BMatP= 5.98D-03
 IDIUse=3 WtCom= 9.94D-01 WtEn= 5.84D-03
 Coeff-Com: -0.283D-02 0.113D-02 0.876D-01 0.121D+00 0.793D+00
 Coeff-En:   0.000D+00 0.000D+00 0.000D+00 0.000D+00 0.100D+01
 Coeff:     -0.281D-02 0.113D-02 0.871D-01 0.121D+00 0.794D+00
 Gap=     0.274 Goal=   None    Shift=    0.000
 RMSDP=1.61D-05 MaxDP=7.78D-04 DE=-4.02D-03 OVMax= 1.10D-03

 Cycle   6  Pass 1  IDiag  1:
 RMSU=  1.26D-05    CP:  9.95D-01  7.38D-01  9.82D-01  5.73D-01  1.03D+00
 E= -949.844014510918     Delta-E=       -0.000016418729 Rises=F Damp=F
 DIIS: error= 2.22D-04 at cycle   6 NSaved=   6.
 NSaved= 6 IEnMin= 6 EnMin= -949.844014510918     IErMin= 6 ErrMin= 2.22D-04
 ErrMax= 2.22D-04  0.00D+00 EMaxC= 1.00D-01 BMatC= 5.25D-06 BMatP= 2.83D-05
 IDIUse=3 WtCom= 9.98D-01 WtEn= 2.22D-03
 Coeff-Com:  0.620D-04-0.186D-02 0.626D-02 0.179D-01 0.325D+00 0.652D+00
 Coeff-En:   0.000D+00 0.000D+00 0.000D+00 0.000D+00 0.000D+00 0.100D+01
 Coeff:      0.618D-04-0.185D-02 0.624D-02 0.179D-01 0.324D+00 0.653D+00
 Gap=     0.274 Goal=   None    Shift=    0.000
 RMSDP=8.14D-06 MaxDP=3.69D-04 DE=-1.64D-05 OVMax= 4.20D-04

 Cycle   7  Pass 1  IDiag  1:
 RMSU=  4.28D-06    CP:  9.95D-01  7.37D-01  9.84D-01  5.74D-01  1.11D+00
                    CP:  8.48D-01
 E= -949.844018011965     Delta-E=       -0.000003501047 Rises=F Damp=F
 DIIS: error= 8.55D-05 at cycle   7 NSaved=   7.
 NSaved= 7 IEnMin= 7 EnMin= -949.844018011965     IErMin= 7 ErrMin= 8.55D-05
 ErrMax= 8.55D-05  0.00D+00 EMaxC= 1.00D-01 BMatC= 5.59D-07 BMatP= 5.25D-06
 IDIUse=1 WtCom= 1.00D+00 WtEn= 0.00D+00
 Coeff-Com:  0.438D-03-0.711D-03-0.120D-01-0.136D-01-0.207D-01 0.233D+00
 Coeff-Com:  0.813D+00
 Coeff:      0.438D-03-0.711D-03-0.120D-01-0.136D-01-0.207D-01 0.233D+00
 Coeff:      0.813D+00
 Gap=     0.275 Goal=   None    Shift=    0.000
 RMSDP=3.13D-06 MaxDP=1.19D-04 DE=-3.50D-06 OVMax= 1.44D-04

 Cycle   8  Pass 1  IDiag  1:
 RMSU=  1.81D-06    CP:  9.95D-01  7.36D-01  9.85D-01  5.76D-01  1.14D+00
                    CP:  9.32D-01  9.08D-01
 E= -949.844018432997     Delta-E=       -0.000000421032 Rises=F Damp=F
 DIIS: error= 9.91D-06 at cycle   8 NSaved=   8.
 NSaved= 8 IEnMin= 8 EnMin= -949.844018432997     IErMin= 8 ErrMin= 9.91D-06
 ErrMax= 9.91D-06  0.00D+00 EMaxC= 1.00D-01 BMatC= 3.41D-08 BMatP= 5.59D-07
 IDIUse=1 WtCom= 1.00D+00 WtEn= 0.00D+00
 Coeff-Com:  0.143D-03-0.180D-03-0.462D-02-0.538D-02-0.159D-01 0.605D-01
 Coeff-Com:  0.298D+00 0.667D+00
 Coeff:      0.143D-03-0.180D-03-0.462D-02-0.538D-02-0.159D-01 0.605D-01
 Coeff:      0.298D+00 0.667D+00
 Gap=     0.275 Goal=   None    Shift=    0.000
 RMSDP=5.91D-07 MaxDP=3.35D-05 DE=-4.21D-07 OVMax= 3.84D-05

 Cycle   9  Pass 1  IDiag  1:
 RMSU=  4.16D-07    CP:  9.95D-01  7.36D-01  9.85D-01  5.76D-01  1.14D+00
                    CP:  9.45D-01  9.83D-01  8.86D-01
 E= -949.844018460521     Delta-E=       -0.000000027524 Rises=F Damp=F
 DIIS: error= 3.43D-06 at cycle   9 NSaved=   9.
 NSaved= 9 IEnMin= 9 EnMin= -949.844018460521     IErMin= 9 ErrMin= 3.43D-06
 ErrMax= 3.43D-06  0.00D+00 EMaxC= 1.00D-01 BMatC= 2.77D-09 BMatP= 3.41D-08
 IDIUse=1 WtCom= 1.00D+00 WtEn= 0.00D+00
 Coeff-Com: -0.147D-04 0.358D-04-0.251D-04-0.174D-04-0.217D-02-0.945D-02
 Coeff-Com: -0.560D-02 0.183D+00 0.835D+00
 Coeff:     -0.147D-04 0.358D-04-0.251D-04-0.174D-04-0.217D-02-0.945D-02
 Coeff:     -0.560D-02 0.183D+00 0.835D+00
 Gap=     0.275 Goal=   None    Shift=    0.000
 RMSDP=2.35D-07 MaxDP=1.07D-05 DE=-2.75D-08 OVMax= 1.20D-05

 Cycle  10  Pass 1  IDiag  1:
 RMSU=  1.31D-07    CP:  9.95D-01  7.36D-01  9.85D-01  5.76D-01  1.14D+00
                    CP:  9.47D-01  9.93D-01  9.68D-01  1.05D+00
 E= -949.844018462749     Delta-E=       -0.000000002227 Rises=F Damp=F
 DIIS: error= 2.86D-06 at cycle  10 NSaved=  10.
 NSaved=10 IEnMin=10 EnMin= -949.844018462749     IErMin=10 ErrMin= 2.86D-06
 ErrMax= 2.86D-06  0.00D+00 EMaxC= 1.00D-01 BMatC= 7.19D-10 BMatP= 2.77D-09
 IDIUse=1 WtCom= 1.00D+00 WtEn= 0.00D+00
 Coeff-Com: -0.223D-04 0.374D-04 0.455D-03 0.524D-03 0.168D-03-0.117D-01
 Coeff-Com: -0.346D-01 0.224D-01 0.417D+00 0.606D+00
 Coeff:     -0.223D-04 0.374D-04 0.455D-03 0.524D-03 0.168D-03-0.117D-01
 Coeff:     -0.346D-01 0.224D-01 0.417D+00 0.606D+00
 Gap=     0.275 Goal=   None    Shift=    0.000
 RMSDP=7.99D-08 MaxDP=3.91D-06 DE=-2.23D-09 OVMax= 4.42D-06

 Cycle  11  Pass 1  IDiag  1:
 RMSU=  4.50D-08    CP:  9.95D-01  7.36D-01  9.85D-01  5.76D-01  1.15D+00
                    CP:  9.46D-01  9.98D-01  9.82D-01  1.13D+00  8.42D-01
 E= -949.844018463312     Delta-E=       -0.000000000563 Rises=F Damp=F
 DIIS: error= 1.53D-07 at cycle  11 NSaved=  11.
 NSaved=11 IEnMin=11 EnMin= -949.844018463312     IErMin=11 ErrMin= 1.53D-07
 ErrMax= 1.53D-07  0.00D+00 EMaxC= 1.00D-01 BMatC= 1.44D-11 BMatP= 7.19D-10
 IDIUse=1 WtCom= 1.00D+00 WtEn= 0.00D+00
 Coeff-Com:  0.798D-06-0.125D-05 0.349D-04 0.360D-04 0.226D-03-0.295D-03
 Coeff-Com: -0.338D-02-0.134D-01-0.305D-01 0.746D-01 0.973D+00
 Coeff:      0.798D-06-0.125D-05 0.349D-04 0.360D-04 0.226D-03-0.295D-03
 Coeff:     -0.338D-02-0.134D-01-0.305D-01 0.746D-01 0.973D+00
 Gap=     0.275 Goal=   None    Shift=    0.000
 RMSDP=2.25D-08 MaxDP=1.02D-06 DE=-5.63D-10 OVMax= 1.21D-06

 Cycle  12  Pass 1  IDiag  1:
 RMSU=  1.13D-08    CP:  9.95D-01  7.36D-01  9.85D-01  5.76D-01  1.15D+00
                    CP:  9.46D-01  9.99D-01  9.85D-01  1.16D+00  9.40D-01
                    CP:  1.07D+00
 E= -949.844018463317     Delta-E=       -0.000000000005 Rises=F Damp=F
 DIIS: error= 4.26D-08 at cycle  12 NSaved=  12.
 NSaved=12 IEnMin=12 EnMin= -949.844018463317     IErMin=12 ErrMin= 4.26D-08
 ErrMax= 4.26D-08  0.00D+00 EMaxC= 1.00D-01 BMatC= 9.92D-13 BMatP= 1.44D-11
 IDIUse=1 WtCom= 1.00D+00 WtEn= 0.00D+00
 Coeff-Com:  0.106D-05-0.178D-05-0.550D-05-0.694D-05 0.536D-04 0.356D-03
 Coeff-Com:  0.445D-03-0.409D-02-0.235D-01-0.631D-02 0.255D+00 0.778D+00
 Coeff:      0.106D-05-0.178D-05-0.550D-05-0.694D-05 0.536D-04 0.356D-03
 Coeff:      0.445D-03-0.409D-02-0.235D-01-0.631D-02 0.255D+00 0.778D+00
 Gap=     0.275 Goal=   None    Shift=    0.000
 RMSDP=4.48D-09 MaxDP=1.34D-07 DE=-5.00D-12 OVMax= 2.56D-07

 SCF Done:  E(RM062X) =  -949.844018463     A.U. after   12 cycles
            NFock= 12  Conv=0.45D-08     -V/T= 2.0027
 KE= 9.473316762563D+02 PE=-3.447487693775D+03 EE= 9.513562966853D+02
 Leave Link  502 at Mon Feb 20 09:14:40 2023, MaxMem=  6710886400 cpu:             466.7 elap:              19.5
 (Enter /data0/home/software/g16/l601.exe)
 Copying SCF densities to generalized density rwf, IOpCl= 0 IROHF=0.

 **********************************************************************

            Population analysis using the SCF density.

 **********************************************************************

 Alpha  occ. eigenvalues --  -78.20364 -19.73184 -19.72505 -19.70804 -19.64487
 Alpha  occ. eigenvalues --  -19.63177 -19.62603 -19.61790 -19.57041  -7.01144
 Alpha  occ. eigenvalues --   -5.13064  -5.13048  -5.12806  -1.27918  -1.20744
 Alpha  occ. eigenvalues --   -1.19653  -1.15071  -1.14664  -1.13397  -1.12026
 Alpha  occ. eigenvalues --   -1.08139  -0.75891  -0.69189  -0.66626  -0.62722
 Alpha  occ. eigenvalues --   -0.62409  -0.61806  -0.61085  -0.57048  -0.56943
 Alpha  occ. eigenvalues --   -0.54903  -0.52894  -0.50066  -0.49581  -0.49048
 Alpha  occ. eigenvalues --   -0.48855  -0.48592  -0.47192  -0.43030  -0.41716
 Alpha  occ. eigenvalues --   -0.41673  -0.40651  -0.40488  -0.39797  -0.35056
 Alpha virt. eigenvalues --   -0.07594  -0.01455  -0.01031   0.02200   0.03783
 Alpha virt. eigenvalues --    0.05378   0.07088   0.07898   0.08773   0.09725
 Alpha virt. eigenvalues --    0.10320   0.11341   0.12249   0.13513   0.14475
 Alpha virt. eigenvalues --    0.14838   0.15012   0.15430   0.16246   0.16669
 Alpha virt. eigenvalues --    0.17415   0.17570   0.18127   0.18612   0.19322
 Alpha virt. eigenvalues --    0.20062   0.20619   0.20956   0.21089   0.22009
 Alpha virt. eigenvalues --    0.22415   0.23178   0.23666   0.24334   0.24910
 Alpha virt. eigenvalues --    0.25735   0.25837   0.27114   0.27642   0.28292
 Alpha virt. eigenvalues --    0.28883   0.29522   0.31444   0.31749   0.33098
 Alpha virt. eigenvalues --    0.33996   0.35269   0.36232   0.36607   0.38152
 Alpha virt. eigenvalues --    0.40185   0.40820   0.42205   0.43599   0.46846
 Alpha virt. eigenvalues --    0.47650   0.51120   0.52060   0.53628   0.54597
 Alpha virt. eigenvalues --    0.54924   0.57417   0.58182   0.59055   0.64277
 Alpha virt. eigenvalues --    0.65582   0.68518   0.72513   0.73874   0.74541
 Alpha virt. eigenvalues --    0.82687   0.95405   0.97057   0.97496   0.98234
 Alpha virt. eigenvalues --    0.99497   1.00814   1.01540   1.02538   1.03156
 Alpha virt. eigenvalues --    1.03798   1.05812   1.07189   1.09087   1.09797
 Alpha virt. eigenvalues --    1.10519   1.11675   1.12307   1.13129   1.14529
 Alpha virt. eigenvalues --    1.14798   1.15254   1.17056   1.17197   1.17624
 Alpha virt. eigenvalues --    1.18344   1.19005   1.19633   1.21521   1.22929
 Alpha virt. eigenvalues --    1.23317   1.23933   1.25142   1.26796   1.27672
 Alpha virt. eigenvalues --    1.29494   1.30491   1.31270   1.31512   1.34325
 Alpha virt. eigenvalues --    1.36157   1.37951   1.38826   1.39654   1.40912
 Alpha virt. eigenvalues --    1.42529   1.47101   1.49689   1.50980   1.51743
 Alpha virt. eigenvalues --    1.51858   1.54269   1.57111   1.58554   1.59455
 Alpha virt. eigenvalues --    1.63750   1.64189   1.66668   1.67679   1.69021
 Alpha virt. eigenvalues --    1.69352   1.73156   1.74136   1.75346   1.76165
 Alpha virt. eigenvalues --    1.77630   1.78236   1.79660   1.80908   1.82161
 Alpha virt. eigenvalues --    1.83316   1.84639   1.85702   1.94610   1.95378
 Alpha virt. eigenvalues --    1.98871   2.00909   2.04223   2.04690   2.05303
 Alpha virt. eigenvalues --    2.06487   2.07005   2.08211   2.08491   2.14105
 Alpha virt. eigenvalues --    2.14226   2.15117   2.17707   2.20108   2.21292
 Alpha virt. eigenvalues --    2.22459   2.24097   2.31455   2.34370   2.35625
 Alpha virt. eigenvalues --    2.40435   2.41721   2.42827   2.43281   2.43842
 Alpha virt. eigenvalues --    2.46393   2.53654   2.55136   2.55987   2.56965
 Alpha virt. eigenvalues --    2.59514   2.59920   2.60917   2.63867   2.66018
 Alpha virt. eigenvalues --    2.67602   2.67708   2.73867   2.79777   2.84728
 Alpha virt. eigenvalues --    2.85646   2.87399   2.88176   2.92561   2.95729
 Alpha virt. eigenvalues --    3.01238   3.02187   3.10696   3.14175   3.18257
 Alpha virt. eigenvalues --    4.99592   5.02528   5.03543   5.03983   5.04767
 Alpha virt. eigenvalues --    5.08489   5.11476   5.12872   5.13707   5.14596
 Alpha virt. eigenvalues --    5.16964   5.25047   5.34622   5.39873   5.41144
 Alpha virt. eigenvalues --    5.45319   5.49619   5.51169   5.55662   5.56118
 Alpha virt. eigenvalues --    5.91180   5.93339   5.95531   6.01073   6.68864
 Alpha virt. eigenvalues --    6.70928   6.72065   6.74500   6.76388   6.76679
 Alpha virt. eigenvalues --    6.77687   6.78450   6.78631   6.80002   6.81247
 Alpha virt. eigenvalues --    6.82104   6.82574   6.83739   6.84166   6.85224
 Alpha virt. eigenvalues --    6.86797   6.88552   6.89086   6.89650   6.90418
 Alpha virt. eigenvalues --    6.91911   6.92121   6.92940   6.94889   6.96973
 Alpha virt. eigenvalues --    6.97672   6.97921   7.01192   7.04633   7.08256
 Alpha virt. eigenvalues --    7.08659   7.15023   7.17213   7.22253   7.23075
 Alpha virt. eigenvalues --    7.23496   7.24980   7.28833   7.38626   7.61689
 Alpha virt. eigenvalues --   14.20709  14.22103  14.30822  49.94025  49.94829
 Alpha virt. eigenvalues --   49.96620  49.98156  49.99522  50.02725  50.06166
 Alpha virt. eigenvalues --   50.08148 163.84198
          Condensed to atoms (all electrons):
               1          2          3          4          5          6
     1  P   12.580916   0.529256   0.254129   0.005850   0.143949   0.036001
     2  O    0.529256   8.150082  -0.032588  -0.020885  -0.030071  -0.000784
     3  O    0.254129  -0.032588   8.029067   0.245144   0.016543  -0.017494
     4  H    0.005850  -0.020885   0.245144   0.467780  -0.002420   0.002414
     5  O    0.143949  -0.030071   0.016543  -0.002420   8.117786   0.224284
     6  H    0.036001  -0.000784  -0.017494   0.002414   0.224284   0.451993
     7  O    0.227329  -0.000153   0.029055  -0.002584  -0.007207  -0.009453
     8  H    0.007391  -0.010082  -0.010907  -0.003020  -0.001477   0.002021
     9  O   -0.000841  -0.003751  -0.001985   0.003293  -0.000083   0.000012
    10  H    0.002093   0.000687   0.004620  -0.001325   0.000209  -0.000007
    11  H    0.000182   0.001998   0.003227   0.000377   0.000169  -0.000003
    12  O    0.000579   0.000100   0.000020   0.000006  -0.000015   0.000000
    13  H   -0.000154   0.000003   0.000005  -0.000001   0.000000  -0.000000
    14  H    0.000157   0.000054  -0.000023  -0.000058   0.000010  -0.000000
    15  O   -0.007617  -0.018493   0.004072  -0.004216  -0.002669  -0.000016
    16  H    0.009365   0.048169  -0.000889   0.001677   0.002042   0.000083
    17  H    0.001518   0.002015  -0.000554   0.000280   0.000160  -0.000012
    18  O   -0.000141  -0.000005  -0.000004   0.000007  -0.000000   0.000000
    19  H    0.000024  -0.000003   0.000000  -0.000003   0.000000  -0.000000
    20  H    0.000180   0.000057   0.000248  -0.000114   0.000002  -0.000000
               7          8          9         10         11         12
     1  P    0.227329   0.007391  -0.000841   0.002093   0.000182   0.000579
     2  O   -0.000153  -0.010082  -0.003751   0.000687   0.001998   0.000100
     3  O    0.029055  -0.010907  -0.001985   0.004620   0.003227   0.000020
     4  H   -0.002584  -0.003020   0.003293  -0.001325   0.000377   0.000006
     5  O   -0.007207  -0.001477  -0.000083   0.000209   0.000169  -0.000015
     6  H   -0.009453   0.002021   0.000012  -0.000007  -0.000003   0.000000
     7  O    8.017104   0.244213   0.000450  -0.000592  -0.000207  -0.000865
     8  H    0.244213   0.475720  -0.000094  -0.000141  -0.000025   0.002902
     9  O    0.000450  -0.000094   8.292536   0.247836   0.242012  -0.000005
    10  H   -0.000592  -0.000141   0.247836   0.495582  -0.008934  -0.000005
    11  H   -0.000207  -0.000025   0.242012  -0.008934   0.346801   0.000001
    12  O   -0.000865   0.002902  -0.000005  -0.000005   0.000001   7.900389
    13  H    0.000095  -0.000137   0.000000  -0.000000  -0.000000   0.328569
    14  H   -0.000953   0.001572   0.000009   0.000010  -0.000001   0.308431
    15  O   -0.000776   0.000043  -0.021705   0.004629  -0.009485   0.000000
    16  H    0.000607   0.000288   0.002696  -0.000579   0.004898  -0.000001
    17  H    0.000067  -0.000014  -0.000577   0.000129   0.001570  -0.000000
    18  O    0.000005  -0.000001   0.014588  -0.001058  -0.001876   0.000000
    19  H   -0.000000   0.000000  -0.000125   0.001043   0.000948   0.000000
    20  H   -0.000014   0.000003  -0.104808   0.013831   0.011987   0.000001
              13         14         15         16         17         18
     1  P   -0.000154   0.000157  -0.007617   0.009365   0.001518  -0.000141
     2  O    0.000003   0.000054  -0.018493   0.048169   0.002015  -0.000005
     3  O    0.000005  -0.000023   0.004072  -0.000889  -0.000554  -0.000004
     4  H   -0.000001  -0.000058  -0.004216   0.001677   0.000280   0.000007
     5  O    0.000000   0.000010  -0.002669   0.002042   0.000160  -0.000000
     6  H   -0.000000  -0.000000  -0.000016   0.000083  -0.000012   0.000000
     7  O    0.000095  -0.000953  -0.000776   0.000607   0.000067   0.000005
     8  H   -0.000137   0.001572   0.000043   0.000288  -0.000014  -0.000001
     9  O    0.000000   0.000009  -0.021705   0.002696  -0.000577   0.014588
    10  H   -0.000000   0.000010   0.004629  -0.000579   0.000129  -0.001058
    11  H   -0.000000  -0.000001  -0.009485   0.004898   0.001570  -0.001876
    12  O    0.328569   0.308431   0.000000  -0.000001  -0.000000   0.000000
    13  H    0.418891  -0.027079   0.000000  -0.000000  -0.000000   0.000000
    14  H   -0.027079   0.454057   0.000001   0.000000  -0.000000   0.000000
    15  O    0.000000   0.000001   8.143267   0.265403   0.303309  -0.001908
    16  H   -0.000000   0.000000   0.265403   0.336089  -0.020955   0.000350
    17  H   -0.000000  -0.000000   0.303309  -0.020955   0.426603   0.000224
    18  O    0.000000   0.000000  -0.001908   0.000350   0.000224   8.123388
    19  H   -0.000000  -0.000000   0.000070   0.000007   0.000017   0.285871
    20  H   -0.000000  -0.000001   0.003380  -0.000637  -0.000166   0.255575
              19         20
     1  P    0.000024   0.000180
     2  O   -0.000003   0.000057
     3  O    0.000000   0.000248
     4  H   -0.000003  -0.000114
     5  O    0.000000   0.000002
     6  H   -0.000000  -0.000000
     7  O   -0.000000  -0.000014
     8  H    0.000000   0.000003
     9  O   -0.000125  -0.104808
    10  H    0.001043   0.013831
    11  H    0.000948   0.011987
    12  O    0.000000   0.000001
    13  H   -0.000000  -0.000000
    14  H   -0.000000  -0.000001
    15  O    0.000070   0.003380
    16  H    0.000007  -0.000637
    17  H    0.000017  -0.000166
    18  O    0.285871   0.255575
    19  H    0.463158  -0.011607
    20  H   -0.011607   0.406265
 Mulliken charges:
               1
     1  P    1.209836
     2  O   -0.615604
     3  O   -0.521686
     4  H    0.307797
     5  O   -0.461212
     6  H    0.310963
     7  O   -0.496119
     8  H    0.291746
     9  O   -0.669458
    10  H    0.241971
    11  H    0.406361
    12  O   -0.540106
    13  H    0.279809
    14  H    0.263815
    15  O   -0.657288
    16  H    0.351387
    17  H    0.286385
    18  O   -0.675014
    19  H    0.260600
    20  H    0.425819
 Sum of Mulliken charges =  -0.00000
 Mulliken charges with hydrogens summed into heavy atoms:
               1
     1  P    1.209836
     2  O   -0.615604
     3  O   -0.213889
     5  O   -0.150249
     7  O   -0.204373
     9  O   -0.021127
    12  O    0.003517
    15  O   -0.019515
    18  O    0.011404
         Mulliken charges condensed to fragments:
      1      0.025720
      2     -0.021127
      3      0.003517
      4     -0.019515
      5      0.011404
 Electronic spatial extent (au):  <R**2>=          83454.7126
 Charge=             -0.0000 electrons
 Dipole moment (field-independent basis, Debye):
    X=              9.0384    Y=             -2.6291    Z=             -2.2537  Tot=              9.6791
 Quadrupole moment (field-independent basis, Debye-Ang):
   XX=            121.7631   YY=           -119.0119   ZZ=           -112.2489
   XY=             59.4090   XZ=             65.3003   YZ=            -37.9917
 Traceless Quadrupole moment (field-independent basis, Debye-Ang):
   XX=            158.2623   YY=            -82.5127   ZZ=            -75.7496
   XY=             59.4090   XZ=             65.3003   YZ=            -37.9917
 Octapole moment (field-independent basis, Debye-Ang**2):
  XXX=           1005.8353  YYY=          -2629.9858  ZZZ=          -2338.1102  XYY=           -381.4960
  XXY=            903.7446  XXZ=           1040.7003  XZZ=           -242.1586  YZZ=          -1157.6545
  YYZ=          -1067.2482  XYZ=            449.0718
 Hexadecapole moment (field-independent basis, Debye-Ang**3):
 XXXX=           1805.4092 YYYY=         -45366.7194 ZZZZ=         -38341.6386 XXXY=           7010.9460
 XXXZ=          10141.0982 YYYX=         -19100.5740 YYYZ=         -21660.1852 ZZZX=         -14132.7152
 ZZZY=         -22519.2501 XXYY=          -1131.2529 XXZZ=           1848.4126 YYZZ=         -16664.3603
 XXYZ=           8308.7757 YYXZ=          -2790.2535 ZZXY=          -3404.3999
 N-N= 5.989557023700D+02 E-N=-3.447487697321D+03  KE= 9.473316762563D+02
 No NMR shielding tensors so no spin-rotation constants.
 Leave Link  601 at Mon Feb 20 09:14:40 2023, MaxMem=  6710886400 cpu:               2.4 elap:               0.1
 (Enter /data0/home/software/g16/l122.exe)
 CPIOFr:  IOpCl= 0 IRwI=-1 IRwCP=  731 ICalc= -1 LCPTot=      156386 Len1MO=      408861 IndFrg=      156386
 CPIOFr:  IOpCl= 0 IRwI=-1 IRwCP=  731 ICalc=  0 LCPTot=      156386 Len1MO=      408861 IndFrg=      565247
 Counterpoise: doing calculation for fragment   1 using the basis set of the full-system, NewBq=T
 Leave Link  122 at Mon Feb 20 09:14:40 2023, MaxMem=  6710886400 cpu:               0.2 elap:               0.0
 (Enter /data0/home/software/g16/l301.exe)
 Basis read from rwf:  (5D, 7F)
 No pseudopotential information found on rwf file.
   317 basis functions,   480 primitive gaussians,   335 cartesian basis functions
    25 alpha electrons       25 beta electrons
       nuclear repulsion energy       279.9467474075 Hartrees.
 IExCor= 4336 DFT=T Ex+Corr=M062X ExCW=0 ScaHFX=  0.540000
 ScaDFX=  1.000000  1.000000  1.000000  1.000000 ScalE2=  1.000000  1.000000
 IRadAn=      5 IRanWt=     -1 IRanGd=            0 ICorTp=0 IEmpDi=131
 NAtoms=   20 NActive=   20 NUniq=   20 SFac= 1.00D+00 NAtFMM=   60 NAOKFM=F Big=F
 Integral buffers will be    131072 words long.
 Raffenetti 2 integral format.
 Two-electron integral symmetry is turned off.
 R6Disp:  Grimme-D3 Dispersion energy=       -0.0000436961 Hartrees.
 Nuclear repulsion after empirical dispersion term =      279.9467037113 Hartrees.
 No density basis found on file   718.
 Leave Link  301 at Mon Feb 20 09:14:40 2023, MaxMem=  6710886400 cpu:               1.3 elap:               0.1
 (Enter /data0/home/software/g16/l302.exe)
 NPDir=0 NMtPBC=     1 NCelOv=     1 NCel=       1 NClECP=     1 NCelD=      1
         NCelK=      1 NCelE2=     1 NClLst=     1 CellRange=     0.0.
 One-electron integrals computed using PRISM.
 NBasis=   317 RedAO= T EigKep=  4.29D-04  NBF=   317
 NBsUse=   317 1.00D-06 EigRej= -1.00D+00 NBFU=   317
 Precomputing XC quadrature grid using
 IXCGrd= 4 IRadAn=           5 IRanWt=          -1 IRanGd=           0 AccXCQ= 0.00D+00.
 Generated NRdTot=       0 NPtTot=           0 NUsed=           0 NTot=          32
 NSgBfM=   320   320   320   320   320 MxSgAt=    20 MxSgA2=    20.
 Leave Link  302 at Mon Feb 20 09:14:41 2023, MaxMem=  6710886400 cpu:               5.1 elap:               0.2
 (Enter /data0/home/software/g16/l303.exe)
 DipDrv:  MaxL=1.
 Leave Link  303 at Mon Feb 20 09:14:41 2023, MaxMem=  6710886400 cpu:               0.8 elap:               0.1
 (Enter /data0/home/software/g16/l401.exe)
 ExpMin= 3.48D-02 ExpMax= 7.75D+04 ExpMxC= 2.65D+03 IAcc=3 IRadAn=         5 AccDes= 0.00D+00
 Harris functional with IExCor= 1009 and IRadAn=       5 diagonalized for initial guess.
 HarFok:  IExCor= 1009 AccDes= 0.00D+00 IRadAn=         5 IDoV= 1 UseB2=F ITyADJ=14
 ICtDFT=  3500011 ScaDFX=  1.000000  1.000000  1.000000  1.000000
 FoFCou: FMM=F IPFlag=           0 FMFlag=      100000 FMFlg1=           0
         NFxFlg=           0 DoJE=T BraDBF=F KetDBF=T FulRan=T
         wScrn=  0.000000 ICntrl=       500 IOpCl=  0 I1Cent=   200000004 NGrid=           0
         NMat0=    1 NMatS0=      1 NMatT0=    0 NMatD0=    1 NMtDS0=    0 NMtDT0=    0
 Symmetry not used in FoFCou.
 Harris En= -643.936673644376    
 JPrj=0 DoOrth=F DoCkMO=F.
 Leave Link  401 at Mon Feb 20 09:14:41 2023, MaxMem=  6710886400 cpu:              14.6 elap:               0.6
 (Enter /data0/home/software/g16/l502.exe)
 Two-electron integral symmetry not used.
 Closed shell SCF:
 Using DIIS extrapolation, IDIIS=  1040.
 NGot=  6710886400 LenX=  6710651443 LenY=  6710538777
 Requested convergence on RMS density matrix=1.00D-08 within 128 cycles.
 Requested convergence on MAX density matrix=1.00D-06.
 Requested convergence on             energy=1.00D-06.
 No special actions if energy rises.
 Fock matrices will be formed incrementally for  20 cycles.

 Cycle   1  Pass 1  IDiag  1:
 FoFJK:  IHMeth= 1 ICntrl=       0 DoSepK=F KAlg= 0 I1Cent=           0 FoldK=F
 IRaf= 790000000 NMat=       1 IRICut=       1 DoRegI=T DoRafI=F ISym2E= 0 IDoP0=0 IntGTp=1.
 FoFCou: FMM=F IPFlag=           0 FMFlag=      100000 FMFlg1=           0
         NFxFlg=           0 DoJE=F BraDBF=F KetDBF=F FulRan=T
         wScrn=  0.000000 ICntrl=         0 IOpCl=  0 I1Cent=           0 NGrid=           0
         NMat0=    1 NMatS0=      1 NMatT0=    0 NMatD0=    1 NMtDS0=    0 NMtDT0=    0
 Symmetry not used in FoFCou.
 E= -643.832133952272    
 DIIS: error= 3.43D-02 at cycle   1 NSaved=   1.
 NSaved= 1 IEnMin= 1 EnMin= -643.832133952272     IErMin= 1 ErrMin= 3.43D-02
 ErrMax= 3.43D-02  0.00D+00 EMaxC= 1.00D-01 BMatC= 5.15D-01 BMatP= 5.15D-01
 IDIUse=3 WtCom= 6.57D-01 WtEn= 3.43D-01
 Coeff-Com:  0.100D+01
 Coeff-En:   0.100D+01
 Coeff:      0.100D+01
 Gap=     0.210 Goal=   None    Shift=    0.000
 GapD=    0.210 DampG=1.000 DampE=0.500 DampFc=0.5000 IDamp=-1.
 Damping current iteration by 5.00D-01
 RMSDP=4.39D-03 MaxDP=2.40D-01              OVMax= 2.88D-01

 Cycle   2  Pass 1  IDiag  1:
 RMSU=  2.20D-03    CP:  1.01D+00
 E= -643.948441391730     Delta-E=       -0.116307439457 Rises=F Damp=T
 DIIS: error= 7.68D-03 at cycle   2 NSaved=   2.
 NSaved= 2 IEnMin= 2 EnMin= -643.948441391730     IErMin= 2 ErrMin= 7.68D-03
 ErrMax= 7.68D-03  0.00D+00 EMaxC= 1.00D-01 BMatC= 2.93D-02 BMatP= 5.15D-01
 IDIUse=3 WtCom= 9.23D-01 WtEn= 7.68D-02
 Coeff-Com:  0.840D-01 0.916D+00
 Coeff-En:   0.224D+00 0.776D+00
 Coeff:      0.947D-01 0.905D+00
 Gap=     0.325 Goal=   None    Shift=    0.000
 RMSDP=1.12D-03 MaxDP=8.43D-02 DE=-1.16D-01 OVMax= 1.93D-01

 Cycle   3  Pass 1  IDiag  1:
 RMSU=  7.16D-04    CP:  9.97D-01  6.13D-01
 E= -644.123746290426     Delta-E=       -0.175304898696 Rises=F Damp=F
 DIIS: error= 5.38D-03 at cycle   3 NSaved=   3.
 NSaved= 3 IEnMin= 3 EnMin= -644.123746290426     IErMin= 3 ErrMin= 5.38D-03
 ErrMax= 5.38D-03  0.00D+00 EMaxC= 1.00D-01 BMatC= 1.17D-02 BMatP= 2.93D-02
 IDIUse=3 WtCom= 9.46D-01 WtEn= 5.38D-02
 Coeff-Com: -0.127D-01 0.350D+00 0.663D+00
 Coeff-En:   0.000D+00 0.000D+00 0.100D+01
 Coeff:     -0.120D-01 0.331D+00 0.681D+00
 Gap=     0.314 Goal=   None    Shift=    0.000
 RMSDP=3.64D-04 MaxDP=1.58D-02 DE=-1.75D-01 OVMax= 3.69D-02

 Cycle   4  Pass 1  IDiag  1:
 RMSU=  3.10D-04    CP:  9.98D-01  6.91D-01  8.77D-01
 E= -644.129399169332     Delta-E=       -0.005652878906 Rises=F Damp=F
 DIIS: error= 2.87D-03 at cycle   4 NSaved=   4.
 NSaved= 4 IEnMin= 4 EnMin= -644.129399169332     IErMin= 4 ErrMin= 2.87D-03
 ErrMax= 2.87D-03  0.00D+00 EMaxC= 1.00D-01 BMatC= 3.96D-03 BMatP= 1.17D-02
 IDIUse=3 WtCom= 9.71D-01 WtEn= 2.87D-02
 Coeff-Com: -0.235D-01 0.518D-01 0.391D+00 0.581D+00
 Coeff-En:   0.000D+00 0.000D+00 0.247D+00 0.753D+00
 Coeff:     -0.228D-01 0.503D-01 0.387D+00 0.586D+00
 Gap=     0.320 Goal=   None    Shift=    0.000
 RMSDP=1.42D-04 MaxDP=6.13D-03 DE=-5.65D-03 OVMax= 1.11D-02

 Cycle   5  Pass 1  IDiag  1:
 RMSU=  4.69D-05    CP:  9.97D-01  6.72D-01  9.72D-01  6.53D-01
 E= -644.132015625298     Delta-E=       -0.002616455967 Rises=F Damp=F
 DIIS: error= 1.92D-04 at cycle   5 NSaved=   5.
 NSaved= 5 IEnMin= 5 EnMin= -644.132015625298     IErMin= 5 ErrMin= 1.92D-04
 ErrMax= 1.92D-04  0.00D+00 EMaxC= 1.00D-01 BMatC= 1.62D-05 BMatP= 3.96D-03
 IDIUse=3 WtCom= 9.98D-01 WtEn= 1.92D-03
 Coeff-Com: -0.288D-02 0.593D-03 0.522D-01 0.114D+00 0.836D+00
 Coeff-En:   0.000D+00 0.000D+00 0.000D+00 0.000D+00 0.100D+01
 Coeff:     -0.288D-02 0.592D-03 0.521D-01 0.114D+00 0.836D+00
 Gap=     0.319 Goal=   None    Shift=    0.000
 RMSDP=1.61D-05 MaxDP=6.38D-04 DE=-2.62D-03 OVMax= 8.21D-04

 Cycle   6  Pass 1  IDiag  1:
 RMSU=  1.06D-05    CP:  9.97D-01  6.69D-01  9.76D-01  6.78D-01  1.08D+00
 E= -644.132026210185     Delta-E=       -0.000010584887 Rises=F Damp=F
 DIIS: error= 6.44D-05 at cycle   6 NSaved=   6.
 NSaved= 6 IEnMin= 6 EnMin= -644.132026210185     IErMin= 6 ErrMin= 6.44D-05
 ErrMax= 6.44D-05  0.00D+00 EMaxC= 1.00D-01 BMatC= 1.77D-06 BMatP= 1.62D-05
 IDIUse=1 WtCom= 1.00D+00 WtEn= 0.00D+00
 Coeff-Com: -0.967D-04-0.156D-02 0.190D-02 0.129D-01 0.257D+00 0.730D+00
 Coeff:     -0.967D-04-0.156D-02 0.190D-02 0.129D-01 0.257D+00 0.730D+00
 Gap=     0.319 Goal=   None    Shift=    0.000
 RMSDP=6.16D-06 MaxDP=2.86D-04 DE=-1.06D-05 OVMax= 3.15D-04

 Cycle   7  Pass 1  IDiag  1:
 RMSU=  3.52D-06    CP:  9.97D-01  6.67D-01  9.77D-01  6.79D-01  1.16D+00
                    CP:  8.81D-01
 E= -644.132027338226     Delta-E=       -0.000001128041 Rises=F Damp=F
 DIIS: error= 3.48D-05 at cycle   7 NSaved=   7.
 NSaved= 7 IEnMin= 7 EnMin= -644.132027338226     IErMin= 7 ErrMin= 3.48D-05
 ErrMax= 3.48D-05  0.00D+00 EMaxC= 1.00D-01 BMatC= 4.69D-07 BMatP= 1.77D-06
 IDIUse=1 WtCom= 1.00D+00 WtEn= 0.00D+00
 Coeff-Com:  0.462D-03-0.764D-03-0.900D-02-0.152D-01-0.257D-01 0.343D+00
 Coeff-Com:  0.708D+00
 Coeff:      0.462D-03-0.764D-03-0.900D-02-0.152D-01-0.257D-01 0.343D+00
 Coeff:      0.708D+00
 Gap=     0.319 Goal=   None    Shift=    0.000
 RMSDP=2.59D-06 MaxDP=1.05D-04 DE=-1.13D-06 OVMax= 1.27D-04

 Cycle   8  Pass 1  IDiag  1:
 RMSU=  1.53D-06    CP:  9.97D-01  6.67D-01  9.78D-01  6.81D-01  1.18D+00
                    CP:  9.75D-01  8.16D-01
 E= -644.132027665651     Delta-E=       -0.000000327424 Rises=F Damp=F
 DIIS: error= 8.95D-06 at cycle   8 NSaved=   8.
 NSaved= 8 IEnMin= 8 EnMin= -644.132027665651     IErMin= 8 ErrMin= 8.95D-06
 ErrMax= 8.95D-06  0.00D+00 EMaxC= 1.00D-01 BMatC= 2.66D-08 BMatP= 4.69D-07
 IDIUse=1 WtCom= 1.00D+00 WtEn= 0.00D+00
 Coeff-Com:  0.162D-03-0.210D-03-0.352D-02-0.586D-02-0.161D-01 0.948D-01
 Coeff-Com:  0.277D+00 0.654D+00
 Coeff:      0.162D-03-0.210D-03-0.352D-02-0.586D-02-0.161D-01 0.948D-01
 Coeff:      0.277D+00 0.654D+00
 Gap=     0.319 Goal=   None    Shift=    0.000
 RMSDP=4.66D-07 MaxDP=2.66D-05 DE=-3.27D-07 OVMax= 3.43D-05

 Cycle   9  Pass 1  IDiag  1:
 RMSU=  3.19D-07    CP:  9.97D-01  6.67D-01  9.78D-01  6.81D-01  1.18D+00
                    CP:  9.86D-01  8.85D-01  8.88D-01
 E= -644.132027686946     Delta-E=       -0.000000021296 Rises=F Damp=F
 DIIS: error= 1.59D-06 at cycle   9 NSaved=   9.
 NSaved= 9 IEnMin= 9 EnMin= -644.132027686946     IErMin= 9 ErrMin= 1.59D-06
 ErrMax= 1.59D-06  0.00D+00 EMaxC= 1.00D-01 BMatC= 1.11D-09 BMatP= 2.66D-08
 IDIUse=1 WtCom= 1.00D+00 WtEn= 0.00D+00
 Coeff-Com: -0.317D-04 0.601D-04 0.303D-03 0.674D-03-0.708D-03-0.219D-01
 Coeff-Com: -0.309D-01 0.940D-01 0.959D+00
 Coeff:     -0.317D-04 0.601D-04 0.303D-03 0.674D-03-0.708D-03-0.219D-01
 Coeff:     -0.309D-01 0.940D-01 0.959D+00
 Gap=     0.319 Goal=   None    Shift=    0.000
 RMSDP=2.15D-07 MaxDP=1.11D-05 DE=-2.13D-08 OVMax= 1.50D-05

 Cycle  10  Pass 1  IDiag  1:
 RMSU=  8.87D-08    CP:  9.97D-01  6.67D-01  9.78D-01  6.81D-01  1.19D+00
                    CP:  9.86D-01  9.02D-01  9.71D-01  1.13D+00
 E= -644.132027688363     Delta-E=       -0.000000001417 Rises=F Damp=F
 DIIS: error= 2.12D-07 at cycle  10 NSaved=  10.
 NSaved=10 IEnMin=10 EnMin= -644.132027688363     IErMin=10 ErrMin= 2.12D-07
 ErrMax= 2.12D-07  0.00D+00 EMaxC= 1.00D-01 BMatC= 2.10D-11 BMatP= 1.11D-09
 IDIUse=1 WtCom= 1.00D+00 WtEn= 0.00D+00
 Coeff-Com: -0.356D-05 0.568D-05 0.104D-03 0.173D-03 0.537D-03-0.370D-02
 Coeff-Com: -0.114D-01-0.214D-01 0.736D-02 0.103D+01
 Coeff:     -0.356D-05 0.568D-05 0.104D-03 0.173D-03 0.537D-03-0.370D-02
 Coeff:     -0.114D-01-0.214D-01 0.736D-02 0.103D+01
 Gap=     0.319 Goal=   None    Shift=    0.000
 RMSDP=4.28D-08 MaxDP=1.50D-06 DE=-1.42D-09 OVMax= 3.99D-06

 Cycle  11  Pass 1  IDiag  1:
 RMSU=  2.07D-08    CP:  9.97D-01  6.67D-01  9.78D-01  6.81D-01  1.19D+00
                    CP:  9.86D-01  9.04D-01  9.83D-01  1.20D+00  1.17D+00
 E= -644.132027688403     Delta-E=       -0.000000000040 Rises=F Damp=F
 DIIS: error= 1.33D-07 at cycle  11 NSaved=  11.
 NSaved=11 IEnMin=11 EnMin= -644.132027688403     IErMin=11 ErrMin= 1.33D-07
 ErrMax= 1.33D-07  0.00D+00 EMaxC= 1.00D-01 BMatC= 6.75D-12 BMatP= 2.10D-11
 IDIUse=1 WtCom= 1.00D+00 WtEn= 0.00D+00
 Coeff-Com:  0.358D-06-0.957D-06 0.259D-04 0.348D-04 0.240D-03-0.425D-03
 Coeff-Com: -0.283D-02-0.122D-01-0.460D-01 0.412D+00 0.649D+00
 Coeff:      0.358D-06-0.957D-06 0.259D-04 0.348D-04 0.240D-03-0.425D-03
 Coeff:     -0.283D-02-0.122D-01-0.460D-01 0.412D+00 0.649D+00
 Gap=     0.319 Goal=   None    Shift=    0.000
 RMSDP=9.78D-09 MaxDP=4.38D-07 DE=-3.98D-11 OVMax= 6.83D-07

 SCF Done:  E(RM062X) =  -644.132027688     A.U. after   11 cycles
            NFock= 11  Conv=0.98D-08     -V/T= 2.0026
 KE= 6.424855952531D+02 PE=-2.087503108135D+03 EE= 5.209387814817D+02
 Leave Link  502 at Mon Feb 20 09:14:58 2023, MaxMem=  6710886400 cpu:             401.5 elap:              16.8
 (Enter /data0/home/software/g16/l601.exe)
 Copying SCF densities to generalized density rwf, IOpCl= 0 IROHF=0.

 **********************************************************************

            Population analysis using the SCF density.

 **********************************************************************

 Alpha  occ. eigenvalues --  -78.16750 -19.69921 -19.69479 -19.67987 -19.57545
 Alpha  occ. eigenvalues --   -6.97549  -5.09466  -5.09463  -5.09190  -1.24753
 Alpha  occ. eigenvalues --   -1.17620  -1.16780  -1.07767  -0.72730  -0.66053
 Alpha  occ. eigenvalues --   -0.63661  -0.59148  -0.53798  -0.51787  -0.49783
 Alpha  occ. eigenvalues --   -0.46309  -0.45762  -0.44747  -0.37347  -0.36438
 Alpha virt. eigenvalues --   -0.04519   0.00607   0.01867   0.04302   0.06165
 Alpha virt. eigenvalues --    0.06583   0.08549   0.09841   0.10038   0.11049
 Alpha virt. eigenvalues --    0.12287   0.12919   0.13955   0.14885   0.15654
 Alpha virt. eigenvalues --    0.16439   0.16795   0.17044   0.17851   0.18048
 Alpha virt. eigenvalues --    0.19363   0.19940   0.20186   0.20866   0.21170
 Alpha virt. eigenvalues --    0.22386   0.22573   0.23697   0.24361   0.24965
 Alpha virt. eigenvalues --    0.26167   0.26650   0.27517   0.28187   0.28235
 Alpha virt. eigenvalues --    0.29077   0.29633   0.30671   0.31147   0.31666
 Alpha virt. eigenvalues --    0.32585   0.33898   0.33917   0.35543   0.36066
 Alpha virt. eigenvalues --    0.37019   0.38659   0.38885   0.41145   0.41638
 Alpha virt. eigenvalues --    0.42889   0.44129   0.45439   0.48064   0.50043
 Alpha virt. eigenvalues --    0.51583   0.53913   0.55823   0.58398   0.59995
 Alpha virt. eigenvalues --    0.65077   0.66002   0.69828   0.75449   0.75930
 Alpha virt. eigenvalues --    0.77274   0.77919   0.78415   0.79018   0.79080
 Alpha virt. eigenvalues --    0.80976   0.81110   0.82197   0.83169   0.84560
 Alpha virt. eigenvalues --    0.86863   0.93255   0.94630   0.95029   0.97448
 Alpha virt. eigenvalues --    1.00165   1.00626   1.01244   1.02880   1.04815
 Alpha virt. eigenvalues --    1.05772   1.06434   1.07939   1.09954   1.11052
 Alpha virt. eigenvalues --    1.13698   1.15203   1.16943   1.18099   1.19987
 Alpha virt. eigenvalues --    1.21037   1.22159   1.23911   1.25793   1.26758
 Alpha virt. eigenvalues --    1.28635   1.32635   1.35538   1.39888   1.43442
 Alpha virt. eigenvalues --    1.46339   1.50458   1.53372   1.55185   1.56180
 Alpha virt. eigenvalues --    1.59391   1.60700   1.66936   1.67479   1.69382
 Alpha virt. eigenvalues --    1.71907   1.74040   1.75993   1.80702   1.81632
 Alpha virt. eigenvalues --    1.82961   1.83560   1.84598   1.85209   1.86627
 Alpha virt. eigenvalues --    1.87880   1.88801   1.90243   1.90389   1.92739
 Alpha virt. eigenvalues --    1.95696   1.97522   1.98465   1.99372   2.04861
 Alpha virt. eigenvalues --    2.05390   2.08238   2.09708   2.11714   2.14505
 Alpha virt. eigenvalues --    2.17082   2.18603   2.20602   2.21519   2.22837
 Alpha virt. eigenvalues --    2.23729   2.25969   2.26819   2.27280   2.30702
 Alpha virt. eigenvalues --    2.35884   2.37527   2.43884   2.45009   2.48306
 Alpha virt. eigenvalues --    2.49194   2.50405   2.54624   2.56684   2.57092
 Alpha virt. eigenvalues --    2.59069   2.59979   2.61840   2.62570   2.63742
 Alpha virt. eigenvalues --    2.65156   2.66005   2.68133   2.68391   2.69023
 Alpha virt. eigenvalues --    2.70600   2.70659   2.71805   2.72855   2.73504
 Alpha virt. eigenvalues --    2.75693   2.77011   2.79730   2.80585   2.83239
 Alpha virt. eigenvalues --    2.83292   2.85855   2.88948   2.89565   2.90531
 Alpha virt. eigenvalues --    2.95645   2.97070   2.98678   3.00448   3.03985
 Alpha virt. eigenvalues --    3.06533   3.07941   3.13579   3.18309   3.21083
 Alpha virt. eigenvalues --    3.55571   3.57114   3.60312   3.61375   3.64629
 Alpha virt. eigenvalues --    3.73183   3.78083   3.84979   4.57388   4.60032
 Alpha virt. eigenvalues --    4.64581   4.80551   5.02782   5.05534   5.06759
 Alpha virt. eigenvalues --    5.06933   5.11407   5.13721   5.17375   5.20655
 Alpha virt. eigenvalues --    5.23685   5.24280   5.30199   5.36913   5.39878
 Alpha virt. eigenvalues --    5.43167   5.44297   5.52733   6.71966   6.74318
 Alpha virt. eigenvalues --    6.75710   6.78058   6.80149   6.80981   6.85013
 Alpha virt. eigenvalues --    6.86087   6.92267   6.93204   6.95517   6.98094
 Alpha virt. eigenvalues --    7.00869   7.04701   7.11846   7.25354   7.26696
 Alpha virt. eigenvalues --    7.28456   7.31824   7.42502   7.65135   9.87775
 Alpha virt. eigenvalues --    9.89323  10.00052  10.02915  10.17981  10.21137
 Alpha virt. eigenvalues --   10.21889  10.22196  10.25424  10.25512  10.28107
 Alpha virt. eigenvalues --   10.29823  10.30843  10.34066  10.39059  10.39348
 Alpha virt. eigenvalues --   10.45175  10.53865  10.55216  10.67536  12.98489
 Alpha virt. eigenvalues --   13.35985  13.36078  13.36875  13.40772  13.74725
 Alpha virt. eigenvalues --   13.76695  13.80571  13.83145  14.22376  14.24332
 Alpha virt. eigenvalues --   14.25743  14.27097  14.34419  14.35319  17.81498
 Alpha virt. eigenvalues --   18.34852  18.35536  18.47301  49.98125  49.99650
 Alpha virt. eigenvalues --   50.01455  50.12109 136.86754 139.59819 139.71043
 Alpha virt. eigenvalues --  139.76129 163.87808
          Condensed to atoms (all electrons):
               1          2          3          4          5          6
     1  P   12.564368   0.533642   0.251247   0.009870   0.138706   0.040370
     2  O    0.533642   8.136755  -0.021774  -0.018010  -0.025944   0.000888
     3  O    0.251247  -0.021774   8.034983   0.247725   0.011079  -0.019087
     4  H    0.009870  -0.018010   0.247725   0.459290  -0.002180   0.002239
     5  O    0.138706  -0.025944   0.011079  -0.002180   8.131920   0.216366
     6  H    0.040370   0.000888  -0.019087   0.002239   0.216366   0.466553
     7  O    0.232280   0.002303   0.025879  -0.004316   0.007239  -0.010988
     8  H    0.004002  -0.013360  -0.009625  -0.001732  -0.000862   0.002249
     9  O   -0.001244  -0.001050   0.000323   0.000557  -0.000122   0.000011
    10  H    0.000588   0.000355   0.000959  -0.000681   0.000132  -0.000004
    11  H    0.000308  -0.000060   0.000322   0.000924   0.000017  -0.000003
    12  O    0.000130  -0.000045   0.000002   0.000027  -0.000006   0.000001
    13  H   -0.000060   0.000002   0.000003  -0.000001   0.000000  -0.000000
    14  H   -0.000134   0.000035  -0.000050  -0.000058   0.000016  -0.000000
    15  O   -0.000953   0.014280  -0.002652  -0.001788  -0.000146  -0.000027
    16  H    0.003646  -0.010202   0.002836   0.001723   0.000006   0.000173
    17  H    0.000103  -0.001051   0.000037   0.000105   0.000036  -0.000006
    18  O   -0.000092   0.000010   0.000003  -0.000018  -0.000000   0.000000
    19  H    0.000003  -0.000000  -0.000000  -0.000000   0.000000  -0.000000
    20  H    0.000221  -0.000060  -0.000010   0.000071   0.000001   0.000000
               7          8          9         10         11         12
     1  P    0.232280   0.004002  -0.001244   0.000588   0.000308   0.000130
     2  O    0.002303  -0.013360  -0.001050   0.000355  -0.000060  -0.000045
     3  O    0.025879  -0.009625   0.000323   0.000959   0.000322   0.000002
     4  H   -0.004316  -0.001732   0.000557  -0.000681   0.000924   0.000027
     5  O    0.007239  -0.000862  -0.000122   0.000132   0.000017  -0.000006
     6  H   -0.010988   0.002249   0.000011  -0.000004  -0.000003   0.000001
     7  O    8.019999   0.254136   0.000232  -0.000198  -0.000061  -0.000209
     8  H    0.254136   0.461579   0.000023  -0.000101   0.000003   0.001011
     9  O    0.000232   0.000023   0.005960  -0.002548  -0.002232   0.000002
    10  H   -0.000198  -0.000101  -0.002548   0.002462   0.000216  -0.000003
    11  H   -0.000061   0.000003  -0.002232   0.000216   0.002274   0.000000
    12  O   -0.000209   0.001011   0.000002  -0.000003   0.000000   0.001118
    13  H    0.000058  -0.000190   0.000000   0.000000  -0.000000  -0.000554
    14  H    0.000165  -0.000668  -0.000003   0.000007  -0.000000  -0.000538
    15  O   -0.000131  -0.000147   0.000795   0.000147  -0.001906  -0.000000
    16  H    0.000544   0.000356  -0.000013   0.000025   0.000278   0.000000
    17  H    0.000031  -0.000002  -0.000267  -0.000040   0.000639   0.000000
    18  O    0.000002  -0.000000   0.001092  -0.000116  -0.000316   0.000000
    19  H   -0.000000   0.000000  -0.000031  -0.000003   0.000031   0.000000
    20  H   -0.000008   0.000001  -0.002679   0.000519   0.000673  -0.000000
              13         14         15         16         17         18
     1  P   -0.000060  -0.000134  -0.000953   0.003646   0.000103  -0.000092
     2  O    0.000002   0.000035   0.014280  -0.010202  -0.001051   0.000010
     3  O    0.000003  -0.000050  -0.002652   0.002836   0.000037   0.000003
     4  H   -0.000001  -0.000058  -0.001788   0.001723   0.000105  -0.000018
     5  O    0.000000   0.000016  -0.000146   0.000006   0.000036  -0.000000
     6  H   -0.000000  -0.000000  -0.000027   0.000173  -0.000006   0.000000
     7  O    0.000058   0.000165  -0.000131   0.000544   0.000031   0.000002
     8  H   -0.000190  -0.000668  -0.000147   0.000356  -0.000002  -0.000000
     9  O    0.000000  -0.000003   0.000795  -0.000013  -0.000267   0.001092
    10  H    0.000000   0.000007   0.000147   0.000025  -0.000040  -0.000116
    11  H   -0.000000  -0.000000  -0.001906   0.000278   0.000639  -0.000316
    12  O   -0.000554  -0.000538  -0.000000   0.000000   0.000000   0.000000
    13  H    0.000414   0.000118  -0.000000  -0.000000  -0.000000  -0.000000
    14  H    0.000118   0.000500   0.000001  -0.000000  -0.000000  -0.000000
    15  O   -0.000000   0.000001   0.014931  -0.010303  -0.003465   0.000102
    16  H   -0.000000  -0.000000  -0.010303   0.013452   0.000139  -0.000045
    17  H   -0.000000  -0.000000  -0.003465   0.000139   0.002383  -0.000016
    18  O   -0.000000  -0.000000   0.000102  -0.000045  -0.000016   0.001185
    19  H   -0.000000  -0.000000  -0.000000  -0.000001   0.000002  -0.000182
    20  H    0.000000   0.000000  -0.000290   0.000158   0.000022  -0.001655
              19         20
     1  P    0.000003   0.000221
     2  O   -0.000000  -0.000060
     3  O   -0.000000  -0.000010
     4  H   -0.000000   0.000071
     5  O    0.000000   0.000001
     6  H   -0.000000   0.000000
     7  O   -0.000000  -0.000008
     8  H    0.000000   0.000001
     9  O   -0.000031  -0.002679
    10  H   -0.000003   0.000519
    11  H    0.000031   0.000673
    12  O    0.000000  -0.000000
    13  H   -0.000000   0.000000
    14  H   -0.000000   0.000000
    15  O   -0.000000  -0.000290
    16  H   -0.000001   0.000158
    17  H    0.000002   0.000022
    18  O   -0.000182  -0.001655
    19  H    0.000108   0.000076
    20  H    0.000076   0.003106
 Mulliken charges:
               1
     1  P    1.222998
     2  O   -0.596713
     3  O   -0.522201
     4  H    0.306253
     5  O   -0.476258
     6  H    0.301266
     7  O   -0.526957
     8  H    0.303326
     9  O    0.001195
    10  H   -0.001714
    11  H   -0.001107
    12  O   -0.000936
    13  H    0.000209
    14  H    0.000610
    15  O   -0.008448
    16  H   -0.002772
    17  H    0.001349
    18  O    0.000047
    19  H   -0.000002
    20  H   -0.000145
 Sum of Mulliken charges =  -0.00000
 Mulliken charges with hydrogens summed into heavy atoms:
               1
     1  P    1.222998
     2  O   -0.596713
     3  O   -0.215948
     5  O   -0.174992
     7  O   -0.223631
     9  O   -0.001625
    12  O   -0.000117
    15  O   -0.009871
    18  O   -0.000100
         Mulliken charges condensed to fragments:
      1      0.011713
      2     -0.001625
      3     -0.000117
      4     -0.009871
      5     -0.000100
 Electronic spatial extent (au):  <R**2>=          48598.4326
 Charge=             -0.0000 electrons
 Dipole moment (field-independent basis, Debye):
    X=              3.6440    Y=             -3.1168    Z=              3.6782  Tot=              6.0434
 Quadrupole moment (field-independent basis, Debye-Ang):
   XX=             44.1941   YY=            -98.1178   ZZ=             21.3336
   XY=              2.0276   XZ=             63.4514   YZ=             11.9093
 Traceless Quadrupole moment (field-independent basis, Debye-Ang):
   XX=             55.0575   YY=            -87.2545   ZZ=             32.1969
   XY=              2.0276   XZ=             63.4514   YZ=             11.9093
 Octapole moment (field-independent basis, Debye-Ang**2):
  XXX=            115.7706  YYY=          -1990.9383  ZZZ=            -49.5478  XYY=           -730.8950
  XXY=             64.4214  XXZ=            700.6692  XZZ=            372.9193  YZZ=             17.9911
  YYZ=           -363.8676  XYZ=            360.8897
 Hexadecapole moment (field-independent basis, Debye-Ang**3):
 XXXX=          -7750.1054 YYYY=         -33392.0663 ZZZZ=          -2768.8724 XXXY=          -2954.6591
 XXXZ=           4830.9882 YYYX=         -18686.0437 YYYZ=         -10708.3978 ZZZX=            243.4185
 ZZZY=          -2015.1179 XXYY=          -7816.5498 XXZZ=           3836.5936 YYZZ=          -3348.7972
 XXYZ=           4015.9828 YYXZ=          -1796.0722 ZZXY=           1585.1499
 N-N= 2.799467037113D+02 E-N=-2.087503111245D+03  KE= 6.424855952531D+02
 No NMR shielding tensors so no spin-rotation constants.
 Leave Link  601 at Mon Feb 20 09:14:58 2023, MaxMem=  6710886400 cpu:               2.2 elap:               0.1
 (Enter /data0/home/software/g16/l122.exe)
 CPIOFr:  IOpCl= 0 IRwI=-1 IRwCP=  731 ICalc=  1 LCPTot=      156386 Len1MO=      408861 IndFrg=      974108
 Counterpoise: doing calculation for fragment   2 using the basis set of the full-system, NewBq=T
 Leave Link  122 at Mon Feb 20 09:14:58 2023, MaxMem=  6710886400 cpu:               0.2 elap:               0.0
 (Enter /data0/home/software/g16/l301.exe)
 Basis read from rwf:  (5D, 7F)
 No pseudopotential information found on rwf file.
   317 basis functions,   480 primitive gaussians,   335 cartesian basis functions
     5 alpha electrons        5 beta electrons
       nuclear repulsion energy         9.0584140291 Hartrees.
 IExCor= 4336 DFT=T Ex+Corr=M062X ExCW=0 ScaHFX=  0.540000
 ScaDFX=  1.000000  1.000000  1.000000  1.000000 ScalE2=  1.000000  1.000000
 IRadAn=      5 IRanWt=     -1 IRanGd=            0 ICorTp=0 IEmpDi=131
 NAtoms=   20 NActive=   20 NUniq=   20 SFac= 1.00D+00 NAtFMM=   60 NAOKFM=F Big=F
 Integral buffers will be    131072 words long.
 Raffenetti 2 integral format.
 Two-electron integral symmetry is turned off.
 R6Disp:  Grimme-D3 Dispersion energy=       -0.0000000081 Hartrees.
 Nuclear repulsion after empirical dispersion term =        9.0584140209 Hartrees.
 No density basis found on file   718.
 Leave Link  301 at Mon Feb 20 09:14:58 2023, MaxMem=  6710886400 cpu:               1.3 elap:               0.1
 (Enter /data0/home/software/g16/l302.exe)
 NPDir=0 NMtPBC=     1 NCelOv=     1 NCel=       1 NClECP=     1 NCelD=      1
         NCelK=      1 NCelE2=     1 NClLst=     1 CellRange=     0.0.
 One-electron integrals computed using PRISM.
 NBasis=   317 RedAO= T EigKep=  4.29D-04  NBF=   317
 NBsUse=   317 1.00D-06 EigRej= -1.00D+00 NBFU=   317
 Precomputing XC quadrature grid using
 IXCGrd= 4 IRadAn=           5 IRanWt=          -1 IRanGd=           0 AccXCQ= 0.00D+00.
 Generated NRdTot=       0 NPtTot=           0 NUsed=           0 NTot=          32
 NSgBfM=   320   320   320   320   320 MxSgAt=    20 MxSgA2=    20.
 Leave Link  302 at Mon Feb 20 09:14:59 2023, MaxMem=  6710886400 cpu:               4.7 elap:               0.2
 (Enter /data0/home/software/g16/l303.exe)
 DipDrv:  MaxL=1.
 Leave Link  303 at Mon Feb 20 09:14:59 2023, MaxMem=  6710886400 cpu:               0.8 elap:               0.0
 (Enter /data0/home/software/g16/l401.exe)
 ExpMin= 3.48D-02 ExpMax= 7.75D+04 ExpMxC= 2.65D+03 IAcc=3 IRadAn=         5 AccDes= 0.00D+00
 Harris functional with IExCor= 1009 and IRadAn=       5 diagonalized for initial guess.
 HarFok:  IExCor= 1009 AccDes= 0.00D+00 IRadAn=         5 IDoV= 1 UseB2=F ITyADJ=14
 ICtDFT=  3500011 ScaDFX=  1.000000  1.000000  1.000000  1.000000
 FoFCou: FMM=F IPFlag=           0 FMFlag=      100000 FMFlg1=           0
         NFxFlg=           0 DoJE=T BraDBF=F KetDBF=T FulRan=T
         wScrn=  0.000000 ICntrl=       500 IOpCl=  0 I1Cent=   200000004 NGrid=           0
         NMat0=    1 NMatS0=      1 NMatT0=    0 NMatD0=    1 NMtDS0=    0 NMtDT0=    0
 Symmetry not used in FoFCou.
 Harris En= -76.4171454709570    
 JPrj=0 DoOrth=F DoCkMO=F.
 Leave Link  401 at Mon Feb 20 09:14:59 2023, MaxMem=  6710886400 cpu:              13.8 elap:               0.6
 (Enter /data0/home/software/g16/l502.exe)
 Two-electron integral symmetry not used.
 Closed shell SCF:
 Using DIIS extrapolation, IDIIS=  1040.
 NGot=  6710886400 LenX=  6710651443 LenY=  6710538777
 Requested convergence on RMS density matrix=1.00D-08 within 128 cycles.
 Requested convergence on MAX density matrix=1.00D-06.
 Requested convergence on             energy=1.00D-06.
 No special actions if energy rises.
 Fock matrices will be formed incrementally for  20 cycles.

 Cycle   1  Pass 1  IDiag  1:
 FoFJK:  IHMeth= 1 ICntrl=       0 DoSepK=F KAlg= 0 I1Cent=           0 FoldK=F
 IRaf= 790000000 NMat=       1 IRICut=       1 DoRegI=T DoRafI=F ISym2E= 0 IDoP0=0 IntGTp=1.
 FoFCou: FMM=F IPFlag=           0 FMFlag=      100000 FMFlg1=           0
         NFxFlg=           0 DoJE=F BraDBF=F KetDBF=F FulRan=T
         wScrn=  0.000000 ICntrl=         0 IOpCl=  0 I1Cent=           0 NGrid=           0
         NMat0=    1 NMatS0=      1 NMatT0=    0 NMatD0=    1 NMtDS0=    0 NMtDT0=    0
 Symmetry not used in FoFCou.
 E= -76.3482727715728    
 DIIS: error= 2.02D-02 at cycle   1 NSaved=   1.
 NSaved= 1 IEnMin= 1 EnMin= -76.3482727715728     IErMin= 1 ErrMin= 2.02D-02
 ErrMax= 2.02D-02  0.00D+00 EMaxC= 1.00D-01 BMatC= 1.19D-01 BMatP= 1.19D-01
 IDIUse=3 WtCom= 7.98D-01 WtEn= 2.02D-01
 Coeff-Com:  0.100D+01
 Coeff-En:   0.100D+01
 Coeff:      0.100D+01
 Gap=     0.267 Goal=   None    Shift=    0.000
 GapD=    0.267 DampG=1.000 DampE=0.500 DampFc=0.5000 IDamp=-1.
 Damping current iteration by 5.00D-01
 RMSDP=1.65D-03 MaxDP=9.86D-02              OVMax= 1.73D-01

 Cycle   2  Pass 1  IDiag  1:
 RMSU=  8.22D-04    CP:  9.80D-01
 E= -76.3788079976160     Delta-E=       -0.030535226043 Rises=F Damp=T
 DIIS: error= 3.18D-03 at cycle   2 NSaved=   2.
 NSaved= 2 IEnMin= 2 EnMin= -76.3788079976160     IErMin= 2 ErrMin= 3.18D-03
 ErrMax= 3.18D-03  0.00D+00 EMaxC= 1.00D-01 BMatC= 5.07D-03 BMatP= 1.19D-01
 IDIUse=3 WtCom= 9.68D-01 WtEn= 3.18D-02
 Coeff-Com:  0.893D-01 0.911D+00
 Coeff-En:   0.201D+00 0.799D+00
 Coeff:      0.928D-01 0.907D+00
 Gap=     0.393 Goal=   None    Shift=    0.000
 RMSDP=2.48D-04 MaxDP=2.13D-02 DE=-3.05D-02 OVMax= 1.05D-01

 Cycle   3  Pass 1  IDiag  1:
 RMSU=  1.87D-04    CP:  9.86D-01  8.05D-01
 E= -76.4229283159657     Delta-E=       -0.044120318350 Rises=F Damp=F
 DIIS: error= 7.49D-04 at cycle   3 NSaved=   3.
 NSaved= 3 IEnMin= 3 EnMin= -76.4229283159657     IErMin= 3 ErrMin= 7.49D-04
 ErrMax= 7.49D-04  0.00D+00 EMaxC= 1.00D-01 BMatC= 1.84D-04 BMatP= 5.07D-03
 IDIUse=3 WtCom= 9.93D-01 WtEn= 7.49D-03
 Coeff-Com: -0.308D-01 0.570D-01 0.974D+00
 Coeff-En:   0.000D+00 0.000D+00 0.100D+01
 Coeff:     -0.306D-01 0.565D-01 0.974D+00
 Gap=     0.394 Goal=   None    Shift=    0.000
 RMSDP=2.58D-05 MaxDP=1.32D-03 DE=-4.41D-02 OVMax= 4.18D-03

 Cycle   4  Pass 1  IDiag  1:
 RMSU=  2.11D-05    CP:  9.84D-01  8.13D-01  1.06D+00
 E= -76.4230722936015     Delta-E=       -0.000143977636 Rises=F Damp=F
 DIIS: error= 9.69D-05 at cycle   4 NSaved=   4.
 NSaved= 4 IEnMin= 4 EnMin= -76.4230722936015     IErMin= 4 ErrMin= 9.69D-05
 ErrMax= 9.69D-05  0.00D+00 EMaxC= 1.00D-01 BMatC= 2.61D-06 BMatP= 1.84D-04
 IDIUse=1 WtCom= 1.00D+00 WtEn= 0.00D+00
 Coeff-Com: -0.353D-02 0.146D-02 0.143D+00 0.859D+00
 Coeff:     -0.353D-02 0.146D-02 0.143D+00 0.859D+00
 Gap=     0.395 Goal=   None    Shift=    0.000
 RMSDP=5.35D-06 MaxDP=3.08D-04 DE=-1.44D-04 OVMax= 5.13D-04

 Cycle   5  Pass 1  IDiag  1:
 RMSU=  2.59D-06    CP:  9.84D-01  8.09D-01  1.07D+00  1.12D+00
 E= -76.4230739822617     Delta-E=       -0.000001688660 Rises=F Damp=F
 DIIS: error= 2.34D-05 at cycle   5 NSaved=   5.
 NSaved= 5 IEnMin= 5 EnMin= -76.4230739822617     IErMin= 5 ErrMin= 2.34D-05
 ErrMax= 2.34D-05  0.00D+00 EMaxC= 1.00D-01 BMatC= 7.47D-08 BMatP= 2.61D-06
 IDIUse=1 WtCom= 1.00D+00 WtEn= 0.00D+00
 Coeff-Com:  0.158D-02-0.248D-02-0.368D-01-0.495D-01 0.109D+01
 Coeff:      0.158D-02-0.248D-02-0.368D-01-0.495D-01 0.109D+01
 Gap=     0.395 Goal=   None    Shift=    0.000
 RMSDP=3.69D-06 MaxDP=2.55D-04 DE=-1.69D-06 OVMax= 2.18D-04

 Cycle   6  Pass 1  IDiag  1:
 RMSU=  8.34D-07    CP:  9.84D-01  8.05D-01  1.07D+00  1.21D+00  1.24D+00
 E= -76.4230741185819     Delta-E=       -0.000000136320 Rises=F Damp=F
 DIIS: error= 2.41D-06 at cycle   6 NSaved=   6.
 NSaved= 6 IEnMin= 6 EnMin= -76.4230741185819     IErMin= 6 ErrMin= 2.41D-06
 ErrMax= 2.41D-06  0.00D+00 EMaxC= 1.00D-01 BMatC= 1.75D-09 BMatP= 7.47D-08
 IDIUse=1 WtCom= 1.00D+00 WtEn= 0.00D+00
 Coeff-Com: -0.297D-03 0.420D-03 0.411D-02-0.678D-02-0.165D+00 0.117D+01
 Coeff:     -0.297D-03 0.420D-03 0.411D-02-0.678D-02-0.165D+00 0.117D+01
 Gap=     0.395 Goal=   None    Shift=    0.000
 RMSDP=5.10D-07 MaxDP=3.44D-05 DE=-1.36D-07 OVMax= 3.91D-05

 Cycle   7  Pass 1  IDiag  1:
 RMSU=  8.68D-08    CP:  9.84D-01  8.05D-01  1.07D+00  1.23D+00  1.28D+00
                    CP:  1.24D+00
 E= -76.4230741222727     Delta-E=       -0.000000003691 Rises=F Damp=F
 DIIS: error= 3.52D-07 at cycle   7 NSaved=   7.
 NSaved= 7 IEnMin= 7 EnMin= -76.4230741222727     IErMin= 7 ErrMin= 3.52D-07
 ErrMax= 3.52D-07  0.00D+00 EMaxC= 1.00D-01 BMatC= 2.05D-11 BMatP= 1.75D-09
 IDIUse=1 WtCom= 1.00D+00 WtEn= 0.00D+00
 Coeff-Com:  0.353D-04-0.304D-04-0.439D-03 0.212D-02 0.620D-02-0.162D+00
 Coeff-Com:  0.115D+01
 Coeff:      0.353D-04-0.304D-04-0.439D-03 0.212D-02 0.620D-02-0.162D+00
 Coeff:      0.115D+01
 Gap=     0.395 Goal=   None    Shift=    0.000
 RMSDP=6.66D-08 MaxDP=4.57D-06 DE=-3.69D-09 OVMax= 5.28D-06

 Cycle   8  Pass 1  IDiag  1:
 RMSU=  1.32D-08    CP:  9.84D-01  8.05D-01  1.07D+00  1.23D+00  1.29D+00
                    CP:  1.27D+00  1.16D+00
 E= -76.4230741223247     Delta-E=       -0.000000000052 Rises=F Damp=F
 DIIS: error= 5.17D-08 at cycle   8 NSaved=   8.
 NSaved= 8 IEnMin= 8 EnMin= -76.4230741223247     IErMin= 8 ErrMin= 5.17D-08
 ErrMax= 5.17D-08  0.00D+00 EMaxC= 1.00D-01 BMatC= 5.16D-13 BMatP= 2.05D-11
 IDIUse=1 WtCom= 1.00D+00 WtEn= 0.00D+00
 Coeff-Com:  0.230D-05-0.594D-05 0.235D-05 0.561D-04 0.195D-02-0.726D-02
 Coeff-Com: -0.796D-01 0.108D+01
 Coeff:      0.230D-05-0.594D-05 0.235D-05 0.561D-04 0.195D-02-0.726D-02
 Coeff:     -0.796D-01 0.108D+01
 Gap=     0.395 Goal=   None    Shift=    0.000
 RMSDP=3.12D-09 MaxDP=1.43D-07 DE=-5.20D-11 OVMax= 4.65D-07

 SCF Done:  E(RM062X) =  -76.4230741223     A.U. after    8 cycles
            NFock=  8  Conv=0.31D-08     -V/T= 2.0033
 KE= 7.616922852645D+01 PE=-1.989517816884D+02 EE= 3.730106501868D+01
 Leave Link  502 at Mon Feb 20 09:15:10 2023, MaxMem=  6710886400 cpu:             248.6 elap:              10.4
 (Enter /data0/home/software/g16/l601.exe)
 Copying SCF densities to generalized density rwf, IOpCl= 0 IROHF=0.

 **********************************************************************

            Population analysis using the SCF density.

 **********************************************************************

 Alpha  occ. eigenvalues --  -19.62750  -1.13107  -0.60598  -0.47468  -0.39987
 Alpha virt. eigenvalues --   -0.00462   0.03536   0.04142   0.04744   0.07519
 Alpha virt. eigenvalues --    0.08908   0.09762   0.11086   0.12688   0.13378
 Alpha virt. eigenvalues --    0.13998   0.14802   0.15243   0.16554   0.16958
 Alpha virt. eigenvalues --    0.17465   0.18336   0.19261   0.19804   0.20130
 Alpha virt. eigenvalues --    0.20535   0.21409   0.21704   0.22812   0.23321
 Alpha virt. eigenvalues --    0.23870   0.24819   0.26174   0.27101   0.27789
 Alpha virt. eigenvalues --    0.28764   0.29736   0.30007   0.30483   0.31534
 Alpha virt. eigenvalues --    0.32301   0.33592   0.34092   0.35196   0.36105
 Alpha virt. eigenvalues --    0.36894   0.37480   0.38625   0.39668   0.40466
 Alpha virt. eigenvalues --    0.42007   0.42906   0.43369   0.45705   0.47737
 Alpha virt. eigenvalues --    0.48144   0.57165   0.58533   0.59754   0.62130
 Alpha virt. eigenvalues --    0.64554   0.69751   0.71283   0.72819   0.73420
 Alpha virt. eigenvalues --    0.74525   0.74762   0.74909   0.76023   0.76910
 Alpha virt. eigenvalues --    0.77810   0.79997   0.80111   0.81253   0.81964
 Alpha virt. eigenvalues --    0.83885   0.85289   0.85933   0.87192   0.89444
 Alpha virt. eigenvalues --    0.91537   0.93112   0.95891   0.97567   0.97661
 Alpha virt. eigenvalues --    0.98518   1.01491   1.03546   1.04790   1.05851
 Alpha virt. eigenvalues --    1.07061   1.08282   1.09108   1.11275   1.14011
 Alpha virt. eigenvalues --    1.14666   1.15589   1.16381   1.20455   1.21692
 Alpha virt. eigenvalues --    1.23486   1.25679   1.27346   1.29340   1.32057
 Alpha virt. eigenvalues --    1.37868   1.44888   1.46317   1.47781   1.56411
 Alpha virt. eigenvalues --    1.65166   1.67537   1.75347   1.76720   1.77171
 Alpha virt. eigenvalues --    1.80535   1.81979   1.84425   1.85689   1.87054
 Alpha virt. eigenvalues --    1.89479   1.90038   1.93765   1.96285   1.98716
 Alpha virt. eigenvalues --    1.99167   2.04374   2.05531   2.06793   2.10624
 Alpha virt. eigenvalues --    2.13901   2.17819   2.21735   2.22101   2.25684
 Alpha virt. eigenvalues --    2.28294   2.29480   2.31118   2.31439   2.32555
 Alpha virt. eigenvalues --    2.33306   2.36346   2.38616   2.41847   2.42113
 Alpha virt. eigenvalues --    2.43798   2.46096   2.47135   2.50511   2.51445
 Alpha virt. eigenvalues --    2.52711   2.53922   2.55543   2.57109   2.57420
 Alpha virt. eigenvalues --    2.58508   2.59342   2.60186   2.60602   2.62325
 Alpha virt. eigenvalues --    2.62992   2.63557   2.64470   2.66618   2.68885
 Alpha virt. eigenvalues --    2.69213   2.69522   2.70818   2.71393   2.73873
 Alpha virt. eigenvalues --    2.74266   2.75918   2.76313   2.78453   2.79586
[...]
 Alpha virt. eigenvalues --    0.06257   0.13318   0.17401   0.17947   0.18929
 Alpha virt. eigenvalues --    0.23302   0.51014   0.53481   0.97944   1.00244
 Alpha virt. eigenvalues --    1.06029   1.18366   1.19943   1.32333   1.33909
 Alpha virt. eigenvalues --    1.69798   1.74131   1.75648   2.07560   2.09429
 Alpha virt. eigenvalues --    2.35690   2.41304   2.54499   2.88233   3.01211
 Alpha virt. eigenvalues --    5.05667   5.48018   5.92185   6.78320   6.80214
 Alpha virt. eigenvalues --    6.87188   6.91474   7.09561  49.95763
          Condensed to atoms (all electrons):
              15         16         17
    15  O    7.916412   0.318252   0.321646
    16  H    0.318252   0.426358  -0.024286
    17  H    0.321646  -0.024286   0.426007
 Mulliken charges:
               1
     1  P    0.000000
     2  O    0.000000
     3  O    0.000000
     4  H    0.000000
     5  O    0.000000
     6  H    0.000000
     7  O    0.000000
     8  H    0.000000
     9  O    0.000000
    10  H    0.000000
    11  H    0.000000
    12  O    0.000000
    13  H    0.000000
    14  H    0.000000
    15  O   -0.556310
    16  H    0.279676
    17  H    0.276633
    18  O    0.000000
    19  H    0.000000
    20  H    0.000000
 Sum of Mulliken charges =  -0.00000
 Mulliken charges with hydrogens summed into heavy atoms:
               1
     1  P    0.000000
     2  O    0.000000
     3  O    0.000000
     5  O    0.000000
     7  O    0.000000
     9  O    0.000000
    12  O    0.000000
    15  O   -0.000000
    18  O    0.000000
         Mulliken charges condensed to fragments:
      1      0.000000
      2      0.000000
      3      0.000000
      4     -0.000000
      5      0.000000
 Electronic spatial extent (au):  <R**2>=           6380.1661
 Charge=             -0.0000 electrons
 Dipole moment (field-independent basis, Debye):
    X=              1.4428    Y=              0.1067    Z=             -1.5482  Tot=              2.1189
 Quadrupole moment (field-independent basis, Debye-Ang):
   XX=             15.8055   YY=             -4.5550   ZZ=            -26.2772
   XY=             14.7601   XZ=             -1.9386   YZ=            -11.8777
 Traceless Quadrupole moment (field-independent basis, Debye-Ang):
   XX=             20.8144   YY=              0.4539   ZZ=            -21.2683
   XY=             14.7601   XZ=             -1.9386   YZ=            -11.8777
 Octapole moment (field-independent basis, Debye-Ang**2):
  XXX=            112.3628  YYY=           -145.4638  ZZZ=           -318.6799  XYY=             99.9680
  XXY=            164.5960  XXZ=             19.6470  XZZ=           -132.6033  YZZ=           -213.5756
  YYZ=           -131.7570  XYZ=              4.3867
 Hexadecapole moment (field-independent basis, Debye-Ang**3):
 XXXX=            464.3868 YYYY=          -2720.4567 ZZZZ=          -3332.4323 XXXY=           1259.9839
 XXXZ=            117.4816 YYYX=            190.1689 YYYZ=          -1776.7876 ZZZX=          -1962.6426
 ZZZY=          -2651.7201 XXYY=           1311.3882 XXZZ=           -765.7056 YYZZ=          -2008.4228
 XXYZ=            399.9817 YYXZ=            -91.0652 ZZXY=           -979.3141
 N-N= 9.100056185713D+00 E-N=-1.990507503682D+02  KE= 7.619455160493D+01
 No NMR shielding tensors so no spin-rotation constants.
 Leave Link  601 at Mon Feb 20 09:15:55 2023, MaxMem=  6710886400 cpu:               1.8 elap:               0.1
 (Enter /data0/home/software/g16/l122.exe)
 CPIOFr:  IOpCl= 0 IRwI=-1 IRwCP=  731 ICalc=  9 LCPTot=      156386 Len1MO=      408861 IndFrg=     4244996
 Counterpoise: doing calculation for fragment   5 using the basis set of the fragment.
 Leave Link  122 at Mon Feb 20 09:15:55 2023, MaxMem=  6710886400 cpu:               0.1 elap:               0.0
 (Enter /data0/home/software/g16/l301.exe)
 Basis read from rwf:  (5D, 7F)
 No pseudopotential information found on rwf file.
    39 basis functions,    58 primitive gaussians,    41 cartesian basis functions
     5 alpha electrons        5 beta electrons
       nuclear repulsion energy         9.1051614949 Hartrees.
 IExCor= 4336 DFT=T Ex+Corr=M062X ExCW=0 ScaHFX=  0.540000
 ScaDFX=  1.000000  1.000000  1.000000  1.000000 ScalE2=  1.000000  1.000000
 IRadAn=      5 IRanWt=     -1 IRanGd=            0 ICorTp=0 IEmpDi=131
 NAtoms=   20 NActive=    3 NUniq=    3 SFac= 1.00D+00 NAtFMM=   60 NAOKFM=F Big=F
 Integral buffers will be    131072 words long.
 Raffenetti 2 integral format.
 Two-electron integral symmetry is turned off.
 R6Disp:  Grimme-D3 Dispersion energy=       -0.0000000079 Hartrees.
 Nuclear repulsion after empirical dispersion term =        9.1051614870 Hartrees.
 No density basis found on file   718.
 Leave Link  301 at Mon Feb 20 09:15:55 2023, MaxMem=  6710886400 cpu:               1.3 elap:               0.1
 (Enter /data0/home/software/g16/l302.exe)
 NPDir=0 NMtPBC=     1 NCelOv=     1 NCel=       1 NClECP=     1 NCelD=      1
         NCelK=      1 NCelE2=     1 NClLst=     1 CellRange=     0.0.
 One-electron integrals computed using PRISM.
 NBasis=    39 RedAO= T EigKep=  3.06D-03  NBF=    39
 NBsUse=    39 1.00D-06 EigRej= -1.00D+00 NBFU=    39
 Precomputing XC quadrature grid using
 IXCGrd= 4 IRadAn=           5 IRanWt=          -1 IRanGd=           0 AccXCQ= 0.00D+00.
 Generated NRdTot=       0 NPtTot=           0 NUsed=           0 NTot=          32
 NSgBfM=    41    41    41    41    41 MxSgAt=     3 MxSgA2=     3.
 Leave Link  302 at Mon Feb 20 09:15:55 2023, MaxMem=  6710886400 cpu:               2.3 elap:               0.1
 (Enter /data0/home/software/g16/l303.exe)
 DipDrv:  MaxL=1.
 Leave Link  303 at Mon Feb 20 09:15:55 2023, MaxMem=  6710886400 cpu:               0.4 elap:               0.0
 (Enter /data0/home/software/g16/l401.exe)
 ExpMin= 8.45D-02 ExpMax= 8.59D+03 ExpMxC= 1.30D+03 IAcc=3 IRadAn=         5 AccDes= 0.00D+00
 Harris functional with IExCor= 1009 and IRadAn=       5 diagonalized for initial guess.
 HarFok:  IExCor= 1009 AccDes= 0.00D+00 IRadAn=         5 IDoV= 1 UseB2=F ITyADJ=14
 ICtDFT=  3500011 ScaDFX=  1.000000  1.000000  1.000000  1.000000
 FoFCou: FMM=F IPFlag=           0 FMFlag=      100000 FMFlg1=           0
         NFxFlg=           0 DoJE=T BraDBF=F KetDBF=T FulRan=T
         wScrn=  0.000000 ICntrl=       500 IOpCl=  0 I1Cent=   200000004 NGrid=           0
         NMat0=    1 NMatS0=      1 NMatT0=    0 NMatD0=    1 NMtDS0=    0 NMtDT0=    0
 Symmetry not used in FoFCou.
 Harris En= -76.4163654169554    
 JPrj=0 DoOrth=F DoCkMO=F.
 Leave Link  401 at Mon Feb 20 09:15:55 2023, MaxMem=  6710886400 cpu:               2.9 elap:               0.1
 (Enter /data0/home/software/g16/l502.exe)
 Keep R1 ints in memory in canonical form, NReq=21039229.
 FoFCou: FMM=F IPFlag=           0 FMFlag=           0 FMFlg1=           0
         NFxFlg=           0 DoJE=F BraDBF=F KetDBF=F FulRan=T
         wScrn=  0.000000 ICntrl=       600 IOpCl=  0 I1Cent=           0 NGrid=           0
         NMat0=    1 NMatS0=    780 NMatT0=    0 NMatD0=    1 NMtDS0=    0 NMtDT0=    0
 Symmetry not used in FoFCou.
 Two-electron integral symmetry not used.
 Closed shell SCF:
 Using DIIS extrapolation, IDIIS=  1040.
 NGot=  6710886400 LenX=  6710576467 LenY=  6710574345
 Requested convergence on RMS density matrix=1.00D-08 within 128 cycles.
 Requested convergence on MAX density matrix=1.00D-06.
 Requested convergence on             energy=1.00D-06.
 No special actions if energy rises.
 Integral accuracy reduced to 1.0D-05 until final iterations.

 Cycle   1  Pass 0  IDiag  1:
 E= -76.3457652912076    
 DIIS: error= 7.03D-02 at cycle   1 NSaved=   1.
 NSaved= 1 IEnMin= 1 EnMin= -76.3457652912076     IErMin= 1 ErrMin= 7.03D-02
 ErrMax= 7.03D-02  0.00D+00 EMaxC= 1.00D-01 BMatC= 1.21D-01 BMatP= 1.21D-01
 IDIUse=3 WtCom= 2.97D-01 WtEn= 7.03D-01
 Coeff-Com:  0.100D+01
 Coeff-En:   0.100D+01
 Coeff:      0.100D+01
 Gap=     0.325 Goal=   None    Shift=    0.000
 GapD=    0.325 DampG=1.000 DampE=0.500 DampFc=0.5000 IDamp=-1.
 Damping current iteration by 5.00D-01
 RMSDP=7.89D-03 MaxDP=1.01D-01              OVMax= 1.68D-01

 Cycle   2  Pass 0  IDiag  1:
 E= -76.3773024008606     Delta-E=       -0.031537109653 Rises=F Damp=T
 DIIS: error= 1.13D-02 at cycle   2 NSaved=   2.
 NSaved= 2 IEnMin= 2 EnMin= -76.3773024008606     IErMin= 2 ErrMin= 1.13D-02
 ErrMax= 1.13D-02  0.00D+00 EMaxC= 1.00D-01 BMatC= 4.84D-03 BMatP= 1.21D-01
 IDIUse=3 WtCom= 8.87D-01 WtEn= 1.13D-01
 Coeff-Com:  0.821D-01 0.918D+00
 Coeff-En:   0.187D+00 0.813D+00
 Coeff:      0.940D-01 0.906D+00
 Gap=     0.457 Goal=   None    Shift=    0.000
 RMSDP=9.41D-04 MaxDP=1.40D-02 DE=-3.15D-02 OVMax= 1.01D-01

 Cycle   3  Pass 0  IDiag  1:
 E= -76.4213589625784     Delta-E=       -0.044056561718 Rises=F Damp=F
 DIIS: error= 2.19D-03 at cycle   3 NSaved=   3.
 NSaved= 3 IEnMin= 3 EnMin= -76.4213589625784     IErMin= 3 ErrMin= 2.19D-03
 ErrMax= 2.19D-03  0.00D+00 EMaxC= 1.00D-01 BMatC= 9.27D-05 BMatP= 4.84D-03
 IDIUse=3 WtCom= 9.78D-01 WtEn= 2.19D-02
 Coeff-Com: -0.201D-01 0.402D-01 0.980D+00
 Coeff-En:   0.000D+00 0.000D+00 0.100D+01
 Coeff:     -0.196D-01 0.393D-01 0.980D+00
 Gap=     0.462 Goal=   None    Shift=    0.000
 RMSDP=1.16D-04 MaxDP=1.00D-03 DE=-4.41D-02 OVMax= 3.33D-03

 Cycle   4  Pass 0  IDiag  1:
 E= -76.4214377974856     Delta-E=       -0.000078834907 Rises=F Damp=F
 DIIS: error= 4.14D-04 at cycle   4 NSaved=   4.
 NSaved= 4 IEnMin= 4 EnMin= -76.4214377974856     IErMin= 4 ErrMin= 4.14D-04
 ErrMax= 4.14D-04  0.00D+00 EMaxC= 1.00D-01 BMatC= 3.34D-06 BMatP= 9.27D-05
 IDIUse=3 WtCom= 9.96D-01 WtEn= 4.14D-03
 Coeff-Com: -0.195D-02-0.213D-02 0.164D+00 0.840D+00
 Coeff-En:   0.000D+00 0.000D+00 0.000D+00 0.100D+01
 Coeff:     -0.194D-02-0.212D-02 0.163D+00 0.841D+00
 Gap=     0.462 Goal=   None    Shift=    0.000
 RMSDP=2.22D-05 MaxDP=3.53D-04 DE=-7.88D-05 OVMax= 5.35D-04

 Cycle   5  Pass 0  IDiag  1:
 E= -76.4214398533999     Delta-E=       -0.000002055914 Rises=F Damp=F
 DIIS: error= 8.96D-05 at cycle   5 NSaved=   5.
 NSaved= 5 IEnMin= 5 EnMin= -76.4214398533999     IErMin= 5 ErrMin= 8.96D-05
 ErrMax= 8.96D-05  0.00D+00 EMaxC= 1.00D-01 BMatC= 8.41D-08 BMatP= 3.34D-06
 IDIUse=1 WtCom= 1.00D+00 WtEn= 0.00D+00
 Coeff-Com:  0.118D-02-0.180D-02-0.366D-01-0.676D-01 0.110D+01
 Coeff:      0.118D-02-0.180D-02-0.366D-01-0.676D-01 0.110D+01
 Gap=     0.462 Goal=   None    Shift=    0.000
 RMSDP=9.02D-06 MaxDP=1.03D-04 DE=-2.06D-06 OVMax= 2.03D-04

 Initial convergence to 1.0D-05 achieved.  Increase integral accuracy.
 Cycle   6  Pass 1  IDiag  1:
 E= -76.4214506227198     Delta-E=       -0.000010769320 Rises=F Damp=F
 DIIS: error= 2.81D-05 at cycle   1 NSaved=   1.
 NSaved= 1 IEnMin= 1 EnMin= -76.4214506227198     IErMin= 1 ErrMin= 2.81D-05
 ErrMax= 2.81D-05  0.00D+00 EMaxC= 1.00D-01 BMatC= 1.36D-08 BMatP= 1.36D-08
 IDIUse=1 WtCom= 1.00D+00 WtEn= 0.00D+00
 Coeff-Com:  0.100D+01
 Coeff:      0.100D+01
 Gap=     0.462 Goal=   None    Shift=    0.000
 RMSDP=9.02D-06 MaxDP=1.03D-04 DE=-1.08D-05 OVMax= 3.18D-05

 Cycle   7  Pass 1  IDiag  1:
 E= -76.4214506328688     Delta-E=       -0.000000010149 Rises=F Damp=F
 DIIS: error= 5.62D-06 at cycle   2 NSaved=   2.
 NSaved= 2 IEnMin= 2 EnMin= -76.4214506328688     IErMin= 2 ErrMin= 5.62D-06
 ErrMax= 5.62D-06  0.00D+00 EMaxC= 1.00D-01 BMatC= 4.79D-10 BMatP= 1.36D-08
 IDIUse=1 WtCom= 1.00D+00 WtEn= 0.00D+00
 Coeff-Com: -0.133D-01 0.101D+01
 Coeff:     -0.133D-01 0.101D+01
 Gap=     0.462 Goal=   None    Shift=    0.000
 RMSDP=5.18D-07 MaxDP=7.50D-06 DE=-1.01D-08 OVMax= 1.42D-05

 Cycle   8  Pass 1  IDiag  1:
 E= -76.4214506330138     Delta-E=       -0.000000000145 Rises=F Damp=F
 DIIS: error= 4.33D-06 at cycle   3 NSaved=   3.
 NSaved= 3 IEnMin= 3 EnMin= -76.4214506330138     IErMin= 3 ErrMin= 4.33D-06
 ErrMax= 4.33D-06  0.00D+00 EMaxC= 1.00D-01 BMatC= 4.78D-10 BMatP= 4.79D-10
 IDIUse=1 WtCom= 1.00D+00 WtEn= 0.00D+00
 Coeff-Com: -0.454D-01 0.524D+00 0.521D+00
 Coeff:     -0.454D-01 0.524D+00 0.521D+00
 Gap=     0.462 Goal=   None    Shift=    0.000
 RMSDP=2.58D-07 MaxDP=3.50D-06 DE=-1.45D-10 OVMax= 5.86D-06

 Cycle   9  Pass 1  IDiag  1:
 E= -76.4214506333289     Delta-E=       -0.000000000315 Rises=F Damp=F
 DIIS: error= 6.14D-07 at cycle   4 NSaved=   4.
 NSaved= 4 IEnMin= 4 EnMin= -76.4214506333289     IErMin= 4 ErrMin= 6.14D-07
 ErrMax= 6.14D-07  0.00D+00 EMaxC= 1.00D-01 BMatC= 4.29D-12 BMatP= 4.78D-10
 IDIUse=1 WtCom= 1.00D+00 WtEn= 0.00D+00
 Coeff-Com:  0.493D-02-0.103D+00-0.121D-01 0.111D+01
 Coeff:      0.493D-02-0.103D+00-0.121D-01 0.111D+01
 Gap=     0.462 Goal=   None    Shift=    0.000
 RMSDP=7.44D-08 MaxDP=5.42D-07 DE=-3.15D-10 OVMax= 1.85D-06

 Cycle  10  Pass 1  IDiag  1:
 E= -76.4214506333362     Delta-E=       -0.000000000007 Rises=F Damp=F
 DIIS: error= 6.65D-08 at cycle   5 NSaved=   5.
 NSaved= 5 IEnMin= 5 EnMin= -76.4214506333362     IErMin= 5 ErrMin= 6.65D-08
 ErrMax= 6.65D-08  0.00D+00 EMaxC= 1.00D-01 BMatC= 9.09D-14 BMatP= 4.29D-12
 IDIUse=1 WtCom= 1.00D+00 WtEn= 0.00D+00
 Coeff-Com:  0.170D-02-0.201D-01-0.267D-01-0.228D-01 0.107D+01
 Coeff:      0.170D-02-0.201D-01-0.267D-01-0.228D-01 0.107D+01
 Gap=     0.462 Goal=   None    Shift=    0.000
 RMSDP=1.73D-08 MaxDP=1.47D-07 DE=-7.30D-12 OVMax= 3.70D-07

 Cycle  11  Pass 1  IDiag  1:
 E= -76.4214506333365     Delta-E=       -0.000000000000 Rises=F Damp=F
 DIIS: error= 8.59D-09 at cycle   6 NSaved=   6.
 NSaved= 6 IEnMin= 6 EnMin= -76.4214506333365     IErMin= 6 ErrMin= 8.59D-09
 ErrMax= 8.59D-09  0.00D+00 EMaxC= 1.00D-01 BMatC= 2.35D-15 BMatP= 9.09D-14
 IDIUse=1 WtCom= 1.00D+00 WtEn= 0.00D+00
 Coeff-Com: -0.946D-04 0.247D-02-0.142D-02-0.337D-01 0.537D-01 0.979D+00
 Coeff:     -0.946D-04 0.247D-02-0.142D-02-0.337D-01 0.537D-01 0.979D+00
 Gap=     0.462 Goal=   None    Shift=    0.000
 RMSDP=2.42D-09 MaxDP=2.13D-08 DE=-2.27D-13 OVMax= 5.07D-08

 SCF Done:  E(RM062X) =  -76.4214506333     A.U. after   11 cycles
            NFock= 11  Conv=0.24D-08     -V/T= 2.0030
 KE= 7.619632077940D+01 PE=-1.990626642135D+02 EE= 3.733973131379D+01
 Leave Link  502 at Mon Feb 20 09:15:56 2023, MaxMem=  6710886400 cpu:               8.8 elap:               0.4
 (Enter /data0/home/software/g16/l601.exe)
 Copying SCF densities to generalized density rwf, IOpCl= 0 IROHF=0.

 **********************************************************************

            Population analysis using the SCF density.

 **********************************************************************

 Alpha  occ. eigenvalues --  -19.62573  -1.13329  -0.60862  -0.47401  -0.39972
 Alpha virt. eigenvalues --    0.06266   0.13324   0.17389   0.17950   0.18953
 Alpha virt. eigenvalues --    0.23240   0.50774   0.53826   0.97794   1.00295
 Alpha virt. eigenvalues --    1.06038   1.18888   1.19814   1.32589   1.33857
 Alpha virt. eigenvalues --    1.69330   1.73950   1.75929   2.07088   2.09889
 Alpha virt. eigenvalues --    2.35060   2.42555   2.54278   2.88274   3.01471
 Alpha virt. eigenvalues --    5.05699   5.47377   5.93115   6.78207   6.80321
 Alpha virt. eigenvalues --    6.86995   6.91459   7.09591  49.95959
          Condensed to atoms (all electrons):
              18         19         20
    18  O    7.915644   0.324113   0.318584
    19  H    0.324113   0.423752  -0.024543
    20  H    0.318584  -0.024543   0.424297
 Mulliken charges:
               1
     1  P    0.000000
     2  O    0.000000
     3  O    0.000000
     4  H    0.000000
     5  O    0.000000
     6  H    0.000000
     7  O    0.000000
     8  H    0.000000
     9  O    0.000000
    10  H    0.000000
    11  H    0.000000
    12  O    0.000000
    13  H    0.000000
    14  H    0.000000
    15  O    0.000000
    16  H    0.000000
    17  H    0.000000
    18  O   -0.558341
    19  H    0.276679
    20  H    0.281662
 Sum of Mulliken charges =   0.00000
 Mulliken charges with hydrogens summed into heavy atoms:
               1
     1  P    0.000000
     2  O    0.000000
     3  O    0.000000
     5  O    0.000000
     7  O    0.000000
     9  O    0.000000
    12  O    0.000000
    15  O    0.000000
    18  O    0.000000
         Mulliken charges condensed to fragments:
      1      0.000000
      2      0.000000
      3      0.000000
      4      0.000000
      5      0.000000
 Electronic spatial extent (au):  <R**2>=           7083.3043
 Charge=              0.0000 electrons
 Dipole moment (field-independent basis, Debye):
    X=             -0.0441    Y=             -1.5224    Z=             -1.4573  Tot=              2.1079
 Quadrupole moment (field-independent basis, Debye-Ang):
   XX=             -5.4196   YY=            -28.9375   ZZ=            -36.9205
   XY=             -8.8045   XZ=            -10.2675   YZ=            -25.9081
 Traceless Quadrupole moment (field-independent basis, Debye-Ang):
   XX=             18.3396   YY=             -5.1783   ZZ=            -13.1613
   XY=             -8.8045   XZ=            -10.2675   YZ=            -25.9081
 Octapole moment (field-independent basis, Debye-Ang**2):
  XXX=            -94.0854  YYY=           -390.5977  ZZZ=           -679.0599  XYY=           -167.4197
  XXY=            -87.1501  XXZ=           -122.3738  XZZ=           -248.4917  YZZ=           -422.5906
  YYZ=           -370.3531  XYZ=           -159.6930
 Hexadecapole moment (field-independent basis, Debye-Ang**3):
 XXXX=          -1132.4244 YYYY=          -4529.2287 ZZZZ=         -10853.5140 XXXY=           -955.9506
 XXXZ=          -1422.4846 YYYX=          -2277.3332 YYYZ=          -4538.3776 ZZZX=          -4471.2630
 ZZZY=          -6490.7529 XXYY=          -1238.9112 XXZZ=          -2199.7058 YYZZ=          -4929.8999
 XXYZ=          -1366.5179 YYXZ=          -2212.7610 ZZXY=          -2659.9751
 N-N= 9.105161486987D+00 E-N=-1.990626640974D+02  KE= 7.619632077940D+01
 No NMR shielding tensors so no spin-rotation constants.
 Leave Link  601 at Mon Feb 20 09:15:56 2023, MaxMem=  6710886400 cpu:               1.8 elap:               0.1
 (Enter /data0/home/software/g16/l122.exe)
 CPIOFr:  IOpCl= 0 IRwI=-1 IRwCP=  731 ICalc= 10 LCPTot=      156386 Len1MO=      408861 IndFrg=     4653857
 Restoring MOs from calculation   1 to rwf.
 CPIOFr:  IOpCl= 0 IRwI=-2 IRwCP=  731 ICalc=  0 LCPTot=      156386 Len1MO=      408861 IndFrg=      565247
 Counterpoise corrected energy =    -949.840550090850
                   BSSE energy =       0.003468372467
              sum of fragments =    -949.817476874909
           complexation energy =     -16.66 kcal/mole (raw)
           complexation energy =     -14.48 kcal/mole (corrected)
 Leave Link  122 at Mon Feb 20 09:15:56 2023, MaxMem=  6710886400 cpu:               0.2 elap:               0.0
 (Enter /data0/home/software/g16/l9999.exe)
 1\1\GINC-LOCALHOST\SP\RM062X\6-311+G(2d,p)\H11O8P1\WUHANYU\20-Feb-2023
 \0\\#p M062X/6-311+G(2d,p) nosymm em=GD3 counterpoise=5\\Title Card Re
 quired\\0,1\P,0,11.23038,9.833695,6.743657\O,0,9.879124,10.410991,6.64
 5579\O,0,11.308387,8.266138,6.905114\H,0,11.057727,8.010951,7.919384\O
 ,0,12.020964,10.1239,5.39192\H,0,12.968137,9.723673,5.502646\O,0,12.13
 9582,10.495465,7.858385\H,0,11.882989,10.077316,8.811538\O,0,8.006351,
 6.850434,8.558782\H,0,8.92218,7.032332,8.835898\H,0,7.834532,7.492233,
 7.852993\O,0,11.648001,11.127721,12.401379\H,0,12.544264,11.42343,12.4
 95574\H,0,11.660597,10.503689,11.632508\O,0,7.494038,8.821307,6.633395
 \H,0,8.329635,9.328237,6.616\H,0,7.472652,8.378539,5.784923\O,0,6.0828
 27,7.343318,10.427439\H,0,5.371894,6.735413,10.258686\H,0,6.779081,7.1
 01409,9.776774\\Version=ES64L-G16RevA.03\HF=-76.4214506\RMSD=2.419e-09
 \Dipole=3.6209576,-1.0072637,-0.9468299\Quadrupole=119.3280178,-60.837
 4907,-58.490527,45.5468043,48.6799994,-28.7491542\PG=C01 [X(H11O8P1)]\
 \@


 IF IT'S NOT TRUE, IT'S WELL INVENTED -- DANTE
 Job cpu time:       0 days  0 hours 37 minutes 11.9 seconds.
 Elapsed time:       0 days  0 hours  1 minutes 36.2 seconds.
 File lengths (MBytes):  RWF=    104 Int=      0 D2E=      0 Chk=     42 Scr=      1
 Normal termination of Gaussian 16 at Mon Feb 20 09:15:56 2023.
