 Entering Gaussian System, Link 0=g16
 Initial command:
 /data0/home/software/g16/l1.exe "/data0/home/software/g16/scratch/Gau-343797.inp" -scrdir="/data0/home/software/g16/scratch/"
 Default is to use a total of  22 processors:
                               22 via shared-memory
                                1 via Linda
 Entering Link 1 = /data0/home/software/g16/l1.exe PID=    343798.
  
 Copyright (c) 1988,1990,1992,1993,1995,1998,2003,2009,2016,
            Gaussian, Inc.  All Rights Reserved.
  
 This is part of the Gaussian(R) 16 program.  It is based on
 the Gaussian(R) 09 system (copyright 2009, Gaussian, Inc.),
 the Gaussian(R) 03 system (copyright 2003, Gaussian, Inc.),
 the Gaussian(R) 98 system (copyright 1998, Gaussian, Inc.),
 the Gaussian(R) 94 system (copyright 1995, Gaussian, Inc.),
 the Gaussian 92(TM) system (copyright 1992, Gaussian, Inc.),
 the Gaussian 90(TM) system (copyright 1990, Gaussian, Inc.),
 the Gaussian 88(TM) system (copyright 1988, Gaussian, Inc.),
 the Gaussian 86(TM) system (copyright 1986, Carnegie Mellon
 University), and the Gaussian 82(TM) system (copyright 1983,
 Carnegie Mellon University). Gaussian is a federally registered
 trademark of Gaussian, Inc.
  
 This software contains proprietary and confidential information,
 including trade secrets, belonging to Gaussian, Inc.
  
 This software is provided under written license and may be
 used, copied, transmitted, or stored only in accord with that
 written license.
  
 The following legend is applicable only to US Government
 contracts under FAR:
  
                    RESTRICTED RIGHTS LEGEND
  
 Use, reproduction and disclosure by the US Government is
 subject to restrictions as set forth in subparagraphs (a)
 and (c) of the Commercial Computer Software - Restricted
 Rights clause in FAR 52.227-19.
  
 Gaussian, Inc.
 340 Quinnipiac St., Bldg. 40, Wallingford CT 06492
  
  
 ---------------------------------------------------------------
 Warning -- This program may not be used in any manner that
 competes with the business of Gaussian, Inc. or will provide
 assistance to any competitor of Gaussian, Inc.  The licensee
 of this program is prohibited from giving any competitor of
 Gaussian, Inc. access to this program.  By using this program,
 the user acknowledges that Gaussian, Inc. is engaged in the
 business of creating and licensing software in the field of
 computational chemistry and represents and warrants to the
 licensee that it is not a competitor of Gaussian, Inc. and that
 it will not use this program in any manner prohibited above.
 ---------------------------------------------------------------
  

 Cite this work as:
 Gaussian 16, Revision A.03,
 M. J. Frisch, G. W. Trucks, H. B. Schlegel, G. E. Scuseria, 
 M. A. Robb, J. R. Cheeseman, G. Scalmani, V. Barone, 
 G. A. Petersson, H. Nakatsuji, X. Li, M. Caricato, A. V. Marenich, 
 J. Bloino, B. G. Janesko, R. Gomperts, B. Mennucci, H. P. Hratchian, 
 J. V. Ortiz, A. F. Izmaylov, J. L. Sonnenberg, D. Williams-Young, 
 F. Ding, F. Lipparini, F. Egidi, J. Goings, B. Peng, A. Petrone, 
 T. Henderson, D. Ranasinghe, V. G. Zakrzewski, J. Gao, N. Rega, 
 G. Zheng, W. Liang, M. Hada, M. Ehara, K. Toyota, R. Fukuda, 
 J. Hasegawa, M. Ishida, T. Nakajima, Y. Honda, O. Kitao, H. Nakai, 
 T. Vreven, K. Throssell, J. A. Montgomery, Jr., J. E. Peralta, 
 F. Ogliaro, M. J. Bearpark, J. J. Heyd, E. N. Brothers, K. N. Kudin, 
 V. N. Staroverov, T. A. Keith, R. Kobayashi, J. Normand, 
 K. Raghavachari, A. P. Rendell, J. C. Burant, S. S. Iyengar, 
 J. Tomasi, M. Cossi, J. M. Millam, M. Klene, C. Adamo, R. Cammi, 
 J. W. Ochterski, R. L. Martin, K. Morokuma, O. Farkas, 
 J. B. Foresman, and D. J. Fox, Gaussian, Inc., Wallingford CT, 2016.
 
 ******************************************
 Gaussian 16:  ES64L-G16RevA.03 25-Dec-2016
                20-Feb-2023 
 ******************************************
 %nproc=24
 Will use up to   24 processors via shared memory.
 %mem=50GB
 ---------------------------------------------------
 #p M062X/6-311+G(2d,p) nosymm em=GD3 counterpoise=2
 ---------------------------------------------------
 1/38=1,62=2,172=1/1;
 2/12=2,15=1,17=6,18=5,40=1/2;
 1/38=1,53=2,62=2,63=1/22;
 3/5=4,6=6,7=112,11=2,25=1,30=1,74=-55,124=31/1,2,3;
 4//1;
 5/5=2,38=5/2;
 6/7=2,8=2,9=2,10=2,28=1/1;
 1/53=2,62=2,63=1/22;
 3/5=7,6=11,7=112,11=2,25=1,30=1,74=-55,82=7,124=31/1,2,3;
 4//1;
 5/5=2,38=5/2;
 6/7=2,8=2,9=2,10=2,28=1/1;
 1/53=2,62=2,63=1/22(-4);
 99/5=1,9=1/99;
 Leave Link    1 at Mon Feb 20 00:07:36 2023, MaxMem=  6710886400 cpu:               0.7 elap:               0.0
 (Enter /data0/home/software/g16/l101.exe)
 -------------------
 Title Card Required
 -------------------
 Symbolic Z-matrix:
 Charge =  0 Multiplicity = 1 in supermolecule
 Charge =  0 Multiplicity = 1 in fragment      1.
 Charge =  0 Multiplicity = 1 in fragment      2.
 C                     16.96729   6.21615   4.12488    
 H                     17.39439   5.53484   3.37216    
 H                     16.05592   5.76856   4.54311    
 H                     16.66432   7.1384    3.56577    
 C                     18.21797   5.31821   6.0218     
 H                     18.63953   4.50875   5.40207    
 H                     18.93999   5.52979   6.83308    
 H                     17.29044   4.94886   6.48744    
 C                     19.25831   6.99454   4.57106    
 H                     19.33495   8.10795   4.54002    
 H                     20.14266   6.65034   5.13196    
 H                     19.3452   6.66788   3.52059    
 C                     17.35841   7.6375    6.07351    
 H                     16.41591   7.25599   6.51702    
 H                     17.05274   8.47891   5.39078    
 C                     18.30212   8.14462   7.17036    
 H                     19.36749   7.92039   6.93498    
 H                     18.10199   7.62701   8.12665    
 C                     18.16401   9.65619   7.36625    
 H                     18.94581   10.03244   8.05089    
 H                     17.19224   9.91818   7.82126    
 N                     17.96685   6.54984   5.19894    
 C                     18.30579   10.37411   6.01368    
 O                     17.28613   10.89414   5.54381    
 O                     19.42776   10.32748   5.45557    
 P                     18.00849   9.93726   2.28717    
 O                     17.85377   8.50126   2.56293    
 O                     19.39456   10.56289   2.73596    
 H                     19.43889   10.55215   3.80387    
 O                     17.96533   10.19414   0.71449    
 H                     18.08433   11.21166   0.57191    
 O                     16.87005   10.87841   2.85607    
 H                     17.01282   10.97247   3.91294    
 
 ITRead=  0  0  0  0  0  0  0  0  0  0  0  0  0  0  0  0  0  0  0  0
 ITRead=  0  0  0  0  0  0  0  0  0  0  0  0  0
 MicOpt= -1 -1 -1 -1 -1 -1 -1 -1 -1 -1 -1 -1 -1 -1 -1 -1 -1 -1 -1 -1
 MicOpt= -1 -1 -1 -1 -1 -1 -1 -1 -1 -1 -1 -1 -1
 NAtoms=     33 NQM=       33 NQMF=       0 NMMI=      0 NMMIF=      0
                NMic=       0 NMicF=      0.
                    Isotopes and Nuclear Properties:
 (Nuclear quadrupole moments (NQMom) in fm**2, nuclear magnetic moments (NMagM)
  in nuclear magnetons)

  Atom         1           2           3           4           5           6           7           8           9          10
 IAtWgt=          12           1           1           1          12           1           1           1          12           1
 AtmWgt=  12.0000000   1.0078250   1.0078250   1.0078250  12.0000000   1.0078250   1.0078250   1.0078250  12.0000000   1.0078250
 NucSpn=           0           1           1           1           0           1           1           1           0           1
 AtZEff=  -0.0000000  -0.0000000  -0.0000000  -0.0000000  -0.0000000  -0.0000000  -0.0000000  -0.0000000  -0.0000000  -0.0000000
 NQMom=    0.0000000   0.0000000   0.0000000   0.0000000   0.0000000   0.0000000   0.0000000   0.0000000   0.0000000   0.0000000
 NMagM=    0.0000000   2.7928460   2.7928460   2.7928460   0.0000000   2.7928460   2.7928460   2.7928460   0.0000000   2.7928460
 AtZNuc=   6.0000000   1.0000000   1.0000000   1.0000000   6.0000000   1.0000000   1.0000000   1.0000000   6.0000000   1.0000000

  Atom        11          12          13          14          15          16          17          18          19          20
 IAtWgt=           1           1          12           1           1          12           1           1          12           1
 AtmWgt=   1.0078250   1.0078250  12.0000000   1.0078250   1.0078250  12.0000000   1.0078250   1.0078250  12.0000000   1.0078250
 NucSpn=           1           1           0           1           1           0           1           1           0           1
 AtZEff=  -0.0000000  -0.0000000  -0.0000000  -0.0000000  -0.0000000  -0.0000000  -0.0000000  -0.0000000  -0.0000000  -0.0000000
 NQMom=    0.0000000   0.0000000   0.0000000   0.0000000   0.0000000   0.0000000   0.0000000   0.0000000   0.0000000   0.0000000
 NMagM=    2.7928460   2.7928460   0.0000000   2.7928460   2.7928460   0.0000000   2.7928460   2.7928460   0.0000000   2.7928460
 AtZNuc=   1.0000000   1.0000000   6.0000000   1.0000000   1.0000000   6.0000000   1.0000000   1.0000000   6.0000000   1.0000000

  Atom        21          22          23          24          25          26          27          28          29          30
 IAtWgt=           1          14          12          16          16          31          16          16           1          16
 AtmWgt=   1.0078250  14.0030740  12.0000000  15.9949146  15.9949146  30.9737634  15.9949146  15.9949146   1.0078250  15.9949146
 NucSpn=           1           2           0           0           0           1           0           0           1           0
 AtZEff=  -0.0000000  -0.0000000  -0.0000000  -0.0000000  -0.0000000  -0.0000000  -0.0000000  -0.0000000  -0.0000000  -0.0000000
 NQMom=    0.0000000   2.0440000   0.0000000   0.0000000   0.0000000   0.0000000   0.0000000   0.0000000   0.0000000   0.0000000
 NMagM=    2.7928460   0.4037610   0.0000000   0.0000000   0.0000000   1.1316000   0.0000000   0.0000000   2.7928460   0.0000000
 AtZNuc=   1.0000000   7.0000000   6.0000000   8.0000000   8.0000000  15.0000000   8.0000000   8.0000000   1.0000000   8.0000000

  Atom        31          32          33
 IAtWgt=           1          16           1
 AtmWgt=   1.0078250  15.9949146   1.0078250
 NucSpn=           1           0           1
 AtZEff=  -0.0000000  -0.0000000  -0.0000000
 NQMom=    0.0000000   0.0000000   0.0000000
 NMagM=    2.7928460   0.0000000   2.7928460
 AtZNuc=   1.0000000   8.0000000   1.0000000
 Leave Link  101 at Mon Feb 20 00:07:36 2023, MaxMem=  6710886400 cpu:               2.1 elap:               0.1
 (Enter /data0/home/software/g16/l202.exe)
                          Input orientation:                          
 ---------------------------------------------------------------------
 Center     Atomic      Atomic             Coordinates (Angstroms)
 Number     Number       Type             X           Y           Z
 ---------------------------------------------------------------------
      1          6           0       16.967287    6.216146    4.124881
      2          1           0       17.394386    5.534842    3.372155
      3          1           0       16.055919    5.768556    4.543110
      4          1           0       16.664324    7.138400    3.565767
      5          6           0       18.217966    5.318208    6.021801
      6          1           0       18.639532    4.508746    5.402068
      7          1           0       18.939994    5.529787    6.833079
      8          1           0       17.290437    4.948861    6.487439
      9          6           0       19.258313    6.994536    4.571056
     10          1           0       19.334945    8.107945    4.540024
     11          1           0       20.142658    6.650343    5.131957
     12          1           0       19.345200    6.667880    3.520586
     13          6           0       17.358414    7.637505    6.073509
     14          1           0       16.415911    7.255994    6.517020
     15          1           0       17.052737    8.478905    5.390778
     16          6           0       18.302116    8.144619    7.170363
     17          1           0       19.367490    7.920393    6.934984
     18          1           0       18.101994    7.627006    8.126652
     19          6           0       18.164007    9.656194    7.366250
     20          1           0       18.945811   10.032441    8.050894
     21          1           0       17.192243    9.918179    7.821258
     22          7           0       17.966855    6.549838    5.198936
     23          6           0       18.305793   10.374112    6.013683
     24          8           0       17.286132   10.894144    5.543806
     25          8           0       19.427762   10.327484    5.455567
     26         15           0       18.008485    9.937255    2.287174
     27          8           0       17.853772    8.501260    2.562932
     28          8           0       19.394562   10.562891    2.735957
     29          1           0       19.438888   10.552152    3.803872
     30          8           0       17.965335   10.194140    0.714489
     31          1           0       18.084328   11.211660    0.571911
     32          8           0       16.870053   10.878409    2.856066
     33          1           0       17.012818   10.972468    3.912939
 ---------------------------------------------------------------------
                    Distance matrix (angstroms):
                    1          2          3          4          5
     1  C    0.000000
     2  H    1.101447   0.000000
     3  H    1.098109   1.793670   0.000000
     4  H    1.120244   1.772533   1.789365   0.000000
     5  C    2.443112   2.783135   2.657779   3.429141   0.000000
     6  H    2.709765   2.593031   2.999998   3.766766   1.103184
     7  H    3.420087   3.790373   3.690374   4.294373   1.106464
     8  H    2.700392   3.171620   2.444657   3.704358   1.101611
     9  C    2.460440   2.653732   3.429160   2.785692   2.448889
    10  H    3.058930   3.427907   4.027997   3.003566   3.350513
    11  H    3.359421   3.448803   4.222052   3.845771   2.504166
    12  H    2.494736   2.260859   3.560015   2.722228   3.057507
    13  C    2.443439   3.423419   2.744373   2.649460   2.473993
    14  H    2.666014   3.716175   2.497676   2.964023   2.692148
    15  H    2.594200   3.585955   3.009681   2.297495   3.427237
    16  C    3.843922   4.696945   4.194465   4.085089   3.052028
    17  H    4.069657   4.719930   4.617138   4.389788   2.987754
    18  H    4.392295   5.242433   4.525708   4.807006   3.126403
    19  C    4.875709   5.790566   5.246702   4.799167   4.541869
    20  H    5.821704   6.672774   6.231913   5.804913   5.183722
    21  H    5.236302   6.248922   5.408961   5.110291   5.044788
    22  N    1.504686   2.166810   2.166145   2.170307   1.502357
    23  C    4.758976   5.588100   5.332510   4.376819   5.056673
    24  O    4.898844   5.783589   5.365302   4.290093   5.673434
    25  O    4.972702   5.607552   5.743320   4.623656   5.184310
    26  P    4.278775   4.575537   5.126384   3.357850   5.943645
    27  O    2.906422   3.108941   3.823748   2.068297   4.714683
    28  O    5.168652   5.448553   6.115389   4.457569   6.299829
    29  H    5.001280   5.435050   5.905399   4.405520   5.814123
    30  O    5.333977   5.394277   6.155486   4.377209   7.211525
    31  H    6.231094   6.367389   7.036494   5.250813   8.028196
    32  O    4.832809   5.393976   5.442383   3.812305   6.538699
    33  H    4.761259   5.477757   5.328552   3.865495   6.153888
                    6          7          8          9         10
     6  H    0.000000
     7  H    1.783422   0.000000
     8  H    1.786558   1.782689   0.000000
     9  C    2.693069   2.713589   3.424886   0.000000
    10  H    3.765761   3.472893   4.237010   1.116474   0.000000
    11  H    2.630358   2.365558   3.587135   1.102336   1.768442
    12  H    2.949543   3.525912   3.997411   1.103513   1.764411
    13  C    3.446916   2.742411   2.721170   2.506071   2.545499
    14  H    3.706073   3.074196   2.467495   3.454618   3.626995
    15  H    4.275536   3.786723   3.704103   2.782061   2.463710
    16  C    4.057128   2.712562   3.420928   2.998900   2.826086
    17  H    3.810392   2.430665   3.653005   2.541119   2.402513
    18  H    4.175626   2.602672   3.243163   3.792012   3.823005
    19  C    5.529951   4.232453   4.867691   4.011862   3.428662
    20  H    6.133620   4.664440   5.570228   4.629881   4.022601
    21  H    6.099925   4.825880   5.146148   4.835302   4.316783
    22  N    2.158660   2.158223   2.163541   1.503281   2.175668
    23  C    5.906604   4.953898   5.539742   3.796051   2.892462
    24  O    6.528789   5.759671   6.019705   4.476906   3.601127
    25  O    5.872127   5.015312   5.878988   3.452480   2.402746
    26  P    6.290429   6.399901   6.560632   3.929094   3.190800
    27  O    4.961681   5.314479   5.323405   2.876719   2.501492
    28  O    6.658145   6.505780   7.072361   4.014886   3.047125
    29  H    6.302060   5.886352   6.573754   3.643873   2.554774
    30  O    7.399435   7.755211   7.829137   5.175168   4.567577
    31  H    8.280563   8.498122   8.651381   5.929210   5.190666
    32  O    7.084193   6.979187   6.965855   4.871288   4.072699
    33  H    6.829598   6.470240   6.556597   4.615117   3.740455
                   11         12         13         14         15
    11  H    0.000000
    12  H    1.797989   0.000000
    13  C    3.100488   3.377115   0.000000
    14  H    4.021673   4.231457   1.109308   0.000000
    15  H    3.599755   3.468835   1.125839   1.780303   0.000000
    16  C    3.126588   4.073040   1.533241   2.185013   2.199913
    17  H    2.337695   3.636949   2.204212   3.054167   2.838061
    18  H    3.753182   4.866346   2.183671   2.360390   3.051504
    19  C    4.235831   5.011424   2.528886   3.088364   2.554099
    20  H    4.625065   5.657161   3.487922   4.057317   3.615719
    21  H    5.159074   5.804778   2.878144   3.064467   2.828110
    22  N    2.179153   2.175001   1.522530   2.154398   2.143295
    23  C    4.244758   4.586072   2.896571   3.680715   2.355837
    24  O    5.132174   5.118055   3.300228   3.865303   2.431310
    25  O    3.759942   4.140491   3.449644   4.430799   3.010346
    26  P    4.842652   3.741246   4.477474   5.255193   3.559859
    27  O    3.907017   2.550047   3.649055   4.387818   2.939195
    28  O    4.648494   3.973561   4.882933   5.839894   4.107946
    29  H    4.181294   3.895715   4.239669   5.231082   3.536996
    30  O    6.067393   4.713037   5.968570   6.686014   5.063847
    31  H    6.770255   5.561512   6.600691   7.333160   5.635034
    32  O    5.810866   4.929147   4.592809   5.170176   3.495105
    33  H    5.473817   4.911560   3.988669   4.577086   2.898872
                   16         17         18         19         20
    16  C    0.000000
    17  H    1.113868   0.000000
    18  H    1.105649   1.762847   0.000000
    19  C    1.530459   2.155775   2.167870   0.000000
    20  H    2.180264   2.425658   2.550271   1.105222   0.000000
    21  H    2.191118   3.083558   2.484026   1.104533   1.772227
    22  N    2.557782   2.618026   3.122511   3.792831   4.606576
    23  C    2.511685   2.827850   3.471709   1.537838   2.162543
    24  O    3.352283   3.887238   4.243927   2.371600   3.127708
    25  O    2.995414   2.826021   4.023051   2.387136   2.656134
    26  P    5.210115   5.245642   6.280565   5.089223   5.840215
    27  O    4.642911   4.663002   5.637456   4.949948   5.801275
    28  O    5.167730   4.961387   6.272938   4.876062   5.360160
    29  H    4.292054   4.090858   5.387967   3.888264   4.307020
    30  O    6.781760   6.769824   7.845318   6.676435   7.403399
    31  H    7.279680   7.277887   8.362067   6.970571   7.620229
    32  O    5.304486   5.623577   6.314141   4.848699   5.657797
    33  H    4.502203   4.898204   5.489426   3.870810   4.662916
                   21         22         23         24         25
    21  H    0.000000
    22  N    4.338469   0.000000
    23  C    2.171450   3.924763   0.000000
    24  O    2.479538   4.410818   1.237306   0.000000
    25  O    3.280483   4.058413   1.253986   2.217086   0.000000
    26  P    5.593988   4.467067   3.763789   3.470314   3.493614
    27  O    5.485916   3.281669   3.952161   3.864417   3.765618
    28  O    5.579081   4.920285   3.458980   3.526928   2.729981
    29  H    4.646367   4.486825   2.489752   2.789030   1.666942
    30  O    7.154019   5.778512   5.313168   4.926827   4.963295
    31  H    7.417678   6.569303   5.510301   5.045560   5.141661
    32  O    5.067443   5.042672   3.505169   2.719801   3.688197
    33  H    4.051997   4.703576   2.538295   1.655464   2.937288
                   26         27         28         29         30
    26  P    0.000000
    27  O    1.470395   0.000000
    28  O    1.585571   2.579592   0.000000
    29  H    2.173597   2.873792   1.068888   0.000000
    30  O    1.594111   2.508990   2.502998   3.441485   0.000000
    31  H    2.138221   3.370992   2.611649   3.565860   1.034328
    32  O    1.582857   2.589299   2.546983   2.757479   2.500844
    33  H    2.169362   2.938808   2.688074   2.464625   3.426830
                   31         32         33
    31  H    0.000000
    32  O    2.608234   0.000000
    33  H    3.516790   1.070612   0.000000
 Symmetry turned off by external request.
 Stoichiometry    C7H18NO6P
 Framework group  C1[X(C7H18NO6P)]
 Deg. of freedom    93
 Full point group                 C1      NOp   1
 Rotational constants (GHZ):           0.7022945           0.3908507           0.2962659
 Leave Link  202 at Mon Feb 20 00:07:36 2023, MaxMem=  6710886400 cpu:               0.1 elap:               0.0
 (Enter /data0/home/software/g16/l122.exe)
 Counterpoise: doing full-system calculation.
 Leave Link  122 at Mon Feb 20 00:07:36 2023, MaxMem=  6710886400 cpu:               0.0 elap:               0.0
 (Enter /data0/home/software/g16/l301.exe)
 Standard basis: 6-311+G(2d,p) (5D, 7F)
 Ernie: Thresh=  0.10000D-02 Tol=  0.10000D-05 Strict=F.
   521 basis functions,   788 primitive gaussians,   551 cartesian basis functions
    65 alpha electrons       65 beta electrons
       nuclear repulsion energy      1349.6822207987 Hartrees.
 IExCor= 4336 DFT=T Ex+Corr=M062X ExCW=0 ScaHFX=  0.540000
 ScaDFX=  1.000000  1.000000  1.000000  1.000000 ScalE2=  1.000000  1.000000
 IRadAn=      5 IRanWt=     -1 IRanGd=            0 ICorTp=0 IEmpDi=131
 NAtoms=   33 NActive=   33 NUniq=   33 SFac= 1.00D+00 NAtFMM=   60 NAOKFM=F Big=F
 Integral buffers will be    131072 words long.
 Raffenetti 2 integral format.
 Two-electron integral symmetry is turned off.
 R6Disp:  Grimme-D3 Dispersion energy=       -0.0021695873 Hartrees.
 Nuclear repulsion after empirical dispersion term =     1349.6800512114 Hartrees.
 Leave Link  301 at Mon Feb 20 00:07:36 2023, MaxMem=  6710886400 cpu:               1.1 elap:               0.1
 (Enter /data0/home/software/g16/l302.exe)
 NPDir=0 NMtPBC=     1 NCelOv=     1 NCel=       1 NClECP=     1 NCelD=      1
         NCelK=      1 NCelE2=     1 NClLst=     1 CellRange=     0.0.
 One-electron integrals computed using PRISM.
 NBasis=   521 RedAO= T EigKep=  8.09D-06  NBF=   521
 NBsUse=   521 1.00D-06 EigRej= -1.00D+00 NBFU=   521
 Precomputing XC quadrature grid using
 IXCGrd= 4 IRadAn=           5 IRanWt=          -1 IRanGd=           0 AccXCQ= 0.00D+00.
 Generated NRdTot=       0 NPtTot=           0 NUsed=           0 NTot=          32
 NSgBfM=   551   551   551   551   551 MxSgAt=    33 MxSgA2=    33.
 Leave Link  302 at Mon Feb 20 00:07:36 2023, MaxMem=  6710886400 cpu:              12.8 elap:               0.6
 (Enter /data0/home/software/g16/l303.exe)
 DipDrv:  MaxL=1.
 Leave Link  303 at Mon Feb 20 00:07:36 2023, MaxMem=  6710886400 cpu:               1.3 elap:               0.1
 (Enter /data0/home/software/g16/l401.exe)
 ExpMin= 3.48D-02 ExpMax= 7.75D+04 ExpMxC= 2.65D+03 IAcc=3 IRadAn=         5 AccDes= 0.00D+00
 Harris functional with IExCor= 1009 and IRadAn=       5 diagonalized for initial guess.
 HarFok:  IExCor= 1009 AccDes= 0.00D+00 IRadAn=         5 IDoV= 1 UseB2=F ITyADJ=14
 ICtDFT=  3500011 ScaDFX=  1.000000  1.000000  1.000000  1.000000
 FoFCou: FMM=F IPFlag=           0 FMFlag=      100000 FMFlg1=           0
         NFxFlg=           0 DoJE=T BraDBF=F KetDBF=T FulRan=T
         wScrn=  0.000000 ICntrl=       500 IOpCl=  0 I1Cent=   200000004 NGrid=           0
         NMat0=    1 NMatS0=      1 NMatT0=    0 NMatD0=    1 NMtDS0=    0 NMtDT0=    0
 Symmetry not used in FoFCou.
 Harris En= -1124.67398830405    
 JPrj=0 DoOrth=F DoCkMO=F.
 Leave Link  401 at Mon Feb 20 00:07:39 2023, MaxMem=  6710886400 cpu:              53.7 elap:               2.3
 (Enter /data0/home/software/g16/l502.exe)
 Two-electron integral symmetry not used.
 Closed shell SCF:
 Using DIIS extrapolation, IDIIS=  1040.
 NGot=  6710886400 LenX=  6710262024 LenY=  6709957872
 Requested convergence on RMS density matrix=1.00D-08 within 128 cycles.
 Requested convergence on MAX density matrix=1.00D-06.
 Requested convergence on             energy=1.00D-06.
 No special actions if energy rises.
 Fock matrices will be formed incrementally for  20 cycles.

 Cycle   1  Pass 1  IDiag  1:
 FoFJK:  IHMeth= 1 ICntrl=       0 DoSepK=F KAlg= 0 I1Cent=           0 FoldK=F
 IRaf= 870000000 NMat=       1 IRICut=       1 DoRegI=T DoRafI=F ISym2E= 0 IDoP0=0 IntGTp=1.
 FoFCou: FMM=F IPFlag=           0 FMFlag=      100000 FMFlg1=           0
         NFxFlg=           0 DoJE=F BraDBF=F KetDBF=F FulRan=T
         wScrn=  0.000000 ICntrl=         0 IOpCl=  0 I1Cent=           0 NGrid=           0
         NMat0=    1 NMatS0=      1 NMatT0=    0 NMatD0=    1 NMtDS0=    0 NMtDT0=    0
 Symmetry not used in FoFCou.
 E= -1124.49178466708    
 DIIS: error= 2.69D-02 at cycle   1 NSaved=   1.
 NSaved= 1 IEnMin= 1 EnMin= -1124.49178466708     IErMin= 1 ErrMin= 2.69D-02
 ErrMax= 2.69D-02  0.00D+00 EMaxC= 1.00D-01 BMatC= 9.45D-01 BMatP= 9.45D-01
 IDIUse=3 WtCom= 7.31D-01 WtEn= 2.69D-01
 Coeff-Com:  0.100D+01
 Coeff-En:   0.100D+01
 Coeff:      0.100D+01
 Gap=     0.337 Goal=   None    Shift=    0.000
 GapD=    0.337 DampG=1.000 DampE=0.500 DampFc=0.5000 IDamp=-1.
 Damping current iteration by 5.00D-01
 RMSDP=5.23D-03 MaxDP=6.47D-01              OVMax= 2.10D-01

 Cycle   2  Pass 1  IDiag  1:
 RMSU=  2.61D-03    CP:  1.01D+00
 E= -1124.76785833758     Delta-E=       -0.276073670503 Rises=F Damp=T
 DIIS: error= 5.96D-03 at cycle   2 NSaved=   2.
 NSaved= 2 IEnMin= 2 EnMin= -1124.76785833758     IErMin= 2 ErrMin= 5.96D-03
 ErrMax= 5.96D-03  0.00D+00 EMaxC= 1.00D-01 BMatC= 5.47D-02 BMatP= 9.45D-01
 IDIUse=3 WtCom= 9.40D-01 WtEn= 5.96D-02
 Coeff-Com:  0.962D-02 0.990D+00
 Coeff-En:   0.584D-01 0.942D+00
 Coeff:      0.125D-01 0.987D+00
 Gap=     0.320 Goal=   None    Shift=    0.000
 RMSDP=2.02D-03 MaxDP=3.33D-01 DE=-2.76D-01 OVMax= 1.33D-01

 Cycle   3  Pass 1  IDiag  1:
 RMSU=  1.77D-03    CP:  9.15D-01  9.21D-01
 E= -1125.07524468181     Delta-E=       -0.307386344227 Rises=F Damp=F
 DIIS: error= 2.93D-03 at cycle   3 NSaved=   3.
 NSaved= 3 IEnMin= 3 EnMin= -1125.07524468181     IErMin= 3 ErrMin= 2.93D-03
 ErrMax= 2.93D-03  0.00D+00 EMaxC= 1.00D-01 BMatC= 1.72D-02 BMatP= 5.47D-02
 IDIUse=3 WtCom= 9.71D-01 WtEn= 2.93D-02
 Coeff-Com: -0.496D-01 0.324D+00 0.725D+00
 Coeff-En:   0.000D+00 0.000D+00 0.100D+01
 Coeff:     -0.481D-01 0.315D+00 0.734D+00
 Gap=     0.300 Goal=   None    Shift=    0.000
 RMSDP=4.55D-04 MaxDP=2.45D-02 DE=-3.07D-01 OVMax= 3.94D-02

 Cycle   4  Pass 1  IDiag  1:
 RMSU=  3.80D-04    CP:  9.20D-01  1.00D+00  9.35D-01
 E= -1125.08398397635     Delta-E=       -0.008739294544 Rises=F Damp=F
 DIIS: error= 1.70D-03 at cycle   4 NSaved=   4.
 NSaved= 4 IEnMin= 4 EnMin= -1125.08398397635     IErMin= 4 ErrMin= 1.70D-03
 ErrMax= 1.70D-03  0.00D+00 EMaxC= 1.00D-01 BMatC= 5.03D-03 BMatP= 1.72D-02
 IDIUse=3 WtCom= 9.83D-01 WtEn= 1.70D-02
 Coeff-Com: -0.260D-01 0.739D-01 0.391D+00 0.561D+00
 Coeff-En:   0.000D+00 0.000D+00 0.211D+00 0.789D+00
 Coeff:     -0.256D-01 0.727D-01 0.388D+00 0.565D+00
 Gap=     0.295 Goal=   None    Shift=    0.000
 RMSDP=2.06D-04 MaxDP=2.09D-02 DE=-8.74D-03 OVMax= 1.47D-02

 Cycle   5  Pass 1  IDiag  1:
 RMSU=  1.05D-04    CP:  9.14D-01  9.72D-01  9.69D-01  6.50D-01
 E= -1125.08753925028     Delta-E=       -0.003555273923 Rises=F Damp=F
 DIIS: error= 3.84D-04 at cycle   5 NSaved=   5.
 NSaved= 5 IEnMin= 5 EnMin= -1125.08753925028     IErMin= 5 ErrMin= 3.84D-04
 ErrMax= 3.84D-04  0.00D+00 EMaxC= 1.00D-01 BMatC= 1.46D-04 BMatP= 5.03D-03
 IDIUse=3 WtCom= 9.96D-01 WtEn= 3.84D-03
 Coeff-Com: -0.770D-02 0.144D-01 0.124D+00 0.237D+00 0.633D+00
 Coeff-En:   0.000D+00 0.000D+00 0.000D+00 0.000D+00 0.100D+01
 Coeff:     -0.767D-02 0.143D-01 0.123D+00 0.236D+00 0.634D+00
 Gap=     0.294 Goal=   None    Shift=    0.000
 RMSDP=2.85D-05 MaxDP=1.48D-03 DE=-3.56D-03 OVMax= 2.18D-03

 Cycle   6  Pass 1  IDiag  1:
 RMSU=  2.54D-05    CP:  9.14D-01  9.73D-01  9.67D-01  6.72D-01  9.29D-01
 E= -1125.08763660928     Delta-E=       -0.000097359003 Rises=F Damp=F
 DIIS: error= 1.28D-04 at cycle   6 NSaved=   6.
 NSaved= 6 IEnMin= 6 EnMin= -1125.08763660928     IErMin= 6 ErrMin= 1.28D-04
 ErrMax= 1.28D-04  0.00D+00 EMaxC= 1.00D-01 BMatC= 1.13D-05 BMatP= 1.46D-04
 IDIUse=3 WtCom= 9.99D-01 WtEn= 1.28D-03
 Coeff-Com: -0.115D-02 0.637D-03 0.202D-01 0.532D-01 0.269D+00 0.658D+00
 Coeff-En:   0.000D+00 0.000D+00 0.000D+00 0.000D+00 0.000D+00 0.100D+01
 Coeff:     -0.115D-02 0.637D-03 0.202D-01 0.531D-01 0.269D+00 0.659D+00
 Gap=     0.294 Goal=   None    Shift=    0.000
 RMSDP=1.47D-05 MaxDP=1.81D-03 DE=-9.74D-05 OVMax= 5.09D-04

 Cycle   7  Pass 1  IDiag  1:
 RMSU=  1.19D-05    CP:  9.14D-01  9.74D-01  9.68D-01  6.78D-01  8.98D-01
                    CP:  7.73D-01
 E= -1125.08764638295     Delta-E=       -0.000009773669 Rises=F Damp=F
 DIIS: error= 2.30D-05 at cycle   7 NSaved=   7.
 NSaved= 7 IEnMin= 7 EnMin= -1125.08764638295     IErMin= 7 ErrMin= 2.30D-05
 ErrMax= 2.30D-05  0.00D+00 EMaxC= 1.00D-01 BMatC= 6.81D-07 BMatP= 1.13D-05
 IDIUse=1 WtCom= 1.00D+00 WtEn= 0.00D+00
 Coeff-Com:  0.308D-03-0.116D-02-0.430D-02-0.339D-02 0.330D-01 0.202D+00
 Coeff-Com:  0.773D+00
 Coeff:      0.308D-03-0.116D-02-0.430D-02-0.339D-02 0.330D-01 0.202D+00
 Coeff:      0.773D+00
 Gap=     0.294 Goal=   None    Shift=    0.000
 RMSDP=5.03D-06 MaxDP=5.01D-04 DE=-9.77D-06 OVMax= 2.18D-04

 Cycle   8  Pass 1  IDiag  1:
 RMSU=  3.31D-06    CP:  9.14D-01  9.73D-01  9.68D-01  6.76D-01  9.19D-01
                    CP:  8.34D-01  9.59D-01
 E= -1125.08764688410     Delta-E=       -0.000000501154 Rises=F Damp=F
 DIIS: error= 1.51D-05 at cycle   8 NSaved=   8.
 NSaved= 8 IEnMin= 8 EnMin= -1125.08764688410     IErMin= 8 ErrMin= 1.51D-05
 ErrMax= 1.51D-05  0.00D+00 EMaxC= 1.00D-01 BMatC= 2.22D-07 BMatP= 6.81D-07
 IDIUse=1 WtCom= 1.00D+00 WtEn= 0.00D+00
 Coeff-Com:  0.323D-03-0.636D-03-0.515D-02-0.946D-02-0.204D-01 0.143D-01
 Coeff-Com:  0.400D+00 0.621D+00
 Coeff:      0.323D-03-0.636D-03-0.515D-02-0.946D-02-0.204D-01 0.143D-01
 Coeff:      0.400D+00 0.621D+00
 Gap=     0.294 Goal=   None    Shift=    0.000
 RMSDP=1.29D-06 MaxDP=1.23D-04 DE=-5.01D-07 OVMax= 1.32D-04

 Cycle   9  Pass 1  IDiag  1:
 RMSU=  1.02D-06    CP:  9.14D-01  9.73D-01  9.68D-01  6.76D-01  9.22D-01
                    CP:  8.41D-01  1.00D+00  1.01D+00
 E= -1125.08764704758     Delta-E=       -0.000000163482 Rises=F Damp=F
 DIIS: error= 3.86D-06 at cycle   9 NSaved=   9.
 NSaved= 9 IEnMin= 9 EnMin= -1125.08764704758     IErMin= 9 ErrMin= 3.86D-06
 ErrMax= 3.86D-06  0.00D+00 EMaxC= 1.00D-01 BMatC= 1.67D-08 BMatP= 2.22D-07
 IDIUse=1 WtCom= 1.00D+00 WtEn= 0.00D+00
 Coeff-Com:  0.109D-03-0.180D-03-0.186D-02-0.375D-02-0.110D-01-0.744D-02
 Coeff-Com:  0.111D+00 0.275D+00 0.638D+00
 Coeff:      0.109D-03-0.180D-03-0.186D-02-0.375D-02-0.110D-01-0.744D-02
 Coeff:      0.111D+00 0.275D+00 0.638D+00
 Gap=     0.294 Goal=   None    Shift=    0.000
 RMSDP=4.53D-07 MaxDP=2.98D-05 DE=-1.63D-07 OVMax= 4.22D-05

 Cycle  10  Pass 1  IDiag  1:
 RMSU=  3.74D-07    CP:  9.14D-01  9.73D-01  9.68D-01  6.76D-01  9.22D-01
                    CP:  8.42D-01  1.01D+00  1.06D+00  8.84D-01
 E= -1125.08764705922     Delta-E=       -0.000000011631 Rises=F Damp=F
 DIIS: error= 1.42D-06 at cycle  10 NSaved=  10.
 NSaved=10 IEnMin=10 EnMin= -1125.08764705922     IErMin=10 ErrMin= 1.42D-06
 ErrMax= 1.42D-06  0.00D+00 EMaxC= 1.00D-01 BMatC= 2.82D-09 BMatP= 1.67D-08
 IDIUse=1 WtCom= 1.00D+00 WtEn= 0.00D+00
 Coeff-Com: -0.199D-05 0.142D-04-0.533D-04-0.280D-03-0.226D-02-0.615D-02
 Coeff-Com: -0.139D-01 0.305D-01 0.308D+00 0.684D+00
 Coeff:     -0.199D-05 0.142D-04-0.533D-04-0.280D-03-0.226D-02-0.615D-02
 Coeff:     -0.139D-01 0.305D-01 0.308D+00 0.684D+00
 Gap=     0.294 Goal=   None    Shift=    0.000
 RMSDP=1.93D-07 MaxDP=1.67D-05 DE=-1.16D-08 OVMax= 1.70D-05

 Cycle  11  Pass 1  IDiag  1:
 RMSU=  1.24D-07    CP:  9.14D-01  9.73D-01  9.68D-01  6.76D-01  9.22D-01
                    CP:  8.43D-01  1.01D+00  1.08D+00  9.97D-01  1.02D+00
 E= -1125.08764706145     Delta-E=       -0.000000002231 Rises=F Damp=F
 DIIS: error= 4.89D-07 at cycle  11 NSaved=  11.
 NSaved=11 IEnMin=11 EnMin= -1125.08764706145     IErMin=11 ErrMin= 4.89D-07
 ErrMax= 4.89D-07  0.00D+00 EMaxC= 1.00D-01 BMatC= 3.36D-10 BMatP= 2.82D-09
 IDIUse=1 WtCom= 1.00D+00 WtEn= 0.00D+00
 Coeff-Com: -0.144D-04 0.300D-04 0.212D-03 0.341D-03 0.378D-03-0.150D-02
 Coeff-Com: -0.204D-01-0.244D-01 0.417D-01 0.309D+00 0.695D+00
 Coeff:     -0.144D-04 0.300D-04 0.212D-03 0.341D-03 0.378D-03-0.150D-02
 Coeff:     -0.204D-01-0.244D-01 0.417D-01 0.309D+00 0.695D+00
 Gap=     0.294 Goal=   None    Shift=    0.000
 RMSDP=1.01D-07 MaxDP=9.95D-06 DE=-2.23D-09 OVMax= 3.69D-06

 Cycle  12  Pass 1  IDiag  1:
 RMSU=  5.37D-08    CP:  9.14D-01  9.73D-01  9.68D-01  6.76D-01  9.22D-01
                    CP:  8.43D-01  1.01D+00  1.10D+00  1.02D+00  1.08D+00
                    CP:  8.92D-01
 E= -1125.08764706164     Delta-E=       -0.000000000196 Rises=F Damp=F
 DIIS: error= 1.18D-07 at cycle  12 NSaved=  12.
 NSaved=12 IEnMin=12 EnMin= -1125.08764706164     IErMin=12 ErrMin= 1.18D-07
 ErrMax= 1.18D-07  0.00D+00 EMaxC= 1.00D-01 BMatC= 1.46D-11 BMatP= 3.36D-10
 IDIUse=1 WtCom= 1.00D+00 WtEn= 0.00D+00
 Coeff-Com: -0.397D-05 0.777D-05 0.714D-04 0.125D-03 0.293D-03 0.509D-04
 Coeff-Com: -0.508D-02-0.102D-01-0.138D-01 0.445D-01 0.206D+00 0.778D+00
 Coeff:     -0.397D-05 0.777D-05 0.714D-04 0.125D-03 0.293D-03 0.509D-04
 Coeff:     -0.508D-02-0.102D-01-0.138D-01 0.445D-01 0.206D+00 0.778D+00
 Gap=     0.294 Goal=   None    Shift=    0.000
 RMSDP=1.90D-08 MaxDP=2.19D-06 DE=-1.96D-10 OVMax= 1.23D-06

 Cycle  13  Pass 1  IDiag  1:
 RMSU=  1.17D-08    CP:  9.14D-01  9.73D-01  9.68D-01  6.76D-01  9.22D-01
                    CP:  8.43D-01  1.01D+00  1.10D+00  1.02D+00  1.10D+00
                    CP:  9.51D-01  9.74D-01
 E= -1125.08764706174     Delta-E=       -0.000000000103 Rises=F Damp=F
 DIIS: error= 4.26D-08 at cycle  13 NSaved=  13.
 NSaved=13 IEnMin=13 EnMin= -1125.08764706174     IErMin=13 ErrMin= 4.26D-08
 ErrMax= 4.26D-08  0.00D+00 EMaxC= 1.00D-01 BMatC= 2.04D-12 BMatP= 1.46D-11
 IDIUse=1 WtCom= 1.00D+00 WtEn= 0.00D+00
 Coeff-Com:  0.366D-06-0.814D-06 0.154D-05 0.417D-05 0.579D-04 0.182D-03
 Coeff-Com:  0.498D-03-0.925D-03-0.101D-01-0.173D-01-0.852D-02 0.282D+00
 Coeff-Com:  0.754D+00
 Coeff:      0.366D-06-0.814D-06 0.154D-05 0.417D-05 0.579D-04 0.182D-03
 Coeff:      0.498D-03-0.925D-03-0.101D-01-0.173D-01-0.852D-02 0.282D+00
 Coeff:      0.754D+00
 Gap=     0.294 Goal=   None    Shift=    0.000
 RMSDP=7.64D-09 MaxDP=1.11D-06 DE=-1.03D-10 OVMax= 4.44D-07

 Cycle  14  Pass 1  IDiag  1:
 RMSU=  4.17D-09    CP:  9.14D-01  9.73D-01  9.68D-01  6.76D-01  9.22D-01
                    CP:  8.43D-01  1.01D+00  1.10D+00  1.02D+00  1.11D+00
                    CP:  9.65D-01  1.04D+00  1.02D+00
 E= -1125.08764706167     Delta-E=        0.000000000075 Rises=F Damp=F
 DIIS: error= 8.39D-09 at cycle  14 NSaved=  14.
 NSaved=14 IEnMin=13 EnMin= -1125.08764706174     IErMin=14 ErrMin= 8.39D-09
 ErrMax= 8.39D-09  0.00D+00 EMaxC= 1.00D-01 BMatC= 1.33D-13 BMatP= 2.04D-12
 IDIUse=1 WtCom= 1.00D+00 WtEn= 0.00D+00
 Coeff-Com:  0.443D-06-0.872D-06-0.495D-05-0.857D-05-0.681D-05 0.482D-04
 Coeff-Com:  0.561D-03 0.550D-03-0.220D-02-0.856D-02-0.203D-01 0.275D-01
 Coeff-Com:  0.232D+00 0.771D+00
 Coeff:      0.443D-06-0.872D-06-0.495D-05-0.857D-05-0.681D-05 0.482D-04
 Coeff:      0.561D-03 0.550D-03-0.220D-02-0.856D-02-0.203D-01 0.275D-01
 Coeff:      0.232D+00 0.771D+00
 Gap=     0.294 Goal=   None    Shift=    0.000
 RMSDP=1.83D-09 MaxDP=1.75D-07 DE= 7.46D-11 OVMax= 1.69D-07

 SCF Done:  E(RM062X) =  -1125.08764706     A.U. after   14 cycles
            NFock= 14  Conv=0.18D-08     -V/T= 2.0035
 KE= 1.121172222158D+03 PE=-5.349319483451D+03 EE= 1.753379563021D+03
 Leave Link  502 at Mon Feb 20 00:09:27 2023, MaxMem=  6710886400 cpu:            2602.8 elap:             108.8
 (Enter /data0/home/software/g16/l601.exe)
 Copying SCF densities to generalized density rwf, IOpCl= 0 IROHF=0.

 **********************************************************************

            Population analysis using the SCF density.

 **********************************************************************

 Alpha  occ. eigenvalues --  -78.12293 -19.63763 -19.60822 -19.60762 -19.57132
 Alpha  occ. eigenvalues --  -19.57091 -19.55811 -14.91526 -10.64037 -10.62891
 Alpha  occ. eigenvalues --  -10.62625 -10.61368 -10.60725 -10.57547 -10.54324
 Alpha  occ. eigenvalues --   -6.93007  -5.04951  -5.04865  -5.04733  -1.18711
 Alpha  occ. eigenvalues --   -1.16711  -1.15890  -1.11209  -1.09607  -1.06538
 Alpha  occ. eigenvalues --   -1.06115  -0.92406  -0.87666  -0.86189  -0.83425
 Alpha  occ. eigenvalues --   -0.75682  -0.71224  -0.67082  -0.63181  -0.62901
 Alpha  occ. eigenvalues --   -0.61678  -0.60043  -0.59449  -0.58205  -0.56725
 Alpha  occ. eigenvalues --   -0.54397  -0.53082  -0.52648  -0.52214  -0.51380
 Alpha  occ. eigenvalues --   -0.50470  -0.49343  -0.48938  -0.48437  -0.48011
 Alpha  occ. eigenvalues --   -0.47184  -0.46593  -0.45379  -0.44947  -0.44516
 Alpha  occ. eigenvalues --   -0.43213  -0.41779  -0.41465  -0.40436  -0.38656
 Alpha  occ. eigenvalues --   -0.35798  -0.33873  -0.32667  -0.32103  -0.31737
 Alpha virt. eigenvalues --   -0.02298  -0.00159   0.00119   0.01262   0.02449
 Alpha virt. eigenvalues --    0.02671   0.03040   0.03589   0.04080   0.04165
 Alpha virt. eigenvalues --    0.05889   0.06218   0.06906   0.07437   0.07531
 Alpha virt. eigenvalues --    0.07647   0.08350   0.08804   0.09830   0.10201
 Alpha virt. eigenvalues --    0.10723   0.10829   0.11427   0.11998   0.12007
 Alpha virt. eigenvalues --    0.12683   0.13395   0.14206   0.14443   0.14804
 Alpha virt. eigenvalues --    0.15238   0.15480   0.15850   0.16079   0.16678
 Alpha virt. eigenvalues --    0.17094   0.18034   0.18242   0.18512   0.19219
 Alpha virt. eigenvalues --    0.19562   0.20095   0.20255   0.20920   0.21516
 Alpha virt. eigenvalues --    0.22218   0.22442   0.23365   0.23768   0.24277
 Alpha virt. eigenvalues --    0.24735   0.24868   0.25063   0.25637   0.26003
 Alpha virt. eigenvalues --    0.26146   0.26459   0.27157   0.27899   0.28087
 Alpha virt. eigenvalues --    0.28379   0.28729   0.29685   0.29887   0.30185
 Alpha virt. eigenvalues --    0.30968   0.31334   0.32142   0.32521   0.33317
 Alpha virt. eigenvalues --    0.33737   0.33937   0.34231   0.34554   0.35228
 Alpha virt. eigenvalues --    0.35498   0.36124   0.36680   0.36992   0.37369
 Alpha virt. eigenvalues --    0.38392   0.38647   0.39581   0.40175   0.41691
 Alpha virt. eigenvalues --    0.41923   0.42595   0.43683   0.44180   0.45379
 Alpha virt. eigenvalues --    0.45539   0.46605   0.46886   0.47663   0.47974
 Alpha virt. eigenvalues --    0.49463   0.50175   0.50949   0.51390   0.52455
 Alpha virt. eigenvalues --    0.52934   0.53742   0.54093   0.54368   0.55553
 Alpha virt. eigenvalues --    0.55732   0.57784   0.57951   0.58346   0.59478
 Alpha virt. eigenvalues --    0.60260   0.60336   0.61539   0.62209   0.63057
 Alpha virt. eigenvalues --    0.63910   0.65139   0.66480   0.66855   0.67498
 Alpha virt. eigenvalues --    0.67703   0.68577   0.69777   0.70186   0.70334
 Alpha virt. eigenvalues --    0.70625   0.72331   0.72815   0.73315   0.73711
 Alpha virt. eigenvalues --    0.75340   0.75502   0.76428   0.77475   0.78726
 Alpha virt. eigenvalues --    0.79128   0.79725   0.80731   0.82601   0.83123
 Alpha virt. eigenvalues --    0.84263   0.84656   0.85699   0.87690   0.87863
 Alpha virt. eigenvalues --    0.88612   0.89110   0.90512   0.91417   0.94494
 Alpha virt. eigenvalues --    0.94806   0.95697   0.97735   0.99490   1.01627
 Alpha virt. eigenvalues --    1.02425   1.05412   1.07339   1.09556   1.09953
 Alpha virt. eigenvalues --    1.10536   1.11620   1.12242   1.12949   1.13732
 Alpha virt. eigenvalues --    1.14532   1.15624   1.16186   1.17722   1.18374
 Alpha virt. eigenvalues --    1.18630   1.19096   1.20173   1.21415   1.22240
 Alpha virt. eigenvalues --    1.23612   1.24044   1.24998   1.25512   1.26247
 Alpha virt. eigenvalues --    1.26445   1.27182   1.28287   1.28739   1.29889
 Alpha virt. eigenvalues --    1.30348   1.31225   1.32284   1.32696   1.33803
 Alpha virt. eigenvalues --    1.34381   1.35070   1.35819   1.37092   1.37298
 Alpha virt. eigenvalues --    1.37858   1.39324   1.40190   1.41245   1.41819
 Alpha virt. eigenvalues --    1.42254   1.44064   1.44859   1.45375   1.45594
 Alpha virt. eigenvalues --    1.47005   1.49382   1.50078   1.53175   1.53931
 Alpha virt. eigenvalues --    1.55083   1.56671   1.58350   1.58598   1.60476
 Alpha virt. eigenvalues --    1.61912   1.62143   1.63415   1.65469   1.65910
 Alpha virt. eigenvalues --    1.67682   1.70240   1.70666   1.71515   1.72505
 Alpha virt. eigenvalues --    1.74612   1.75188   1.75984   1.76607   1.77256
 Alpha virt. eigenvalues --    1.78074   1.78364   1.79437   1.79902   1.81466
 Alpha virt. eigenvalues --    1.82432   1.83499   1.84565   1.87579   1.88194
 Alpha virt. eigenvalues --    1.89161   1.89265   1.90398   1.92066   1.92869
 Alpha virt. eigenvalues --    1.93964   1.95237   1.97459   1.98158   1.99759
 Alpha virt. eigenvalues --    2.00987   2.03656   2.04714   2.05977   2.06321
 Alpha virt. eigenvalues --    2.07945   2.10028   2.12005   2.13753   2.13794
 Alpha virt. eigenvalues --    2.15929   2.16521   2.17637   2.18616   2.19730
 Alpha virt. eigenvalues --    2.20306   2.22093   2.23495   2.25947   2.26981
 Alpha virt. eigenvalues --    2.28685   2.28783   2.29816   2.30639   2.31266
 Alpha virt. eigenvalues --    2.32915   2.33863   2.34361   2.34763   2.35543
 Alpha virt. eigenvalues --    2.35949   2.36848   2.37893   2.38714   2.41158
 Alpha virt. eigenvalues --    2.41233   2.42808   2.43261   2.44063   2.46852
 Alpha virt. eigenvalues --    2.48167   2.48713   2.50205   2.53282   2.54796
 Alpha virt. eigenvalues --    2.57795   2.59697   2.61680   2.65322   2.66301
 Alpha virt. eigenvalues --    2.68539   2.69440   2.70473   2.72036   2.76843
 Alpha virt. eigenvalues --    2.77089   2.78640   2.80218   2.82964   2.84350
 Alpha virt. eigenvalues --    2.84917   2.87016   2.88262   2.89408   2.90576
 Alpha virt. eigenvalues --    2.91897   2.95037   2.97284   2.99158   3.01002
 Alpha virt. eigenvalues --    3.02625   3.03513   3.05498   3.09376   3.11522
 Alpha virt. eigenvalues --    3.12674   3.15207   3.17055   3.18801   3.22808
 Alpha virt. eigenvalues --    3.24263   3.26896   3.28361   3.30842   3.32645
 Alpha virt. eigenvalues --    3.34062   3.35457   3.36372   3.38773   3.39903
 Alpha virt. eigenvalues --    3.41263   3.46145   3.48765   3.50897   3.51546
 Alpha virt. eigenvalues --    3.54295   3.54673   3.56356   3.58396   3.59454
 Alpha virt. eigenvalues --    3.60099   3.60214   3.62651   3.63697   3.67042
 Alpha virt. eigenvalues --    3.67677   3.67894   3.70884   3.71978   3.73785
 Alpha virt. eigenvalues --    3.75517   3.76496   3.79433   3.83774   3.84546
 Alpha virt. eigenvalues --    3.88963   3.92143   3.97179   4.03932   4.13460
 Alpha virt. eigenvalues --    4.13750   4.14636   4.15185   4.17767   4.19196
 Alpha virt. eigenvalues --    4.21369   4.24677   4.26335   4.37618   4.40822
 Alpha virt. eigenvalues --    4.51544   4.78145   4.80447   4.81738   5.11392
 Alpha virt. eigenvalues --    5.12653   5.15439   5.17015   5.22355   5.24106
 Alpha virt. eigenvalues --    5.24765   5.25514   5.29802   5.31619   5.33186
 Alpha virt. eigenvalues --    5.36194   5.41673   5.43725   5.45651   5.49401
 Alpha virt. eigenvalues --    5.50243   5.51660   5.60176   5.62806   5.66706
 Alpha virt. eigenvalues --    5.96321   6.24443   6.78428   6.80597   6.81882
 Alpha virt. eigenvalues --    6.83087   6.85490   6.86139   6.86465   6.88240
 Alpha virt. eigenvalues --    6.91112   6.93021   6.96505   6.97533   7.01940
 Alpha virt. eigenvalues --    7.02868   7.04815   7.06722   7.07035   7.07847
 Alpha virt. eigenvalues --    7.08999   7.16081   7.21868   7.22345   7.30533
 Alpha virt. eigenvalues --    7.31512   7.32657   7.34571   7.39788   7.41086
 Alpha virt. eigenvalues --    7.43520   7.48037   7.74989  14.29630  14.33856
 Alpha virt. eigenvalues --   14.42826  23.94278  23.98623  24.05085  24.06386
 Alpha virt. eigenvalues --   24.10981  24.11889  24.24989  35.52711  50.06191
 Alpha virt. eigenvalues --   50.10206  50.12202  50.15584  50.18848  50.21578
 Alpha virt. eigenvalues --  164.00478
          Condensed to atoms (all electrons):
               1          2          3          4          5          6
     1  C    5.655598   0.411758   0.383473   0.399454  -0.124251  -0.026766
     2  H    0.411758   0.438141  -0.018108  -0.009833  -0.023356   0.000817
     3  H    0.383473  -0.018108   0.472569  -0.022725  -0.010671  -0.000010
     4  H    0.399454  -0.009833  -0.022725   0.381204   0.010928   0.000077
     5  C   -0.124251  -0.023356  -0.010671   0.010928   5.511791   0.389770
     6  H   -0.026766   0.000817  -0.000010   0.000077   0.389770   0.451310
     7  H    0.022577  -0.000039   0.000321  -0.000172   0.410723  -0.019015
     8  H   -0.018584   0.001168   0.000313   0.000280   0.427500  -0.018656
     9  C   -0.219069  -0.018552   0.033353  -0.023281  -0.165787  -0.010444
    10  H    0.005281  -0.000394  -0.000122  -0.001180   0.002428   0.000038
    11  H    0.018356   0.000462  -0.000152  -0.000036   0.010624  -0.001534
    12  H   -0.007777  -0.002160   0.000600  -0.000305  -0.020416   0.000499
    13  C   -0.288537   0.036324  -0.044923   0.005974  -0.334864   0.056672
    14  H   -0.003685   0.000033   0.000078   0.000095  -0.010157  -0.000124
    15  H    0.017002  -0.000313  -0.000011   0.002351   0.011464  -0.000276
    16  C    0.025020  -0.002364   0.007080  -0.002130   0.045400  -0.002856
    17  H    0.008859  -0.000002   0.000045   0.000076  -0.006419  -0.000382
    18  H   -0.004774  -0.000000  -0.000004  -0.000029  -0.001535   0.000049
    19  C   -0.007993   0.001562  -0.001623  -0.000768  -0.088700   0.002998
    20  H    0.000353  -0.000001  -0.000001  -0.000005   0.000744  -0.000001
    21  H    0.001313  -0.000001   0.000005  -0.000002   0.000738  -0.000003
    22  N    0.231490  -0.022949  -0.001201  -0.026215   0.314940  -0.034038
    23  C   -0.019594  -0.000247   0.001424  -0.000456   0.012678   0.000057
    24  O    0.001731   0.000033   0.000080  -0.000493  -0.001284  -0.000011
    25  O    0.002156  -0.000089  -0.000031   0.000102   0.001200  -0.000002
    26  P   -0.019552   0.000013   0.000084   0.006084   0.000978   0.000062
    27  O   -0.007701  -0.005922   0.003912   0.000854   0.011638  -0.000122
    28  O    0.003983  -0.000043  -0.000004   0.000588  -0.000704  -0.000003
    29  H   -0.001014   0.000015  -0.000000   0.000165   0.000726   0.000000
    30  O   -0.001274   0.000005   0.000010  -0.000147   0.000440  -0.000001
    31  H    0.000082  -0.000001   0.000000   0.000020   0.000015  -0.000000
    32  O    0.002034  -0.000035   0.000102  -0.002192  -0.001090  -0.000002
    33  H   -0.000004  -0.000004  -0.000015  -0.000078   0.000131   0.000001
               7          8          9         10         11         12
     1  C    0.022577  -0.018584  -0.219069   0.005281   0.018356  -0.007777
     2  H   -0.000039   0.001168  -0.018552  -0.000394   0.000462  -0.002160
     3  H    0.000321   0.000313   0.033353  -0.000122  -0.000152   0.000600
     4  H   -0.000172   0.000280  -0.023281  -0.001180  -0.000036  -0.000305
     5  C    0.410723   0.427500  -0.165787   0.002428   0.010624  -0.020416
     6  H   -0.019015  -0.018656  -0.010444   0.000038  -0.001534   0.000499
     7  H    0.455405  -0.021062  -0.020733   0.000530  -0.001333   0.000431
     8  H   -0.021062   0.449886   0.018137  -0.000218   0.000506  -0.000029
     9  C   -0.020733   0.018137   5.757230   0.359393   0.373326   0.441261
    10  H    0.000530  -0.000218   0.359393   0.421933  -0.015993  -0.011342
    11  H   -0.001333   0.000506   0.373326  -0.015993   0.481231  -0.018869
    12  H    0.000431  -0.000029   0.441261  -0.011342  -0.018869   0.429215
    13  C   -0.066257  -0.028372  -0.063409   0.051103  -0.034028   0.013886
    14  H    0.000240  -0.000913   0.010670   0.000472  -0.000253  -0.000062
    15  H    0.000139   0.000443  -0.010861  -0.003667   0.000468  -0.000293
    16  C    0.028581   0.002337  -0.078367  -0.037106  -0.003069   0.001511
    17  H   -0.001502   0.000063   0.001224  -0.001079  -0.004836   0.000408
    18  H   -0.000839   0.000191   0.003301  -0.000044   0.000243  -0.000056
    19  C    0.001313  -0.004938  -0.015119   0.011648   0.005929   0.002653
    20  H    0.000014  -0.000003   0.001814   0.000009   0.000019  -0.000006
    21  H    0.000002   0.000015  -0.000994  -0.000158  -0.000011   0.000002
    22  N   -0.005885  -0.019260   0.073690  -0.048120  -0.008694  -0.043042
    23  C    0.001406  -0.000032  -0.003883  -0.000666  -0.006437  -0.001648
    24  O   -0.000011  -0.000026   0.017799  -0.005181  -0.000105  -0.000014
    25  O    0.000095   0.000010  -0.021635   0.015398   0.000803   0.000245
    26  P   -0.000105   0.000071  -0.004802  -0.006454   0.000287   0.000623
    27  O   -0.000022  -0.000031  -0.024688  -0.002166   0.004315  -0.008989
    28  O   -0.000001  -0.000003  -0.009054   0.013027   0.000217   0.000063
    29  H   -0.000000   0.000001  -0.001725  -0.000021   0.000012  -0.000125
    30  O   -0.000000   0.000000  -0.002039  -0.001015   0.000003  -0.000392
    31  H   -0.000000  -0.000000   0.000650   0.000001  -0.000000   0.000006
    32  O   -0.000002  -0.000002   0.009046   0.000615  -0.000038   0.000234
    33  H    0.000001   0.000001  -0.003476  -0.000300   0.000022   0.000009
              13         14         15         16         17         18
     1  C   -0.288537  -0.003685   0.017002   0.025020   0.008859  -0.004774
     2  H    0.036324   0.000033  -0.000313  -0.002364  -0.000002  -0.000000
     3  H   -0.044923   0.000078  -0.000011   0.007080   0.000045  -0.000004
     4  H    0.005974   0.000095   0.002351  -0.002130   0.000076  -0.000029
     5  C   -0.334864  -0.010157   0.011464   0.045400  -0.006419  -0.001535
     6  H    0.056672  -0.000124  -0.000276  -0.002856  -0.000382   0.000049
     7  H   -0.066257   0.000240   0.000139   0.028581  -0.001502  -0.000839
     8  H   -0.028372  -0.000913   0.000443   0.002337   0.000063   0.000191
     9  C   -0.063409   0.010670  -0.010861  -0.078367   0.001224   0.003301
    10  H    0.051103   0.000472  -0.003667  -0.037106  -0.001079  -0.000044
    11  H   -0.034028  -0.000253   0.000468  -0.003069  -0.004836   0.000243
    12  H    0.013886  -0.000062  -0.000293   0.001511   0.000408  -0.000056
    13  C    8.159528   0.314025   0.390875  -1.273703  -0.179413   0.041864
    14  H    0.314025   0.464418  -0.025663   0.013945   0.003681  -0.012833
    15  H    0.390875  -0.025663   0.400770  -0.024812  -0.000089   0.002904
    16  C   -1.273703   0.013945  -0.024812   6.820767   0.531920   0.358950
    17  H   -0.179413   0.003681  -0.000089   0.531920   0.481392  -0.040021
    18  H    0.041864  -0.012833   0.002904   0.358950  -0.040021   0.528535
    19  C    0.214402   0.001794  -0.045801  -0.551922  -0.037015  -0.038290
    20  H    0.047371  -0.000272   0.000240  -0.067296  -0.007300  -0.002205
    21  H   -0.022086  -0.000049   0.001588   0.012378   0.005531  -0.007676
    22  N   -0.525842   0.032393  -0.007203   0.281674   0.075222  -0.027592
    23  C   -0.118714   0.002719   0.031410   0.035578  -0.021998   0.032137
    24  O   -0.019859   0.001175   0.008985  -0.017060   0.002449  -0.002183
    25  O    0.057924  -0.000517  -0.008462   0.072518  -0.005406  -0.000068
    26  P   -0.025377   0.000788  -0.003437   0.029633   0.000450  -0.000104
    27  O   -0.088371   0.000030   0.008948  -0.003636  -0.000101   0.000033
    28  O    0.007223  -0.000000  -0.000987  -0.008106   0.000050  -0.000011
    29  H   -0.009476   0.000010   0.000026   0.007846   0.000174   0.000012
    30  O   -0.005861   0.000006  -0.000078   0.000751   0.000005  -0.000000
    31  H    0.000306   0.000000  -0.000014   0.000086  -0.000000   0.000000
    32  O    0.013769   0.000008   0.000928  -0.008558   0.000102  -0.000006
    33  H   -0.011763  -0.000072   0.000701   0.008749  -0.000151   0.000020
              19         20         21         22         23         24
     1  C   -0.007993   0.000353   0.001313   0.231490  -0.019594   0.001731
     2  H    0.001562  -0.000001  -0.000001  -0.022949  -0.000247   0.000033
     3  H   -0.001623  -0.000001   0.000005  -0.001201   0.001424   0.000080
     4  H   -0.000768  -0.000005  -0.000002  -0.026215  -0.000456  -0.000493
     5  C   -0.088700   0.000744   0.000738   0.314940   0.012678  -0.001284
     6  H    0.002998  -0.000001  -0.000003  -0.034038   0.000057  -0.000011
     7  H    0.001313   0.000014   0.000002  -0.005885   0.001406  -0.000011
     8  H   -0.004938  -0.000003   0.000015  -0.019260  -0.000032  -0.000026
     9  C   -0.015119   0.001814  -0.000994   0.073690  -0.003883   0.017799
    10  H    0.011648   0.000009  -0.000158  -0.048120  -0.000666  -0.005181
    11  H    0.005929   0.000019  -0.000011  -0.008694  -0.006437  -0.000105
    12  H    0.002653  -0.000006   0.000002  -0.043042  -0.001648  -0.000014
    13  C    0.214402   0.047371  -0.022086  -0.525842  -0.118714  -0.019859
    14  H    0.001794  -0.000272  -0.000049   0.032393   0.002719   0.001175
    15  H   -0.045801   0.000240   0.001588  -0.007203   0.031410   0.008985
    16  C   -0.551922  -0.067296   0.012378   0.281674   0.035578  -0.017060
    17  H   -0.037015  -0.007300   0.005531   0.075222  -0.021998   0.002449
    18  H   -0.038290  -0.002205  -0.007676  -0.027592   0.032137  -0.002183
    19  C    6.882405   0.437598   0.410531  -0.123617  -0.317285  -0.074331
    20  H    0.437598   0.504157  -0.030121  -0.001356  -0.072759   0.006854
    21  H    0.410531  -0.030121   0.498435   0.004492  -0.056273  -0.010477
    22  N   -0.123617  -0.001356   0.004492   6.943133   0.062638  -0.005839
    23  C   -0.317285  -0.072759  -0.056273   0.062638   5.305694   0.382542
    24  O   -0.074331   0.006854  -0.010477  -0.005839   0.382542   8.253850
    25  O   -0.228386  -0.002926   0.006472  -0.016632   0.469143  -0.061871
    26  P   -0.034599  -0.000138   0.000224   0.026581   0.043899   0.019858
    27  O   -0.016159   0.000018   0.000011   0.064843   0.024471  -0.019385
    28  O    0.024519   0.000014  -0.000066  -0.010279  -0.018785  -0.013591
    29  H   -0.005004  -0.000163   0.000053   0.002877  -0.003772   0.007693
    30  O   -0.003160   0.000002   0.000004   0.003828   0.003054   0.003120
    31  H    0.000095  -0.000000  -0.000000  -0.000295  -0.001731   0.000505
    32  O    0.012385  -0.000009   0.000164  -0.015130  -0.020082  -0.025795
    33  H   -0.014202  -0.000048  -0.000354   0.003264   0.019273   0.066277
              25         26         27         28         29         30
     1  C    0.002156  -0.019552  -0.007701   0.003983  -0.001014  -0.001274
     2  H   -0.000089   0.000013  -0.005922  -0.000043   0.000015   0.000005
     3  H   -0.000031   0.000084   0.003912  -0.000004  -0.000000   0.000010
     4  H    0.000102   0.006084   0.000854   0.000588   0.000165  -0.000147
     5  C    0.001200   0.000978   0.011638  -0.000704   0.000726   0.000440
     6  H   -0.000002   0.000062  -0.000122  -0.000003   0.000000  -0.000001
     7  H    0.000095  -0.000105  -0.000022  -0.000001  -0.000000  -0.000000
     8  H    0.000010   0.000071  -0.000031  -0.000003   0.000001   0.000000
     9  C   -0.021635  -0.004802  -0.024688  -0.009054  -0.001725  -0.002039
    10  H    0.015398  -0.006454  -0.002166   0.013027  -0.000021  -0.001015
    11  H    0.000803   0.000287   0.004315   0.000217   0.000012   0.000003
    12  H    0.000245   0.000623  -0.008989   0.000063  -0.000125  -0.000392
    13  C    0.057924  -0.025377  -0.088371   0.007223  -0.009476  -0.005861
    14  H   -0.000517   0.000788   0.000030  -0.000000   0.000010   0.000006
    15  H   -0.008462  -0.003437   0.008948  -0.000987   0.000026  -0.000078
    16  C    0.072518   0.029633  -0.003636  -0.008106   0.007846   0.000751
    17  H   -0.005406   0.000450  -0.000101   0.000050   0.000174   0.000005
    18  H   -0.000068  -0.000104   0.000033  -0.000011   0.000012  -0.000000
    19  C   -0.228386  -0.034599  -0.016159   0.024519  -0.005004  -0.003160
    20  H   -0.002926  -0.000138   0.000018   0.000014  -0.000163   0.000002
    21  H    0.006472   0.000224   0.000011  -0.000066   0.000053   0.000004
    22  N   -0.016632   0.026581   0.064843  -0.010279   0.002877   0.003828
    23  C    0.469143   0.043899   0.024471  -0.018785  -0.003772   0.003054
    24  O   -0.061871   0.019858  -0.019385  -0.013591   0.007693   0.003120
    25  O    8.238367   0.036865  -0.013778  -0.038014   0.084350   0.003251
    26  P    0.036865  12.503563   0.442048   0.302119   0.016585   0.133499
    27  O   -0.013778   0.442048   8.409692  -0.028333   0.003021  -0.001087
    28  O   -0.038014   0.302119  -0.028333   8.189056   0.224298  -0.005553
    29  H    0.084350   0.016585   0.003021   0.224298   0.261321   0.000296
    30  O    0.003251   0.133499  -0.001087  -0.005553   0.000296   8.143161
    31  H    0.000315   0.016422  -0.012077  -0.002465  -0.000016   0.226145
    32  O   -0.024052   0.277642  -0.031118   0.017464  -0.013280  -0.015346
    33  H    0.012459   0.024942   0.004415  -0.007869   0.001906   0.001241
              31         32         33
     1  C    0.000082   0.002034  -0.000004
     2  H   -0.000001  -0.000035  -0.000004
     3  H    0.000000   0.000102  -0.000015
     4  H    0.000020  -0.002192  -0.000078
     5  C    0.000015  -0.001090   0.000131
     6  H   -0.000000  -0.000002   0.000001
     7  H   -0.000000  -0.000002   0.000001
     8  H   -0.000000  -0.000002   0.000001
     9  C    0.000650   0.009046  -0.003476
    10  H    0.000001   0.000615  -0.000300
    11  H   -0.000000  -0.000038   0.000022
    12  H    0.000006   0.000234   0.000009
    13  C    0.000306   0.013769  -0.011763
    14  H    0.000000   0.000008  -0.000072
    15  H   -0.000014   0.000928   0.000701
    16  C    0.000086  -0.008558   0.008749
    17  H   -0.000000   0.000102  -0.000151
    18  H    0.000000  -0.000006   0.000020
    19  C    0.000095   0.012385  -0.014202
    20  H   -0.000000  -0.000009  -0.000048
    21  H   -0.000000   0.000164  -0.000354
    22  N   -0.000295  -0.015130   0.003264
    23  C   -0.001731  -0.020082   0.019273
    24  O    0.000505  -0.025795   0.066277
    25  O    0.000315  -0.024052   0.012459
    26  P    0.016422   0.277642   0.024942
    27  O   -0.012077  -0.031118   0.004415
    28  O   -0.002465   0.017464  -0.007869
    29  H   -0.000016  -0.013280   0.001906
    30  O    0.226145  -0.015346   0.001241
    31  H    0.464524  -0.002483  -0.000685
    32  O   -0.002483   8.214843   0.215959
    33  H   -0.000685   0.215959   0.254650
 Mulliken charges:
               1
     1  C   -0.439944
     2  H    0.214080
     3  H    0.196149
     4  H    0.281794
     5  C   -0.375625
     6  H    0.211896
     7  H    0.215202
     8  H    0.211208
     9  C   -0.402975
    10  H    0.253349
    11  H    0.198564
    12  H    0.223878
    13  C   -0.270392
    14  H    0.208020
    15  H    0.252729
    16  C   -0.203737
    17  H    0.194063
    18  H    0.170028
    19  C   -0.400922
    20  H    0.185404
    21  H    0.186314
    22  N   -0.177879
    23  C    0.236239
    24  O   -0.515435
    25  O   -0.579805
    26  P    1.211247
    27  O   -0.714566
    28  O   -0.638750
    29  H    0.423211
    30  O   -0.482866
    31  H    0.310596
    32  O   -0.606076
    33  H    0.425004
 Sum of Mulliken charges =  -0.00000
 Mulliken charges with hydrogens summed into heavy atoms:
               1
     1  C    0.252079
     5  C    0.262681
     9  C    0.272815
    13  C    0.190356
    16  C    0.160354
    19  C   -0.029204
    22  N   -0.177879
    23  C    0.236239
    24  O   -0.515435
    25  O   -0.579805
    26  P    1.211247
    27  O   -0.714566
    28  O   -0.215540
    30  O   -0.172270
    32  O   -0.181072
         Mulliken charges condensed to fragments:
      1      0.072200
      2     -0.072200
 Electronic spatial extent (au):  <R**2>=         201220.2266
 Charge=             -0.0000 electrons
 Dipole moment (field-independent basis, Debye):
    X=             -0.5182    Y=            -10.4706    Z=              5.2056  Tot=             11.7048
 Quadrupole moment (field-independent basis, Debye-Ang):
   XX=           -122.3466   YY=           -266.7933   ZZ=            -51.5306
   XY=           -192.6089   XZ=             90.1819   YZ=            -14.2325
 Traceless Quadrupole moment (field-independent basis, Debye-Ang):
   XX=             24.5436   YY=           -119.9031   ZZ=             95.3595
   XY=           -192.6089   XZ=             90.1819   YZ=            -14.2325
 Octapole moment (field-independent basis, Debye-Ang**2):
  XXX=          -6135.3081  YYY=          -4686.3406  ZZZ=           -970.7606  XYY=          -4839.9199
  XXY=          -4482.1310  XXZ=           1102.3817  XZZ=           -953.9404  YZZ=           -771.3571
  YYZ=          -1029.2918  XYZ=           -286.3761
 Hexadecapole moment (field-independent basis, Debye-Ang**3):
 XXXX=        -216509.2081 YYYY=         -71432.7719 ZZZZ=         -11627.3446 XXXY=        -116204.2439
 XXXZ=           2045.3751 YYYX=         -84756.7865 YYYZ=         -20452.4837 ZZZX=         -17706.0927
 ZZZY=          -9922.4689 XXYY=         -96767.3518 XXZZ=         -20158.4667 YYZZ=         -11903.7448
 XXYZ=          -9734.5658 YYXZ=         -18819.0061 ZZXY=         -14117.0364
 N-N= 1.349680051211D+03 E-N=-5.349319488291D+03  KE= 1.121172222158D+03
 No NMR shielding tensors so no spin-rotation constants.
 Leave Link  601 at Mon Feb 20 00:09:28 2023, MaxMem=  6710886400 cpu:               3.7 elap:               0.2
 (Enter /data0/home/software/g16/l122.exe)
 CPIOFr:  IOpCl= 0 IRwI=-1 IRwCP=  731 ICalc= -1 LCPTot=      418338 Len1MO=     1096859 IndFrg=      418338
 CPIOFr:  IOpCl= 0 IRwI=-1 IRwCP=  731 ICalc=  0 LCPTot=      418338 Len1MO=     1096859 IndFrg=     1515197
 Counterpoise: doing calculation for fragment   1 using the basis set of the full-system, NewBq=T
 Leave Link  122 at Mon Feb 20 00:09:28 2023, MaxMem=  6710886400 cpu:               0.4 elap:               0.0
 (Enter /data0/home/software/g16/l301.exe)
 Basis read from rwf:  (5D, 7F)
 No pseudopotential information found on rwf file.
   521 basis functions,   788 primitive gaussians,   551 cartesian basis functions
    40 alpha electrons       40 beta electrons
       nuclear repulsion energy       587.0598354086 Hartrees.
 IExCor= 4336 DFT=T Ex+Corr=M062X ExCW=0 ScaHFX=  0.540000
 ScaDFX=  1.000000  1.000000  1.000000  1.000000 ScalE2=  1.000000  1.000000
 IRadAn=      5 IRanWt=     -1 IRanGd=            0 ICorTp=0 IEmpDi=131
 NAtoms=   33 NActive=   33 NUniq=   33 SFac= 1.00D+00 NAtFMM=   60 NAOKFM=F Big=F
 Integral buffers will be    131072 words long.
 Raffenetti 2 integral format.
 Two-electron integral symmetry is turned off.
 R6Disp:  Grimme-D3 Dispersion energy=       -0.0010347501 Hartrees.
 Nuclear repulsion after empirical dispersion term =      587.0588006585 Hartrees.
 No density basis found on file   718.
 Leave Link  301 at Mon Feb 20 00:09:28 2023, MaxMem=  6710886400 cpu:               1.3 elap:               0.1
 (Enter /data0/home/software/g16/l302.exe)
 NPDir=0 NMtPBC=     1 NCelOv=     1 NCel=       1 NClECP=     1 NCelD=      1
         NCelK=      1 NCelE2=     1 NClLst=     1 CellRange=     0.0.
 One-electron integrals computed using PRISM.
 NBasis=   521 RedAO= T EigKep=  8.09D-06  NBF=   521
 NBsUse=   521 1.00D-06 EigRej= -1.00D+00 NBFU=   521
 Precomputing XC quadrature grid using
 IXCGrd= 4 IRadAn=           5 IRanWt=          -1 IRanGd=           0 AccXCQ= 0.00D+00.
 Generated NRdTot=       0 NPtTot=           0 NUsed=           0 NTot=          32
 NSgBfM=   551   551   551   551   551 MxSgAt=    33 MxSgA2=    33.
 Leave Link  302 at Mon Feb 20 00:09:28 2023, MaxMem=  6710886400 cpu:              12.6 elap:               0.5
 (Enter /data0/home/software/g16/l303.exe)
 DipDrv:  MaxL=1.
 Leave Link  303 at Mon Feb 20 00:09:28 2023, MaxMem=  6710886400 cpu:               1.3 elap:               0.1
 (Enter /data0/home/software/g16/l401.exe)
 ExpMin= 3.48D-02 ExpMax= 7.75D+04 ExpMxC= 2.65D+03 IAcc=3 IRadAn=         5 AccDes= 0.00D+00
 Harris functional with IExCor= 1009 and IRadAn=       5 diagonalized for initial guess.
 HarFok:  IExCor= 1009 AccDes= 0.00D+00 IRadAn=         5 IDoV= 1 UseB2=F ITyADJ=14
 ICtDFT=  3500011 ScaDFX=  1.000000  1.000000  1.000000  1.000000
 FoFCou: FMM=F IPFlag=           0 FMFlag=      100000 FMFlg1=           0
         NFxFlg=           0 DoJE=T BraDBF=F KetDBF=T FulRan=T
         wScrn=  0.000000 ICntrl=       500 IOpCl=  0 I1Cent=   200000004 NGrid=           0
         NMat0=    1 NMatS0=      1 NMatT0=    0 NMatD0=    1 NMtDS0=    0 NMtDT0=    0
 Symmetry not used in FoFCou.
 Harris En= -480.724431138170    
 JPrj=0 DoOrth=F DoCkMO=F.
 Leave Link  401 at Mon Feb 20 00:09:31 2023, MaxMem=  6710886400 cpu:              49.9 elap:               2.1
 (Enter /data0/home/software/g16/l502.exe)
 Two-electron integral symmetry not used.
 Closed shell SCF:
 Using DIIS extrapolation, IDIIS=  1040.
 NGot=  6710886400 LenX=  6710262024 LenY=  6709957872
 Requested convergence on RMS density matrix=1.00D-08 within 128 cycles.
 Requested convergence on MAX density matrix=1.00D-06.
 Requested convergence on             energy=1.00D-06.
 No special actions if energy rises.
 Fock matrices will be formed incrementally for  20 cycles.

 Cycle   1  Pass 1  IDiag  1:
 FoFJK:  IHMeth= 1 ICntrl=       0 DoSepK=F KAlg= 0 I1Cent=           0 FoldK=F
 IRaf= 870000000 NMat=       1 IRICut=       1 DoRegI=T DoRafI=F ISym2E= 0 IDoP0=0 IntGTp=1.
 FoFCou: FMM=F IPFlag=           0 FMFlag=      100000 FMFlg1=           0
         NFxFlg=           0 DoJE=F BraDBF=F KetDBF=F FulRan=T
         wScrn=  0.000000 ICntrl=         0 IOpCl=  0 I1Cent=           0 NGrid=           0
         NMat0=    1 NMatS0=      1 NMatT0=    0 NMatD0=    1 NMtDS0=    0 NMtDT0=    0
 Symmetry not used in FoFCou.
 E= -480.473485278970    
 DIIS: error= 1.98D-02 at cycle   1 NSaved=   1.
 NSaved= 1 IEnMin= 1 EnMin= -480.473485278970     IErMin= 1 ErrMin= 1.98D-02
 ErrMax= 1.98D-02  0.00D+00 EMaxC= 1.00D-01 BMatC= 4.94D-01 BMatP= 4.94D-01
 IDIUse=3 WtCom= 8.02D-01 WtEn= 1.98D-01
 Coeff-Com:  0.100D+01
 Coeff-En:   0.100D+01
 Coeff:      0.100D+01
 Gap=     0.306 Goal=   None    Shift=    0.000
 GapD=    0.306 DampG=1.000 DampE=0.500 DampFc=0.5000 IDamp=-1.
 Damping current iteration by 5.00D-01
 RMSDP=2.20D-02 MaxDP=2.33D+00              OVMax= 5.56D-01

 Cycle   2  Pass 1  IDiag  1:
 RMSU=  1.10D-02    CP:  1.04D+00
 E= -480.573692218979     Delta-E=       -0.100206940008 Rises=F Damp=T
 DIIS: error= 4.44D-03 at cycle   2 NSaved=   2.
 NSaved= 2 IEnMin= 2 EnMin= -480.573692218979     IErMin= 2 ErrMin= 4.44D-03
 ErrMax= 4.44D-03  0.00D+00 EMaxC= 1.00D-01 BMatC= 5.12D-02 BMatP= 4.94D-01
 IDIUse=3 WtCom= 9.56D-01 WtEn= 4.44D-02
 Coeff-Com:  0.886D-01 0.911D+00
 Coeff-En:   0.304D+00 0.696D+00
 Coeff:      0.982D-01 0.902D+00
 Gap=     0.136 Goal=   None    Shift=    0.000
 RMSDP=1.09D-02 MaxDP=1.32D+00 DE=-1.00D-01 OVMax= 4.99D-01

 Cycle   3  Pass 1  IDiag  1:
 RMSU=  2.58D-03    CP:  8.64D-01  4.04D-02
 E= -480.817137691021     Delta-E=       -0.243445472043 Rises=F Damp=F
 DIIS: error= 6.26D-03 at cycle   3 NSaved=   3.
 NSaved= 3 IEnMin= 3 EnMin= -480.817137691021     IErMin= 2 ErrMin= 4.44D-03
 ErrMax= 6.26D-03  0.00D+00 EMaxC= 1.00D-01 BMatC= 3.62D-02 BMatP= 5.12D-02
 IDIUse=3 WtCom= 9.37D-01 WtEn= 6.26D-02
 Coeff-Com: -0.527D-01 0.450D+00 0.603D+00
 Coeff-En:   0.000D+00 0.000D+00 0.100D+01
 Coeff:     -0.494D-01 0.422D+00 0.628D+00
 Gap=     0.211 Goal=   None    Shift=    0.000
 RMSDP=6.37D-04 MaxDP=7.27D-02 DE=-2.43D-01 OVMax= 4.13D-02

 Cycle   4  Pass 1  IDiag  1:
 RMSU=  6.12D-04    CP:  8.70D-01  4.61D-02  1.06D+00
 E= -480.844960035856     Delta-E=       -0.027822344834 Rises=F Damp=F
 DIIS: error= 1.75D-03 at cycle   4 NSaved=   4.
 NSaved= 4 IEnMin= 4 EnMin= -480.844960035856     IErMin= 4 ErrMin= 1.75D-03
 ErrMax= 1.75D-03  0.00D+00 EMaxC= 1.00D-01 BMatC= 3.30D-03 BMatP= 3.62D-02
 IDIUse=3 WtCom= 9.82D-01 WtEn= 1.75D-02
 Coeff-Com: -0.472D-01 0.120D+00 0.247D+00 0.680D+00
 Coeff-En:   0.000D+00 0.000D+00 0.000D+00 0.100D+01
 Coeff:     -0.464D-01 0.118D+00 0.243D+00 0.685D+00
 Gap=     0.206 Goal=   None    Shift=    0.000
 RMSDP=3.08D-04 MaxDP=3.47D-02 DE=-2.78D-02 OVMax= 1.49D-02

 Cycle   5  Pass 1  IDiag  1:
 RMSU=  2.84D-04    CP:  8.68D-01  4.75D-02  1.09D+00  1.15D+00
 E= -480.847796125398     Delta-E=       -0.002836089543 Rises=F Damp=F
 DIIS: error= 6.73D-04 at cycle   5 NSaved=   5.
 NSaved= 5 IEnMin= 5 EnMin= -480.847796125398     IErMin= 5 ErrMin= 6.73D-04
 ErrMax= 6.73D-04  0.00D+00 EMaxC= 1.00D-01 BMatC= 4.92D-04 BMatP= 3.30D-03
 IDIUse=3 WtCom= 9.93D-01 WtEn= 6.73D-03
 Coeff-Com: -0.185D-01 0.286D-01 0.497D-01 0.306D+00 0.634D+00
 Coeff-En:   0.000D+00 0.000D+00 0.000D+00 0.000D+00 0.100D+01
 Coeff:     -0.183D-01 0.284D-01 0.494D-01 0.304D+00 0.637D+00
 Gap=     0.207 Goal=   None    Shift=    0.000
 RMSDP=9.83D-05 MaxDP=8.06D-03 DE=-2.84D-03 OVMax= 8.55D-03

 Cycle   6  Pass 1  IDiag  1:
 RMSU=  8.01D-05    CP:  8.68D-01  4.72D-02  1.09D+00  1.23D+00  1.09D+00
 E= -480.848171649448     Delta-E=       -0.000375524050 Rises=F Damp=F
 DIIS: error= 2.65D-04 at cycle   6 NSaved=   6.
 NSaved= 6 IEnMin= 6 EnMin= -480.848171649448     IErMin= 6 ErrMin= 2.65D-04
 ErrMax= 2.65D-04  0.00D+00 EMaxC= 1.00D-01 BMatC= 8.28D-05 BMatP= 4.92D-04
 IDIUse=3 WtCom= 9.97D-01 WtEn= 2.65D-03
 Coeff-Com:  0.132D-03-0.465D-02-0.199D-01 0.173D-01 0.317D+00 0.690D+00
 Coeff-En:   0.000D+00 0.000D+00 0.000D+00 0.000D+00 0.000D+00 0.100D+01
 Coeff:      0.132D-03-0.464D-02-0.199D-01 0.173D-01 0.317D+00 0.691D+00
 Gap=     0.208 Goal=   None    Shift=    0.000
 RMSDP=6.43D-05 MaxDP=7.46D-03 DE=-3.76D-04 OVMax= 4.13D-03

 Cycle   7  Pass 1  IDiag  1:
 RMSU=  4.06D-05    CP:  8.69D-01  4.77D-02  1.09D+00  1.27D+00  1.24D+00
                    CP:  1.17D+00
 E= -480.848237787639     Delta-E=       -0.000066138191 Rises=F Damp=F
 DIIS: error= 1.07D-04 at cycle   7 NSaved=   7.
 NSaved= 7 IEnMin= 7 EnMin= -480.848237787639     IErMin= 7 ErrMin= 1.07D-04
 ErrMax= 1.07D-04  0.00D+00 EMaxC= 1.00D-01 BMatC= 1.20D-05 BMatP= 8.28D-05
 IDIUse=3 WtCom= 9.99D-01 WtEn= 1.07D-03
 Coeff-Com:  0.262D-02-0.597D-02-0.132D-01-0.256D-01 0.895D-01 0.340D+00
 Coeff-Com:  0.613D+00
 Coeff-En:   0.000D+00 0.000D+00 0.000D+00 0.000D+00 0.000D+00 0.000D+00
 Coeff-En:   0.100D+01
 Coeff:      0.261D-02-0.596D-02-0.132D-01-0.256D-01 0.894D-01 0.340D+00
 Coeff:      0.613D+00
 Gap=     0.208 Goal=   None    Shift=    0.000
 RMSDP=1.70D-05 MaxDP=1.64D-03 DE=-6.61D-05 OVMax= 1.10D-03

 Cycle   8  Pass 1  IDiag  1:
 RMSU=  1.24D-05    CP:  8.69D-01  4.78D-02  1.09D+00  1.26D+00  1.27D+00
                    CP:  1.25D+00  1.07D+00
 E= -480.848246790415     Delta-E=       -0.000009002775 Rises=F Damp=F
 DIIS: error= 2.88D-05 at cycle   8 NSaved=   8.
 NSaved= 8 IEnMin= 8 EnMin= -480.848246790415     IErMin= 8 ErrMin= 2.88D-05
 ErrMax= 2.88D-05  0.00D+00 EMaxC= 1.00D-01 BMatC= 1.07D-06 BMatP= 1.20D-05
 IDIUse=1 WtCom= 1.00D+00 WtEn= 0.00D+00
 Coeff-Com:  0.804D-03-0.139D-02-0.168D-03-0.749D-02 0.151D-02 0.363D-01
 Coeff-Com:  0.233D+00 0.738D+00
 Coeff:      0.804D-03-0.139D-02-0.168D-03-0.749D-02 0.151D-02 0.363D-01
 Coeff:      0.233D+00 0.738D+00
 Gap=     0.209 Goal=   None    Shift=    0.000
 RMSDP=1.07D-05 MaxDP=1.79D-03 DE=-9.00D-06 OVMax= 4.34D-04

 Cycle   9  Pass 1  IDiag  1:
 RMSU=  6.27D-06    CP:  8.69D-01  4.77D-02  1.09D+00  1.26D+00  1.27D+00
                    CP:  1.27D+00  1.16D+00  1.27D+00
 E= -480.848247877407     Delta-E=       -0.000001086992 Rises=F Damp=F
 DIIS: error= 1.25D-05 at cycle   9 NSaved=   9.
 NSaved= 9 IEnMin= 9 EnMin= -480.848247877407     IErMin= 9 ErrMin= 1.25D-05
 ErrMax= 1.25D-05  0.00D+00 EMaxC= 1.00D-01 BMatC= 7.25D-08 BMatP= 1.07D-06
 IDIUse=1 WtCom= 1.00D+00 WtEn= 0.00D+00
 Coeff-Com: -0.560D-04 0.246D-03 0.138D-02 0.657D-03-0.570D-02-0.229D-01
 Coeff-Com:  0.729D-02 0.216D+00 0.803D+00
 Coeff:     -0.560D-04 0.246D-03 0.138D-02 0.657D-03-0.570D-02-0.229D-01
 Coeff:      0.729D-02 0.216D+00 0.803D+00
 Gap=     0.209 Goal=   None    Shift=    0.000
 RMSDP=3.52D-06 MaxDP=4.15D-04 DE=-1.09D-06 OVMax= 1.44D-04

 Cycle  10  Pass 1  IDiag  1:
 RMSU=  1.35D-06    CP:  8.69D-01  4.77D-02  1.09D+00  1.25D+00  1.27D+00
                    CP:  1.28D+00  1.20D+00  1.40D+00  1.11D+00
 E= -480.848247952447     Delta-E=       -0.000000075041 Rises=F Damp=F
 DIIS: error= 5.13D-06 at cycle  10 NSaved=  10.
 NSaved=10 IEnMin=10 EnMin= -480.848247952447     IErMin=10 ErrMin= 5.13D-06
 ErrMax= 5.13D-06  0.00D+00 EMaxC= 1.00D-01 BMatC= 2.04D-08 BMatP= 7.25D-08
 IDIUse=1 WtCom= 1.00D+00 WtEn= 0.00D+00
 Coeff-Com: -0.113D-03 0.164D-03 0.373D-03 0.989D-03-0.208D-02-0.145D-01
 Coeff-Com: -0.244D-01 0.654D-02 0.381D+00 0.652D+00
 Coeff:     -0.113D-03 0.164D-03 0.373D-03 0.989D-03-0.208D-02-0.145D-01
 Coeff:     -0.244D-01 0.654D-02 0.381D+00 0.652D+00
 Gap=     0.209 Goal=   None    Shift=    0.000
 RMSDP=1.16D-06 MaxDP=1.54D-04 DE=-7.50D-08 OVMax= 4.41D-05

 Cycle  11  Pass 1  IDiag  1:
 RMSU=  3.96D-07    CP:  8.69D-01  4.77D-02  1.09D+00  1.25D+00  1.27D+00
                    CP:  1.28D+00  1.21D+00  1.46D+00  1.18D+00  1.20D+00
 E= -480.848247972971     Delta-E=       -0.000000020523 Rises=F Damp=F
 DIIS: error= 7.30D-07 at cycle  11 NSaved=  11.
 NSaved=11 IEnMin=11 EnMin= -480.848247972971     IErMin=11 ErrMin= 7.30D-07
 ErrMax= 7.30D-07  0.00D+00 EMaxC= 1.00D-01 BMatC= 7.82D-10 BMatP= 2.04D-08
 IDIUse=1 WtCom= 1.00D+00 WtEn= 0.00D+00
 Coeff-Com: -0.242D-04 0.470D-04-0.307D-04 0.386D-04-0.274D-03-0.226D-02
 Coeff-Com: -0.467D-02-0.112D-01 0.321D-01 0.121D+00 0.865D+00
 Coeff:     -0.242D-04 0.470D-04-0.307D-04 0.386D-04-0.274D-03-0.226D-02
 Coeff:     -0.467D-02-0.112D-01 0.321D-01 0.121D+00 0.865D+00
 Gap=     0.209 Goal=   None    Shift=    0.000
 RMSDP=3.69D-07 MaxDP=5.39D-05 DE=-2.05D-08 OVMax= 1.56D-05

 Cycle  12  Pass 1  IDiag  1:
 RMSU=  1.23D-07    CP:  8.69D-01  4.77D-02  1.09D+00  1.25D+00  1.27D+00
                    CP:  1.28D+00  1.22D+00  1.48D+00  1.20D+00  1.30D+00
                    CP:  1.29D+00
 E= -480.848247974059     Delta-E=       -0.000000001088 Rises=F Damp=F
 DIIS: error= 2.38D-07 at cycle  12 NSaved=  12.
 NSaved=12 IEnMin=12 EnMin= -480.848247974059     IErMin=12 ErrMin= 2.38D-07
 ErrMax= 2.38D-07  0.00D+00 EMaxC= 1.00D-01 BMatC= 9.33D-11 BMatP= 7.82D-10
 IDIUse=1 WtCom= 1.00D+00 WtEn= 0.00D+00
 Coeff-Com:  0.497D-05-0.212D-05-0.426D-04-0.113D-03 0.899D-04 0.586D-03
 Coeff-Com:  0.145D-02-0.325D-02-0.295D-01-0.445D-01 0.226D+00 0.849D+00
 Coeff:      0.497D-05-0.212D-05-0.426D-04-0.113D-03 0.899D-04 0.586D-03
 Coeff:      0.145D-02-0.325D-02-0.295D-01-0.445D-01 0.226D+00 0.849D+00
 Gap=     0.209 Goal=   None    Shift=    0.000
 RMSDP=1.17D-07 MaxDP=1.77D-05 DE=-1.09D-09 OVMax= 6.34D-06

 Cycle  13  Pass 1  IDiag  1:
 RMSU=  3.59D-08    CP:  8.69D-01  4.77D-02  1.09D+00  1.25D+00  1.27D+00
                    CP:  1.28D+00  1.22D+00  1.48D+00  1.21D+00  1.34D+00
                    CP:  1.40D+00  1.24D+00
 E= -480.848247974225     Delta-E=       -0.000000000166 Rises=F Damp=F
 DIIS: error= 6.61D-08 at cycle  13 NSaved=  13.
 NSaved=13 IEnMin=13 EnMin= -480.848247974225     IErMin=13 ErrMin= 6.61D-08
 ErrMax= 6.61D-08  0.00D+00 EMaxC= 1.00D-01 BMatC= 9.46D-12 BMatP= 9.33D-11
 IDIUse=1 WtCom= 1.00D+00 WtEn= 0.00D+00
 Coeff-Com:  0.283D-05-0.388D-05-0.412D-05-0.249D-04 0.657D-04 0.273D-03
 Coeff-Com:  0.706D-03-0.327D-03-0.986D-02-0.197D-01-0.204D-01 0.210D+00
 Coeff-Com:  0.840D+00
 Coeff:      0.283D-05-0.388D-05-0.412D-05-0.249D-04 0.657D-04 0.273D-03
 Coeff:      0.706D-03-0.327D-03-0.986D-02-0.197D-01-0.204D-01 0.210D+00
 Coeff:      0.840D+00
 Gap=     0.209 Goal=   None    Shift=    0.000
 RMSDP=2.05D-08 MaxDP=1.90D-06 DE=-1.66D-10 OVMax= 2.12D-06

 Cycle  14  Pass 1  IDiag  1:
 RMSU=  9.96D-09    CP:  8.69D-01  4.77D-02  1.09D+00  1.25D+00  1.27D+00
                    CP:  1.28D+00  1.22D+00  1.48D+00  1.21D+00  1.34D+00
                    CP:  1.42D+00  1.31D+00  1.20D+00
 E= -480.848247974254     Delta-E=       -0.000000000029 Rises=F Damp=F
 DIIS: error= 3.09D-08 at cycle  14 NSaved=  14.
 NSaved=14 IEnMin=14 EnMin= -480.848247974254     IErMin=14 ErrMin= 3.09D-08
 ErrMax= 3.09D-08  0.00D+00 EMaxC= 1.00D-01 BMatC= 1.39D-12 BMatP= 9.46D-12
 IDIUse=1 WtCom= 1.00D+00 WtEn= 0.00D+00
 Coeff-Com: -0.348D-06 0.183D-06 0.793D-05 0.145D-04 0.799D-05-0.535D-04
 Coeff-Com: -0.444D-04 0.277D-03 0.198D-02 0.228D-02-0.365D-01-0.570D-01
 Coeff-Com:  0.252D+00 0.838D+00
 Coeff:     -0.348D-06 0.183D-06 0.793D-05 0.145D-04 0.799D-05-0.535D-04
 Coeff:     -0.444D-04 0.277D-03 0.198D-02 0.228D-02-0.365D-01-0.570D-01
 Coeff:      0.252D+00 0.838D+00
 Gap=     0.209 Goal=   None    Shift=    0.000
 RMSDP=7.23D-09 MaxDP=6.07D-07 DE=-2.93D-11 OVMax= 8.67D-07

 SCF Done:  E(RM062X) =  -480.848247974     A.U. after   14 cycles
            NFock= 14  Conv=0.72D-08     -V/T= 2.0048
 KE= 4.785502977477D+02 PE=-2.295303914223D+03 EE= 7.488465678427D+02
 Leave Link  502 at Mon Feb 20 00:11:16 2023, MaxMem=  6710886400 cpu:            2512.9 elap:             105.1
 (Enter /data0/home/software/g16/l601.exe)
 Copying SCF densities to generalized density rwf, IOpCl= 0 IROHF=0.

 **********************************************************************

            Population analysis using the SCF density.

 **********************************************************************

 Alpha  occ. eigenvalues --  -19.49334 -19.49305 -14.92716 -10.64857 -10.64688
 Alpha  occ. eigenvalues --  -10.62336 -10.62135 -10.55814 -10.55771 -10.50477
 Alpha  occ. eigenvalues --   -1.17177  -1.08815  -0.98737  -0.91186  -0.89154
 Alpha  occ. eigenvalues --   -0.87914  -0.82490  -0.75402  -0.69536  -0.64114
 Alpha  occ. eigenvalues --   -0.64000  -0.62231  -0.56836  -0.55765  -0.53609
 Alpha  occ. eigenvalues --   -0.52018  -0.51404  -0.51036  -0.50417  -0.49048
 Alpha  occ. eigenvalues --   -0.48105  -0.46194  -0.43461  -0.43281  -0.41846
[...]
 NBasis=   161 RedAO= T EigKep=  6.17D-04  NBF=   161
 NBsUse=   161 1.00D-06 EigRej= -1.00D+00 NBFU=   161
 Precomputing XC quadrature grid using
 IXCGrd= 4 IRadAn=           5 IRanWt=          -1 IRanGd=           0 AccXCQ= 0.00D+00.
 Generated NRdTot=       0 NPtTot=           0 NUsed=           0 NTot=          32
 NSgBfM=   171   171   171   171   171 MxSgAt=     8 MxSgA2=     8.
 Leave Link  302 at Mon Feb 20 00:13:32 2023, MaxMem=  6710886400 cpu:               2.9 elap:               0.1
 (Enter /data0/home/software/g16/l303.exe)
 DipDrv:  MaxL=1.
 Leave Link  303 at Mon Feb 20 00:13:32 2023, MaxMem=  6710886400 cpu:               0.5 elap:               0.0
 (Enter /data0/home/software/g16/l401.exe)
 ExpMin= 3.48D-02 ExpMax= 7.75D+04 ExpMxC= 2.65D+03 IAcc=3 IRadAn=         5 AccDes= 0.00D+00
 Harris functional with IExCor= 1009 and IRadAn=       5 diagonalized for initial guess.
 HarFok:  IExCor= 1009 AccDes= 0.00D+00 IRadAn=         5 IDoV= 1 UseB2=F ITyADJ=14
 ICtDFT=  3500011 ScaDFX=  1.000000  1.000000  1.000000  1.000000
 FoFCou: FMM=F IPFlag=           0 FMFlag=      100000 FMFlg1=           0
         NFxFlg=           0 DoJE=T BraDBF=F KetDBF=T FulRan=T
         wScrn=  0.000000 ICntrl=       500 IOpCl=  0 I1Cent=   200000004 NGrid=           0
         NMat0=    1 NMatS0=      1 NMatT0=    0 NMatD0=    1 NMtDS0=    0 NMtDT0=    0
 Symmetry not used in FoFCou.
 Harris En= -643.936969863564    
 JPrj=0 DoOrth=F DoCkMO=F.
 Leave Link  401 at Mon Feb 20 00:13:32 2023, MaxMem=  6710886400 cpu:               5.9 elap:               0.3
 (Enter /data0/home/software/g16/l502.exe)
 Keep R1 ints in memory in canonical form, NReq=108966253.
 FoFCou: FMM=F IPFlag=           0 FMFlag=           0 FMFlg1=           0
         NFxFlg=           0 DoJE=F BraDBF=F KetDBF=F FulRan=T
         wScrn=  0.000000 ICntrl=       600 IOpCl=  0 I1Cent=           0 NGrid=           0
         NMat0=    1 NMatS0=  13041 NMatT0=    0 NMatD0=    1 NMtDS0=    0 NMtDT0=    0
 Symmetry not used in FoFCou.
 Two-electron integral symmetry not used.
 Closed shell SCF:
 Using DIIS extrapolation, IDIIS=  1040.
 NGot=  6710886400 LenX=  6625781403 LenY=  6625751721
 Requested convergence on RMS density matrix=1.00D-08 within 128 cycles.
 Requested convergence on MAX density matrix=1.00D-06.
 Requested convergence on             energy=1.00D-06.
 No special actions if energy rises.

 Cycle   1  Pass 1  IDiag  1:
 E= -643.838995639523    
 DIIS: error= 5.08D-02 at cycle   1 NSaved=   1.
 NSaved= 1 IEnMin= 1 EnMin= -643.838995639523     IErMin= 1 ErrMin= 5.08D-02
 ErrMax= 5.08D-02  0.00D+00 EMaxC= 1.00D-01 BMatC= 5.12D-01 BMatP= 5.12D-01
 IDIUse=3 WtCom= 4.92D-01 WtEn= 5.08D-01
 Coeff-Com:  0.100D+01
 Coeff-En:   0.100D+01
 Coeff:      0.100D+01
 Gap=     0.227 Goal=   None    Shift=    0.000
 GapD=    0.227 DampG=1.000 DampE=0.500 DampFc=0.5000 IDamp=-1.
 Damping current iteration by 5.00D-01
 RMSDP=8.21D-03 MaxDP=2.43D-01              OVMax= 2.81D-01

 Cycle   2  Pass 1  IDiag  1:
 E= -643.955292309049     Delta-E=       -0.116296669526 Rises=F Damp=T
 DIIS: error= 1.07D-02 at cycle   2 NSaved=   2.
 NSaved= 2 IEnMin= 2 EnMin= -643.955292309049     IErMin= 2 ErrMin= 1.07D-02
 ErrMax= 1.07D-02  0.00D+00 EMaxC= 1.00D-01 BMatC= 2.85D-02 BMatP= 5.12D-01
 IDIUse=3 WtCom= 8.93D-01 WtEn= 1.07D-01
 Coeff-Com:  0.805D-01 0.920D+00
 Coeff-En:   0.218D+00 0.782D+00
 Coeff:      0.951D-01 0.905D+00
 Gap=     0.332 Goal=   None    Shift=    0.000
 RMSDP=2.01D-03 MaxDP=8.05D-02 DE=-1.16D-01 OVMax= 1.86D-01

 Cycle   3  Pass 1  IDiag  1:
 E= -644.127637496900     Delta-E=       -0.172345187851 Rises=F Damp=F
 DIIS: error= 7.33D-03 at cycle   3 NSaved=   3.
 NSaved= 3 IEnMin= 3 EnMin= -644.127637496900     IErMin= 3 ErrMin= 7.33D-03
 ErrMax= 7.33D-03  0.00D+00 EMaxC= 1.00D-01 BMatC= 1.07D-02 BMatP= 2.85D-02
 IDIUse=3 WtCom= 9.27D-01 WtEn= 7.33D-02
 Coeff-Com: -0.109D-01 0.340D+00 0.670D+00
 Coeff-En:   0.000D+00 0.000D+00 0.100D+01
 Coeff:     -0.101D-01 0.316D+00 0.695D+00
 Gap=     0.322 Goal=   None    Shift=    0.000
 RMSDP=6.94D-04 MaxDP=1.53D-02 DE=-1.72D-01 OVMax= 3.61D-02

 Cycle   4  Pass 1  IDiag  1:
 E= -644.132448338235     Delta-E=       -0.004810841335 Rises=F Damp=F
 DIIS: error= 4.45D-03 at cycle   4 NSaved=   4.
 NSaved= 4 IEnMin= 4 EnMin= -644.132448338235     IErMin= 4 ErrMin= 4.45D-03
 ErrMax= 4.45D-03  0.00D+00 EMaxC= 1.00D-01 BMatC= 4.13D-03 BMatP= 1.07D-02
 IDIUse=3 WtCom= 9.56D-01 WtEn= 4.45D-02
 Coeff-Com: -0.206D-01 0.467D-01 0.403D+00 0.571D+00
 Coeff-En:   0.000D+00 0.000D+00 0.279D+00 0.721D+00
 Coeff:     -0.197D-01 0.446D-01 0.398D+00 0.578D+00
 Gap=     0.328 Goal=   None    Shift=    0.000
 RMSDP=2.75D-04 MaxDP=6.36D-03 DE=-4.81D-03 OVMax= 1.17D-02

 Cycle   5  Pass 1  IDiag  1:
 E= -644.135185758440     Delta-E=       -0.002737420205 Rises=F Damp=F
 DIIS: error= 2.54D-04 at cycle   5 NSaved=   5.
 NSaved= 5 IEnMin= 5 EnMin= -644.135185758440     IErMin= 5 ErrMin= 2.54D-04
 ErrMax= 2.54D-04  0.00D+00 EMaxC= 1.00D-01 BMatC= 1.76D-05 BMatP= 4.13D-03
 IDIUse=3 WtCom= 9.97D-01 WtEn= 2.54D-03
 Coeff-Com: -0.221D-02-0.535D-03 0.562D-01 0.118D+00 0.829D+00
 Coeff-En:   0.000D+00 0.000D+00 0.000D+00 0.000D+00 0.100D+01
 Coeff:     -0.221D-02-0.533D-03 0.561D-01 0.117D+00 0.829D+00
 Gap=     0.327 Goal=   None    Shift=    0.000
 RMSDP=3.02D-05 MaxDP=7.31D-04 DE=-2.74D-03 OVMax= 8.13D-04

 Cycle   6  Pass 1  IDiag  1:
 E= -644.135197348524     Delta-E=       -0.000011590084 Rises=F Damp=F
 DIIS: error= 8.79D-05 at cycle   6 NSaved=   6.
 NSaved= 6 IEnMin= 6 EnMin= -644.135197348524     IErMin= 6 ErrMin= 8.79D-05
 ErrMax= 8.79D-05  0.00D+00 EMaxC= 1.00D-01 BMatC= 1.77D-06 BMatP= 1.76D-05
 IDIUse=1 WtCom= 1.00D+00 WtEn= 0.00D+00
 Coeff-Com: -0.849D-05-0.179D-02 0.343D-02 0.158D-01 0.266D+00 0.717D+00
 Coeff:     -0.849D-05-0.179D-02 0.343D-02 0.158D-01 0.266D+00 0.717D+00
 Gap=     0.327 Goal=   None    Shift=    0.000
 RMSDP=1.13D-05 MaxDP=3.06D-04 DE=-1.16D-05 OVMax= 3.07D-04

 Cycle   7  Pass 1  IDiag  1:
 E= -644.135198501755     Delta-E=       -0.000001153231 Rises=F Damp=F
 DIIS: error= 4.71D-05 at cycle   7 NSaved=   7.
 NSaved= 7 IEnMin= 7 EnMin= -644.135198501755     IErMin= 7 ErrMin= 4.71D-05
 ErrMax= 4.71D-05  0.00D+00 EMaxC= 1.00D-01 BMatC= 4.11D-07 BMatP= 1.77D-06
 IDIUse=1 WtCom= 1.00D+00 WtEn= 0.00D+00
 Coeff-Com:  0.384D-03-0.653D-03-0.908D-02-0.146D-01-0.238D-01 0.323D+00
 Coeff-Com:  0.725D+00
 Coeff:      0.384D-03-0.653D-03-0.908D-02-0.146D-01-0.238D-01 0.323D+00
 Coeff:      0.725D+00
 Gap=     0.327 Goal=   None    Shift=    0.000
 RMSDP=4.88D-06 MaxDP=1.02D-04 DE=-1.15D-06 OVMax= 1.34D-04

 Cycle   8  Pass 1  IDiag  1:
 E= -644.135198788706     Delta-E=       -0.000000286951 Rises=F Damp=F
 DIIS: error= 1.05D-05 at cycle   8 NSaved=   8.
 NSaved= 8 IEnMin= 8 EnMin= -644.135198788706     IErMin= 8 ErrMin= 1.05D-05
 ErrMax= 1.05D-05  0.00D+00 EMaxC= 1.00D-01 BMatC= 2.95D-08 BMatP= 4.11D-07
 IDIUse=1 WtCom= 1.00D+00 WtEn= 0.00D+00
 Coeff-Com:  0.137D-03-0.162D-03-0.375D-02-0.605D-02-0.172D-01 0.903D-01
 Coeff-Com:  0.296D+00 0.640D+00
 Coeff:      0.137D-03-0.162D-03-0.375D-02-0.605D-02-0.172D-01 0.903D-01
 Coeff:      0.296D+00 0.640D+00
 Gap=     0.327 Goal=   None    Shift=    0.000
 RMSDP=8.87D-07 MaxDP=2.74D-05 DE=-2.87D-07 OVMax= 3.61D-05

 Cycle   9  Pass 1  IDiag  1:
 E= -644.135198811872     Delta-E=       -0.000000023166 Rises=F Damp=F
 DIIS: error= 1.90D-06 at cycle   9 NSaved=   9.
 NSaved= 9 IEnMin= 9 EnMin= -644.135198811872     IErMin= 9 ErrMin= 1.90D-06
 ErrMax= 1.90D-06  0.00D+00 EMaxC= 1.00D-01 BMatC= 9.84D-10 BMatP= 2.95D-08
 IDIUse=1 WtCom= 1.00D+00 WtEn= 0.00D+00
 Coeff-Com: -0.279D-04 0.553D-04 0.274D-03 0.604D-03-0.792D-03-0.195D-01
 Coeff-Com: -0.299D-01 0.775D-01 0.972D+00
 Coeff:     -0.279D-04 0.553D-04 0.274D-03 0.604D-03-0.792D-03-0.195D-01
 Coeff:     -0.299D-01 0.775D-01 0.972D+00
 Gap=     0.327 Goal=   None    Shift=    0.000
 RMSDP=3.95D-07 MaxDP=1.00D-05 DE=-2.32D-08 OVMax= 1.42D-05

 Cycle  10  Pass 1  IDiag  1:
 E= -644.135198813134     Delta-E=       -0.000000001262 Rises=F Damp=F
 DIIS: error= 3.02D-07 at cycle  10 NSaved=  10.
 NSaved=10 IEnMin=10 EnMin= -644.135198813134     IErMin=10 ErrMin= 3.02D-07
 ErrMax= 3.02D-07  0.00D+00 EMaxC= 1.00D-01 BMatC= 1.61D-11 BMatP= 9.84D-10
 IDIUse=1 WtCom= 1.00D+00 WtEn= 0.00D+00
 Coeff-Com: -0.170D-05 0.225D-05 0.964D-04 0.149D-03 0.546D-03-0.283D-02
 Coeff-Com: -0.108D-01-0.221D-01-0.189D-01 0.105D+01
 Coeff:     -0.170D-05 0.225D-05 0.964D-04 0.149D-03 0.546D-03-0.283D-02
 Coeff:     -0.108D-01-0.221D-01-0.189D-01 0.105D+01
 Gap=     0.327 Goal=   None    Shift=    0.000
 RMSDP=8.10D-08 MaxDP=1.67D-06 DE=-1.26D-09 OVMax= 3.90D-06

 Cycle  11  Pass 1  IDiag  1:
 E= -644.135198813171     Delta-E=       -0.000000000036 Rises=F Damp=F
 DIIS: error= 5.73D-08 at cycle  11 NSaved=  11.
 NSaved=11 IEnMin=11 EnMin= -644.135198813171     IErMin=11 ErrMin= 5.73D-08
 ErrMax= 5.73D-08  0.00D+00 EMaxC= 1.00D-01 BMatC= 1.05D-12 BMatP= 1.61D-11
 IDIUse=1 WtCom= 1.00D+00 WtEn= 0.00D+00
 Coeff-Com:  0.123D-05-0.236D-05-0.228D-05-0.111D-04 0.698D-04 0.495D-03
 Coeff-Com:  0.507D-03-0.414D-02-0.441D-01 0.101D+00 0.946D+00
 Coeff:      0.123D-05-0.236D-05-0.228D-05-0.111D-04 0.698D-04 0.495D-03
 Coeff:      0.507D-03-0.414D-02-0.441D-01 0.101D+00 0.946D+00
 Gap=     0.327 Goal=   None    Shift=    0.000
 RMSDP=1.72D-08 MaxDP=3.67D-07 DE=-3.64D-11 OVMax= 7.94D-07

 Cycle  12  Pass 1  IDiag  1:
 E= -644.135198813169     Delta-E=        0.000000000002 Rises=F Damp=F
 DIIS: error= 2.23D-08 at cycle  12 NSaved=  12.
 NSaved=12 IEnMin=11 EnMin= -644.135198813171     IErMin=12 ErrMin= 2.23D-08
 ErrMax= 2.23D-08  0.00D+00 EMaxC= 1.00D-01 BMatC= 1.25D-13 BMatP= 1.05D-12
 IDIUse=1 WtCom= 1.00D+00 WtEn= 0.00D+00
 Coeff-Com:  0.289D-06-0.562D-06-0.514D-05-0.851D-05-0.112D-04 0.270D-03
 Coeff-Com:  0.767D-03 0.421D-03-0.789D-02-0.414D-01 0.212D+00 0.836D+00
 Coeff:      0.289D-06-0.562D-06-0.514D-05-0.851D-05-0.112D-04 0.270D-03
 Coeff:      0.767D-03 0.421D-03-0.789D-02-0.414D-01 0.212D+00 0.836D+00
 Gap=     0.327 Goal=   None    Shift=    0.000
 RMSDP=4.29D-09 MaxDP=8.48D-08 DE= 1.59D-12 OVMax= 1.69D-07

 SCF Done:  E(RM062X) =  -644.135198813     A.U. after   12 cycles
            NFock= 12  Conv=0.43D-08     -V/T= 2.0026
 KE= 6.424857075501D+02 PE=-2.087200290222D+03 EE= 5.207796220176D+02
 Leave Link  502 at Mon Feb 20 00:13:38 2023, MaxMem=  6710886400 cpu:             102.8 elap:               6.0
 (Enter /data0/home/software/g16/l601.exe)
 Copying SCF densities to generalized density rwf, IOpCl= 0 IROHF=0.

 **********************************************************************

            Population analysis using the SCF density.

 **********************************************************************

 Alpha  occ. eigenvalues --  -78.16835 -19.69493 -19.69393 -19.68146 -19.57912
 Alpha  occ. eigenvalues --   -6.97627  -5.09542  -5.09532  -5.09280  -1.24633
 Alpha  occ. eigenvalues --   -1.17364  -1.16832  -1.08176  -0.72689  -0.65696
 Alpha  occ. eigenvalues --   -0.63791  -0.59023  -0.53254  -0.52017  -0.50098
 Alpha  occ. eigenvalues --   -0.46390  -0.45296  -0.45037  -0.37763  -0.36773
 Alpha virt. eigenvalues --   -0.04055   0.00887   0.02803   0.04643   0.08126
 Alpha virt. eigenvalues --    0.08966   0.10570   0.12732   0.15792   0.17237
 Alpha virt. eigenvalues --    0.17524   0.18455   0.19477   0.19963   0.21337
 Alpha virt. eigenvalues --    0.22358   0.24230   0.25689   0.25892   0.27459
 Alpha virt. eigenvalues --    0.28010   0.28843   0.30214   0.31990   0.33292
 Alpha virt. eigenvalues --    0.34285   0.36549   0.38281   0.40363   0.42770
 Alpha virt. eigenvalues --    0.44067   0.44910   0.52072   0.55878   0.57312
 Alpha virt. eigenvalues --    0.73499   0.76140   0.76497   0.85848   0.97779
 Alpha virt. eigenvalues --    0.99893   1.00303   1.05213   1.05778   1.11771
 Alpha virt. eigenvalues --    1.14008   1.14890   1.18677   1.19556   1.20163
 Alpha virt. eigenvalues --    1.21672   1.22723   1.26259   1.26591   1.32341
 Alpha virt. eigenvalues --    1.32916   1.42102   1.42926   1.50065   1.51738
 Alpha virt. eigenvalues --    1.52664   1.54977   1.57785   1.59517   1.64038
 Alpha virt. eigenvalues --    1.66121   1.67287   1.70231   1.72925   1.82614
 Alpha virt. eigenvalues --    1.83366   1.84671   1.87024   1.89460   1.96800
 Alpha virt. eigenvalues --    1.99169   2.04095   2.09619   2.11918   2.13566
 Alpha virt. eigenvalues --    2.17869   2.21780   2.25426   2.36845   2.42627
 Alpha virt. eigenvalues --    2.44792   2.56428   2.61761   2.61940   2.70509
 Alpha virt. eigenvalues --    2.73054   2.80728   2.86457   2.89684   2.94373
 Alpha virt. eigenvalues --    5.01033   5.03354   5.06023   5.06387   5.10671
 Alpha virt. eigenvalues --    5.13528   5.17271   5.23537   5.34883   5.43106
 Alpha virt. eigenvalues --    5.44443   5.51398   6.71591   6.73940   6.75042
 Alpha virt. eigenvalues --    6.76784   6.79165   6.80464   6.82706   6.85114
 Alpha virt. eigenvalues --    6.91582   6.92657   6.94225   6.98175   7.00001
 Alpha virt. eigenvalues --    7.00758   7.10833   7.24646   7.26060   7.27716
 Alpha virt. eigenvalues --    7.31624   7.40303   7.64174  14.23605  14.23717
 Alpha virt. eigenvalues --   14.33688  49.97483  49.98916  50.00470  50.10459
 Alpha virt. eigenvalues --  163.85558
          Condensed to atoms (all electrons):
              26         27         28         29         30         31
    26  P   12.481191   0.552937   0.227510  -0.001208   0.172430   0.044302
    27  O    0.552937   8.144827  -0.009205  -0.015888  -0.035183   0.002118
    28  O    0.227510  -0.009205   8.057731   0.257912   0.006971  -0.012938
    29  H   -0.001208  -0.015888   0.257912   0.451185   0.000119   0.001612
    30  O    0.172430  -0.035183   0.006971   0.000119   8.113797   0.220569
    31  H    0.044302   0.002118  -0.012938   0.001612   0.220569   0.452691
    32  O    0.234085  -0.005236   0.036690  -0.004155   0.005563  -0.013107
    33  H    0.002626  -0.014630  -0.002533  -0.003703  -0.000314   0.001826
              32         33
    26  P    0.234085   0.002626
    27  O   -0.005236  -0.014630
    28  O    0.036690  -0.002533
    29  H   -0.004155  -0.003703
    30  O    0.005563  -0.000314
    31  H   -0.013107   0.001826
    32  O    8.042392   0.251979
    33  H    0.251979   0.453890
 Mulliken charges:
               1
     1  C    0.000000
     2  H    0.000000
     3  H    0.000000
     4  H    0.000000
     5  C    0.000000
     6  H    0.000000
     7  H    0.000000
     8  H    0.000000
     9  C    0.000000
    10  H    0.000000
    11  H    0.000000
    12  H    0.000000
    13  C    0.000000
    14  H    0.000000
    15  H    0.000000
    16  C    0.000000
    17  H    0.000000
    18  H    0.000000
    19  C    0.000000
    20  H    0.000000
    21  H    0.000000
    22  N    0.000000
    23  C    0.000000
    24  O    0.000000
    25  O    0.000000
    26  P    1.286126
    27  O   -0.619739
    28  O   -0.562138
    29  H    0.314127
    30  O   -0.483952
    31  H    0.302927
    32  O   -0.548211
    33  H    0.310860
 Sum of Mulliken charges =  -0.00000
 Mulliken charges with hydrogens summed into heavy atoms:
               1
     1  C    0.000000
     5  C    0.000000
     9  C    0.000000
    13  C    0.000000
    16  C    0.000000
    19  C    0.000000
    22  N    0.000000
    23  C    0.000000
    24  O    0.000000
    25  O    0.000000
    26  P    1.286126
    27  O   -0.619739
    28  O   -0.248011
    30  O   -0.181025
    32  O   -0.237351
         Mulliken charges condensed to fragments:
      1      0.000000
      2     -0.000000
 Electronic spatial extent (au):  <R**2>=          77303.9711
 Charge=             -0.0000 electrons
 Dipole moment (field-independent basis, Debye):
    X=              0.8115    Y=              4.9100    Z=              2.7026  Tot=              5.6631
 Quadrupole moment (field-independent basis, Debye-Ang):
   XX=             -8.2088   YY=             58.8339   ZZ=            -14.3119
   XY=             96.2407   XZ=             51.4485   YZ=             39.1224
 Traceless Quadrupole moment (field-independent basis, Debye-Ang):
   XX=            -20.3131   YY=             46.7295   ZZ=            -26.4163
   XY=             96.2407   XZ=             51.4485   YZ=             39.1224
 Octapole moment (field-independent basis, Debye-Ang**2):
  XXX=          -1233.7733  YYY=            300.4143  ZZZ=           -122.5895  XYY=           1135.3152
  XXY=           1497.1089  XXZ=            896.7797  XZZ=           -247.2278  YZZ=           -100.8744
  YYZ=            417.4889  XYZ=            730.7559
 Hexadecapole moment (field-independent basis, Debye-Ang**3):
 XXXX=         -54103.1259 YYYY=          -3815.5534 ZZZZ=           -673.3189 XXXY=          15915.6301
 XXXZ=          14180.6935 YYYX=           6148.5552 YYYZ=           3506.2181 ZZZX=          -2169.0323
 ZZZY=          -1065.0397 XXYY=          17961.8491 XXZZ=          -4471.3079 YYZZ=           -852.8427
 XXYZ=          12832.6237 YYXZ=           7764.4381 ZZXY=          -1717.7623
 N-N= 2.797997618410D+02 E-N=-2.087200291007D+03  KE= 6.424857075501D+02
 No NMR shielding tensors so no spin-rotation constants.
 Leave Link  601 at Mon Feb 20 00:13:38 2023, MaxMem=  6710886400 cpu:               2.1 elap:               0.1
 (Enter /data0/home/software/g16/l122.exe)
 CPIOFr:  IOpCl= 0 IRwI=-1 IRwCP=  731 ICalc=  4 LCPTot=      418338 Len1MO=     1096859 IndFrg=     5902633
 Restoring MOs from calculation   1 to rwf.
 CPIOFr:  IOpCl= 0 IRwI=-2 IRwCP=  731 ICalc=  0 LCPTot=      418338 Len1MO=     1096859 IndFrg=     1515197
 Counterpoise corrected energy =   -1125.085100891081
                   BSSE energy =       0.002546170588
              sum of fragments =   -1124.982608891824
           complexation energy =     -65.91 kcal/mole (raw)
           complexation energy =     -64.31 kcal/mole (corrected)
 Leave Link  122 at Mon Feb 20 00:13:38 2023, MaxMem=  6710886400 cpu:               0.4 elap:               0.0
 (Enter /data0/home/software/g16/l9999.exe)
 1\1\GINC-LOCALHOST\SP\RM062X\6-311+G(2d,p)\C7H18N1O6P1\WUHANYU\20-Feb-
 2023\0\\#p M062X/6-311+G(2d,p) nosymm em=GD3 counterpoise=2\\Title Car
 d Required\\0,1\C,0,16.967287,6.216146,4.124881\H,0,17.394386,5.534842
 ,3.372155\H,0,16.055919,5.768556,4.54311\H,0,16.664324,7.1384,3.565767
 \C,0,18.217966,5.318208,6.021801\H,0,18.639532,4.508746,5.402068\H,0,1
 8.939994,5.529787,6.833079\H,0,17.290437,4.948861,6.487439\C,0,19.2583
 13,6.994536,4.571056\H,0,19.334945,8.107945,4.540024\H,0,20.142658,6.6
 50343,5.131957\H,0,19.3452,6.66788,3.520586\C,0,17.358414,7.637505,6.0
 73509\H,0,16.415911,7.255994,6.51702\H,0,17.052737,8.478905,5.390778\C
 ,0,18.302116,8.144619,7.170363\H,0,19.36749,7.920393,6.934984\H,0,18.1
 01994,7.627006,8.126652\C,0,18.164007,9.656194,7.36625\H,0,18.945811,1
 0.032441,8.050894\H,0,17.192243,9.918179,7.821258\N,0,17.966855,6.5498
 38,5.198936\C,0,18.305793,10.374112,6.013683\O,0,17.286132,10.894144,5
 .543806\O,0,19.427762,10.327484,5.455567\P,0,18.008485,9.937255,2.2871
 74\O,0,17.853772,8.50126,2.562932\O,0,19.394562,10.562891,2.735957\H,0
 ,19.438888,10.552152,3.803872\O,0,17.965335,10.19414,0.714489\H,0,18.0
 84328,11.21166,0.571911\O,0,16.870053,10.878409,2.856066\H,0,17.012818
 ,10.972468,3.912939\\Version=ES64L-G16RevA.03\HF=-644.1351988\RMSD=4.2
 85e-09\Dipole=-0.2055242,-4.1340597,2.0735955\Quadrupole=18.189194,-89
 .572894,71.3837,-143.7442272,67.9178425,-10.2443354\PG=C01 [X(C7H18N1O
 6P1)]\\@


 THE ONLY DIFFERENCE BETWEEN ECCENTRICS AND JOGGERS
 IS THAT JOGGERS WEAR SWEATBANDS WHEN THEY RUN IN THE RAIN.
 Job cpu time:       0 days  2 hours 23 minutes 36.7 seconds.
 Elapsed time:       0 days  0 hours  6 minutes  2.7 seconds.
 File lengths (MBytes):  RWF=    206 Int=      0 D2E=      0 Chk=     61 Scr=      1
 Normal termination of Gaussian 16 at Mon Feb 20 00:13:38 2023.
