 Entering Gaussian System, Link 0=g16
 Initial command:
 /data0/home/software/g16/l1.exe "/data0/home/software/g16/scratch/Gau-2527694.inp" -scrdir="/data0/home/software/g16/scratch/"
 Default is to use a total of  22 processors:
                               22 via shared-memory
                                1 via Linda
 Entering Link 1 = /data0/home/software/g16/l1.exe PID=   2527695.
  
 Copyright (c) 1988,1990,1992,1993,1995,1998,2003,2009,2016,
            Gaussian, Inc.  All Rights Reserved.
  
 This is part of the Gaussian(R) 16 program.  It is based on
 the Gaussian(R) 09 system (copyright 2009, Gaussian, Inc.),
 the Gaussian(R) 03 system (copyright 2003, Gaussian, Inc.),
 the Gaussian(R) 98 system (copyright 1998, Gaussian, Inc.),
 the Gaussian(R) 94 system (copyright 1995, Gaussian, Inc.),
 the Gaussian 92(TM) system (copyright 1992, Gaussian, Inc.),
 the Gaussian 90(TM) system (copyright 1990, Gaussian, Inc.),
 the Gaussian 88(TM) system (copyright 1988, Gaussian, Inc.),
 the Gaussian 86(TM) system (copyright 1986, Carnegie Mellon
 University), and the Gaussian 82(TM) system (copyright 1983,
 Carnegie Mellon University). Gaussian is a federally registered
 trademark of Gaussian, Inc.
  
 This software contains proprietary and confidential information,
 including trade secrets, belonging to Gaussian, Inc.
  
 This software is provided under written license and may be
 used, copied, transmitted, or stored only in accord with that
 written license.
  
 The following legend is applicable only to US Government
 contracts under FAR:
  
                    RESTRICTED RIGHTS LEGEND
  
 Use, reproduction and disclosure by the US Government is
 subject to restrictions as set forth in subparagraphs (a)
 and (c) of the Commercial Computer Software - Restricted
 Rights clause in FAR 52.227-19.
  
 Gaussian, Inc.
 340 Quinnipiac St., Bldg. 40, Wallingford CT 06492
  
  
 ---------------------------------------------------------------
 Warning -- This program may not be used in any manner that
 competes with the business of Gaussian, Inc. or will provide
 assistance to any competitor of Gaussian, Inc.  The licensee
 of this program is prohibited from giving any competitor of
 Gaussian, Inc. access to this program.  By using this program,
 the user acknowledges that Gaussian, Inc. is engaged in the
 business of creating and licensing software in the field of
 computational chemistry and represents and warrants to the
 licensee that it is not a competitor of Gaussian, Inc. and that
 it will not use this program in any manner prohibited above.
 ---------------------------------------------------------------
  

 Cite this work as:
 Gaussian 16, Revision A.03,
 M. J. Frisch, G. W. Trucks, H. B. Schlegel, G. E. Scuseria, 
 M. A. Robb, J. R. Cheeseman, G. Scalmani, V. Barone, 
 G. A. Petersson, H. Nakatsuji, X. Li, M. Caricato, A. V. Marenich, 
 J. Bloino, B. G. Janesko, R. Gomperts, B. Mennucci, H. P. Hratchian, 
 J. V. Ortiz, A. F. Izmaylov, J. L. Sonnenberg, D. Williams-Young, 
 F. Ding, F. Lipparini, F. Egidi, J. Goings, B. Peng, A. Petrone, 
 T. Henderson, D. Ranasinghe, V. G. Zakrzewski, J. Gao, N. Rega, 
 G. Zheng, W. Liang, M. Hada, M. Ehara, K. Toyota, R. Fukuda, 
 J. Hasegawa, M. Ishida, T. Nakajima, Y. Honda, O. Kitao, H. Nakai, 
 T. Vreven, K. Throssell, J. A. Montgomery, Jr., J. E. Peralta, 
 F. Ogliaro, M. J. Bearpark, J. J. Heyd, E. N. Brothers, K. N. Kudin, 
 V. N. Staroverov, T. A. Keith, R. Kobayashi, J. Normand, 
 K. Raghavachari, A. P. Rendell, J. C. Burant, S. S. Iyengar, 
 J. Tomasi, M. Cossi, J. M. Millam, M. Klene, C. Adamo, R. Cammi, 
 J. W. Ochterski, R. L. Martin, K. Morokuma, O. Farkas, 
 J. B. Foresman, and D. J. Fox, Gaussian, Inc., Wallingford CT, 2016.
 
 ******************************************
 Gaussian 16:  ES64L-G16RevA.03 25-Dec-2016
                11-Oct-2023 
 ******************************************
 %mem=50GB
 %nprocshared=24
 Will use up to   24 processors via shared memory.
 ---------------
 #p M052X/6-31G*
 ---------------
 1/38=1,172=1/1;
 2/12=2,17=6,18=5,40=1/2;
 3/5=1,6=6,7=1,11=2,25=1,30=1,74=-38/1,2,3;
 4//1;
 5/5=2,38=5/2;
 6/7=2,8=2,9=2,10=2,28=1/1;
 99/5=1,9=1/99;
 Leave Link    1 at Wed Oct 11 20:25:47 2023, MaxMem=  6710886400 cpu:               0.6 elap:               0.0
 (Enter /data0/home/software/g16/l101.exe)
 -------------------
 Title Card Required
 -------------------
 Symbolic Z-matrix:
 Charge =  0 Multiplicity = 1
 C                    -2.28336  -0.86299  -0.95431 
 H                    -2.98545  -1.50074  -0.421 
 H                    -2.8216   -0.16172  -1.5887 
 H                    -1.6055   -1.46744  -1.55173 
 C                    -2.36637   0.71154   0.90985 
 H                    -3.03154   0.04313   1.45264 
 H                    -1.76059   1.27619   1.6125 
 H                    -2.94449   1.39245   0.28801 
 C                    -0.71507  -1.10005   0.88541 
 H                    -0.04743  -1.66549   0.23594 
 H                    -0.10595  -0.57889   1.61603 
 H                    -1.45557  -1.72902   1.37628 
 C                    -0.54005   0.82631  -0.75987 
 H                    -1.22145   1.49722  -1.28353 
 H                    -0.02893   0.16699  -1.46206 
 C                     0.51227   1.58907   0.0561 
 H                     0.36146   1.44755   1.12942 
 H                     0.39099   2.65949  -0.12748 
 C                     1.93983   1.12709  -0.29322 
 H                     2.65066   1.65225   0.34478 
 H                     2.15371   1.35782  -1.33949 
 N                    -1.46672  -0.09941   0.03925 
 C                     2.01405  -0.39974  -0.05195 
 O                     2.32387  -0.76653   1.09705 
 O                     1.595    -1.11364  -1.01061 
 
 ITRead=  0  0  0  0  0  0  0  0  0  0  0  0  0  0  0  0  0  0  0  0
 ITRead=  0  0  0  0  0
 MicOpt= -1 -1 -1 -1 -1 -1 -1 -1 -1 -1 -1 -1 -1 -1 -1 -1 -1 -1 -1 -1
 MicOpt= -1 -1 -1 -1 -1
 NAtoms=     25 NQM=       25 NQMF=       0 NMMI=      0 NMMIF=      0
                NMic=       0 NMicF=      0.
                    Isotopes and Nuclear Properties:
 (Nuclear quadrupole moments (NQMom) in fm**2, nuclear magnetic moments (NMagM)
  in nuclear magnetons)

  Atom         1           2           3           4           5           6           7           8           9          10
 IAtWgt=          12           1           1           1          12           1           1           1          12           1
 AtmWgt=  12.0000000   1.0078250   1.0078250   1.0078250  12.0000000   1.0078250   1.0078250   1.0078250  12.0000000   1.0078250
 NucSpn=           0           1           1           1           0           1           1           1           0           1
 AtZEff=  -0.0000000  -0.0000000  -0.0000000  -0.0000000  -0.0000000  -0.0000000  -0.0000000  -0.0000000  -0.0000000  -0.0000000
 NQMom=    0.0000000   0.0000000   0.0000000   0.0000000   0.0000000   0.0000000   0.0000000   0.0000000   0.0000000   0.0000000
 NMagM=    0.0000000   2.7928460   2.7928460   2.7928460   0.0000000   2.7928460   2.7928460   2.7928460   0.0000000   2.7928460
 AtZNuc=   6.0000000   1.0000000   1.0000000   1.0000000   6.0000000   1.0000000   1.0000000   1.0000000   6.0000000   1.0000000

  Atom        11          12          13          14          15          16          17          18          19          20
 IAtWgt=           1           1          12           1           1          12           1           1          12           1
 AtmWgt=   1.0078250   1.0078250  12.0000000   1.0078250   1.0078250  12.0000000   1.0078250   1.0078250  12.0000000   1.0078250
 NucSpn=           1           1           0           1           1           0           1           1           0           1
 AtZEff=  -0.0000000  -0.0000000  -0.0000000  -0.0000000  -0.0000000  -0.0000000  -0.0000000  -0.0000000  -0.0000000  -0.0000000
 NQMom=    0.0000000   0.0000000   0.0000000   0.0000000   0.0000000   0.0000000   0.0000000   0.0000000   0.0000000   0.0000000
 NMagM=    2.7928460   2.7928460   0.0000000   2.7928460   2.7928460   0.0000000   2.7928460   2.7928460   0.0000000   2.7928460
 AtZNuc=   1.0000000   1.0000000   6.0000000   1.0000000   1.0000000   6.0000000   1.0000000   1.0000000   6.0000000   1.0000000

  Atom        21          22          23          24          25
 IAtWgt=           1          14          12          16          16
 AtmWgt=   1.0078250  14.0030740  12.0000000  15.9949146  15.9949146
 NucSpn=           1           2           0           0           0
 AtZEff=  -0.0000000  -0.0000000  -0.0000000  -0.0000000  -0.0000000
 NQMom=    0.0000000   2.0440000   0.0000000   0.0000000   0.0000000
 NMagM=    2.7928460   0.4037610   0.0000000   0.0000000   0.0000000
 AtZNuc=   1.0000000   7.0000000   6.0000000   8.0000000   8.0000000
 Leave Link  101 at Wed Oct 11 20:25:48 2023, MaxMem=  6710886400 cpu:               2.1 elap:               0.1
 (Enter /data0/home/software/g16/l202.exe)
                          Input orientation:                          
 ---------------------------------------------------------------------
 Center     Atomic      Atomic             Coordinates (Angstroms)
 Number     Number       Type             X           Y           Z
 ---------------------------------------------------------------------
      1          6           0       -2.283355   -0.862994   -0.954306
      2          1           0       -2.985448   -1.500743   -0.421000
      3          1           0       -2.821601   -0.161715   -1.588701
      4          1           0       -1.605503   -1.467439   -1.551725
      5          6           0       -2.366374    0.711542    0.909847
      6          1           0       -3.031545    0.043125    1.452637
      7          1           0       -1.760588    1.276188    1.612497
      8          1           0       -2.944489    1.392450    0.288006
      9          6           0       -0.715070   -1.100045    0.885412
     10          1           0       -0.047428   -1.665493    0.235944
     11          1           0       -0.105945   -0.578890    1.616031
     12          1           0       -1.455574   -1.729017    1.376283
     13          6           0       -0.540053    0.826314   -0.759869
     14          1           0       -1.221448    1.497216   -1.283527
     15          1           0       -0.028925    0.166989   -1.462058
     16          6           0        0.512274    1.589068    0.056096
     17          1           0        0.361457    1.447552    1.129423
     18          1           0        0.390993    2.659489   -0.127477
     19          6           0        1.939831    1.127092   -0.293215
     20          1           0        2.650655    1.652246    0.344781
     21          1           0        2.153707    1.357824   -1.339489
     22          7           0       -1.466721   -0.099407    0.039251
     23          6           0        2.014051   -0.399738   -0.051945
     24          8           0        2.323867   -0.766534    1.097045
     25          8           0        1.594997   -1.113637   -1.010607
 ---------------------------------------------------------------------
                    Distance matrix (angstroms):
                    1          2          3          4          5
     1  C    0.000000
     2  H    1.088151   0.000000
     3  H    1.088098   1.784199   0.000000
     4  H    1.087082   1.784348   1.784706   0.000000
     5  C    2.441541   2.654922   2.685619   3.374347   0.000000
     6  H    2.678472   2.428203   3.055450   3.652614   1.088051
     7  H    3.381991   3.653319   3.666195   4.190924   1.086057
     8  H    2.658470   2.979083   2.439787   3.654649   1.088365
     9  C    2.429048   2.649884   3.382184   2.620589   2.451377
    10  H    2.657079   3.015075   3.645094   2.379618   3.388503
    11  H    3.380601   3.645661   4.221271   3.615643   2.696933
    12  H    2.620470   2.371255   3.621270   2.943490   2.646403
    13  C    2.435297   3.392637   2.620806   2.650193   2.477211
    14  H    2.608951   3.583770   2.325010   3.001434   2.595964
    15  H    2.530046   3.550515   2.814804   2.272662   3.374335
    16  C    3.853448   4.691334   4.109175   4.051210   3.128187
    17  H    4.083574   4.722079   4.484395   4.422065   2.833899
    18  H    4.499297   5.366008   4.518310   4.800626   3.531800
    19  C    4.715165   5.583925   5.100053   4.569993   4.490372
    20  H    5.688454   6.503339   6.080657   5.607499   5.135641
    21  H    4.976738   5.951970   5.208147   4.707315   5.090022
    22  N    1.495698   2.117098   2.118917   2.102850   1.491627
    23  C    4.415491   5.132583   5.079548   4.060849   4.620402
    24  O    5.044189   5.570669   5.835656   4.790323   4.921190
    25  O    3.886850   4.634432   4.554853   3.265147   4.765698
                    6          7          8          9         10
     6  H    0.000000
     7  H    1.778013   0.000000
     8  H    1.784551   1.780285   0.000000
     9  C    2.644738   2.695968   3.397018   0.000000
    10  H    3.647557   3.671962   4.212682   1.089627   0.000000
    11  H    2.995452   2.485794   3.702319   1.084638   1.757490
    12  H    2.372762   3.029866   3.625572   1.088534   1.813087
    13  C    3.422879   2.705589   2.683256   2.539378   2.728264
    14  H    3.588513   2.954062   2.334430   3.421473   3.699979
    15  H    4.186468   3.698901   3.614553   2.754412   2.498308
    16  C    4.110830   2.772396   3.470108   3.070092   3.307231
    17  H    3.686373   2.183071   3.411788   2.776455   3.264436
    18  H    4.588669   3.093595   3.592138   4.047643   4.362311
    19  C    5.379365   4.164981   4.925933   3.660301   3.468103
    20  H    6.008661   4.605170   5.601460   4.381266   4.277720
    21  H    6.034173   4.903324   5.351779   4.384197   4.058008
    22  N    2.113445   2.110384   2.114548   1.510710   2.122665
    23  C    5.283742   4.452751   5.283429   2.969372   2.436126
    24  O    5.427931   4.595778   5.750768   3.064499   2.678183
    25  O    5.367547   4.883840   5.345447   2.988559   2.134478
                   11         12         13         14         15
    11  H    0.000000
    12  H    1.789349   0.000000
    13  C    2.794271   3.454134   0.000000
    14  H    3.736576   4.187838   1.090241   0.000000
    15  H    3.168107   3.699506   1.090427   1.795408   0.000000
    16  C    2.741466   4.077378   1.534596   2.192902   2.149418
    17  H    2.135818   3.667851   2.183594   2.886240   2.916850
    18  H    3.711316   4.993004   2.151115   2.299412   2.858320
    19  C    3.277315   4.740607   2.541271   3.333376   2.482739
    20  H    3.767345   5.418307   3.476066   4.203404   3.556797
    21  H    4.194280   5.470915   2.806208   3.378496   2.489376
    22  N    2.137253   2.107939   1.534362   2.087847   2.095746
    23  C    2.703446   3.980592   2.920241   3.947617   2.546242
    24  O    2.491695   3.910054   3.766608   4.833316   3.599459
    25  O    3.174647   3.921979   2.895638   3.850117   2.116822
                   16         17         18         19         20
    16  C    0.000000
    17  H    1.093071   0.000000
    18  H    1.092799   1.746271   0.000000
    19  C    1.540571   2.148920   2.185088   0.000000
    20  H    2.158704   2.428578   2.518658   1.089998   0.000000
    21  H    2.166895   3.052169   2.504090   1.092552   1.780564
    22  N    2.601471   2.631310   3.330226   3.635853   4.484910
    23  C    2.494465   2.745756   3.463942   1.547556   2.184787
    24  O    3.148699   2.958763   4.119841   2.380363   2.554053
    25  O    3.100767   3.558235   4.057835   2.377904   3.256010
                   21         22         23         24         25
    21  H    0.000000
    22  N    4.139075   0.000000
    23  C    2.183185   3.494895   0.000000
    24  O    3.237059   3.991559   1.245272   0.000000
    25  O    2.555081   3.391899   1.266606   2.256973   0.000000
 Stoichiometry    C7H15NO2
 Framework group  C1[X(C7H15NO2)]
 Deg. of freedom    69
 Full point group                 C1      NOp   1
 Largest Abelian subgroup         C1      NOp   1
 Largest concise Abelian subgroup C1      NOp   1
                         Standard orientation:                         
 ---------------------------------------------------------------------
 Center     Atomic      Atomic             Coordinates (Angstroms)
 Number     Number       Type             X           Y           Z
 ---------------------------------------------------------------------
      1          6           0       -2.283355   -0.862994   -0.954306
      2          1           0       -2.985448   -1.500743   -0.421000
      3          1           0       -2.821601   -0.161715   -1.588701
      4          1           0       -1.605503   -1.467439   -1.551725
      5          6           0       -2.366374    0.711542    0.909847
      6          1           0       -3.031545    0.043125    1.452637
      7          1           0       -1.760588    1.276188    1.612497
      8          1           0       -2.944489    1.392450    0.288006
      9          6           0       -0.715070   -1.100045    0.885412
     10          1           0       -0.047428   -1.665493    0.235944
     11          1           0       -0.105945   -0.578890    1.616031
     12          1           0       -1.455574   -1.729017    1.376283
     13          6           0       -0.540053    0.826314   -0.759869
     14          1           0       -1.221448    1.497216   -1.283527
     15          1           0       -0.028925    0.166989   -1.462058
     16          6           0        0.512274    1.589068    0.056096
     17          1           0        0.361457    1.447552    1.129423
     18          1           0        0.390992    2.659489   -0.127477
     19          6           0        1.939831    1.127092   -0.293215
     20          1           0        2.650655    1.652246    0.344781
     21          1           0        2.153707    1.357824   -1.339489
     22          7           0       -1.466721   -0.099407    0.039251
     23          6           0        2.014051   -0.399738   -0.051945
     24          8           0        2.323867   -0.766534    1.097045
     25          8           0        1.594997   -1.113637   -1.010607
 ---------------------------------------------------------------------
 Rotational constants (GHZ):           2.1060376           0.9276304           0.8511784
 Leave Link  202 at Wed Oct 11 20:25:48 2023, MaxMem=  6710886400 cpu:               0.1 elap:               0.0
 (Enter /data0/home/software/g16/l301.exe)
 Standard basis: 6-31G(d) (6D, 7F)
 Ernie: Thresh=  0.10000D-02 Tol=  0.10000D-05 Strict=F.
 There are   180 symmetry adapted cartesian basis functions of A   symmetry.
 There are   180 symmetry adapted basis functions of A   symmetry.
   180 basis functions,   340 primitive gaussians,   180 cartesian basis functions
    40 alpha electrons       40 beta electrons
       nuclear repulsion energy       604.7563981557 Hartrees.
 IExCor= 3428 DFT=T Ex+Corr=M052X ExCW=0 ScaHFX=  0.560000
 ScaDFX=  0.440000  0.440000  1.000000  1.000000 ScalE2=  1.000000  1.000000
 IRadAn=      5 IRanWt=     -1 IRanGd=            0 ICorTp=0 IEmpDi=  4
 NAtoms=   25 NActive=   25 NUniq=   25 SFac= 1.00D+00 NAtFMM=   60 NAOKFM=F Big=F
 Integral buffers will be    131072 words long.
 Raffenetti 2 integral format.
 Two-electron integral symmetry is turned on.
 Leave Link  301 at Wed Oct 11 20:25:48 2023, MaxMem=  6710886400 cpu:               1.1 elap:               0.1
 (Enter /data0/home/software/g16/l302.exe)
 NPDir=0 NMtPBC=     1 NCelOv=     1 NCel=       1 NClECP=     1 NCelD=      1
         NCelK=      1 NCelE2=     1 NClLst=     1 CellRange=     0.0.
 One-electron integrals computed using PRISM.
 One-electron integral symmetry used in STVInt
 NBasis=   180 RedAO= T EigKep=  3.11D-03  NBF=   180
 NBsUse=   180 1.00D-06 EigRej= -1.00D+00 NBFU=   180
 Precomputing XC quadrature grid using
 IXCGrd= 4 IRadAn=           5 IRanWt=          -1 IRanGd=           0 AccXCQ= 0.00D+00.
 Generated NRdTot=       0 NPtTot=           0 NUsed=           0 NTot=          32
 NSgBfM=   180   180   180   180   180 MxSgAt=    25 MxSgA2=    25.
 Leave Link  302 at Wed Oct 11 20:25:48 2023, MaxMem=  6710886400 cpu:               4.3 elap:               0.2
 (Enter /data0/home/software/g16/l303.exe)
 DipDrv:  MaxL=1.
 Leave Link  303 at Wed Oct 11 20:25:48 2023, MaxMem=  6710886400 cpu:               0.6 elap:               0.0
 (Enter /data0/home/software/g16/l401.exe)
 ExpMin= 1.61D-01 ExpMax= 5.48D+03 ExpMxC= 8.25D+02 IAcc=3 IRadAn=         5 AccDes= 0.00D+00
 Harris functional with IExCor= 1009 and IRadAn=       5 diagonalized for initial guess.
 HarFok:  IExCor= 1009 AccDes= 0.00D+00 IRadAn=         5 IDoV= 1 UseB2=F ITyADJ=14
 ICtDFT=  3500011 ScaDFX=  1.000000  1.000000  1.000000  1.000000
 FoFCou: FMM=F IPFlag=           0 FMFlag=      100000 FMFlg1=           0
         NFxFlg=           0 DoJE=T BraDBF=F KetDBF=T FulRan=T
         wScrn=  0.000000 ICntrl=       500 IOpCl=  0 I1Cent=   200000004 NGrid=           0
         NMat0=    1 NMatS0=      1 NMatT0=    0 NMatD0=    1 NMtDS0=    0 NMtDT0=    0
 Petite list used in FoFCou.
 Harris En= -480.571972722094    
 JPrj=0 DoOrth=F DoCkMO=F.
 Leave Link  401 at Wed Oct 11 20:25:48 2023, MaxMem=  6710886400 cpu:              12.9 elap:               0.6
 (Enter /data0/home/software/g16/l502.exe)
 Integral symmetry usage will be decided dynamically.
 Closed shell SCF:
 Using DIIS extrapolation, IDIIS=  1040.
 NGot=  6710886400 LenX=  6710815003 LenY=  6710782162
 Requested convergence on RMS density matrix=1.00D-08 within 128 cycles.
 Requested convergence on MAX density matrix=1.00D-06.
 Requested convergence on             energy=1.00D-06.
 No special actions if energy rises.
 Fock matrices will be formed incrementally for  20 cycles.
 Integral accuracy reduced to 1.0D-05 until final iterations.

 Cycle   1  Pass 0  IDiag  1:
 FoFJK:  IHMeth= 1 ICntrl=       0 DoSepK=F KAlg= 0 I1Cent=           0 FoldK=F
 IRaf= 960000000 NMat=       1 IRICut=       1 DoRegI=T DoRafI=F ISym2E= 0 IDoP0=0 IntGTp=1.
 FoFCou: FMM=F IPFlag=           0 FMFlag=      100000 FMFlg1=           0
         NFxFlg=           0 DoJE=F BraDBF=F KetDBF=F FulRan=T
         wScrn=  0.000000 ICntrl=         0 IOpCl=  0 I1Cent=           0 NGrid=           0
         NMat0=    1 NMatS0=      1 NMatT0=    0 NMatD0=    1 NMtDS0=    0 NMtDT0=    0
 Symmetry not used in FoFCou.
 E= -480.519456708284    
 DIIS: error= 3.94D-02 at cycle   1 NSaved=   1.
 NSaved= 1 IEnMin= 1 EnMin= -480.519456708284     IErMin= 1 ErrMin= 3.94D-02
 ErrMax= 3.94D-02  0.00D+00 EMaxC= 1.00D-01 BMatC= 3.80D-01 BMatP= 3.80D-01
 IDIUse=3 WtCom= 6.06D-01 WtEn= 3.94D-01
 Coeff-Com:  0.100D+01
 Coeff-En:   0.100D+01
 Coeff:      0.100D+01
 Gap=     0.349 Goal=   None    Shift=    0.000
 GapD=    0.349 DampG=1.000 DampE=0.500 DampFc=0.5000 IDamp=-1.
 Damping current iteration by 5.00D-01
 RMSDP=6.45D-03 MaxDP=1.38D-01              OVMax= 1.63D-01

 Cycle   2  Pass 0  IDiag  1:
 RMSU=  3.22D-03    CP:  9.92D-01
 E= -480.684389771943     Delta-E=       -0.164933063658 Rises=F Damp=T
 DIIS: error= 9.32D-03 at cycle   2 NSaved=   2.
 NSaved= 2 IEnMin= 2 EnMin= -480.684389771943     IErMin= 2 ErrMin= 9.32D-03
 ErrMax= 9.32D-03  0.00D+00 EMaxC= 1.00D-01 BMatC= 2.34D-02 BMatP= 3.80D-01
 IDIUse=3 WtCom= 9.07D-01 WtEn= 9.32D-02
 Coeff-Com: -0.203D-01 0.102D+01
 Coeff-En:   0.000D+00 0.100D+01
 Coeff:     -0.184D-01 0.102D+01
 Gap=     0.297 Goal=   None    Shift=    0.000
 RMSDP=1.24D-03 MaxDP=3.16D-02 DE=-1.65D-01 OVMax= 8.55D-02

 Cycle   3  Pass 0  IDiag  1:
 RMSU=  1.20D-03    CP:  9.89D-01  1.09D+00
 E= -480.844154602887     Delta-E=       -0.159764830945 Rises=F Damp=F
 DIIS: error= 3.63D-03 at cycle   3 NSaved=   3.
 NSaved= 3 IEnMin= 3 EnMin= -480.844154602887     IErMin= 3 ErrMin= 3.63D-03
 ErrMax= 3.63D-03  0.00D+00 EMaxC= 1.00D-01 BMatC= 6.67D-03 BMatP= 2.34D-02
 IDIUse=3 WtCom= 9.64D-01 WtEn= 3.63D-02
 Coeff-Com: -0.410D-01 0.327D+00 0.714D+00
 Coeff-En:   0.000D+00 0.000D+00 0.100D+01
 Coeff:     -0.395D-01 0.315D+00 0.725D+00
 Gap=     0.300 Goal=   None    Shift=    0.000
 RMSDP=5.08D-04 MaxDP=1.25D-02 DE=-1.60D-01 OVMax= 2.22D-02

 Cycle   4  Pass 0  IDiag  1:
 RMSU=  4.37D-04    CP:  9.92D-01  1.11D+00  7.99D-01
 E= -480.848435763928     Delta-E=       -0.004281161041 Rises=F Damp=F
 DIIS: error= 1.96D-03 at cycle   4 NSaved=   4.
 NSaved= 4 IEnMin= 4 EnMin= -480.848435763928     IErMin= 4 ErrMin= 1.96D-03
 ErrMax= 1.96D-03  0.00D+00 EMaxC= 1.00D-01 BMatC= 1.38D-03 BMatP= 6.67D-03
 IDIUse=3 WtCom= 9.80D-01 WtEn= 1.96D-02
 Coeff-Com: -0.594D-02 0.185D-01 0.320D+00 0.667D+00
 Coeff-En:   0.000D+00 0.000D+00 0.141D+00 0.859D+00
 Coeff:     -0.582D-02 0.181D-01 0.317D+00 0.671D+00
 Gap=     0.302 Goal=   None    Shift=    0.000
 RMSDP=1.98D-04 MaxDP=4.53D-03 DE=-4.28D-03 OVMax= 5.87D-03

 Cycle   5  Pass 0  IDiag  1:
 RMSU=  9.05D-05    CP:  9.91D-01  1.10D+00  8.84D-01  6.83D-01
 E= -480.849617989028     Delta-E=       -0.001182225100 Rises=F Damp=F
 DIIS: error= 2.43D-04 at cycle   5 NSaved=   5.
 NSaved= 5 IEnMin= 5 EnMin= -480.849617989028     IErMin= 5 ErrMin= 2.43D-04
 ErrMax= 2.43D-04  0.00D+00 EMaxC= 1.00D-01 BMatC= 1.94D-05 BMatP= 1.38D-03
 IDIUse=3 WtCom= 9.98D-01 WtEn= 2.43D-03
 Coeff-Com:  0.154D-03-0.498D-02 0.656D-01 0.193D+00 0.747D+00
 Coeff-En:   0.000D+00 0.000D+00 0.000D+00 0.000D+00 0.100D+01
 Coeff:      0.154D-03-0.497D-02 0.655D-01 0.192D+00 0.747D+00
 Gap=     0.302 Goal=   None    Shift=    0.000
 RMSDP=3.18D-05 MaxDP=7.88D-04 DE=-1.18D-03 OVMax= 1.18D-03

 Cycle   6  Pass 0  IDiag  1:
 RMSU=  2.45D-05    CP:  9.91D-01  1.10D+00  8.88D-01  7.20D-01  8.73D-01
 E= -480.849634351807     Delta-E=       -0.000016362779 Rises=F Damp=F
 DIIS: error= 8.93D-05 at cycle   6 NSaved=   6.
 NSaved= 6 IEnMin= 6 EnMin= -480.849634351807     IErMin= 6 ErrMin= 8.93D-05
 ErrMax= 8.93D-05  0.00D+00 EMaxC= 1.00D-01 BMatC= 2.81D-06 BMatP= 1.94D-05
 IDIUse=1 WtCom= 1.00D+00 WtEn= 0.00D+00
 Coeff-Com:  0.591D-03-0.353D-02 0.639D-02 0.367D-01 0.311D+00 0.649D+00
 Coeff:      0.591D-03-0.353D-02 0.639D-02 0.367D-01 0.311D+00 0.649D+00
 Gap=     0.302 Goal=   None    Shift=    0.000
 RMSDP=1.21D-05 MaxDP=3.57D-04 DE=-1.64D-05 OVMax= 4.39D-04

 Cycle   7  Pass 0  IDiag  1:
 RMSU=  9.30D-06    CP:  9.91D-01  1.10D+00  8.90D-01  7.25D-01  9.30D-01
                    CP:  8.40D-01
 E= -480.849636661757     Delta-E=       -0.000002309950 Rises=F Damp=F
 DIIS: error= 5.67D-05 at cycle   7 NSaved=   7.
 NSaved= 7 IEnMin= 7 EnMin= -480.849636661757     IErMin= 7 ErrMin= 5.67D-05
 ErrMax= 5.67D-05  0.00D+00 EMaxC= 1.00D-01 BMatC= 3.81D-07 BMatP= 2.81D-06
 IDIUse=1 WtCom= 1.00D+00 WtEn= 0.00D+00
 Coeff-Com:  0.267D-03-0.950D-03-0.562D-02-0.982D-02 0.347D-01 0.285D+00
 Coeff-Com:  0.696D+00
 Coeff:      0.267D-03-0.950D-03-0.562D-02-0.982D-02 0.347D-01 0.285D+00
 Coeff:      0.696D+00
 Gap=     0.302 Goal=   None    Shift=    0.000
 RMSDP=4.43D-06 MaxDP=1.77D-04 DE=-2.31D-06 OVMax= 3.03D-04

 Initial convergence to 1.0D-05 achieved.  Increase integral accuracy.
 Cycle   8  Pass 1  IDiag  1:
 E= -480.849666314382     Delta-E=       -0.000029652624 Rises=F Damp=F
 DIIS: error= 2.08D-05 at cycle   1 NSaved=   1.
 NSaved= 1 IEnMin= 1 EnMin= -480.849666314382     IErMin= 1 ErrMin= 2.08D-05
 ErrMax= 2.08D-05  0.00D+00 EMaxC= 1.00D-01 BMatC= 1.86D-07 BMatP= 1.86D-07
 IDIUse=1 WtCom= 1.00D+00 WtEn= 0.00D+00
 Coeff-Com:  0.100D+01
 Coeff:      0.100D+01
 Gap=     0.302 Goal=   None    Shift=    0.000
 RMSDP=4.43D-06 MaxDP=1.77D-04 DE=-2.97D-05 OVMax= 2.01D-04

 Cycle   9  Pass 1  IDiag  1:
 RMSU=  6.42D-06    CP:  1.00D+00
 E= -480.849666364843     Delta-E=       -0.000000050461 Rises=F Damp=F
 DIIS: error= 3.79D-05 at cycle   2 NSaved=   2.
 NSaved= 2 IEnMin= 2 EnMin= -480.849666364843     IErMin= 1 ErrMin= 2.08D-05
 ErrMax= 3.79D-05  0.00D+00 EMaxC= 1.00D-01 BMatC= 1.73D-07 BMatP= 1.86D-07
 IDIUse=1 WtCom= 1.00D+00 WtEn= 0.00D+00
 Coeff-Com:  0.488D+00 0.512D+00
 Coeff:      0.488D+00 0.512D+00
 Gap=     0.302 Goal=   None    Shift=    0.000
 RMSDP=2.56D-06 MaxDP=9.47D-05 DE=-5.05D-08 OVMax= 1.78D-04

 Cycle  10  Pass 1  IDiag  1:
 RMSU=  2.14D-06    CP:  1.00D+00  7.81D-01
 E= -480.849666481455     Delta-E=       -0.000000116613 Rises=F Damp=F
 DIIS: error= 1.25D-05 at cycle   3 NSaved=   3.
 NSaved= 3 IEnMin= 3 EnMin= -480.849666481455     IErMin= 3 ErrMin= 1.25D-05
 ErrMax= 1.25D-05  0.00D+00 EMaxC= 1.00D-01 BMatC= 1.98D-08 BMatP= 1.73D-07
 IDIUse=1 WtCom= 1.00D+00 WtEn= 0.00D+00
 Coeff-Com: -0.109D-01 0.242D+00 0.769D+00
 Coeff:     -0.109D-01 0.242D+00 0.769D+00
 Gap=     0.302 Goal=   None    Shift=    0.000
 RMSDP=8.86D-07 MaxDP=2.41D-05 DE=-1.17D-07 OVMax= 4.68D-05

 Cycle  11  Pass 1  IDiag  1:
 RMSU=  4.77D-07    CP:  1.00D+00  8.77D-01  8.01D-01
 E= -480.849666495410     Delta-E=       -0.000000013955 Rises=F Damp=F
 DIIS: error= 1.42D-06 at cycle   4 NSaved=   4.
 NSaved= 4 IEnMin= 4 EnMin= -480.849666495410     IErMin= 4 ErrMin= 1.42D-06
 ErrMax= 1.42D-06  0.00D+00 EMaxC= 1.00D-01 BMatC= 1.23D-09 BMatP= 1.98D-08
 IDIUse=1 WtCom= 1.00D+00 WtEn= 0.00D+00
 Coeff-Com: -0.283D-01 0.904D-01 0.357D+00 0.581D+00
 Coeff:     -0.283D-01 0.904D-01 0.357D+00 0.581D+00
 Gap=     0.302 Goal=   None    Shift=    0.000
 RMSDP=1.84D-07 MaxDP=4.74D-06 DE=-1.40D-08 OVMax= 6.19D-06

 Cycle  12  Pass 1  IDiag  1:
 RMSU=  1.43D-07    CP:  1.00D+00  8.83D-01  8.28D-01  8.04D-01
 E= -480.849666496554     Delta-E=       -0.000000001144 Rises=F Damp=F
 DIIS: error= 2.30D-07 at cycle   5 NSaved=   5.
 NSaved= 5 IEnMin= 5 EnMin= -480.849666496554     IErMin= 5 ErrMin= 2.30D-07
 ErrMax= 2.30D-07  0.00D+00 EMaxC= 1.00D-01 BMatC= 1.62D-11 BMatP= 1.23D-09
 IDIUse=1 WtCom= 1.00D+00 WtEn= 0.00D+00
 Coeff-Com: -0.376D-03-0.983D-02-0.375D-01 0.177D-01 0.103D+01
 Coeff:     -0.376D-03-0.983D-02-0.375D-01 0.177D-01 0.103D+01
 Gap=     0.302 Goal=   None    Shift=    0.000
 RMSDP=5.72D-08 MaxDP=1.34D-06 DE=-1.14D-09 OVMax= 2.74D-06

 Cycle  13  Pass 1  IDiag  1:
 RMSU=  2.92D-08    CP:  1.00D+00  8.86D-01  8.29D-01  8.78D-01  1.18D+00
 E= -480.849666496587     Delta-E=       -0.000000000033 Rises=F Damp=F
 DIIS: error= 1.15D-07 at cycle   6 NSaved=   6.
 NSaved= 6 IEnMin= 6 EnMin= -480.849666496587     IErMin= 6 ErrMin= 1.15D-07
 ErrMax= 1.15D-07  0.00D+00 EMaxC= 1.00D-01 BMatC= 4.29D-12 BMatP= 1.62D-11
 IDIUse=1 WtCom= 1.00D+00 WtEn= 0.00D+00
 Coeff-Com:  0.176D-02-0.104D-01-0.421D-01-0.378D-01 0.404D+00 0.685D+00
 Coeff:      0.176D-02-0.104D-01-0.421D-01-0.378D-01 0.404D+00 0.685D+00
 Gap=     0.302 Goal=   None    Shift=    0.000
 RMSDP=1.71D-08 MaxDP=4.88D-07 DE=-3.25D-11 OVMax= 5.91D-07

 Cycle  14  Pass 1  IDiag  1:
 RMSU=  1.06D-08    CP:  1.00D+00  8.86D-01  8.29D-01  8.96D-01  1.25D+00
                    CP:  8.73D-01
 E= -480.849666496588     Delta-E=       -0.000000000002 Rises=F Damp=F
 DIIS: error= 3.84D-08 at cycle   7 NSaved=   7.
 NSaved= 7 IEnMin= 7 EnMin= -480.849666496588     IErMin= 7 ErrMin= 3.84D-08
 ErrMax= 3.84D-08  0.00D+00 EMaxC= 1.00D-01 BMatC= 3.65D-13 BMatP= 4.29D-12
 IDIUse=1 WtCom= 1.00D+00 WtEn= 0.00D+00
 Coeff-Com:  0.646D-03-0.251D-02-0.115D-01-0.143D-01 0.575D-01 0.250D+00
 Coeff-Com:  0.720D+00
 Coeff:      0.646D-03-0.251D-02-0.115D-01-0.143D-01 0.575D-01 0.250D+00
 Coeff:      0.720D+00
 Gap=     0.302 Goal=   None    Shift=    0.000
 RMSDP=4.24D-09 MaxDP=1.36D-07 DE=-1.82D-12 OVMax= 2.91D-07

 SCF Done:  E(RM052X) =  -480.849666497     A.U. after   14 cycles
            NFock= 14  Conv=0.42D-08     -V/T= 2.0091
 KE= 4.765055165836D+02 PE=-2.329081483979D+03 EE= 7.669699027430D+02
 Leave Link  502 at Wed Oct 11 20:26:00 2023, MaxMem=  6710886400 cpu:             268.9 elap:              11.3
 (Enter /data0/home/software/g16/l601.exe)
 Copying SCF densities to generalized density rwf, IOpCl= 0 IROHF=0.

 **********************************************************************

            Population analysis using the SCF density.

 **********************************************************************

 Orbital symmetries:
       Occupied  (A) (A) (A) (A) (A) (A) (A) (A) (A) (A) (A) (A)
                 (A) (A) (A) (A) (A) (A) (A) (A) (A) (A) (A) (A)
                 (A) (A) (A) (A) (A) (A) (A) (A) (A) (A) (A) (A)
                 (A) (A) (A) (A)
       Virtual   (A) (A) (A) (A) (A) (A) (A) (A) (A) (A) (A) (A)
                 (A) (A) (A) (A) (A) (A) (A) (A) (A) (A) (A) (A)
                 (A) (A) (A) (A) (A) (A) (A) (A) (A) (A) (A) (A)
                 (A) (A) (A) (A) (A) (A) (A) (A) (A) (A) (A) (A)
                 (A) (A) (A) (A) (A) (A) (A) (A) (A) (A) (A) (A)
                 (A) (A) (A) (A) (A) (A) (A) (A) (A) (A) (A) (A)
                 (A) (A) (A) (A) (A) (A) (A) (A) (A) (A) (A) (A)
                 (A) (A) (A) (A) (A) (A) (A) (A) (A) (A) (A) (A)
                 (A) (A) (A) (A) (A) (A) (A) (A) (A) (A) (A) (A)
                 (A) (A) (A) (A) (A) (A) (A) (A) (A) (A) (A) (A)
                 (A) (A) (A) (A) (A) (A) (A) (A) (A) (A) (A) (A)
                 (A) (A) (A) (A) (A) (A) (A) (A)
 The electronic state is 1-A.
 Alpha  occ. eigenvalues --  -19.55710 -19.55120 -14.95930 -10.66741 -10.66330
 Alpha  occ. eigenvalues --  -10.64039 -10.62598 -10.60008 -10.58726 -10.53425
 Alpha  occ. eigenvalues --   -1.16489  -1.08102  -0.98154  -0.91382  -0.89466
 Alpha  occ. eigenvalues --   -0.87154  -0.82403  -0.74790  -0.69508  -0.63787
 Alpha  occ. eigenvalues --   -0.63170  -0.61449  -0.56516  -0.55334  -0.53653
 Alpha  occ. eigenvalues --   -0.51840  -0.51392  -0.51045  -0.49559  -0.48639
 Alpha  occ. eigenvalues --   -0.48057  -0.45623  -0.43232  -0.42662  -0.42009
 Alpha  occ. eigenvalues --   -0.39030  -0.37357  -0.25048  -0.24284  -0.23640
 Alpha virt. eigenvalues --    0.06574   0.11135   0.12085   0.12972   0.13599
 Alpha virt. eigenvalues --    0.14639   0.15148   0.17117   0.18009   0.18524
 Alpha virt. eigenvalues --    0.18998   0.19424   0.20582   0.21305   0.24365
 Alpha virt. eigenvalues --    0.24840   0.25434   0.27100   0.27790   0.28583
 Alpha virt. eigenvalues --    0.32072   0.34592   0.36499   0.45496   0.49004
 Alpha virt. eigenvalues --    0.49897   0.51004   0.51885   0.53021   0.56170
 Alpha virt. eigenvalues --    0.59512   0.64540   0.64653   0.66553   0.68909
 Alpha virt. eigenvalues --    0.70179   0.72624   0.73895   0.76996   0.77811
 Alpha virt. eigenvalues --    0.80050   0.80324   0.81290   0.84875   0.85436
 Alpha virt. eigenvalues --    0.86717   0.87701   0.89990   0.91926   0.93062
 Alpha virt. eigenvalues --    0.94698   0.95500   0.96925   0.97524   0.98045
 Alpha virt. eigenvalues --    0.98411   1.01418   1.02235   1.02551   1.03619
 Alpha virt. eigenvalues --    1.04391   1.05201   1.07594   1.09264   1.10456
 Alpha virt. eigenvalues --    1.13165   1.17297   1.20196   1.25506   1.27433
 Alpha virt. eigenvalues --    1.29464   1.33003   1.35905   1.40908   1.45210
 Alpha virt. eigenvalues --    1.47625   1.51183   1.54182   1.59339   1.63051
 Alpha virt. eigenvalues --    1.67535   1.71119   1.73466   1.75686   1.79201
 Alpha virt. eigenvalues --    1.82024   1.82575   1.86206   1.89803   1.92872
 Alpha virt. eigenvalues --    1.93851   1.96430   1.98731   2.00590   2.01833
 Alpha virt. eigenvalues --    2.03898   2.05832   2.08972   2.10806   2.11730
 Alpha virt. eigenvalues --    2.13447   2.14704   2.15799   2.18640   2.20687
 Alpha virt. eigenvalues --    2.25509   2.26374   2.27452   2.28846   2.30565
 Alpha virt. eigenvalues --    2.31561   2.32621   2.37542   2.43138   2.45055
 Alpha virt. eigenvalues --    2.48486   2.51836   2.55938   2.61364   2.64995
 Alpha virt. eigenvalues --    2.69495   2.71877   2.73180   2.77175   2.81595
 Alpha virt. eigenvalues --    2.87636   2.94988   3.08895   3.10813   3.26281
 Alpha virt. eigenvalues --    4.05373   4.09409   4.21240   4.28600   4.29234
 Alpha virt. eigenvalues --    4.31100   4.36400   4.51455   4.56965   4.69470
          Condensed to atoms (all electrons):
               1          2          3          4          5          6
     1  C    5.154909   0.379458   0.380528   0.382190  -0.054185  -0.003617
     2  H    0.379458   0.483064  -0.024517  -0.019602  -0.002892   0.003353
     3  H    0.380528  -0.024517   0.482502  -0.019665  -0.003555  -0.000275
     4  H    0.382190  -0.019602  -0.019665   0.417935   0.004257  -0.000006
     5  C   -0.054185  -0.002892  -0.003555   0.004257   5.149722   0.381630
     6  H   -0.003617   0.003353  -0.000275  -0.000006   0.381630   0.476833
     7  H    0.004541  -0.000007  -0.000028  -0.000146   0.383029  -0.021258
     8  H   -0.003061  -0.000418   0.003246  -0.000006   0.380724  -0.023232
     9  C   -0.051020  -0.003714   0.004560  -0.002909  -0.055470  -0.002332
    10  H   -0.003502  -0.000149  -0.000021   0.004213   0.003167   0.000031
    11  H    0.003740  -0.000022  -0.000159  -0.000069  -0.001468  -0.000567
    12  H   -0.005208   0.003869   0.000049  -0.000470  -0.005497   0.004391
    13  C   -0.053795   0.004808  -0.002932  -0.004070  -0.050622   0.004525
    14  H   -0.005035  -0.000059   0.004585  -0.000028  -0.006071   0.000094
    15  H   -0.002382   0.000094  -0.000655   0.004480   0.003401  -0.000121
    16  C    0.004175  -0.000157   0.000048  -0.000023  -0.004740   0.000020
    17  H    0.000194   0.000001   0.000003  -0.000004  -0.001766  -0.000018
    18  H   -0.000112   0.000003  -0.000016   0.000001   0.000361  -0.000000
    19  C   -0.000190   0.000004   0.000003   0.000024   0.000160  -0.000003
    20  H    0.000003  -0.000000  -0.000000  -0.000000   0.000003  -0.000000
    21  H    0.000001  -0.000000   0.000001  -0.000005  -0.000004   0.000000
    22  N    0.242200  -0.032188  -0.032396  -0.028667   0.241444  -0.032191
    23  C   -0.000093   0.000003   0.000004  -0.000117  -0.000011   0.000004
    24  O   -0.000001  -0.000000   0.000000  -0.000009   0.000002  -0.000000
    25  O   -0.000794   0.000002   0.000004   0.001808  -0.000017   0.000001
               7          8          9         10         11         12
     1  C    0.004541  -0.003061  -0.051020  -0.003502   0.003740  -0.005208
     2  H   -0.000007  -0.000418  -0.003714  -0.000149  -0.000022   0.003869
     3  H   -0.000028   0.003246   0.004560  -0.000021  -0.000159   0.000049
     4  H   -0.000146  -0.000006  -0.002909   0.004213  -0.000069  -0.000470
     5  C    0.383029   0.380724  -0.055470   0.003167  -0.001468  -0.005497
     6  H   -0.021258  -0.023232  -0.002332   0.000031  -0.000567   0.004391
     7  H    0.445229  -0.020916  -0.001306   0.000066   0.001658  -0.000417
     8  H   -0.020916   0.480630   0.004469  -0.000128  -0.000006   0.000033
     9  C   -0.001306   0.004469   5.341656   0.329854   0.369904   0.364297
    10  H    0.000066  -0.000128   0.329854   0.387717  -0.017575  -0.016129
    11  H    0.001658  -0.000006   0.369904  -0.017575   0.425941  -0.023042
    12  H   -0.000417   0.000033   0.364297  -0.016129  -0.023042   0.520805
    13  C   -0.004865  -0.002358  -0.043185   0.002135  -0.006662   0.004596
    14  H   -0.000173   0.004618   0.005252   0.000141  -0.000235  -0.000171
    15  H    0.000057   0.000036   0.000838  -0.000317  -0.000409  -0.000036
    16  C    0.004708  -0.000327  -0.005748  -0.000681   0.003161  -0.000032
    17  H    0.005021   0.000093  -0.000542  -0.000220   0.004576  -0.000024
    18  H   -0.000379   0.000001  -0.000091   0.000040   0.000128   0.000001
    19  C   -0.000017   0.000001  -0.005098   0.004200  -0.000674  -0.000000
    20  H    0.000001  -0.000000   0.000116  -0.000096   0.000010   0.000000
    21  H    0.000002   0.000000   0.000086  -0.000107   0.000071   0.000000
    22  N   -0.030352  -0.033060   0.181792  -0.027183  -0.022474  -0.032734
    23  C   -0.000048   0.000001  -0.005561   0.000087  -0.001760   0.000717
    24  O   -0.000024  -0.000000  -0.001098  -0.008985   0.016943   0.000229
    25  O    0.000002   0.000001  -0.018172   0.043354  -0.002840   0.000337
              13         14         15         16         17         18
     1  C   -0.053795  -0.005035  -0.002382   0.004175   0.000194  -0.000112
     2  H    0.004808  -0.000059   0.000094  -0.000157   0.000001   0.000003
     3  H   -0.002932   0.004585  -0.000655   0.000048   0.000003  -0.000016
     4  H   -0.004070  -0.000028   0.004480  -0.000023  -0.000004   0.000001
     5  C   -0.050622  -0.006071   0.003401  -0.004740  -0.001766   0.000361
     6  H    0.004525   0.000094  -0.000121   0.000020  -0.000018  -0.000000
     7  H   -0.004865  -0.000173   0.000057   0.004708   0.005021  -0.000379
     8  H   -0.002358   0.004618   0.000036  -0.000327   0.000093   0.000001
     9  C   -0.043185   0.005252   0.000838  -0.005748  -0.000542  -0.000091
    10  H    0.002135   0.000141  -0.000317  -0.000681  -0.000220   0.000040
    11  H   -0.006662  -0.000235  -0.000409   0.003161   0.004576   0.000128
    12  H    0.004596  -0.000171  -0.000036  -0.000032  -0.000024   0.000001
    13  C    5.303737   0.364003   0.340133   0.318299  -0.049038  -0.038397
    14  H    0.364003   0.550707  -0.016438  -0.035353   0.002400  -0.008282
    15  H    0.340133  -0.016438   0.417054  -0.037845   0.002049   0.001722
    16  C    0.318299  -0.035353  -0.037845   5.152594   0.376880   0.386927
    17  H   -0.049038   0.002400   0.002049   0.376880   0.553210  -0.031125
    18  H   -0.038397  -0.008282   0.001722   0.386927  -0.031125   0.544680
    19  C   -0.044480   0.003662  -0.009481   0.353901  -0.038974  -0.031082
    20  H    0.005978  -0.000086   0.000611  -0.031357  -0.004028  -0.003638
    21  H   -0.006511  -0.000069   0.002291  -0.035957   0.005888  -0.004454
    22  N    0.188139  -0.042284  -0.030817  -0.027488  -0.006588   0.002220
    23  C   -0.003981   0.000125  -0.001430  -0.038209  -0.002545   0.002968
    24  O   -0.002252  -0.000021   0.000967  -0.000281   0.005467  -0.000068
    25  O   -0.011533   0.000930   0.046978  -0.010461   0.000514  -0.000271
              19         20         21         22         23         24
     1  C   -0.000190   0.000003   0.000001   0.242200  -0.000093  -0.000001
     2  H    0.000004  -0.000000  -0.000000  -0.032188   0.000003  -0.000000
     3  H    0.000003  -0.000000   0.000001  -0.032396   0.000004   0.000000
     4  H    0.000024  -0.000000  -0.000005  -0.028667  -0.000117  -0.000009
     5  C    0.000160   0.000003  -0.000004   0.241444  -0.000011   0.000002
     6  H   -0.000003  -0.000000   0.000000  -0.032191   0.000004  -0.000000
     7  H   -0.000017   0.000001   0.000002  -0.030352  -0.000048  -0.000024
     8  H    0.000001  -0.000000   0.000000  -0.033060   0.000001  -0.000000
     9  C   -0.005098   0.000116   0.000086   0.181792  -0.005561  -0.001098
    10  H    0.004200  -0.000096  -0.000107  -0.027183   0.000087  -0.008985
    11  H   -0.000674   0.000010   0.000071  -0.022474  -0.001760   0.016943
    12  H   -0.000000   0.000000   0.000000  -0.032734   0.000717   0.000229
    13  C   -0.044480   0.005978  -0.006511   0.188139  -0.003981  -0.002252
    14  H    0.003662  -0.000086  -0.000069  -0.042284   0.000125  -0.000021
    15  H   -0.009481   0.000611   0.002291  -0.030817  -0.001430   0.000967
    16  C    0.353901  -0.031357  -0.035957  -0.027488  -0.038209  -0.000281
    17  H   -0.038974  -0.004028   0.005888  -0.006588  -0.002545   0.005467
    18  H   -0.031082  -0.003638  -0.004454   0.002220   0.002968  -0.000068
    19  C    5.401904   0.352147   0.343994   0.001339   0.287867  -0.125646
    20  H    0.352147   0.542734  -0.026640  -0.000107  -0.018540   0.006441
    21  H    0.343994  -0.026640   0.572968   0.000049  -0.022052   0.004046
    22  N    0.001339  -0.000107   0.000049   6.954271   0.000489   0.000529
    23  C    0.287867  -0.018540  -0.022052   0.000489   4.374574   0.494162
    24  O   -0.125646   0.006441   0.004046   0.000529   0.494162   8.304476
    25  O   -0.129710   0.004019   0.006855  -0.003468   0.397199  -0.092209
              25
     1  C   -0.000794
     2  H    0.000002
     3  H    0.000004
     4  H    0.001808
     5  C   -0.000017
     6  H    0.000001
     7  H    0.000002
     8  H    0.000001
     9  C   -0.018172
    10  H    0.043354
    11  H   -0.002840
    12  H    0.000337
    13  C   -0.011533
    14  H    0.000930
    15  H    0.046978
    16  C   -0.010461
    17  H    0.000514
    18  H   -0.000271
    19  C   -0.129710
    20  H    0.004019
    21  H    0.006855
    22  N   -0.003468
    23  C    0.397199
    24  O   -0.092209
    25  O    8.405188
 Mulliken charges:
               1
     1  C   -0.368946
     2  H    0.209067
     3  H    0.208684
     4  H    0.260890
     5  C   -0.361603
     6  H    0.212741
     7  H    0.235620
     8  H    0.209659
     9  C   -0.406578
    10  H    0.300085
    11  H    0.251828
    12  H    0.184433
    13  C   -0.211674
    14  H    0.177788
    15  H    0.279222
    16  C   -0.372052
    17  H    0.178577
    18  H    0.178860
    19  C   -0.363851
    20  H    0.172428
    21  H    0.159545
    22  N   -0.430474
    23  C    0.536141
    24  O   -0.602670
    25  O   -0.637719
 Sum of Mulliken charges =  -0.00000
 Mulliken charges with hydrogens summed into heavy atoms:
               1
     1  C    0.309695
     5  C    0.296417
     9  C    0.329768
    13  C    0.245336
    16  C   -0.014615
    19  C   -0.031877
    22  N   -0.430474
    23  C    0.536141
    24  O   -0.602670
    25  O   -0.637719
 Electronic spatial extent (au):  <R**2>=           1565.1451
 Charge=             -0.0000 electrons
 Dipole moment (field-independent basis, Debye):
    X=            -12.1053    Y=              3.8008    Z=             -0.1624  Tot=             12.6890
 Quadrupole moment (field-independent basis, Debye-Ang):
   XX=            -64.1995   YY=            -62.5447   ZZ=            -63.8780
   XY=              9.6772   XZ=             -2.8875   YZ=             -0.4126
 Traceless Quadrupole moment (field-independent basis, Debye-Ang):
   XX=             -0.6588   YY=              0.9960   ZZ=             -0.3372
   XY=              9.6772   XZ=             -2.8875   YZ=             -0.4126
 Octapole moment (field-independent basis, Debye-Ang**2):
  XXX=            -56.1729  YYY=             -1.4898  ZZZ=              0.3055  XYY=            -15.5745
  XXY=             13.6585  XXZ=             -9.9983  XZZ=            -20.0913  YZZ=              3.9082
  YYZ=              2.0882  XYZ=             -0.3029
 Hexadecapole moment (field-independent basis, Debye-Ang**3):
 XXXX=          -1205.4826 YYYY=           -464.4526 ZZZZ=           -320.6414 XXXY=             30.8028
 XXXZ=            -30.1132 YYYX=              5.1224 YYYZ=             -1.7040 ZZZX=             -1.7438
 ZZZY=              3.0575 XXYY=           -283.0746 XXZZ=           -269.3770 YYZZ=           -130.5595
 XXYZ=              7.7968 YYXZ=              4.0522 ZZXY=             11.5344
 N-N= 6.047563981557D+02 E-N=-2.329081481387D+03  KE= 4.765055165836D+02
 No NMR shielding tensors so no spin-rotation constants.
 Leave Link  601 at Wed Oct 11 20:26:00 2023, MaxMem=  6710886400 cpu:               2.2 elap:               0.1
 (Enter /data0/home/software/g16/l9999.exe)
 1\1\GINC-LOCALHOST\SP\RM052X\6-31G(d)\C7H15N1O2\WUHANYU\11-Oct-2023\0\
 \#p M052X/6-31G*\\Title Card Required\\0,1\C,0,-2.283355,-0.862994,-0.
 954306\H,0,-2.985448,-1.500743,-0.421\H,0,-2.821601,-0.161715,-1.58870
 1\H,0,-1.605503,-1.467439,-1.551725\C,0,-2.366374,0.711542,0.909847\H,
 0,-3.031545,0.043125,1.452637\H,0,-1.760588,1.276188,1.612497\H,0,-2.9
 44489,1.39245,0.288006\C,0,-0.71507,-1.100045,0.885412\H,0,-0.047428,-
 1.665493,0.235944\H,0,-0.105945,-0.57889,1.616031\H,0,-1.455574,-1.729
 017,1.376283\C,0,-0.540053,0.826314,-0.759869\H,0,-1.221448,1.497216,-
 1.283527\H,0,-0.028925,0.166989,-1.462058\C,0,0.512274,1.589068,0.0560
 96\H,0,0.361457,1.447552,1.129423\H,0,0.390993,2.659489,-0.127477\C,0,
 1.939831,1.127092,-0.293215\H,0,2.650655,1.652246,0.344781\H,0,2.15370
 7,1.357824,-1.339489\N,0,-1.466721,-0.099407,0.039251\C,0,2.014051,-0.
 399738,-0.051945\O,0,2.323867,-0.766534,1.097045\O,0,1.594997,-1.11363
 7,-1.010607\\Version=ES64L-G16RevA.03\State=1-A\HF=-480.8496665\RMSD=4
 .237e-09\Dipole=-4.7626035,1.4953446,-0.0639114\Quadrupole=-0.4897725,
 0.7405016,-0.250729,7.1947593,-2.1467515,-0.3067274\PG=C01 [X(C7H15N1O
 2)]\\@


 A great many people think they are thinking when they
 are merely rearranging their prejudices.
                               -- William James
 Job cpu time:       0 days  0 hours  4 minutes 53.4 seconds.
 Elapsed time:       0 days  0 hours  0 minutes 12.5 seconds.
 File lengths (MBytes):  RWF=     21 Int=      0 D2E=      0 Chk=      3 Scr=      1
 Normal termination of Gaussian 16 at Wed Oct 11 20:26:00 2023.
