          26
 G =       -0.329297 Gcorr = 0.129637 a.u. Nimag =   0 Frame:     1 Step:     1 Geom:     1
C          10.04682700     11.27606700      9.23704200
C           9.67417300     10.26125200      8.29176300
C           8.32651800      9.96405000      8.07072200
C           7.38650800     10.67990100      8.79166200
C           7.76065100     11.67636000      9.71825000
C           9.08768200     11.99117200      9.95694400
H           8.04571400      9.19470900      7.35588800
H           6.32686700     10.47673900      8.64629000
H           6.97659200     12.20749800     10.25665800
H           9.37471600     12.75691500     10.66937000
H          12.03153600     11.78221500      9.91590900
C          11.86987700     10.35634200      8.30692000
H          12.91782400     10.16363900      8.10931800
N          11.44459300     11.33580300      9.20921800
N          10.83904700      9.71211600      7.73845000
P          11.64438500      7.33959300     10.11261300
O          12.82090300      8.20709500     10.10873300
O          11.82873800      5.86980100     10.70773000
H          12.34608900      5.31375800     10.01377600
O          10.52720000      7.93485500     11.07518600
H           9.70866200      7.31239300     11.05800300
O          10.95695200      7.02119400      8.72159200
H          10.94613000      7.89172100      8.11938400
O          13.07560300     11.00498600     11.17595600
H          13.08524400     10.08487300     10.86503300
H          12.76097700     10.94496400     12.07760300
          26
 G =       -0.329309 Gcorr = 0.129626 a.u. Nimag =   0 Frame:     2 Step:     2 Geom:     2
C          10.03649000     11.28983100      9.07782800
C           9.67103600     10.20162100      8.21498700
C           8.32528600      9.88267000      8.01334700
C           7.37999200     10.65014200      8.67155400
C           7.74706800     11.71857000      9.51726500
C           9.07203000     12.05634700      9.73501700
H           8.05002900      9.05776400      7.36107500
H           6.32161200     10.43214100      8.53892300
H           6.95905500     12.28794200     10.00879600
H           9.35363200     12.87732500     10.38537400
H          12.01690700     11.85576800      9.72139400
C          11.86628300     10.30580300      8.23054600
H          12.91564100     10.10185700      8.05286000
N          11.43408500     11.35232100      9.05047100
N          10.83992000      9.61450800      7.71144600
P          11.64003400      7.44147900     10.26907500
O          12.81605100      8.30704000     10.20269600
O          11.82241400      6.02434600     10.98112800
H          12.33394400      5.41140400     10.33230300
O          10.51721000      8.11088400     11.17457500
H           9.69881700      7.48869900     11.20234600
O          10.96052600      7.01158100      8.90438200
H          10.95404600      7.82995100      8.23291000
O          13.06026600     11.18373200     11.04109800
H          13.07434800     10.24181800     10.80467300
H          12.74329200     11.19446800     11.94394500
          26
 G =       -0.321465 Gcorr = 0.123452 a.u. Nimag =   0 Frame:     3 Step:     3 Geom:     3
C           9.73736700     11.61041000      9.18199500
C           9.66439200     10.17769800      9.20207200
C           8.50809700      9.51592600      8.74916200
C           7.46368100     10.30037200      8.29041700
C           7.54331000     11.71814600      8.27267500
C           8.66946300     12.39439500      8.71351400
H           8.45590900      8.42614900      8.76804400
H           6.54926700      9.82737900      7.93045700
H           6.68702400     12.28112100      7.89926600
H           8.72991400     13.47843300      8.70026600
H          11.37801900     12.86756700      9.81397600
C          11.65996000     10.73388800     10.00690600
H          12.69496700     10.67079100     10.43860300
N          11.01262100     11.93853900      9.69744200
N          10.87946400      9.66420200      9.72112100
P          11.60364900      7.53947000     10.09901600
O          12.79757300      8.26723800     10.58903500
O          11.86598700      5.91488700     10.25452800
H          11.15827600      5.31825600      9.90723500
O          10.17625300      7.48637400     10.92969000
H           9.83596800      8.30596600     11.35314100
O          11.21178700      7.40349200      8.49879000
H          11.24258700      8.19901000      7.92278600
O          14.25753500     10.08669800     11.12781900
H          13.84771600      9.51772200     11.80629600
H          14.43922500      9.45588200     10.40575900
          26
 G =       -0.329486 Gcorr = 0.128455 a.u. Nimag =   0 Frame:     4 Step:     4 Geom:     4
C          10.13256300     11.32640800      9.23491900
C           9.82036800     10.22294600      8.37038300
C           8.51281600      9.73381500      8.29370500
C           7.54959400     10.36051100      9.06471300
C           7.86121300     11.45444200      9.90042300
C           9.14830500     11.95352600     10.00213400
H           8.28486600      8.88083800      7.65765700
H           6.52020100     10.00693400      9.03207900
H           7.05992100     11.91100600     10.48071600
H           9.38891200     12.78979200     10.64972400
H          12.08800800     12.07973800      9.74225500
C          11.98626200     10.56152800      8.22637300
H          13.03516200     10.47439900      7.97396600
N          11.50744700     11.54445600      9.09981900
N          11.00233400      9.77953400      7.76081500
P          11.20555600      7.50163300     10.31681600
O          11.82999500      8.56143500     11.10590900
O          11.41377100      6.08269000     10.99933800
H          10.99660400      5.37044500     10.37682400
O           9.61876400      7.60808900     10.12165500
H           9.27003700      8.44748700     10.58586500
O          11.71423100      7.23901000      8.84073500
H          11.32972800      7.98994900      8.20093400
O          13.29995300     11.19080600     10.79434500
H          12.89857200     10.31351500     10.88524800
H          13.78483400     11.33507900     11.60267000
          26
 G =       -0.321526 Gcorr = 0.123392 a.u. Nimag =   0 Frame:     5 Step:     5 Geom:     5
C           9.76083900     11.60641600      9.39642800
C           9.65079400     10.17705400      9.33986500
C           8.43317500      9.56900900      8.98236400
C           7.36592300     10.40203100      8.69323300
C           7.48218500     11.81620600      8.75140300
C           8.66911500     12.44010000      9.10038200
H           8.35383700      8.48149700      8.94035700
H           6.40423000      9.97151700      8.41172700
H           6.60520600     12.41899500      8.51237200
H           8.75779700     13.52136800      9.14476700
H          11.49575800     12.78761900      9.91157900
C          11.73923100     10.64059700      9.94262600
H          12.81486500     10.52906000     10.24650100
N          11.09485900     11.87527500      9.78094600
N          10.90170800      9.60721400      9.68609000
P          11.60417700      7.44836500      9.84783100
O          12.87309700      8.11861300     10.21667100
O          11.83318600      5.81179800      9.88570800
H          11.05077400      5.25118400      9.66013600
O          10.29181500      7.37551200     10.84972500
H          10.01051500      8.18163100     11.33660400
O          11.00960700      7.41897700      8.30600100
H          11.02707600      8.24060200      7.76669200
O          14.43408400      9.86973800     10.69237900
H          14.09554100      9.26074900     11.37560000
H          14.51061600      9.28887900      9.91202400
          26
 G =       -0.329359 Gcorr = 0.126317 a.u. Nimag =   0 Frame:     6 Step:     6 Geom:     6
C          10.08333300     11.26873300      9.21521000
C           9.75022500     10.17538700      8.34572600
C           8.41559000      9.80479200      8.15767200
C           7.44911300     10.53242700      8.83003700
C           7.78404300     11.61038000      9.67719900
C           9.09745400     11.99577700      9.88544800
H           8.16598600      8.96746100      7.51046100
H           6.39881500     10.27195800      8.71062400
H           6.98006300     12.14716400     10.17921400
H           9.35445200     12.82228000     10.53843400
H          12.05302500     11.89563800      9.83938300
C          11.94080900     10.35308100      8.34925600
H          12.99578400     10.18639200      8.16877000
N          11.47752800     11.37902700      9.17827900
N          10.93502600      9.63634600      7.82639800
P          11.57325600      7.24009600     10.19470600
O          12.64091500      8.15896000     10.58850300
O          11.69674000      5.78080000     10.83486400
H          12.50779900      5.31939400     10.40509600
O          10.10080100      7.66205800     10.64072600
H          10.07523100      7.68021000     11.66816900
O          11.40520400      6.93271500      8.65592800
H          11.13776100      7.83804400      8.15768000
O          13.32208400     11.07165500     10.86568100
H          13.12458200     10.12558700     10.78854400
H          13.63439800     11.19365200     11.75800400
          26
 G =       -0.329251 Gcorr = 0.126426 a.u. Nimag =   0 Frame:     7 Step:     7 Geom:     7
C          10.10178400     11.30067100      9.24429900
C           9.77193200     10.21359700      8.36577500
C           8.43631900      9.86554100      8.14447800
C           7.46588300     10.60906300      8.79334500
C           7.79784500     11.68089600      9.64940500
C           9.11198800     12.04399900      9.89048400
H           8.18882700      9.03254200      7.49086600
H           6.41464600     10.36628800      8.64784200
H           6.99083000     12.23096500     10.13177700
H           9.36662300     12.86576800     10.55032500
H          12.06566600     11.89243700      9.91893400
C          11.96445600     10.35324300      8.42490900
H          13.02056000     10.16852100      8.27105000
N          11.49816000     11.38699000      9.24253200
N          10.96001500      9.65432100      7.87610800
P          11.45580000      7.24867700     10.26978400
O          12.51974200      8.14440200     10.72250800
O          11.51617900      5.78615000     10.91124700
H          12.33684200      5.30795700     10.51932000
O           9.97045500      7.69901100     10.63878100
H           9.90115400      7.74940200     11.66309300
O          11.36311400      6.94653500      8.72347000
H          11.11961100      7.85294400      8.21547900
O          13.29030800     11.03694300     10.97392200
H          13.06411300     10.09692600     10.90178600
H          13.59716100     11.15621900     11.86849100
          26
 G =       -0.329041 Gcorr = 0.129205 a.u. Nimag =   0 Frame:     8 Step:     8 Geom:     8
C          10.15461600     11.10025800      9.25469400
C           9.78805000     10.10674300      8.28415100
C           8.45975700      9.68424400      8.17378200
C           7.53296700     10.25684000      9.02634100
C           7.90012200     11.23549500      9.97548000
C           9.20655900     11.67265400     10.10632700
H           8.18549300      8.93033500      7.43893300
H           6.48850600      9.95323800      8.97007200
H           7.12564100     11.65294200     10.61861800
H           9.48842000     12.42521800     10.83539300
H          12.13441500     11.76945500      9.78251000
C          11.95817500     10.40492000      8.11577700
H          12.99671600     10.31708200      7.82114600
N          11.53157300     11.29172800      9.10966900
N          10.94083500      9.69840900      7.60043900
P          11.70067000      7.42577500     10.02884400
O          12.89100800      8.27161100      9.98977500
O          12.01421500      6.01012600     10.66936900
H          11.13329800      5.46643400     10.67612900
O          10.52155500      7.96626900     10.96578500
H           9.83861700      8.47777100     10.40051600
O          10.97512300      7.07500100      8.66013400
H          11.16528100      7.82591900      7.94882100
O          13.25522400     11.06269800     11.01477400
H          13.25099900     10.13576200     10.72613800
H          13.04217500     11.02308500     11.94639600
          26
 G =       -0.329468 Gcorr = 0.128474 a.u. Nimag =   0 Frame:     9 Step:     9 Geom:     9
C          10.13261300     11.19929400      9.22912800
C           9.81735200     10.08468700      8.38011300
C           8.51744300      9.57124900      8.34225200
C           7.56421100     10.18527600      9.13555700
C           7.87827600     11.29015100      9.95579900
C           9.15825500     11.81332000     10.01920800
H           8.28797500      8.71013000      7.71781700
H           6.54100300      9.81274500      9.13321700
H           7.08482300     11.73581600     10.55502900
H           9.40094100     12.65810700     10.65485600
H          12.08703400     11.99151400      9.67810600
C          11.97186900     10.46182500      8.17479300
H          13.01495400     10.39223800      7.89435200
N          11.49903500     11.44154400      9.05507200
N          10.99019400      9.65901300      7.74099800
P          11.30634900      7.39945300     10.30105500
O          11.93441400      8.47477800     11.06592700
O          11.55887100      5.98838400     10.98493100
H          11.13642400      5.26539500     10.37853400
O           9.71297500      7.47686800     10.15133500
H           9.36323600      8.31403500     10.61892900
O          11.77717600      7.13708000      8.81241300
H          11.36266100      7.87831700      8.18007300
O          13.34584600     11.12852800     10.69703500
H          12.96270200     10.24500500     10.80454500
H          13.85338000     11.28525700     11.48893200
          26
 G =       -0.328806 Gcorr = 0.129217 a.u. Nimag =   0 Frame:    10 Step:    10 Geom:    10
C          10.11651200     11.01834500      9.23247100
C           9.81173200     10.00363400      8.26250000
C           8.50854500      9.51155000      8.14165300
C           7.54497800     10.03768400      8.98332700
C           7.85132200     11.03758300      9.93190300
C           9.13176900     11.54309500     10.07309800
H           8.28104300      8.74187600      7.40720600
H           6.51845600      9.67950100      8.91860500
H           7.04997000     11.41608900     10.56617600
H           9.36688400     12.31203100     10.80165700
H          12.05352100     11.79302200      9.77486000
C          11.96436900     10.41627800      8.11147100
H          13.00867400     10.38291900      7.82597200
N          11.48262300     11.28211900      9.09862800
N          10.99048100      9.65504800      7.59007300
P          11.86337100      7.42887000     10.01982400
O          13.00322800      8.34193800      9.98771100
O          12.25349600      6.03415400     10.66413200
H          11.40503100      5.44083600     10.66564000
O          10.64855800      7.90051800     10.94842000
H           9.94476500      8.37831200     10.37931200
O          11.16902900      7.03624100      8.64640600
H          11.31687900      7.79897300      7.93723900
O          13.20620000     11.14867000     11.01286600
H          13.25391200     10.22283000     10.72460500
H          12.99466900     11.09789600     11.94425700
          26
 G =       -0.321464 Gcorr = 0.123454 a.u. Nimag =   0 Frame:    11 Step:    11 Geom:    11
C           9.78862300     11.57498600      9.46730100
C           9.70092700     10.14926200      9.33333200
C           8.50553500      9.54558500      8.90125000
C           7.43749500     10.37928600      8.61696900
C           7.53155900     11.78984600      8.75194400
C           8.69640000     12.40939600      9.17521000
H           8.44314300      8.46085700      8.80043400
H           6.49258100      9.95213700      8.27914000
H           6.65515200     12.39338100      8.51267800
H           8.76809900     13.48791400      9.27824800
H          11.48763000     12.74913800     10.10442700
C          11.75987000     10.60656100     10.03433100
H          12.82555400     10.49267200     10.37094800
N          11.10420900     11.83994000      9.91314200
N          10.94678300      9.57765900      9.69474800
P          11.67452300      7.42236700      9.76924900
O          12.92063300      8.08865000     10.21489800
O          11.92468900      5.78883800      9.73283800
H          11.15335200      5.23006300      9.46753600
O          10.33005300      7.28131000     10.72038600
H          10.01818200      8.05853300     11.23478200
O          11.13322100      7.46555300      8.20850000
H          11.15541500      8.31503800      7.71403800
O          14.43925200      9.83236800     10.83439800
H          14.08902400      9.18267900     11.47274000
H          14.54811100      9.29599100     10.02654500
          26
 G =       -0.326968 Gcorr = 0.128699 a.u. Nimag =   1 Frame:    12 Step:    12 Geom:    12
C          10.25759600     11.25276300      9.26975800
C           9.95686800     10.21732600      8.32129900
C           8.65319800      9.72599800      8.20236700
C           7.67991300     10.29628200      9.00660100
C           7.97912600     11.33145500      9.91645200
C           9.26510400     11.82378000     10.06769400
H           8.43428800      8.91604200      7.51098800
H           6.65360000      9.94017700      8.94177400
H           7.17167700     11.74587600     10.51833000
H           9.49715800     12.61030500     10.77671100
H          12.20261800     11.94068800      9.88030200
C          12.12476800     10.56769800      8.22807700
H          13.17475500     10.50261300      7.97720300
N          11.63603200     11.48081500      9.16961600
N          11.14777900      9.82540300      7.68938300
P          11.19244200      7.46281800     10.11865800
O          12.12469100      8.16752500     10.99142000
O          10.77954300      6.01409700     10.65330400
H          11.41064800      5.32501400     10.22833200
O           9.78112900      8.18077300      9.90516500
H           9.19875800      8.02109900     10.73540700
O          11.68741800      7.18528000      8.63880900
H          11.41064500      8.00543000      8.02349200
O          13.22505900     11.00150100     11.06603800
H          12.90212800     10.08810200     11.01012200
H          13.45307000     11.13115200     11.98270800
          26
 G =       -0.329446 Gcorr = 0.128496 a.u. Nimag =   0 Frame:    13 Step:    13 Geom:    13
C          10.14074900     11.23823700      9.33261600
C           9.84285100     10.16788700      8.42259200
C           8.54180000      9.66534700      8.32499900
C           7.57053800     10.24675600      9.12097800
C           7.86791200     11.30888200     10.00167500
C           9.14842600     11.81994900     10.12478400
H           8.32497800      8.83668500      7.65385900
H           6.54583900      9.88144600      9.07314400
H           7.06076200     11.73045700     10.60004900
H           9.37812600     12.63157500     10.80678800
H          12.08639100     11.99420000      9.87255300
C          12.00420000     10.54016600      8.29401900
H          13.05414900     10.47722700      8.03876000
N          11.51270900     11.47958300      9.20741600
N          11.03043700      9.76575900      7.79557700
P          11.26635500      7.38121200     10.24708200
O          11.87897200      8.41316800     11.08113400
O          11.49247700      5.93643700     10.86686700
H          11.07901600      5.24749400     10.21624600
O           9.67805900      7.47684800     10.05809300
H           9.31996300      8.29123100     10.55842200
O          11.77644700      7.18951100      8.76070100
H          11.38263700      7.96357100      8.15471600
O          13.31196900     11.07285100     10.88099700
H          12.92162300     10.18753800     10.93519500
H          13.80262400     11.18599000     11.69075000
          26
 G =       -0.330034 Gcorr = 0.127786 a.u. Nimag =   0 Frame:    14 Step:    14 Geom:    14
C          10.08221100     11.23497600      9.18739300
C           9.81555200     10.10299100      8.34504000
C           8.52815500      9.56179600      8.27579200
C           7.53877300     10.16705100      9.03089300
C           7.80518100     11.28968000      9.84397100
C           9.07208100     11.83974100      9.93878700
H           8.33582500      8.68708800      7.65778800
H           6.52389300      9.77337100      9.00314000
H           6.98506000     11.72713500     10.41250600
H           9.27838200     12.69784800     10.56959500
H          12.00465300     12.07464400      9.68117800
C          11.96768700     10.52105300      8.20012900
H          13.02025400     10.46599600      7.95460400
N          11.44852300     11.50220300      9.05141500
N          11.01515600      9.69437200      7.74638900
P          11.33890300      7.42333600     10.28665800
O          11.89082000      8.50826200     11.09582300
O          11.63014000      6.01131100     10.95376200
H          11.26100100      5.28237700     10.32109500
O           9.75021000      7.43611600     10.07703900
H           9.34348600      8.22491300     10.58133900
O          11.87547900      7.21278300      8.81262600
H          11.42271300      7.92505500      8.17178600
O          13.21953400     11.20975900     10.76136800
H          12.80149900     10.34541200     10.89036500
H          13.87483700     11.28074000     11.44952900
          26
 G =       -0.329466 Gcorr = 0.128476 a.u. Nimag =   0 Frame:    15 Step:    15 Geom:    15
C          10.08633100     11.23073100      9.19435500
C           9.83106800     10.10614400      8.33841300
C           8.54632900      9.56131800      8.25241200
C           7.54856700     10.15472100      9.00565900
C           7.80396400     11.26951000      9.83281000
C           9.06760300     11.82362300      9.94354700
H           8.36201500      8.69285200      7.62321300
H           6.53546400      9.75756700      8.96531600
H           6.97739800     11.69783000     10.39901600
H           9.26509400     12.67606100     10.58460100
H          12.00235700     12.07086800      9.71559400
C          11.98226600     10.53463000      8.21485300
H          13.03680400     10.48945100      7.97517800
N          11.45225800     11.50549800      9.07215400
N          11.03770400      9.70695300      7.74682600
P          11.30853800      7.46271900     10.32502200
O          11.88120400      8.55477500     11.10942300
O          11.56775200      6.06002900     11.02343500
H          11.18355100      5.32571200     10.40526500
O           9.72066300      7.50202400     10.11382500
H           9.33337000      8.33117600     10.56569800
O          11.84217800      7.20727900      8.85654600
H          11.43496100      7.93693200      8.20615200
O          13.24144700     11.24090800     10.78490800
H          12.87590600     10.34870200     10.88124900
H          13.71522600     11.41200300     11.59454300
          26
 G =       -0.329020 Gcorr = 0.129225 a.u. Nimag =   0 Frame:    16 Step:    17 Geom:    17
C          10.04709200     11.02829600      9.36443700
C           9.80622100     10.08899700      8.30466700
C           8.52180400      9.57895000      8.09207200
C           7.51335000     10.01282000      8.93375300
C           7.75703200     10.93895400      9.97122000
C           9.01751100     11.46044500     10.20406000
H           8.34282300      8.86638100      7.28969000
H           6.49971000      9.63779500      8.79912600
H           6.92240700     11.24618400     10.60107400
H           9.20447100     12.17259900     11.00106300
H          11.94065600     11.80021100     10.04575100
C          11.95204500     10.55948400      8.27596400
H          13.00723800     10.57195800      8.03209600
N          11.41029200     11.33197600      9.30839300
N          11.01886700      9.82175300      7.65569700
P          11.83410100      7.43197900      9.94966900
O          12.95377500      8.36612700     10.03695000
O          12.22790700      5.99908900     10.50146100
H          11.39206200      5.39299100     10.42624200
O          10.57154600      7.80762100     10.85810200
H           9.87886000      8.30921800     10.29588700
O          11.20625500      7.13387400      8.52157800
H          11.37137200      7.94968100      7.87840300
O          13.04889500     11.08657800     11.28544200
H          13.13175800     10.18722900     10.92930400
H          12.79196600     10.95881900     12.19790300
          26
 G =       -0.329308 Gcorr = 0.129627 a.u. Nimag =   0 Frame:    17 Step:    18 Geom:    18
C          10.08830100     11.23880000      9.27116600
C           9.80453200     10.23874200      8.28039800
C           8.48232700      9.92047700      7.95803500
C           7.47904900     10.60136600      8.62561500
C           7.76600000     11.58353300      9.59747600
C           9.06599400     11.91852500      9.93636500
H           8.26886700      9.16222500      7.20891500
H           6.43676000     10.38106900      8.40115600
H           6.93497300     12.08696500     10.09012400
H           9.28598500     12.67313500     10.68365300
H          12.00935000     11.76784000     10.09950600
C          11.99119900     10.37602700      8.45325700
H          13.05425100     10.20813700      8.32653300
N          11.48293900     11.32619300      9.34382200
N          11.01671700      9.72500500      7.79952900
P          11.69733900      7.31540200     10.17276800
O          12.85544000      8.20157700     10.27325200
O          11.86447900      5.83606800     10.74915600
H          12.43102400      5.30063300     10.07780700
O          10.50294800      7.87140400     11.06332400
H           9.69858400      7.23702500     10.97305900
O          11.11840900      7.01620100      8.72904900
H          11.13710000      7.89864700      8.14462900
O          12.98048400     10.98127400     11.41116500
H          13.03084400     10.06868600     11.08267200
H          12.60611900     10.89505300     12.28757900
          26
 G =       -0.329057 Gcorr = 0.129188 a.u. Nimag =   0 Frame:    18 Step:    19 Geom:    19
C          10.07698900     11.01078400      9.28621700
C           9.83602000     10.00093500      8.29349300
C           8.54823900      9.49011600      8.10451600
C           7.53654900      9.99316700      8.90270200
C           7.78036600     10.98838200      9.87405100
C           9.04420800     11.51219700     10.08224300
H           8.36916900      8.72406300      7.35306100
H           6.52020900      9.61989400      8.78460400
H           6.94313200     11.34830500     10.47170800
H           9.23130200     12.27742400     10.82840400
H          11.97258000     11.80890200      9.93090400
C          11.98692200     10.44667100      8.25307800
H          13.04438400     10.43143800      8.01939400
N          11.44383500     11.29616900      9.22244200
N          11.05177000      9.67610000      7.67739300
P          11.82159900      7.44681500     10.14422400
O          12.95353800      8.36961900     10.17498200
O          12.19169400      6.05126000     10.79844000
H          11.35119100      5.44898500     10.75063200
O          10.55854800      7.90407400     11.01355600
H           9.87109800      8.36189100     10.40895800
O          11.19885500      7.05692200      8.73597100
H          11.38131600      7.82120200      8.03708600
O          13.06510700     11.17270600     11.22522800
H          13.14064500     10.24957100     10.93422900
H          12.80074700     11.11242300     12.14248900
          26
 G =       -0.321513 Gcorr = 0.123406 a.u. Nimag =   0 Frame:    19 Step:    20 Geom:    20
C           9.54361100     11.45904800      9.53139500
C           9.62309800     10.03882300      9.34430200
C           8.49546900      9.31066200      8.92200500
C           7.32669000     10.01862200      8.69988100
C           7.25532100     11.42452000      8.88723800
C           8.35044600     12.16500800      9.30226000
H           8.56037500      8.23058000      8.78089300
H           6.42950000      9.49256900      8.37163200
H           6.30571000     11.92575700      8.69592800
H           8.29557300     13.23993200      9.44543100
H          11.10905700     12.80664700     10.16721600
C          11.63387100     10.71658900     10.00546800
H          12.71562800     10.72062800     10.30771400
N          10.83160000     11.86514100      9.95080100
N          10.93938700      9.60958900      9.64855900
P          11.92192200      7.55667300      9.61834300
O          13.09154300      8.35149600     10.06068300
O          12.36553500      5.96828500      9.50791300
H          11.66340600      5.33238000      9.22496000
O          10.63217800      7.21925200     10.59517800
H          10.25097800      7.93184600     11.15466600
O          11.33415600      7.59204600      8.07415200
H          11.23930400      8.45518800      7.61360100
O          14.40972300     10.24295300     10.70545200
H          14.15693000      9.53536000     11.32798900
H          14.55900700      9.75041900      9.87634800
          26
 G =       -0.324969 Gcorr = 0.128912 a.u. Nimag =   0 Frame:    20 Step:    21 Geom:    21
C          10.22116100     11.04544000      8.83790800
C           9.26571100     10.05080500      8.44511500
C           7.94413900     10.12767200      8.89361600
C           7.60950400     11.18851800      9.71759000
C           8.55677600     12.16223700     10.10007500
C           9.87230200     12.10963100      9.67138700
H           7.22157300      9.36928400      8.60203700
H           6.59058900     11.27958400     10.09098400
H           8.23645100     12.97174700     10.75504700
H          10.60392200     12.85345500      9.96704900
H          12.33185300     11.05950800      8.49534600
C          11.18586400      9.49305800      7.53043200
H          11.95708900      8.97258600      6.97748000