          26
 Energy =    -1100.43887840 a.u.  Frame:     1 Step:     1 Geom:     1
C          10.08221100     11.23497600      9.18739300
C           9.81555200     10.10299100      8.34504000
C           8.52815500      9.56179600      8.27579200
C           7.53877300     10.16705100      9.03089300
C           7.80518100     11.28968000      9.84397100
C           9.07208100     11.83974100      9.93878700
H           8.33582500      8.68708800      7.65778800
H           6.52389300      9.77337100      9.00314000
H           6.98506000     11.72713500     10.41250600
H           9.27838200     12.69784800     10.56959500
H          12.00465300     12.07464400      9.68117800
C          11.96768700     10.52105300      8.20012900
H          13.02025400     10.46599600      7.95460400
N          11.44852300     11.50220300      9.05141500
N          11.01515600      9.69437200      7.74638900
P          11.33890300      7.42333600     10.28665800
O          11.89082000      8.50826200     11.09582300
O          11.63014000      6.01131100     10.95376200
H          11.26100100      5.28237700     10.32109500
O           9.75021000      7.43611600     10.07703900
H           9.34348600      8.22491300     10.58133900
O          11.87547900      7.21278300      8.81262600
H          11.42271300      7.92505500      8.17178600
O          13.21953400     11.20975900     10.76136800
H          12.80149900     10.34541200     10.89036500
H          13.87483700     11.28074000     11.44952900
          26
 Energy =    -1100.43904740 a.u.  Frame:     2 Step:     2 Geom:     2
C          10.13256300     11.32640800      9.23491900
C           9.82036800     10.22294600      8.37038300
C           8.51281600      9.73381500      8.29370500
C           7.54959400     10.36051100      9.06471300
C           7.86121300     11.45444200      9.90042300
C           9.14830500     11.95352600     10.00213400
H           8.28486600      8.88083800      7.65765700
H           6.52020100     10.00693400      9.03207900
H           7.05992100     11.91100600     10.48071600
H           9.38891200     12.78979200     10.64972400
H          12.08800800     12.07973800      9.74225500
C          11.98626200     10.56152800      8.22637300
H          13.03516200     10.47439900      7.97396600
N          11.50744700     11.54445600      9.09981900
N          11.00233400      9.77953400      7.76081500
P          11.20555600      7.50163300     10.31681600
O          11.82999500      8.56143500     11.10590900
O          11.41377100      6.08269000     10.99933800
H          10.99660400      5.37044500     10.37682400
O           9.61876400      7.60808900     10.12165500
H           9.27003700      8.44748700     10.58586500
O          11.71423100      7.23901000      8.84073500
H          11.32972800      7.98994900      8.20093400
O          13.29995300     11.19080600     10.79434500
H          12.89857200     10.31351500     10.88524800
H          13.78483400     11.33507900     11.60267000
          26
 Energy =    -1100.43514860 a.u.  Frame:     3 Step:     3 Geom:     3
C          10.08333300     11.26873300      9.21521000
C           9.75022500     10.17538700      8.34572600
C           8.41559000      9.80479200      8.15767200
C           7.44911300     10.53242700      8.83003700
C           7.78404300     11.61038000      9.67719900
C           9.09745400     11.99577700      9.88544800
H           8.16598600      8.96746100      7.51046100
H           6.39881500     10.27195800      8.71062400
H           6.98006300     12.14716400     10.17921400
H           9.35445200     12.82228000     10.53843400
H          12.05302500     11.89563800      9.83938300
C          11.94080900     10.35308100      8.34925600
H          12.99578400     10.18639200      8.16877000
N          11.47752800     11.37902700      9.17827900
N          10.93502600      9.63634600      7.82639800
P          11.57325600      7.24009600     10.19470600
O          12.64091500      8.15896000     10.58850300
O          11.69674000      5.78080000     10.83486400
H          12.50779900      5.31939400     10.40509600
O          10.10080100      7.66205800     10.64072600
H          10.07523100      7.68021000     11.66816900
O          11.40520400      6.93271500      8.65592800
H          11.13776100      7.83804400      8.15768000
O          13.32208400     11.07165500     10.86568100
H          13.12458200     10.12558700     10.78854400
H          13.63439800     11.19365200     11.75800400
          26
 Energy =    -1100.43834030 a.u.  Frame:     4 Step:     4 Geom:     4
C          10.03649000     11.28983100      9.07782800
C           9.67103600     10.20162100      8.21498700
C           8.32528600      9.88267000      8.01334700
C           7.37999200     10.65014200      8.67155400
C           7.74706800     11.71857000      9.51726500
C           9.07203000     12.05634700      9.73501700
H           8.05002900      9.05776400      7.36107500
H           6.32161200     10.43214100      8.53892300
H           6.95905500     12.28794200     10.00879600
H           9.35363200     12.87732500     10.38537400
H          12.01690700     11.85576800      9.72139400
C          11.86628300     10.30580300      8.23054600
H          12.91564100     10.10185700      8.05286000
N          11.43408500     11.35232100      9.05047100
N          10.83992000      9.61450800      7.71144600
P          11.64003400      7.44147900     10.26907500
O          12.81605100      8.30704000     10.20269600
O          11.82241400      6.02434600     10.98112800
H          12.33394400      5.41140400     10.33230300
O          10.51721000      8.11088400     11.17457500
H           9.69881700      7.48869900     11.20234600
O          10.96052600      7.01158100      8.90438200
H          10.95404600      7.82995100      8.23291000
O          13.06026600     11.18373200     11.04109800
H          13.07434800     10.24181800     10.80467300
H          12.74329200     11.19446800     11.94394500
          26
 Energy =    -1100.43946750 a.u.  Frame:     5 Step:     5 Geom:     5
C          10.07698900     11.01078400      9.28621700
C           9.83602000     10.00093500      8.29349300
C           8.54823900      9.49011600      8.10451600
C           7.53654900      9.99316700      8.90270200
C           7.78036600     10.98838200      9.87405100
C           9.04420800     11.51219700     10.08224300
H           8.36916900      8.72406300      7.35306100
H           6.52020900      9.61989400      8.78460400
H           6.94313200     11.34830500     10.47170800
H           9.23130200     12.27742400     10.82840400
H          11.97258000     11.80890200      9.93090400
C          11.98692200     10.44667100      8.25307800
H          13.04438400     10.43143800      8.01939400
N          11.44383500     11.29616900      9.22244200
N          11.05177000      9.67610000      7.67739300
P          11.82159900      7.44681500     10.14422400
O          12.95353800      8.36961900     10.17498200
O          12.19169400      6.05126000     10.79844000
H          11.35119100      5.44898500     10.75063200
O          10.55854800      7.90407400     11.01355600
H           9.87109800      8.36189100     10.40895800
O          11.19885500      7.05692200      8.73597100
H          11.38131600      7.82120200      8.03708600
O          13.06510700     11.17270600     11.22522800
H          13.14064500     10.24957100     10.93422900
H          12.80074700     11.11242300     12.14248900
          26
 Energy =    -1100.42042420 a.u.  Frame:     6 Step:     6 Geom:     6
C          10.25759600     11.25276300      9.26975800
C           9.95686800     10.21732600      8.32129900
C           8.65319800      9.72599800      8.20236700
C           7.67991300     10.29628200      9.00660100
C           7.97912600     11.33145500      9.91645200
C           9.26510400     11.82378000     10.06769400
H           8.43428800      8.91604200      7.51098800
H           6.65360000      9.94017700      8.94177400
H           7.17167700     11.74587600     10.51833000
H           9.49715800     12.61030500     10.77671100
H          12.20261800     11.94068800      9.88030200
C          12.12476800     10.56769800      8.22807700
H          13.17475500     10.50261300      7.97720300
N          11.63603200     11.48081500      9.16961600
N          11.14777900      9.82540300      7.68938300
P          11.19244200      7.46281800     10.11865800
O          12.12469100      8.16752500     10.99142000
O          10.77954300      6.01409700     10.65330400
H          11.41064800      5.32501400     10.22833200
O           9.78112900      8.18077300      9.90516500
H           9.19875800      8.02109900     10.73540700
O          11.68741800      7.18528000      8.63880900
H          11.41064500      8.00543000      8.02349200
O          13.22505900     11.00150100     11.06603800
H          12.90212800     10.08810200     11.01012200
H          13.45307000     11.13115200     11.98270800
          26
 Energy =    -1100.43467220 a.u.  Frame:     7 Step:     7 Geom:     7
C          10.22116100     11.04544000      8.83790800
C           9.26571100     10.05080500      8.44511500
C           7.94413900     10.12767200      8.89361600
C           7.60950400     11.18851800      9.71759000
C           8.55677600     12.16223700     10.10007500
C           9.87230200     12.10963100      9.67138700
H           7.22157300      9.36928400      8.60203700
H           6.59058900     11.27958400     10.09098400
H           8.23645100     12.97174700     10.75504700
H          10.60392200     12.85345500      9.96704900
H          12.33185300     11.05950800      8.49534600
C          11.18586400      9.49305800      7.53043200
H          11.95708900      8.97258600      6.97748000
N          11.42866900     10.68854700      8.22228800
N           9.91001200      9.10073800      7.63847800
P          11.36864800      7.50677100     10.43685400
O          11.03792700      8.58788900     11.35914300
O          11.98742400      6.24955600     11.18147400
H          12.12995200      5.50289000     10.48208000
O          10.24592000      6.83836100      9.54242300
H           9.96503700      7.51426500      8.78341200
O          12.47252200      7.91278100      9.33573500
H          12.86645300      8.82195100      9.57829200
O          13.00350300     10.79559400     10.20325100
H          12.26035100     10.52280300     10.76722600
H          13.73666100     10.95433700     10.79528600
          26
 Energy =    -1100.39760610 a.u.  Frame:     8 Step:     8 Geom:     8
C           9.76083900     11.60641600      9.39642800
C           9.65079400     10.17705400      9.33986500
C           8.43317500      9.56900900      8.98236400
C           7.36592300     10.40203100      8.69323300
C           7.48218500     11.81620600      8.75140300
C           8.66911500     12.44010000      9.10038200
H           8.35383700      8.48149700      8.94035700
H           6.40423000      9.97151700      8.41172700
H           6.60520600     12.41899500      8.51237200
H           8.75779700     13.52136800      9.14476700
H          11.49575800     12.78761900      9.91157900
C          11.73923100     10.64059700      9.94262600
H          12.81486500     10.52906000     10.24650100
N          11.09485900     11.87527500      9.78094600
N          10.90170800      9.60721400      9.68609000
P          11.60417700      7.44836500      9.84783100
O          12.87309700      8.11861300     10.21667100
O          11.83318600      5.81179800      9.88570800
H          11.05077400      5.25118400      9.66013600
O          10.29181500      7.37551200     10.84972500
H          10.01051500      8.18163100     11.33660400
O          11.00960700      7.41897700      8.30600100
H          11.02707600      8.24060200      7.76669200
O          14.43408400      9.86973800     10.69237900
H          14.09554100      9.26074900     11.37560000
H          14.51061600      9.28887900      9.91202400
