          43
 G =       -0.623880 Gcorr = 0.255144 a.u. Nimag =   0 Frame:     1 Step:     1 Geom:     1
C          10.13335600      9.32207100     11.43453400
C          11.20800800      8.67606700     10.81680100
C          10.95151800      7.73840700      9.80783200
C           9.62851500      7.43924800      9.47903400
C           8.58472600      8.07979000     10.13849700
H          11.77676700      7.25873800      9.27176200
H          10.30308300     10.09961300     12.20269600
H           9.39831900      6.74193700      8.66737200
H           7.53038200      7.86025900      9.90913000
C          12.59122400      9.04434100     11.20806300
H          13.34241600      8.68666900     10.48499800
H          12.72243200     10.14443700     11.23293000
H          12.86248500      8.65718200     12.19865300
N           8.85152200      9.02090400     11.09018400
C           7.72103900      9.73845200     11.72346200
H           7.01945900      8.98576800     12.14940800
H           8.09576300     10.34312200     12.58925100
C           6.99189300     10.65056800     10.72219500
H           7.02928000     10.22778700      9.68924800
H           5.91158400     10.67280000     10.97448000
C           7.53846600     12.07619900     10.71345400
H           6.80619400     12.76372700     10.24203800
H           7.70490000     12.46077600     11.73698600
C           8.83907800     12.11510900      9.91398000
O           8.75517200     12.35092800      8.69466600
O           9.90647400     11.88362800     10.52754200
P          11.45366200     10.47073500      7.67116600
O          10.75668500      9.18896400      7.84520600
O          12.03730000     11.10410300      9.00770100
H          11.23139300     11.47066400      9.59270400
O          12.75734600     10.26058900      6.77869900
H          13.20205500     11.18693000      6.66572000
O          10.66309900     11.62266900      6.93075000
H           9.92216000     11.99288200      7.60767400
O           9.78910500     11.95561800     13.20268000
H           9.84441400     12.01434600     12.21590100
H          10.31561400     12.67604300     13.52446100
O           6.65509100     11.24134700      7.39348200
H           6.71923400     11.57524800      6.50301600
H           7.37494500     11.70615100      7.88076600
O           7.75662200      8.67020700      7.66900100
H           7.31625900      9.51371300      7.48807100
H           8.69097300      8.84127500      7.52382300
          43
 G =       -0.617341 Gcorr = 0.235544 a.u. Nimag =   0 Frame:     2 Step:     2 Geom:     2
C          10.31551900      9.33352200     11.32341300
C          11.38854900      8.65693000     10.72175300
C          11.11011900      7.59388600      9.84245400
C           9.78440100      7.23230500      9.59771800
C           8.73946800      7.93378600     10.20752400
H          11.92326700      7.08316200      9.32036400
H          10.49080600     10.20588100     11.99417100
H           9.54565000      6.43891700      8.88308800
H           7.68485100      7.71320000      9.96203900
C          12.77697800      9.11913100     10.97409900
H          13.53761700      8.37978100     10.69255900
H          12.98449600     10.02865200     10.36220300
H          12.95604900      9.39788000     12.02057900
N           9.01806700      8.97219700     11.06276400
C           7.89474900      9.72399900     11.71033200
H           7.23283700      8.99111500     12.22407700
H           8.31626500     10.38856600     12.51675500
C           7.09458600     10.55700300     10.70143400
H           7.16060300     10.10816600      9.66918700
H           6.01802000     10.49763300     10.96001300
C           7.52145900     12.02405100     10.65264600
H           6.70492000     12.64135700     10.22268700
H           7.70114700     12.42499700     11.67153300
C           8.76793200     12.18586700      9.79996700
O           8.63232900     12.36312800      8.56365800
O           9.90168800     12.12165800     10.37055400
P          11.16072300     10.51930600      7.61590000
O          10.37892200      9.29078100      7.88138600
O          11.85656800     11.22203800      8.90725600
H          11.20329000     11.77006800      9.56287800
O          12.45126100     10.25304300      6.64211000
H          12.92024700     11.06531500      6.30712900
O          10.39013200     11.73321300      6.86380300
H           9.77963300     12.35978000      7.48841600
O           9.82069500     11.77013300     12.99066500
H           9.92267900     12.16153400     12.07525600
H          10.27485300     12.34891400     13.58641400
O           7.24957600     11.17345700      6.77640500
H           8.13724100     11.29290900      6.41224100
H           7.21862800     11.77729500      7.54669200
O           7.53508100      8.95393000      8.11125900
H           7.07880400      9.54445200      7.46497800
H           8.47932000      8.99707800      7.84966100
          43
 G =       -0.617332 Gcorr = 0.235553 a.u. Nimag =   0 Frame:     3 Step:     3 Geom:     3
C          10.29181600      9.34549100     11.36453900
C          11.32433600      8.61583100     10.75407800
C          10.98535300      7.56828900      9.87745100
C           9.64109300      7.27375000      9.64422500
C           8.63795000      8.02681000     10.26260700
H          11.76730700      7.01758500      9.34836800
H          10.51639400     10.20792600     12.03351000
H           9.35675400      6.49332800      8.93203600
H           7.57154400      7.85953500     10.02628500
C          12.73636900      9.00741100     10.99470500
H          12.98475200      9.90450100     10.37971100
H          12.93761400      9.27810700     12.03928600
H          13.45623400      8.23005400     10.70847600
N           8.97569600      9.04992400     11.11502400
C           7.89708500      9.85738800     11.77161800
H           7.20279400      9.15877500     12.29032300
H           8.35821100     10.49907400     12.57484500
C           7.13261200     10.73064500     10.76913400
H           7.16694700     10.27915300      9.73646000
H           6.05652400     10.72661900     11.03628600
C           7.63413200     12.17374600     10.71671600
H           6.84684000     12.83267100     10.29404400
H           7.84324200     12.56432100     11.73400900
C           8.87976300     12.27126300      9.85315100
O           8.74306600     12.45471900      8.61793500
O          10.01355600     12.14940000     10.41444100
P          11.16514300     10.48642300      7.64819400
O          10.32397100      9.29932300      7.92062100
O          11.90667000     11.15266300      8.93338400
H          11.28706600     11.73283900      9.59481900
O          12.43209900     10.15467800      6.66359700
H          12.94037700     10.94190700      6.32606300
O          10.45156500     11.73844600      6.90226200
H           9.87890400     12.39497800      7.53194300
O           9.93495500     11.80392300     13.03494600
H          10.05048200     12.19011400     12.11873300
H          10.42456900     12.35649200     13.62711600
O           7.28382800     11.34063500      6.84419400
H           8.17340500     11.41561100      6.47271500
H           7.28988100     11.94418000      7.61523800
O           7.46914200      9.10736100      8.17615600
H           7.03789000      9.72152000      7.53479100
H           8.41208500      9.10260800      7.90598900
          43
 G =       -0.626402 Gcorr = 0.252905 a.u. Nimag =   0 Frame:     4 Step:     4 Geom:     4
C          10.29233300      9.21170600     11.37830700
C          11.36597300      8.60613100     10.72040600
C          11.10897700      7.73037100      9.65700600
C           9.78622300      7.46228900      9.30358800
C           8.74282300      8.07462500      9.99144100
H          11.93352000      7.27990200      9.09603800
H          10.46317700      9.93625700     12.19617900
H           9.55599200      6.81822400      8.44951500
H           7.68906100      7.90403000      9.70907200
C          12.74958100      8.95443900     11.12773800
H          12.91727200     10.04904100     11.05783800
H          12.97280700      8.65576600     12.16008400
H          13.51070100      8.50551400     10.47144900
N           9.00952400      8.93920700     11.01186600
C           7.88169000      9.59481700     11.71406800
H           7.19998800      8.80167700     12.09759300
H           8.26595500     10.14145800     12.61378900
C           7.11570200     10.56600000     10.80079600
H           7.11852900     10.21182900      9.74237800
H           6.04470400     10.56489300     11.09149900
C           7.65571600     11.99251100     10.86666900
H           6.90810900     12.70417700     10.45975200
H           7.84915800     12.31317700     11.90732900
C           8.93294000     12.08652500     10.03512700
O           8.81319400     12.39194600      8.83423800
O          10.01812500     11.82593800     10.60437500
P          11.47527700     10.56461800      7.63705800
O          10.79036700      9.27324300      7.78426400
O          12.10038600     11.15352900      8.97470100
H          11.31124300     11.47823100      9.60703700
O          12.74793600     10.39819800      6.69219200
H          13.18599800     11.33053700      6.60402400
O          10.65180600     11.73839000      6.96910900
H           9.94003700     12.08261900      7.68899800
O           9.96553600     11.73468400     13.28141900
H           9.99600900     11.85150500     12.29838300
H          10.50111100     12.43506400     13.63132900
O           6.68613100     11.35145500      7.51999600
H           6.74669700     11.72042100      6.64311400
H           7.41378400     11.79136500      8.02008000
O           7.75967800      8.77192400      7.71345900
H           7.31189500      9.61889800      7.55866100
H           8.68434900      8.94290000      7.50805500
          43
 G =       -0.626375 Gcorr = 0.252930 a.u. Nimag =   0 Frame:     5 Step:     5 Geom:     5
C          10.27520000      9.07505400     11.36941000
C          11.29385900      8.44183300     10.65279100
C          10.95687500      7.61855200      9.56991300
C           9.61095600      7.42801900      9.25589300
C           8.62379300      8.06500600     10.00192200
H          11.73805800      7.14922200      8.96416300
H          10.51024400      9.76085800     12.20458900
H           9.31939000      6.82729400      8.38908800
H           7.55376600      7.95570000      9.75288800
C          12.70647000      8.70702500     11.02139500
H          12.92496200      9.79433500     10.99000300
H          12.95155400      8.35415600     12.03151100
H          13.42082100      8.25105700     10.31896200
N           8.96846600      8.87839400     11.04094300
C           7.89960500      9.56289500     11.80506400
H           7.19160800      8.79099400     12.18454400
H           8.34097300     10.05624700     12.70924300
C           7.15372200     10.60361600     10.95383100
H           7.10391900     10.28913500      9.88409300
H           6.09410600     10.64420500     11.28134000
C           7.76668600     11.99844300     11.05151000
H           7.04244200     12.76089500     10.69802300
H           8.01187800     12.26950700     12.09532300
C           9.01743500     12.06085300     10.17771100
O           8.87131400     12.41553900      8.99343600
O          10.10727300     11.72685800     10.69768500
P          11.39689900     10.50453400      7.63988100
O          10.65220600      9.24426400      7.76594300
O          12.09571600     11.01241800      8.97406700
H          11.34560900     11.35286400      9.64499200
O          12.62714000     10.30914900      6.64564900
H          13.10853900     11.22120000      6.57334400
O          10.61218800     11.74136000      7.04271400
H           9.94060700     12.09123400      7.79791300
O          10.14207700     11.53934500     13.37046200
H          10.14473300     11.69034500     12.39151100
H          10.72420600     12.19923300     13.72477700
O           6.65509900     11.52629900      7.71614300
H           6.71282000     11.92118100      6.85037200
H           7.41689300     11.91168900      8.21042600
O           7.59925400      8.89096700      7.78645300
H           7.18714600      9.76240300      7.67592200
H           8.52351000      9.02583800      7.55417700
          43
 G =       -0.623851 Gcorr = 0.255174 a.u. Nimag =   0 Frame:     6 Step:     6 Geom:     6
C          10.36230900      9.11920600     11.24252700
C          11.34877500      8.48233700     10.48420400
C          10.96346300      7.58698900      9.47775800
C           9.60665200      7.31914100      9.28991900
C           8.65540500      7.94903300     10.08556200
H          11.71438000      7.11643600      8.83494800
H          10.63139600      9.86425700     12.01450400
H           9.27411100      6.65620600      8.48499200
H           7.57812800      7.75354000      9.96872700
C          12.77371700      8.81656400     10.72894200
H          12.92457600      9.91225700     10.79480600
H          13.15278300      8.37413500     11.65915500
H          13.42941700      8.49068700      9.90474800
N           9.04461100      8.84940800     11.03449200
C           8.00576500      9.55843100     11.81678600
H           7.34215200      8.80031600     12.29109800
H           8.48620600     10.12384800     12.65650200
C           7.18659700     10.51887200     10.93775800
H           7.10044200     10.13547100      9.89244200
H           6.14182700     10.54709000     11.31044700
C           7.75520500     11.93574200     10.91963000
H           6.98771700     12.65116100     10.55851400
H           8.04157100     12.27859900     11.93139600
C           8.95917000     11.98666500      9.98151900
O           8.74437100     12.27132700      8.78889100
O          10.08376900     11.71563700     10.46232800
P          11.27521000     10.39085200      7.39953000
O          10.57696900      9.11375400      7.60083600
O          12.01671500     10.95912700      8.68627200
H          11.28866000     11.31672500      9.37035000
O          12.46691200     10.19749800      6.35904500
H          12.91436500     11.12084800      6.23300300
O          10.43017800     11.58417100      6.79803000
H           9.77641900     11.93751500      7.56772700
O          10.26616400     11.68766700     13.13443600
H          10.21244600     11.78289200     12.15031200
H          10.83770200     12.38833800     13.42111300
O           6.49004100     11.24470600      7.69429400
H           6.45892500     11.61140100      6.81509800
H           7.26931300     11.67959500      8.11289100
O           7.56717000      8.64769000      7.74933000
H           7.12606100      9.50427400      7.65055800
H           8.48225400      8.80961700      7.50459300
          43
 G =       -0.626318 Gcorr = 0.252989 a.u. Nimag =   0 Frame:     7 Step:     7 Geom:     7
C          10.41986500      9.15335900     11.23552200
C          11.44414300      8.58065700     10.47729300
C          11.11288900      7.72790400      9.41564800
C           9.76932600      7.45001600      9.16274800
C           8.77739600      8.03002200      9.94792000
H          11.89495400      7.30328900      8.77881100
H          10.64721100      9.85887200     12.05627900
H           9.47878200      6.82452500      8.31329000
H           7.70649900      7.85201900      9.74639900
C          12.85175900      8.93959800     10.77986800
H          13.17188100      8.58976400     11.76974900
H          13.55905700      8.54511500     10.03405100
H          12.99283200     10.03967100     10.75665200
N           9.11503700      8.87194200     10.96627500
C           8.03972700      9.49412100     11.77340200
H           7.39933600      8.68244800     12.18809700
H           8.48846900     10.02180900     12.65436400
C           7.19301100     10.47889700     10.95041200
H           7.11534300     10.15245700      9.88593700
H           6.14869600     10.45648100     11.32503900
C           7.72127100     11.91004700     11.01163300
H           6.93610100     12.62232900     10.68430900
H           7.99313400     12.20611400     12.04199800
C           8.92732000     12.04205100     10.08453200
O           8.70891900     12.37397100      8.90470600
O          10.05745500     11.78376900     10.55942000
P          11.28997000     10.61747100      7.45237900
O          10.63179800      9.31389600      7.61358400
O          12.01172200     11.17384300      8.75495400
H          11.27126700     11.47418500      9.45437900
O          12.48695400     10.49424200      6.40727200
H          12.90721800     11.43405600      6.31299500
O          10.40536000     11.79988200      6.88582800
H           9.74678300     12.11289900      7.66807900
O          10.21731500     11.62013300     13.22903200
H          10.16905700     11.76393100     12.25039600
H          10.77038600     12.31813600     13.55564200
O           6.49351700     11.34321500      7.73786000
H           6.47594200     11.73754800      6.87018900
H           7.25535000     11.77914200      8.18821200
O           7.61067900      8.77449200      7.77529600
H           7.14273800      9.61937100      7.67956400
H           8.51355300      8.96233000      7.50000000
          43
 G =       -0.622309 Gcorr = 0.256147 a.u. Nimag =   0 Frame:     8 Step:     8 Geom:     8
C          10.23288000      9.21314800     11.34995200
C          11.04718700      8.45739700     10.50333500
C          10.45094800      7.66799600      9.51043900
C           9.06249500      7.65097700      9.40241500
C           8.28149900      8.39828300     10.28128800
H          11.07090100      7.07973000      8.82386600
H          10.67337600      9.87591200     12.11282300
H           8.56955900      7.07935100      8.60708000
H           7.17985900      8.40670300     10.20907900
C          12.52067800      8.54269200     10.65312600
H          13.05729800      8.07298100      9.81187900
H          12.86327700      9.59740000     10.65309100
H          12.87657000      8.08007400     11.58216200
N           8.87445100      9.16355200     11.24038700
C           8.03622200      9.95064100     12.17680700
H           7.40611900      9.23944300     12.75861400
H           8.69548200     10.47456400     12.91788500
C           7.15264300     10.98642000     11.46378900
H           6.70467400     10.56622700     10.53380800
H           6.28600800     11.22023500     12.11689900
C           7.89719900     12.27757900     11.13492800
H           7.19405900     13.03693900     10.73705900
H           8.35555800     12.72395800     12.03831700
C           8.96496000     11.99742300     10.08049500
O           8.62072700     12.00271200      8.88742000
O          10.12072300     11.73536800     10.49774300
P          11.39892400     10.49443200      7.42995200
O          10.90250000      9.11212900      7.52447900
O          12.05748800     11.06791900      8.75139200
H          11.28385000     11.36409000      9.42716300
O          12.59025400     10.55065800      6.37267500
H          12.92212500     11.52913900      6.34005300
O          10.36519900     11.56359400      6.89810500
H           9.66655000     11.78378900      7.68462500
O          10.55103700     12.04080300     13.14102400
H          10.41737300     11.98973700     12.16406200
H          11.20681600     12.71526500     13.26433400
O           7.01340500      9.70793300      8.48092400
H           7.38488800      9.23268500      7.72597400
H           7.49734500     10.54870400      8.51088100
O           8.35612700      8.29571000      6.42598100
H           8.29570500      8.76841100      5.59575800
H           9.24508100      8.51732000      6.75795000
          43
 G =       -0.622357 Gcorr = 0.256100 a.u. Nimag =   0 Frame:     9 Step:     9 Geom:     9
C          10.24528200      9.33918300     11.37485600
C          11.04805700      8.54318500     10.55450700
C          10.43858500      7.70916100      9.60716700
C           9.04885500      7.68938100      9.51742900
C           8.27978900      8.47836600     10.36998000
H          11.04926100      7.08838300      8.94121700
H          10.69600500     10.03625600     12.10025900
H           8.54533800      7.08193600      8.75601500
H           7.17732500      8.48530600     10.31107300
C          12.52342400      8.63282400     10.68170700
H          12.89011600      8.21768300     11.62878900
H          13.04898200      8.11965700      9.85912100
H          12.86740000      9.68551300     10.62358700
N           8.88554000      9.28675900     11.28466800
C           8.05988200     10.11823800     12.19347800
H           7.43680900      9.43617500     12.81625400
H           8.72899700     10.67586000     12.90041800
C           7.16805200     11.12042000     11.44367900
H           6.70718700     10.65710600     10.54088100
H           6.31048900     11.38654600     12.09644500
C           7.90926500     12.39325400     11.04366600
H           7.20155800     13.13380700     10.61926700
H           8.37982800     12.88160300     11.91863500
C           8.96295900     12.06161700      9.99006500
O           8.60434400     12.01326900      8.80228800
O          10.12314000     11.81537900     10.40494000
P          11.36265300     10.43283500      7.38274600
O          10.86671900      9.05700500      7.54785300
O          12.03723100     11.06756700      8.66747400
H          11.27194700     11.39582300      9.33807000
O          12.54106900     10.43835300      6.30964900
H          12.87322300     11.41385800      6.22751800
O          10.32243300     11.47636300      6.81363100
H           9.63471400     11.73515300      7.59753200
O          10.58882500     12.24854700     13.02445800
H          10.44258600     12.15039600     12.05296400
H          11.24709100     12.92682800     13.10655100
O           6.98819500      9.70402500      8.52606400
H           7.34890000      9.19430900      7.78858800
H           7.47202100     10.54510900      8.51009800
O           8.30417700      8.19599300      6.52210300
H           8.23419700      8.63033200      5.67186800
H           9.19757000      8.43066200      6.83245400
          43
 G =       -0.622346 Gcorr = 0.256111 a.u. Nimag =   0 Frame:    10 Step:    10 Geom:    10
C          10.27454500      9.45743900     11.44587200
C          11.09028800      8.64390700     10.65609700
C          10.49463700      7.76397800      9.74209100
C           9.10542500      7.71778400      9.65421800
C           8.32347200      8.52614000     10.47636100
H          11.11546100      7.12810500      9.10020100
H          10.71372500     10.18901400     12.14381100
H           8.61196600      7.07333300      8.91700100
H           7.22103800      8.51239000     10.41823600
C          12.56396700      8.76293900     10.77847800
H          13.09781300      8.22720500      9.97590000
H          12.89027400      9.81821500     10.67964000
H          12.93778800      8.39088200     11.74058900
N           8.91585100      9.37915100     11.35871000
C           8.07661100     10.23163600     12.23503600
H           7.46451000      9.56420400     12.88398400
H           8.73643400     10.82697500     12.91962000
C           7.16886100     11.18950800     11.44733800
H           6.71530100     10.68404200     10.56366500
H           6.30721900     11.46721200     12.08984600
C           7.88960200     12.45737900     10.99733200
H           7.16999600     13.16940300     10.54489300
H           8.35239800     12.98710100     11.85210700
C           8.94808600     12.10157100      9.95649200
O           8.58974000     12.00030300      8.77200900
O          10.11243100     11.89087300     10.37937500
P          11.37465700     10.41325000      7.41204100
O          10.90167800      9.03680800      7.63074500
O          12.03850600     11.10876200      8.67054400
H          11.26771700     11.44813500      9.32946200
O          12.55279100     10.39683900      6.33869800
H          12.86873400     11.37376500      6.21879900
O          10.31721700     11.41648400      6.80331800
H           9.62516300     11.69367600      7.57677400
O          10.57037200     12.43419000     12.97956100
H          10.42765400     12.29488100     12.01246100
H          11.21496900     13.12807000     13.03533400
O           7.01134700      9.65666100      8.58700800
H           7.37957400      9.12384800      7.86984700
H           7.48292300     10.50353500      8.53776100
O           8.35231300      8.09632400      6.64151600
H           8.27515600      8.49661000      5.77530800
H           9.24181300      8.35749300      6.94194400
          43
 G =       -0.625430 Gcorr = 0.251378 a.u. Nimag =   0 Frame:    11 Step:    11 Geom:    11
C          10.43047600      9.42881600     11.25863300
C          11.35222700      8.71292800     10.48942000
C          10.88289200      7.80697900      9.52958300
C           9.50603700      7.63653400      9.37612000
C           8.62109400      8.35601400     10.17186500
H          11.58436700      7.25152900      8.89760000
H          10.77042500     10.17504300     12.00183300
H           9.11555200      6.97056900      8.60277800
H           7.52776500      8.23881700     10.07229200
C          12.80145100      8.97124400     10.67597100
H          13.18103000      8.56749900     11.62326900
H          13.41169300      8.55356100      9.85823100
H          13.01913000     10.05766000     10.66457000
N           9.09202400      9.23794900     11.09894500
C           8.13260500      9.99681300     11.93706000
H           7.48917900      9.26401600     12.47823300
H           8.69294000     10.57393800     12.71739900
C           7.25941800     10.95636000     11.11313300
H           6.93973000     10.48756700     10.15515800
H           6.31092000     11.13045900     11.66419300
C           7.93863600     12.29289200     10.83037900
H           7.20283100     13.02457100     10.44028600
H           8.36018500     12.74115400     11.74947900
C           9.03008100     12.09069900      9.78075200
O           8.68688100     12.07938100      8.58696200
O          10.19920900     11.90837500     10.20052400
P          11.33085600     10.37601700      7.23082800
O          10.59815700      9.12253200      7.46751300
O          12.09382200     10.95080400      8.50108800
H          11.37546800     11.38357000      9.15656000
O          12.50404900     10.13763500      6.18018700
H          12.97729300     11.04728000      6.04332000
O          10.49831200     11.57798300      6.62784500
H           9.76884000     11.86065900      7.36163400
O          10.58262800     12.12513900     12.83486400
H          10.45335000     12.13290100     11.85064500
H          11.20680400     12.81738300     13.00871700
O           5.49038700      8.60000700      9.40344200
H           6.14699800      8.96630100      8.78390200
H           4.71624600      8.43741900      8.87455300
O           7.57119400      9.62258200      7.87624100
H           7.80279200     10.55732000      8.04671300
H           8.39404500      9.25312300      7.53729300
          43
 G =       -0.625430 Gcorr = 0.251378 a.u. Nimag =   0 Frame:    12 Step:    12 Geom:    12
C          10.37317000      9.41845500     11.24994700
C          11.29660500      8.70361200     10.48175800
C          10.82961400      7.82630500      9.49457800
C           9.45309600      7.68216400      9.31361400
C           8.56605000      8.39918000     10.10922900
H          11.53300400      7.27282800      8.86298600
H          10.71207300     10.14312200     12.01466200
H           9.06553400      7.03941600      8.51942500
H           7.47289500      8.30220300      9.98841600
C          12.74629900      8.93336500     10.69927100
H          13.36441800      8.52004100      9.88530200
H          12.98246800     10.01595600     10.71178000
H          13.10146300      8.50629200     11.64581200
N           9.03483700      9.25338400     11.06300600
C           8.07321700     10.01029500     11.90033500
H           7.40857900      9.27711500     12.41466500
H           8.62896200     10.56157700     12.70236000
C           7.23039700     11.00128100     11.08201500
H           6.91990700     10.55797300     10.10900000
H           6.27536100     11.17964300     11.62025700
C           7.93625000     12.33187900     10.83939000
H           7.21950500     13.08374600     10.45217600
H           8.34868000     12.75377200     11.77498000
C           9.04271900     12.13361300      9.80486400
O           8.72074400     12.15301400      8.60527800
O          10.20114500     11.92327000     10.24098800
P          11.36004100     10.43534100      7.25897300
O          10.60308500      9.18941400      7.45586200
O          12.10911100     10.97047500      8.55456600
H          11.38625000     11.40140800      9.20628400
O          12.54791200     10.19985200      6.22431800
H          13.03838000     11.10417500      6.11559000
O          10.55815000     11.66348100      6.66726200
H           9.82034300     11.94267700      7.39390900
O          10.54087900     12.07835100     12.88551200
H          10.42929600     12.10893500     11.89952800
H          11.17352300     12.75580800     13.08489700
O           5.45294600      8.71128800      9.29257800
H           6.12673200      9.07862700      8.69251500
H           4.68483300      8.57583900      8.74743300
O           7.57862700      9.72970400      7.82450400
H           7.82173600     10.65678600      8.01877500
H           8.40118300      9.35436500      7.49142100
          43
 G =       -0.625433 Gcorr = 0.251374 a.u. Nimag =   0 Frame:    13 Step:    13 Geom:    13
C          10.26819600      9.44865700     11.34700700
C          11.25497800      8.73330500     10.66261100
C          10.87353200      7.83180200      9.66059900
C           9.51608700      7.66503900      9.38140900