 Entering Gaussian System, Link 0=g16
 Initial command:
 /data0/home/wuhanyu/software/g16/l1.exe "/data0/home/wuhanyu/software/g16/scratch/Gau-1811751.inp" -scrdir="/data0/home/wuhanyu/software/g16/scratch/"
 Default is to use a total of  22 processors:
                               22 via shared-memory
                                1 via Linda
 Entering Link 1 = /data0/home/wuhanyu/software/g16/l1.exe PID=   1811752.
  
 Copyright (c) 1988,1990,1992,1993,1995,1998,2003,2009,2016,
            Gaussian, Inc.  All Rights Reserved.
  
 This is part of the Gaussian(R) 16 program.  It is based on
 the Gaussian(R) 09 system (copyright 2009, Gaussian, Inc.),
 the Gaussian(R) 03 system (copyright 2003, Gaussian, Inc.),
 the Gaussian(R) 98 system (copyright 1998, Gaussian, Inc.),
 the Gaussian(R) 94 system (copyright 1995, Gaussian, Inc.),
 the Gaussian 92(TM) system (copyright 1992, Gaussian, Inc.),
 the Gaussian 90(TM) system (copyright 1990, Gaussian, Inc.),
 the Gaussian 88(TM) system (copyright 1988, Gaussian, Inc.),
 the Gaussian 86(TM) system (copyright 1986, Carnegie Mellon
 University), and the Gaussian 82(TM) system (copyright 1983,
 Carnegie Mellon University). Gaussian is a federally registered
 trademark of Gaussian, Inc.
  
 This software contains proprietary and confidential information,
 including trade secrets, belonging to Gaussian, Inc.
  
 This software is provided under written license and may be
 used, copied, transmitted, or stored only in accord with that
 written license.
  
 The following legend is applicable only to US Government
 contracts under FAR:
  
                    RESTRICTED RIGHTS LEGEND
  
 Use, reproduction and disclosure by the US Government is
 subject to restrictions as set forth in subparagraphs (a)
 and (c) of the Commercial Computer Software - Restricted
 Rights clause in FAR 52.227-19.
  
 Gaussian, Inc.
 340 Quinnipiac St., Bldg. 40, Wallingford CT 06492
  
  
 ---------------------------------------------------------------
 Warning -- This program may not be used in any manner that
 competes with the business of Gaussian, Inc. or will provide
 assistance to any competitor of Gaussian, Inc.  The licensee
 of this program is prohibited from giving any competitor of
 Gaussian, Inc. access to this program.  By using this program,
 the user acknowledges that Gaussian, Inc. is engaged in the
 business of creating and licensing software in the field of
 computational chemistry and represents and warrants to the
 licensee that it is not a competitor of Gaussian, Inc. and that
 it will not use this program in any manner prohibited above.
 ---------------------------------------------------------------
  

 Cite this work as:
 Gaussian 16, Revision A.03,
 M. J. Frisch, G. W. Trucks, H. B. Schlegel, G. E. Scuseria, 
 M. A. Robb, J. R. Cheeseman, G. Scalmani, V. Barone, 
 G. A. Petersson, H. Nakatsuji, X. Li, M. Caricato, A. V. Marenich, 
 J. Bloino, B. G. Janesko, R. Gomperts, B. Mennucci, H. P. Hratchian, 
 J. V. Ortiz, A. F. Izmaylov, J. L. Sonnenberg, D. Williams-Young, 
 F. Ding, F. Lipparini, F. Egidi, J. Goings, B. Peng, A. Petrone, 
 T. Henderson, D. Ranasinghe, V. G. Zakrzewski, J. Gao, N. Rega, 
 G. Zheng, W. Liang, M. Hada, M. Ehara, K. Toyota, R. Fukuda, 
 J. Hasegawa, M. Ishida, T. Nakajima, Y. Honda, O. Kitao, H. Nakai, 
 T. Vreven, K. Throssell, J. A. Montgomery, Jr., J. E. Peralta, 
 F. Ogliaro, M. J. Bearpark, J. J. Heyd, E. N. Brothers, K. N. Kudin, 
 V. N. Staroverov, T. A. Keith, R. Kobayashi, J. Normand, 
 K. Raghavachari, A. P. Rendell, J. C. Burant, S. S. Iyengar, 
 J. Tomasi, M. Cossi, J. M. Millam, M. Klene, C. Adamo, R. Cammi, 
 J. W. Ochterski, R. L. Martin, K. Morokuma, O. Farkas, 
 J. B. Foresman, and D. J. Fox, Gaussian, Inc., Wallingford CT, 2016.
 
 ******************************************
 Gaussian 16:  ES64L-G16RevA.03 25-Dec-2016
                20-May-2022 
 ******************************************
 %nproc=22
 Will use up to   22 processors via shared memory.
 %mem=100GB
 ---------------------------------------------------
 #p M062X/6-311+G(2d,p) nosymm em=GD3 counterpoise=6
 ---------------------------------------------------
 1/38=1,62=6,172=1/1;
 2/12=2,15=1,17=6,18=5,40=1/2;
 1/38=1,53=2,62=6,63=1/22;
 3/5=4,6=6,7=112,11=2,25=1,30=1,74=-55,124=31/1,2,3;
 4//1;
 5/5=2,38=5/2;
 6/7=2,8=2,9=2,10=2,28=1/1;
 1/53=2,62=6,63=1/22;
 3/5=7,6=11,7=112,11=2,25=1,30=1,74=-55,82=7,124=31/1,2,3;
 4//1;
 5/5=2,38=5/2;
 6/7=2,8=2,9=2,10=2,28=1/1;
 1/53=2,62=6,63=1/22(-4);
 99/5=1,9=1/99;
 Leave Link    1 at Fri May 20 18:25:46 2022, MaxMem= 13421772800 cpu:               0.7 elap:               0.0
 (Enter /data0/home/wuhanyu/software/g16/l101.exe)
 -------------------
 Title Card Required
 -------------------
 Symbolic Z-matrix:
 Charge =  0 Multiplicity = 1 in supermolecule
 Charge =  0 Multiplicity = 1 in fragment      1.
 Charge =  0 Multiplicity = 1 in fragment      2.
 Charge =  0 Multiplicity = 1 in fragment      3.
 Charge =  0 Multiplicity = 1 in fragment      4.
 Charge =  0 Multiplicity = 1 in fragment      5.
 Charge =  0 Multiplicity = 1 in fragment      6.
 C                     10.39885   9.6639    11.86697    
 H                     11.34178   9.46478   11.30901    
 H                     10.66204   9.95254   12.89288    
 H                     9.83914   8.70759   11.90626    
 C                     8.39509   11.06436   12.0184    
 H                     7.75911   11.81659   11.52088    
 H                     7.773     10.15931   12.18524    
 H                     8.68964   11.45921   13.00246    
 C                     10.44874   11.9535   11.01435    
 H                     9.8403    12.84392   10.75392    
 H                     11.00897   12.18758   11.93021    
 H                     11.18556   11.81252   10.19174    
 C                     9.15337   10.18994   9.83404    
 H                     8.43244   9.35684   10.00129    
 H                     10.05558   9.72374   9.3605     
 C                     8.54133   11.21878   8.88044    
 H                     9.27197   12.01955   8.63007    
 H                     7.6704    11.72812   9.32821    
 C                     8.1239    10.50702   7.58848    
 H                     7.82077   11.2403   6.81914    
 H                     7.25396   9.84419   7.7545     
 N                     9.5932    10.73426   11.17915    
 C                     9.31659   9.69261   7.07607    
 O                     10.21489   10.28656   6.4585     
 O                     9.34362   8.47628   7.38501    
 P                     12.74805   8.79265   8.23733    
 O                     12.56458   9.92173   9.16071    
 O                     14.17187   8.12024   8.45264    
 H                     14.24093   7.33645   7.7794     
 O                     11.72712   7.59615   8.46561    
 H                     10.82158   7.82884   7.97304    
 O                     12.70255   9.14065   6.69383    
 H                     11.73977   9.55435   6.47838    
 O                     7.45828   7.41434   8.90019    
 H                     8.15869   7.84122   8.31747    
 H                     7.38359   6.5323    8.55685    
 O                     7.60697   7.8119    11.64657    
 H                     7.05606   7.13166   12.01808    
 H                     7.56939   7.66199   10.67788    
 O                     10.21534   14.22797   9.24931    
 H                     10.69571   13.63467   8.63385    
 H                     10.2629   15.08871   8.84871    
 O                     11.50995   12.46849   7.61863    
 H                     12.16919   11.9105   8.04322    
 H                     10.99326   11.83123   7.08059    
 
 ITRead=  0  0  0  0  0  0  0  0  0  0  0  0  0  0  0  0  0  0  0  0
 ITRead=  0  0  0  0  0  0  0  0  0  0  0  0  0  0  0  0  0  0  0  0
 ITRead=  0  0  0  0  0
 MicOpt= -1 -1 -1 -1 -1 -1 -1 -1 -1 -1 -1 -1 -1 -1 -1 -1 -1 -1 -1 -1
 MicOpt= -1 -1 -1 -1 -1 -1 -1 -1 -1 -1 -1 -1 -1 -1 -1 -1 -1 -1 -1 -1
 MicOpt= -1 -1 -1 -1 -1
 NAtoms=     45 NQM=       45 NQMF=       0 NMMI=      0 NMMIF=      0
                NMic=       0 NMicF=      0.
                    Isotopes and Nuclear Properties:
 (Nuclear quadrupole moments (NQMom) in fm**2, nuclear magnetic moments (NMagM)
  in nuclear magnetons)

  Atom         1           2           3           4           5           6           7           8           9          10
 IAtWgt=          12           1           1           1          12           1           1           1          12           1
 AtmWgt=  12.0000000   1.0078250   1.0078250   1.0078250  12.0000000   1.0078250   1.0078250   1.0078250  12.0000000   1.0078250
 NucSpn=           0           1           1           1           0           1           1           1           0           1
 AtZEff=  -0.0000000  -0.0000000  -0.0000000  -0.0000000  -0.0000000  -0.0000000  -0.0000000  -0.0000000  -0.0000000  -0.0000000
 NQMom=    0.0000000   0.0000000   0.0000000   0.0000000   0.0000000   0.0000000   0.0000000   0.0000000   0.0000000   0.0000000
 NMagM=    0.0000000   2.7928460   2.7928460   2.7928460   0.0000000   2.7928460   2.7928460   2.7928460   0.0000000   2.7928460
 AtZNuc=   6.0000000   1.0000000   1.0000000   1.0000000   6.0000000   1.0000000   1.0000000   1.0000000   6.0000000   1.0000000

  Atom        11          12          13          14          15          16          17          18          19          20
 IAtWgt=           1           1          12           1           1          12           1           1          12           1
 AtmWgt=   1.0078250   1.0078250  12.0000000   1.0078250   1.0078250  12.0000000   1.0078250   1.0078250  12.0000000   1.0078250
 NucSpn=           1           1           0           1           1           0           1           1           0           1
 AtZEff=  -0.0000000  -0.0000000  -0.0000000  -0.0000000  -0.0000000  -0.0000000  -0.0000000  -0.0000000  -0.0000000  -0.0000000
 NQMom=    0.0000000   0.0000000   0.0000000   0.0000000   0.0000000   0.0000000   0.0000000   0.0000000   0.0000000   0.0000000
 NMagM=    2.7928460   2.7928460   0.0000000   2.7928460   2.7928460   0.0000000   2.7928460   2.7928460   0.0000000   2.7928460
 AtZNuc=   1.0000000   1.0000000   6.0000000   1.0000000   1.0000000   6.0000000   1.0000000   1.0000000   6.0000000   1.0000000

  Atom        21          22          23          24          25          26          27          28          29          30
 IAtWgt=           1          14          12          16          16          31          16          16           1          16
 AtmWgt=   1.0078250  14.0030740  12.0000000  15.9949146  15.9949146  30.9737634  15.9949146  15.9949146   1.0078250  15.9949146
 NucSpn=           1           2           0           0           0           1           0           0           1           0
 AtZEff=  -0.0000000  -0.0000000  -0.0000000  -0.0000000  -0.0000000  -0.0000000  -0.0000000  -0.0000000  -0.0000000  -0.0000000
 NQMom=    0.0000000   2.0440000   0.0000000   0.0000000   0.0000000   0.0000000   0.0000000   0.0000000   0.0000000   0.0000000
 NMagM=    2.7928460   0.4037610   0.0000000   0.0000000   0.0000000   1.1316000   0.0000000   0.0000000   2.7928460   0.0000000
 AtZNuc=   1.0000000   7.0000000   6.0000000   8.0000000   8.0000000  15.0000000   8.0000000   8.0000000   1.0000000   8.0000000

  Atom        31          32          33          34          35          36          37          38          39          40
 IAtWgt=           1          16           1          16           1           1          16           1           1          16
 AtmWgt=   1.0078250  15.9949146   1.0078250  15.9949146   1.0078250   1.0078250  15.9949146   1.0078250   1.0078250  15.9949146
 NucSpn=           1           0           1           0           1           1           0           1           1           0
 AtZEff=  -0.0000000  -0.0000000  -0.0000000  -0.0000000  -0.0000000  -0.0000000  -0.0000000  -0.0000000  -0.0000000  -0.0000000
 NQMom=    0.0000000   0.0000000   0.0000000   0.0000000   0.0000000   0.0000000   0.0000000   0.0000000   0.0000000   0.0000000
 NMagM=    2.7928460   0.0000000   2.7928460   0.0000000   2.7928460   2.7928460   0.0000000   2.7928460   2.7928460   0.0000000
 AtZNuc=   1.0000000   8.0000000   1.0000000   8.0000000   1.0000000   1.0000000   8.0000000   1.0000000   1.0000000   8.0000000

  Atom        41          42          43          44          45
 IAtWgt=           1           1          16           1           1
 AtmWgt=   1.0078250   1.0078250  15.9949146   1.0078250   1.0078250
 NucSpn=           1           1           0           1           1
 AtZEff=  -0.0000000  -0.0000000  -0.0000000  -0.0000000  -0.0000000
 NQMom=    0.0000000   0.0000000   0.0000000   0.0000000   0.0000000
 NMagM=    2.7928460   2.7928460   0.0000000   2.7928460   2.7928460
 AtZNuc=   1.0000000   1.0000000   8.0000000   1.0000000   1.0000000
 Leave Link  101 at Fri May 20 18:25:46 2022, MaxMem= 13421772800 cpu:               2.1 elap:               0.1
 (Enter /data0/home/wuhanyu/software/g16/l202.exe)
                          Input orientation:                          
 ---------------------------------------------------------------------
 Center     Atomic      Atomic             Coordinates (Angstroms)
 Number     Number       Type             X           Y           Z
 ---------------------------------------------------------------------
      1          6           0       10.398852    9.663905   11.866971
      2          1           0       11.341780    9.464781   11.309012
      3          1           0       10.662036    9.952543   12.892875
      4          1           0        9.839135    8.707591   11.906264
      5          6           0        8.395089   11.064359   12.018397
      6          1           0        7.759114   11.816586   11.520879
      7          1           0        7.773002   10.159306   12.185243
      8          1           0        8.689639   11.459210   13.002461
      9          6           0       10.448735   11.953498   11.014350
     10          1           0        9.840296   12.843915   10.753923
     11          1           0       11.008968   12.187578   11.930211
     12          1           0       11.185560   11.812520   10.191740
     13          6           0        9.153373   10.189935    9.834037
     14          1           0        8.432440    9.356841   10.001289
     15          1           0       10.055576    9.723737    9.360501
     16          6           0        8.541331   11.218783    8.880438
     17          1           0        9.271969   12.019552    8.630067
     18          1           0        7.670397   11.728117    9.328206
     19          6           0        8.123897   10.507023    7.588481
     20          1           0        7.820769   11.240302    6.819144
     21          1           0        7.253963    9.844194    7.754497
     22          7           0        9.593202   10.734258   11.179150
     23          6           0        9.316587    9.692607    7.076068
     24          8           0       10.214891   10.286564    6.458500
     25          8           0        9.343624    8.476280    7.385010
     26         15           0       12.748051    8.792650    8.237331
     27          8           0       12.564578    9.921727    9.160709
     28          8           0       14.171871    8.120238    8.452644
     29          1           0       14.240930    7.336449    7.779402
     30          8           0       11.727118    7.596153    8.465613
     31          1           0       10.821583    7.828835    7.973039
     32          8           0       12.702548    9.140649    6.693832
     33          1           0       11.739772    9.554351    6.478378
     34          8           0        7.458277    7.414336    8.900192
     35          1           0        8.158694    7.841221    8.317467
     36          1           0        7.383589    6.532304    8.556848
     37          8           0        7.606974    7.811896   11.646565
     38          1           0        7.056062    7.131659   12.018078
     39          1           0        7.569385    7.661994   10.677885
     40          8           0       10.215343   14.227969    9.249310
     41          1           0       10.695707   13.634674    8.633848
     42          1           0       10.262904   15.088710    8.848714
     43          8           0       11.509952   12.468491    7.618632
     44          1           0       12.169194   11.910498    8.043222
     45          1           0       10.993259   11.831229    7.080589
 ---------------------------------------------------------------------
                    Distance matrix (angstroms):
                    1          2          3          4          5
     1  C    0.000000
     2  H    1.113590   0.000000
     3  H    1.097751   1.791253   0.000000
     4  H    1.108767   1.785494   1.788987   0.000000
     5  C    2.449340   3.427078   2.672058   2.766261   0.000000
     6  H    3.423745   4.290847   3.712679   3.760433   1.103555
     7  H    2.691061   3.739829   2.981612   2.540514   1.110833
     8  H    2.726512   3.725502   2.484432   3.177168   1.100477
     9  C    2.443704   2.660464   2.752848   3.420970   2.452782
    10  H    3.415161   3.739134   3.689228   4.293841   2.618079
    11  H    2.597146   2.812521   2.458143   3.671429   2.846359
    12  H    2.835816   2.604723   3.321103   3.793816   3.418062
    13  C    2.441464   2.736882   3.418905   2.638511   2.472052
    14  H    2.727972   3.191559   3.699625   2.455452   2.643055
    15  H    2.530575   2.349058   3.591352   2.749602   3.408650
    16  C    3.845440   4.100855   4.711730   4.140773   3.145158
    17  H    4.158904   4.241193   4.937241   4.692998   3.627960
    18  H    4.260372   4.746086   4.980907   4.524752   2.864067
    19  C    4.918510   5.028259   5.906454   4.982293   4.473067
    20  H    5.883205   5.975693   6.827981   6.030524   5.233835
    21  H    5.180277   5.430357   6.166817   5.021170   4.579499
    22  N    1.505930   2.164708   2.165719   2.167154   1.499592
    23  C    4.911708   4.697992   5.976039   4.957228   5.211284
    24  O    5.447302   5.047046   6.458536   5.684407   5.901618
    25  O    4.755201   4.513043   5.852704   4.554204   5.391303
    26  P    4.410454   3.444500   5.231721   4.682958   6.197209
    27  O    3.475729   2.513810   4.189234   4.054656   5.182338
    28  O    5.317538   4.239817   5.949112   5.571811   7.399571
    29  H    6.073453   5.039148   6.767572   6.187634   8.126515
    30  O    4.196323   3.424204   5.127146   4.078953   5.979393
    31  H    4.325377   3.751752   5.361005   4.148213   5.720263
    32  O    5.687018   4.822514   6.576549   5.962895   7.113779
    33  H    5.554008   4.847829   6.516582   5.813034   6.645212
    34  O    4.744399   5.008826   5.713850   4.046908   4.891164
    35  H    4.575966   4.660185   5.626612   4.056346   4.913388
    36  H    5.464032   5.642792   6.422412   4.688301   5.791803
    37  O    3.357544   4.098139   3.933073   2.419144   3.367180
    38  H    4.196349   4.930883   4.661084   3.200244   4.154410
    39  H    3.664349   4.228395   4.440415   2.784592   3.748979
    40  O    5.264647   5.310291   5.635101   6.138038   4.581440
    41  H    5.129153   4.996191   5.630145   5.976501   4.832653
    42  H    6.209418   6.232625   6.549409   7.088503   5.452616
    43  O    5.210435   4.761246   5.904794   5.943045   5.570627
    44  H    4.775180   4.163115   5.442816   5.532710   5.546335
    45  H    5.287728   4.858097   6.117339   5.863127   5.632098
                    6          7          8          9         10
     6  H    0.000000
     7  H    1.785539   0.000000
     8  H    1.785687   1.788245   0.000000
     9  C    2.740324   3.427778   2.700245   0.000000
    10  H    2.444370   3.678248   2.880511   1.109443   0.000000
    11  H    3.296474   3.827585   2.656977   1.098843   1.783319
    12  H    3.675209   4.284008   3.775527   1.113316   1.785934
    13  C    2.726791   2.726634   3.444564   2.486213   2.891654
    14  H    2.968647   2.418360   3.673301   3.440111   3.835127
    15  H    3.784308   3.657736   4.259287   2.803859   3.423957
    16  C    2.818006   3.554512   4.131691   2.954924   2.799698
    17  H    3.269055   4.283304   4.446450   2.659689   2.348049
    18  H    2.196250   3.261036   3.822475   3.257766   2.825975
    19  C    4.160742   4.623230   5.526111   4.385629   4.292681
    20  H    4.737322   5.474107   6.247901   5.001461   4.704524
    21  H    4.281488   4.472159   5.675436   5.028158   4.968300
    22  N    2.156871   2.157758   2.160195   1.498547   2.166224
    23  C    5.166561   5.357624   6.215793   4.680112   4.871512
    24  O    5.830908   6.226926   6.820918   4.856863   5.013085
    25  O    5.547407   5.323689   6.393850   5.146302   5.538275
    26  P    6.694428   6.496528   6.803507   4.794752   5.585788
    27  O    5.679206   5.671283   5.669044   3.469996   4.301073
    28  O    8.012522   7.683464   7.867937   5.926041   6.809666
    29  H    8.722627   8.319498   8.665699   6.794319   7.651506
    30  O    6.549180   6.003369   6.688234   5.207377   6.027891
    31  H    6.153702   5.698035   6.558955   5.138232   5.817840
    32  O    7.409356   7.449408   7.828024   5.626604   6.196047
    33  H    6.811032   6.976356   7.449527   5.291288   5.719224
    34  O    5.132086   4.292490   5.891169   5.832366   6.212138
    35  H    5.121039   4.525701   5.943140   5.424785   5.813007
    36  H    6.070431   5.145098   6.763405   6.695056   7.120322
    37  O    4.009549   2.414140   4.038999   5.062427   5.577253
    38  H    4.763405   3.115862   4.729195   5.980621   6.479191
    39  H    4.243497   2.924065   4.591021   5.178887   5.658191
    40  O    4.124058   5.580211   4.907132   2.888435   2.078491
    41  H    4.501552   5.764789   5.276527   2.924746   2.419038
    42  H    4.910827   6.452214   5.736031   3.814979   2.974479
    43  O    5.451724   6.336487   6.161041   3.594760   3.571938
    44  H    5.617092   6.288841   6.074950   3.433574   3.693634
    45  H    5.493276   6.262817   6.365032   3.973151   3.980985
                   11         12         13         14         15
    11  H    0.000000
    12  H    1.787214   0.000000
    13  C    3.439150   2.624980   0.000000
    14  H    4.286293   3.694090   1.114344   0.000000
    15  H    3.685496   2.516115   1.120512   1.783197   0.000000
    16  C    4.040905   3.010645   1.530515   2.176004   2.181413
    17  H    3.733142   2.478612   2.193424   3.110480   2.533444
    18  H    4.257651   3.620661   2.195697   2.580058   3.115712
    19  C    5.477090   4.225525   2.490560   2.690680   2.735868
    20  H    6.097946   4.798297   3.459579   3.748015   3.708480
    21  H    6.085072   5.027118   2.837566   2.583485   3.231531
    22  N    2.163475   2.161766   1.516267   2.152209   2.131297
    23  C    5.714170   4.206483   2.807199   3.074308   2.401189
    24  O    5.846711   4.148231   3.539832   4.073435   2.960366
    25  O    6.099668   4.732965   2.995086   2.906985   2.442456
    26  P    5.309172   3.921825   4.174157   4.696207   3.062328
    27  O    3.901813   2.557306   3.487352   4.254437   2.524719
    28  O    6.216163   5.057218   5.601537   6.071948   4.509911
    29  H    7.155994   5.932105   6.184428   6.538908   5.071115
    30  O    5.796582   4.588088   3.901852   4.038963   2.849823
    31  H    5.890073   4.574370   3.438173   3.486632   2.470318
    32  O    6.290600   4.655696   4.853713   5.405537   3.802312
    33  H    6.098397   4.381271   4.284142   4.836151   3.342430
    34  O    6.676246   5.908025   3.383691   2.436131   3.505878
    35  H    6.329834   5.333482   2.967462   2.281950   2.868789
    36  H    7.516986   6.708840   4.259297   3.341333   4.239176
    37  O    5.549830   5.561276   3.366256   2.403161   3.857055
    38  H    6.418372   6.503747   4.303696   3.303527   4.772700
    39  H    5.820650   5.526294   3.100255   2.018701   3.488184
    40  O    3.461252   2.768373   4.216089   5.241384   4.508436
    41  H    3.613617   2.446881   3.960489   5.029128   4.029047
    42  H    4.297534   3.659021   5.118585   6.126447   5.393315
    43  O    4.349668   2.675147   3.956425   4.983021   3.561319
    44  H    4.065905   2.365008   3.906729   4.931381   3.314292
    45  H    4.862722   3.117145   3.696012   4.605527   3.243265
                   16         17         18         19         20
    16  C    0.000000
    17  H    1.112541   0.000000
    18  H    1.103831   1.771261   0.000000
    19  C    1.532973   2.165806   2.173333   0.000000
    20  H    2.183714   2.447990   2.560462   1.105199   0.000000
    21  H    2.194209   3.093728   2.489808   1.106205   1.773491
    22  N    2.573961   2.872803   2.847969   3.886309   4.733630
    23  C    2.487164   2.798495   3.453313   1.532433   2.167681
    24  O    3.087980   2.933948   4.097284   2.386989   2.602211
    25  O    3.225105   3.756338   4.141273   2.377615   3.206105
    26  P    4.898592   4.759231   5.965697   4.974222   5.681581
    27  O    4.236440   3.940016   5.219589   4.747012   5.452090
    28  O    6.441038   6.264596   7.486826   6.559078   7.262205
    29  H    6.983568   6.880818   8.053412   6.892538   7.575000
    30  O    4.841980   5.061745   5.854415   4.714417   5.590192
    31  H    4.185053   4.516093   5.193347   3.820744   4.687693
    32  O    5.139612   4.879135   6.241591   4.861216   5.315638
    33  H    4.332465   4.098418   5.422784   3.900572   4.279852
    34  O    3.955656   4.956860   4.340149   3.424668   4.370375
    35  H    3.445471   4.335383   4.045737   2.763898   3.730002
    36  H    4.838198   5.803553   5.260582   4.157425   5.037458
    37  O    4.486798   5.438367   4.551439   4.898874   5.924835
    38  H    5.362405   6.346681   5.360993   5.670510   6.670430
    39  H    4.101980   5.106923   4.285463   4.236283   5.268526
    40  O    3.463175   2.480025   3.568226   4.580168   4.534958
    41  H    3.246332   2.153059   3.642745   4.182009   4.158297
    42  H    4.235700   3.232567   4.271369   5.211084   4.989331
    43  O    3.459282   2.496621   4.267667   3.913264   3.969597
    44  H    3.786924   2.958072   4.682267   4.305921   4.566873
    45  H    3.102660   2.323615   4.012957   3.200736   3.237629
                   21         22         23         24         25
    21  H    0.000000
    22  N    4.241757   0.000000
    23  C    2.176617   4.242268   0.000000
    24  O    3.262268   4.782412   1.241421   0.000000
    25  O    2.524756   4.422245   1.255240   2.212387   0.000000
    26  P    5.614613   4.730456   3.732747   3.436993   3.523729
    27  O    5.494186   3.682850   3.866222   3.599454   3.951831
    28  O    7.163580   5.935583   5.285933   4.932268   4.957679
    29  H    7.423417   6.686162   5.504118   5.163037   5.043646
    30  O    5.056529   4.665253   3.483764   3.681527   2.761045
    31  H    4.103333   4.497727   2.557971   2.949972   1.717360
    32  O    5.595272   5.685569   3.451883   2.748989   3.493062
    33  H    4.672790   5.300679   2.499635   1.691684   2.779522
    34  O    2.694174   4.557789   3.459951   4.670169   2.641597
    35  H    2.268783   4.314708   2.511855   3.696405   1.636104
    36  H    3.410159   5.423585   3.989575   5.149156   2.998997
    37  O    4.404889   3.564236   5.229655   6.311991   4.649539
    38  H    5.057186   4.485488   6.007653   7.130255   5.339126
    39  H    3.661651   3.712938   4.488785   5.629412   3.828056
    40  O    5.497429   4.039475   5.108841   4.829420   6.108800
    41  H    5.194863   4.013289   4.457414   4.021587   5.476929
    42  H    6.144590   4.984043   5.758100   5.364330   6.834598
    43  O    5.001883   4.399862   3.579212   2.789963   4.548110
    44  H    5.339707   4.225319   3.740561   2.994629   4.495658
    45  H    4.287749   4.467853   2.717527   1.838163   3.750953
                   26         27         28         29         30
    26  P    0.000000
    27  O    1.470069   0.000000
    28  O    1.589264   2.515971   0.000000
    29  H    2.135160   3.376659   1.035543   0.000000
    30  O    1.589346   2.567643   2.500330   2.618699   0.000000
    31  H    2.170269   2.971328   3.396964   3.460039   1.056770
    32  O    1.582897   2.591255   2.508699   2.607723   2.544826
    33  H    2.165809   2.830224   3.445216   3.587136   2.789947
    34  O    5.506437   5.694663   6.765422   6.875072   4.294755
    35  H    4.687626   4.944833   6.021164   6.126818   3.579896
    36  H    5.829984   6.220569   6.972314   6.947964   4.472845
    37  O    6.246233   5.933692   7.307125   7.693528   5.209663
    38  H    7.032189   6.803880   8.020246   8.344498   5.886810
    39  H    5.835518   5.688600   6.982443   7.281256   4.710120
    40  O    6.081234   4.906167   7.320736   8.115358   6.846943
    41  H    5.273949   4.190016   6.521162   7.277797   6.128283
    42  H    6.796331   5.665047   7.999781   8.778705   7.643893
    43  O    3.927784   3.158519   5.166110   5.815664   4.950173
    44  H    3.177063   2.315236   4.306322   5.028282   4.357455
    45  H    3.694633   3.231430   5.075191   5.589164   4.515829
                   31         32         33         34         35
    31  H    0.000000
    32  O    2.625882   0.000000
    33  H    2.460587   1.069817   0.000000
    34  O    3.513296   5.945634   5.364331   0.000000
    35  H    2.685100   4.997130   4.375064   1.006173   0.000000
    36  H    3.720434   6.210122   5.694659   0.949444   1.539920
    37  O    4.881474   7.229109   6.842976   2.778980   3.374633
    38  H    5.570237   8.016635   7.648193   3.156406   3.926041
    39  H    4.233299   6.663967   6.213614   1.798297   2.439463
    40  O    6.553267   6.212687   5.643107   7.358593   6.774119
    41  H    5.844680   5.290306   4.731296   7.017442   6.332506
    42  H    7.333806   6.780473   6.199094   8.170961   7.565449
    43  O    4.703814   3.654049   3.137708   6.603253   5.755947
    44  H    4.298948   3.126881   2.860869   6.568303   5.719994
    45  H    4.104278   3.210992   2.470650   5.942726   5.048246
                   36         37         38         39         40
    36  H    0.000000
    37  O    3.351657   0.000000
    38  H    3.527976   0.950920   0.000000
    39  H    2.410294   0.980930   1.529991   0.000000
    40  O    8.229313   7.329148   8.246499   7.221769   0.000000
    41  H    7.837073   7.247170   8.184695   7.044493   0.980582
    42  H    9.032592   8.236137   9.145675   8.109070   0.950586
    43  O    7.290092   7.289812   8.226423   6.927446   2.725965
    44  H    7.217395   7.113120   8.048658   6.793341   3.262339
    45  H    6.579336   6.962047   7.871866   6.484287   3.324585
                   41         42         43         44         45
    41  H    0.000000
    42  H    1.532223   0.000000
    43  O    1.747467   3.151790   0.000000
    44  H    2.343669   3.792597   0.962410   0.000000
    45  H    2.398659   3.777680   0.981104   1.521765   0.000000
 Symmetry turned off by external request.
 Stoichiometry    C7H26NO10P
 Framework group  C1[X(C7H26NO10P)]
 Deg. of freedom   129
 Full point group                 C1      NOp   1
 Rotational constants (GHZ):           0.3062441           0.2381619           0.2056435
 Leave Link  202 at Fri May 20 18:25:46 2022, MaxMem= 13421772800 cpu:               0.1 elap:               0.0
 (Enter /data0/home/wuhanyu/software/g16/l122.exe)
 Counterpoise: doing full-system calculation.
 Leave Link  122 at Fri May 20 18:25:46 2022, MaxMem= 13421772800 cpu:               0.0 elap:               0.0
 (Enter /data0/home/wuhanyu/software/g16/l301.exe)
 Standard basis: 6-311+G(2d,p) (5D, 7F)
 Ernie: Thresh=  0.10000D-02 Tol=  0.10000D-05 Strict=F.
   677 basis functions,  1020 primitive gaussians,   715 cartesian basis functions
    85 alpha electrons       85 beta electrons
       nuclear repulsion energy      2050.5540448410 Hartrees.
 IExCor= 4336 DFT=T Ex+Corr=M062X ExCW=0 ScaHFX=  0.540000
 ScaDFX=  1.000000  1.000000  1.000000  1.000000 ScalE2=  1.000000  1.000000
 IRadAn=      5 IRanWt=     -1 IRanGd=            0 ICorTp=0 IEmpDi=131
 NAtoms=   45 NActive=   45 NUniq=   45 SFac= 1.00D+00 NAtFMM=   60 NAOKFM=F Big=F
 Integral buffers will be    131072 words long.
 Raffenetti 2 integral format.
 Two-electron integral symmetry is turned off.
 R6Disp:  Grimme-D3 Dispersion energy=       -0.0043250202 Hartrees.
 Nuclear repulsion after empirical dispersion term =     2050.5497198208 Hartrees.
 Leave Link  301 at Fri May 20 18:25:46 2022, MaxMem= 13421772800 cpu:               1.0 elap:               0.1
 (Enter /data0/home/wuhanyu/software/g16/l302.exe)
 NPDir=0 NMtPBC=     1 NCelOv=     1 NCel=       1 NClECP=     1 NCelD=      1
         NCelK=      1 NCelE2=     1 NClLst=     1 CellRange=     0.0.
 One-electron integrals computed using PRISM.
 NBasis=   677 RedAO= T EigKep=  3.68D-06  NBF=   677
 NBsUse=   677 1.00D-06 EigRej= -1.00D+00 NBFU=   677
 Precomputing XC quadrature grid using
 IXCGrd= 4 IRadAn=           5 IRanWt=          -1 IRanGd=           0 AccXCQ= 0.00D+00.
 Generated NRdTot=       0 NPtTot=           0 NUsed=           0 NTot=          32
 NSgBfM=   715   715   715   715   715 MxSgAt=    45 MxSgA2=    45.
 Leave Link  302 at Fri May 20 18:25:47 2022, MaxMem= 13421772800 cpu:              20.3 elap:               0.9
 (Enter /data0/home/wuhanyu/software/g16/l303.exe)
 DipDrv:  MaxL=1.
 Leave Link  303 at Fri May 20 18:25:47 2022, MaxMem= 13421772800 cpu:               1.7 elap:               0.1
 (Enter /data0/home/wuhanyu/software/g16/l401.exe)
 ExpMin= 3.48D-02 ExpMax= 7.75D+04 ExpMxC= 2.65D+03 IAcc=3 IRadAn=         5 AccDes= 0.00D+00
 Harris functional with IExCor= 1009 and IRadAn=       5 diagonalized for initial guess.
 HarFok:  IExCor= 1009 AccDes= 0.00D+00 IRadAn=         5 IDoV= 1 UseB2=F ITyADJ=14
 ICtDFT=  3500011 ScaDFX=  1.000000  1.000000  1.000000  1.000000
 FoFCou: FMM=F IPFlag=           0 FMFlag=      100000 FMFlg1=           0
         NFxFlg=           0 DoJE=T BraDBF=F KetDBF=T FulRan=T
         wScrn=  0.000000 ICntrl=       500 IOpCl=  0 I1Cent=   200000004 NGrid=           0
         NMat0=    1 NMatS0=      1 NMatT0=    0 NMatD0=    1 NMtDS0=    0 NMtDT0=    0
 Symmetry not used in FoFCou.
 Harris En= -1430.34510884431    
 JPrj=0 DoOrth=F DoCkMO=F.
 Leave Link  401 at Fri May 20 18:25:51 2022, MaxMem= 13421772800 cpu:              81.0 elap:               3.7
 (Enter /data0/home/wuhanyu/software/g16/l502.exe)
 Two-electron integral symmetry not used.
 Closed shell SCF:
 Using DIIS extrapolation, IDIIS=  1040.
 NGot= 13421772800 LenX= 13420729478 LenY= 13420217538
 Requested convergence on RMS density matrix=1.00D-08 within 128 cycles.
 Requested convergence on MAX density matrix=1.00D-06.
 Requested convergence on             energy=1.00D-06.
 No special actions if energy rises.
 Fock matrices will be formed incrementally for  20 cycles.

 Cycle   1  Pass 1  IDiag  1:
 FoFJK:  IHMeth= 1 ICntrl=       0 DoSepK=F KAlg= 0 I1Cent=           0 FoldK=F
 IRaf= 830000000 NMat=       1 IRICut=       1 DoRegI=T DoRafI=F ISym2E= 0 IDoP0=0 IntGTp=1.
 FoFCou: FMM=F IPFlag=           0 FMFlag=      100000 FMFlg1=           0
         NFxFlg=           0 DoJE=F BraDBF=F KetDBF=F FulRan=T
         wScrn=  0.000000 ICntrl=         0 IOpCl=  0 I1Cent=           0 NGrid=           0
         NMat0=    1 NMatS0=      1 NMatT0=    0 NMatD0=    1 NMtDS0=    0 NMtDT0=    0
 Symmetry not used in FoFCou.
 E= -1430.04454155470    
 DIIS: error= 2.76D-02 at cycle   1 NSaved=   1.
 NSaved= 1 IEnMin= 1 EnMin= -1430.04454155470     IErMin= 1 ErrMin= 2.76D-02
 ErrMax= 2.76D-02  0.00D+00 EMaxC= 1.00D-01 BMatC= 1.35D+00 BMatP= 1.35D+00
 IDIUse=3 WtCom= 7.24D-01 WtEn= 2.76D-01
 Coeff-Com:  0.100D+01
 Coeff-En:   0.100D+01
 Coeff:      0.100D+01
 Gap=     0.355 Goal=   None    Shift=    0.000
 GapD=    0.355 DampG=1.000 DampE=0.500 DampFc=0.5000 IDamp=-1.
 Damping current iteration by 5.00D-01
 RMSDP=8.99D-03 MaxDP=2.42D+00              OVMax= 2.16D-01

 Cycle   2  Pass 1  IDiag  1:
 RMSU=  3.99D-03    CP:  1.16D+00
 E= -1430.42208304930     Delta-E=       -0.377541494608 Rises=F Damp=T
 DIIS: error= 5.97D-03 at cycle   2 NSaved=   2.
 NSaved= 2 IEnMin= 2 EnMin= -1430.42208304930     IErMin= 2 ErrMin= 5.97D-03
 ErrMax= 5.97D-03  0.00D+00 EMaxC= 1.00D-01 BMatC= 6.99D-02 BMatP= 1.35D+00
 IDIUse=3 WtCom= 9.40D-01 WtEn= 5.97D-02
 Coeff-Com:  0.177D-01 0.982D+00
 Coeff-En:   0.792D-01 0.921D+00
 Coeff:      0.214D-01 0.979D+00
 Gap=     0.359 Goal=   None    Shift=    0.000
 RMSDP=3.51D-03 MaxDP=9.74D-01 DE=-3.78D-01 OVMax= 1.13D-01

 Cycle   3  Pass 1  IDiag  1:
 RMSU=  2.32D-03    CP:  9.72D-01  7.51D-01
 E= -1430.85383767520     Delta-E=       -0.431754625897 Rises=F Damp=F
 DIIS: error= 3.79D-03 at cycle   3 NSaved=   3.
 NSaved= 3 IEnMin= 3 EnMin= -1430.85383767520     IErMin= 3 ErrMin= 3.79D-03
 ErrMax= 3.79D-03  0.00D+00 EMaxC= 1.00D-01 BMatC= 1.71D-02 BMatP= 6.99D-02
 IDIUse=3 WtCom= 9.62D-01 WtEn= 3.79D-02
 Coeff-Com: -0.428D-01 0.278D+00 0.764D+00
 Coeff-En:   0.000D+00 0.000D+00 0.100D+01
 Coeff:     -0.412D-01 0.268D+00 0.773D+00
 Gap=     0.349 Goal=   None    Shift=    0.000
 RMSDP=4.65D-04 MaxDP=6.23D-02 DE=-4.32D-01 OVMax= 3.80D-02

 Cycle   4  Pass 1  IDiag  1:
 RMSU=  3.80D-04    CP:  9.82D-01  8.05D-01  9.62D-01
 E= -1430.86199420139     Delta-E=       -0.008156526194 Rises=F Damp=F
 DIIS: error= 3.05D-03 at cycle   4 NSaved=   4.
 NSaved= 4 IEnMin= 4 EnMin= -1430.86199420139     IErMin= 4 ErrMin= 3.05D-03
 ErrMax= 3.05D-03  0.00D+00 EMaxC= 1.00D-01 BMatC= 6.06D-03 BMatP= 1.71D-02
 IDIUse=3 WtCom= 9.69D-01 WtEn= 3.05D-02
 Coeff-Com: -0.231D-01 0.631D-01 0.416D+00 0.544D+00
 Coeff-En:   0.000D+00 0.000D+00 0.246D+00 0.754D+00
 Coeff:     -0.224D-01 0.612D-01 0.411D+00 0.550D+00
 Gap=     0.352 Goal=   None    Shift=    0.000
 RMSDP=2.45D-04 MaxDP=6.80D-02 DE=-8.16D-03 OVMax= 1.59D-02

 Cycle   5  Pass 1  IDiag  1:
 RMSU=  1.37D-04    CP:  9.74D-01  7.80D-01  9.64D-01  6.42D-01
 E= -1430.86626802001     Delta-E=       -0.004273818619 Rises=F Damp=F
 DIIS: error= 5.68D-04 at cycle   5 NSaved=   5.
 NSaved= 5 IEnMin= 5 EnMin= -1430.86626802001     IErMin= 5 ErrMin= 5.68D-04
 ErrMax= 5.68D-04  0.00D+00 EMaxC= 1.00D-01 BMatC= 2.21D-04 BMatP= 6.06D-03
 IDIUse=3 WtCom= 9.94D-01 WtEn= 5.68D-03
 Coeff-Com: -0.764D-02 0.141D-01 0.148D+00 0.253D+00 0.592D+00
 Coeff-En:   0.000D+00 0.000D+00 0.000D+00 0.000D+00 0.100D+01
 Coeff:     -0.760D-02 0.140D-01 0.147D+00 0.252D+00 0.595D+00
 Gap=     0.340 Goal=   None    Shift=    0.000
 RMSDP=5.63D-05 MaxDP=1.18D-02 DE=-4.27D-03 OVMax= 2.77D-03

 Cycle   6  Pass 1  IDiag  1:
 RMSU=  3.73D-05    CP:  9.71D-01  7.73D-01  9.67D-01  6.74D-01  9.40D-01
 E= -1430.86641833294     Delta-E=       -0.000150312927 Rises=F Damp=F
 DIIS: error= 8.87D-05 at cycle   6 NSaved=   6.
 NSaved= 6 IEnMin= 6 EnMin= -1430.86641833294     IErMin= 6 ErrMin= 8.87D-05
 ErrMax= 8.87D-05  0.00D+00 EMaxC= 1.00D-01 BMatC= 1.18D-05 BMatP= 2.21D-04
 IDIUse=1 WtCom= 1.00D+00 WtEn= 0.00D+00
 Coeff-Com: -0.979D-03 0.487D-03 0.224D-01 0.519D-01 0.235D+00 0.691D+00
 Coeff:     -0.979D-03 0.487D-03 0.224D-01 0.519D-01 0.235D+00 0.691D+00
 Gap=     0.341 Goal=   None    Shift=    0.000
 RMSDP=2.73D-05 MaxDP=9.03D-03 DE=-1.50D-04 OVMax= 5.87D-04

 Cycle   7  Pass 1  IDiag  1:
 RMSU=  1.39D-05    CP:  9.73D-01  7.77D-01  9.67D-01  6.76D-01  8.96D-01
                    CP:  7.69D-01
 E= -1430.86642826132     Delta-E=       -0.000009928377 Rises=F Damp=F
 DIIS: error= 2.14D-05 at cycle   7 NSaved=   7.
 NSaved= 7 IEnMin= 7 EnMin= -1430.86642826132     IErMin= 7 ErrMin= 2.14D-05
 ErrMax= 2.14D-05  0.00D+00 EMaxC= 1.00D-01 BMatC= 7.71D-07 BMatP= 1.18D-05
 IDIUse=1 WtCom= 1.00D+00 WtEn= 0.00D+00
 Coeff-Com:  0.279D-03-0.973D-03-0.423D-02-0.303D-02 0.289D-01 0.214D+00
 Coeff-Com:  0.765D+00
 Coeff:      0.279D-03-0.973D-03-0.423D-02-0.303D-02 0.289D-01 0.214D+00
 Coeff:      0.765D+00
 Gap=     0.341 Goal=   None    Shift=    0.000
 RMSDP=9.43D-06 MaxDP=2.85D-03 DE=-9.93D-06 OVMax= 2.79D-04

 Cycle   8  Pass 1  IDiag  1:
 RMSU=  2.95D-06    CP:  9.72D-01  7.75D-01  9.68D-01  6.79D-01  9.15D-01
                    CP:  8.07D-01  9.11D-01
 E= -1430.86642877544     Delta-E=       -0.000000514123 Rises=F Damp=F
 DIIS: error= 1.30D-05 at cycle   8 NSaved=   8.
 NSaved= 8 IEnMin= 8 EnMin= -1430.86642877544     IErMin= 8 ErrMin= 1.30D-05
 ErrMax= 1.30D-05  0.00D+00 EMaxC= 1.00D-01 BMatC= 3.10D-07 BMatP= 7.71D-07
 IDIUse=1 WtCom= 1.00D+00 WtEn= 0.00D+00
 Coeff-Com:  0.307D-03-0.591D-03-0.587D-02-0.977D-02-0.192D-01 0.154D-01
 Coeff-Com:  0.425D+00 0.595D+00
 Coeff:      0.307D-03-0.591D-03-0.587D-02-0.977D-02-0.192D-01 0.154D-01
 Coeff:      0.425D+00 0.595D+00
 Gap=     0.341 Goal=   None    Shift=    0.000
 RMSDP=2.14D-06 MaxDP=5.42D-04 DE=-5.14D-07 OVMax= 1.26D-04

 Cycle   9  Pass 1  IDiag  1:
 RMSU=  1.23D-06    CP:  9.72D-01  7.75D-01  9.68D-01  6.79D-01  9.19D-01
                    CP:  8.20D-01  9.44D-01  9.34D-01
 E= -1430.86642899872     Delta-E=       -0.000000223283 Rises=F Damp=F
 DIIS: error= 3.47D-06 at cycle   9 NSaved=   9.
 NSaved= 9 IEnMin= 9 EnMin= -1430.86642899872     IErMin= 9 ErrMin= 3.47D-06
 ErrMax= 3.47D-06  0.00D+00 EMaxC= 1.00D-01 BMatC= 1.75D-08 BMatP= 3.10D-07
 IDIUse=1 WtCom= 1.00D+00 WtEn= 0.00D+00
 Coeff-Com:  0.927D-04-0.148D-03-0.197D-02-0.360D-02-0.945D-02-0.908D-02
 Coeff-Com:  0.110D+00 0.245D+00 0.670D+00
 Coeff:      0.927D-04-0.148D-03-0.197D-02-0.360D-02-0.945D-02-0.908D-02
 Coeff:      0.110D+00 0.245D+00 0.670D+00
 Gap=     0.341 Goal=   None    Shift=    0.000
 RMSDP=7.44D-07 MaxDP=1.93D-04 DE=-2.23D-07 OVMax= 4.17D-05

 Cycle  10  Pass 1  IDiag  1:
 RMSU=  4.37D-07    CP:  9.72D-01  7.75D-01  9.68D-01  6.79D-01  9.18D-01
                    CP:  8.17D-01  9.63D-01  9.82D-01  8.89D-01
 E= -1430.86642901195     Delta-E=       -0.000000013221 Rises=F Damp=F
 DIIS: error= 1.25D-06 at cycle  10 NSaved=  10.
 NSaved=10 IEnMin=10 EnMin= -1430.86642901195     IErMin=10 ErrMin= 1.25D-06
 ErrMax= 1.25D-06  0.00D+00 EMaxC= 1.00D-01 BMatC= 2.88D-09 BMatP= 1.75D-08
 IDIUse=1 WtCom= 1.00D+00 WtEn= 0.00D+00
 Coeff-Com: -0.929D-05 0.248D-04 0.368D-04-0.108D-03-0.148D-02-0.734D-02
 Coeff-Com: -0.185D-01 0.904D-02 0.295D+00 0.724D+00
 Coeff:     -0.929D-05 0.248D-04 0.368D-04-0.108D-03-0.148D-02-0.734D-02
 Coeff:     -0.185D-01 0.904D-02 0.295D+00 0.724D+00
 Gap=     0.341 Goal=   None    Shift=    0.000
 RMSDP=2.30D-07 MaxDP=3.91D-05 DE=-1.32D-08 OVMax= 1.16D-05

 Cycle  11  Pass 1  IDiag  1:
 RMSU=  1.23D-07    CP:  9.72D-01  7.75D-01  9.68D-01  6.79D-01  9.19D-01
                    CP:  8.18D-01  9.61D-01  1.00D+00  9.84D-01  1.03D+00
 E= -1430.86642901426     Delta-E=       -0.000000002314 Rises=F Damp=F
 DIIS: error= 5.04D-07 at cycle  11 NSaved=  11.
 NSaved=11 IEnMin=11 EnMin= -1430.86642901426     IErMin=11 ErrMin= 5.04D-07
 ErrMax= 5.04D-07  0.00D+00 EMaxC= 1.00D-01 BMatC= 3.19D-10 BMatP= 2.88D-09
 IDIUse=1 WtCom= 1.00D+00 WtEn= 0.00D+00
 Coeff-Com: -0.133D-04 0.267D-04 0.222D-03 0.329D-03 0.395D-03-0.187D-02
 Coeff-Com: -0.192D-01-0.260D-01 0.464D-01 0.313D+00 0.687D+00
 Coeff:     -0.133D-04 0.267D-04 0.222D-03 0.329D-03 0.395D-03-0.187D-02
 Coeff:     -0.192D-01-0.260D-01 0.464D-01 0.313D+00 0.687D+00
 Gap=     0.341 Goal=   None    Shift=    0.000
 RMSDP=9.45D-08 MaxDP=1.56D-05 DE=-2.31D-09 OVMax= 3.25D-06

 Cycle  12  Pass 1  IDiag  1:
 RMSU=  5.71D-08    CP:  9.72D-01  7.75D-01  9.68D-01  6.79D-01  9.19D-01
                    CP:  8.17D-01  9.61D-01  1.01D+00  1.01D+00  1.05D+00
                    CP:  8.87D-01
 E= -1430.86642901474     Delta-E=       -0.000000000482 Rises=F Damp=F
 DIIS: error= 1.11D-07 at cycle  12 NSaved=  12.
 NSaved=12 IEnMin=12 EnMin= -1430.86642901474     IErMin=12 ErrMin= 1.11D-07
 ErrMax= 1.11D-07  0.00D+00 EMaxC= 1.00D-01 BMatC= 1.86D-11 BMatP= 3.19D-10
 IDIUse=1 WtCom= 1.00D+00 WtEn= 0.00D+00
 Coeff-Com: -0.344D-05 0.642D-05 0.738D-04 0.120D-03 0.248D-03-0.186D-04
 Coeff-Com: -0.478D-02-0.103D-01-0.108D-01 0.429D-01 0.224D+00 0.759D+00
 Coeff:     -0.344D-05 0.642D-05 0.738D-04 0.120D-03 0.248D-03-0.186D-04
 Coeff:     -0.478D-02-0.103D-01-0.108D-01 0.429D-01 0.224D+00 0.759D+00
 Gap=     0.341 Goal=   None    Shift=    0.000
 RMSDP=1.93D-08 MaxDP=3.07D-06 DE=-4.82D-10 OVMax= 1.02D-06

 Cycle  13  Pass 1  IDiag  1:
 RMSU=  1.27D-08    CP:  9.72D-01  7.75D-01  9.68D-01  6.79D-01  9.19D-01
                    CP:  8.17D-01  9.60D-01  1.01D+00  1.01D+00  1.07D+00
                    CP:  9.44D-01  9.90D-01
 E= -1430.86642901473     Delta-E=        0.000000000010 Rises=F Damp=F
 DIIS: error= 3.70D-08 at cycle  13 NSaved=  13.
 NSaved=13 IEnMin=12 EnMin= -1430.86642901474     IErMin=13 ErrMin= 3.70D-08
 ErrMax= 3.70D-08  0.00D+00 EMaxC= 1.00D-01 BMatC= 2.55D-12 BMatP= 1.86D-11
 IDIUse=1 WtCom= 1.00D+00 WtEn= 0.00D+00
 Coeff-Com:  0.636D-06-0.119D-05-0.210D-05-0.126D-05 0.309D-04 0.219D-03
 Coeff-Com:  0.760D-03-0.599D-03-0.939D-02-0.225D-01-0.540D-02 0.281D+00
 Coeff-Com:  0.756D+00
 Coeff:      0.636D-06-0.119D-05-0.210D-05-0.126D-05 0.309D-04 0.219D-03
 Coeff:      0.760D-03-0.599D-03-0.939D-02-0.225D-01-0.540D-02 0.281D+00
 Coeff:      0.756D+00
 Gap=     0.341 Goal=   None    Shift=    0.000
 RMSDP=7.87D-09 MaxDP=1.79D-06 DE= 9.55D-12 OVMax= 3.93D-07

 Cycle  14  Pass 1  IDiag  1:
 RMSU=  5.13D-09    CP:  9.72D-01  7.75D-01  9.68D-01  6.79D-01  9.19D-01
                    CP:  8.17D-01  9.60D-01  1.01D+00  1.01D+00  1.06D+00
                    CP:  9.66D-01  1.03D+00  1.06D+00
 E= -1430.86642901469     Delta-E=        0.000000000036 Rises=F Damp=F
 DIIS: error= 9.56D-09 at cycle  14 NSaved=  14.
 NSaved=14 IEnMin=12 EnMin= -1430.86642901474     IErMin=14 ErrMin= 9.56D-09
 ErrMax= 9.56D-09  0.00D+00 EMaxC= 1.00D-01 BMatC= 1.66D-13 BMatP= 2.55D-12
 IDIUse=1 WtCom= 1.00D+00 WtEn= 0.00D+00
 Coeff-Com:  0.445D-06-0.853D-06-0.557D-05-0.883D-05-0.890D-05 0.629D-04
 Coeff-Com:  0.610D-03 0.583D-03-0.188D-02-0.103D-01-0.199D-01 0.240D-01
 Coeff-Com:  0.234D+00 0.773D+00
 Coeff:      0.445D-06-0.853D-06-0.557D-05-0.883D-05-0.890D-05 0.629D-04
 Coeff:      0.610D-03 0.583D-03-0.188D-02-0.103D-01-0.199D-01 0.240D-01
 Coeff:      0.234D+00 0.773D+00
 Gap=     0.341 Goal=   None    Shift=    0.000
 RMSDP=1.99D-09 MaxDP=1.18D-07 DE= 3.64D-11 OVMax= 1.54D-07

 SCF Done:  E(RM062X) =  -1430.86642901     A.U. after   14 cycles
            NFock= 14  Conv=0.20D-08     -V/T= 2.0034
 KE= 1.426070309075D+03 PE=-7.473811525601D+03 EE= 2.566325067690D+03
 Leave Link  502 at Fri May 20 18:29:41 2022, MaxMem= 13421772800 cpu:            5061.9 elap:             230.8
 (Enter /data0/home/wuhanyu/software/g16/l601.exe)
 Copying SCF densities to generalized density rwf, IOpCl= 0 IROHF=0.

 **********************************************************************

            Population analysis using the SCF density.

 **********************************************************************

 Alpha  occ. eigenvalues --  -78.14164 -19.65580 -19.63196 -19.63025 -19.61837
 Alpha  occ. eigenvalues --  -19.61716 -19.61070 -19.60500 -19.60463 -19.60278
 Alpha  occ. eigenvalues --  -19.57535 -14.89945 -10.65979 -10.61530 -10.60989
 Alpha  occ. eigenvalues --  -10.60340 -10.59727 -10.56545 -10.55231  -6.94888
 Alpha  occ. eigenvalues --   -5.06819  -5.06758  -5.06609  -1.20880  -1.19932
 Alpha  occ. eigenvalues --   -1.14561  -1.13553  -1.13300  -1.12699  -1.12355
 Alpha  occ. eigenvalues --   -1.11875  -1.11137  -1.09758  -1.07679  -0.91999
 Alpha  occ. eigenvalues --   -0.85877  -0.84977  -0.83103  -0.75080  -0.70447
 Alpha  occ. eigenvalues --   -0.69001  -0.64201  -0.62370  -0.62104  -0.61857
 Alpha  occ. eigenvalues --   -0.60963  -0.60801  -0.60539  -0.60149  -0.59728
 Alpha  occ. eigenvalues --   -0.58462  -0.56460  -0.55263  -0.54491  -0.53017
 Alpha  occ. eigenvalues --   -0.52568  -0.51843  -0.50914  -0.49867  -0.49587
 Alpha  occ. eigenvalues --   -0.49203  -0.48463  -0.48084  -0.47899  -0.47629
 Alpha  occ. eigenvalues --   -0.47252  -0.46792  -0.46425  -0.45346  -0.44987
 Alpha  occ. eigenvalues --   -0.43639  -0.43496  -0.42885  -0.42362  -0.41883
 Alpha  occ. eigenvalues --   -0.40677  -0.40303  -0.39428  -0.38932  -0.38291
 Alpha  occ. eigenvalues --   -0.37280  -0.36227  -0.35515  -0.35351  -0.34685
 Alpha virt. eigenvalues --   -0.00629   0.00844   0.01244   0.02068   0.02453
 Alpha virt. eigenvalues --    0.03589   0.04056   0.04188   0.04807   0.05015
 Alpha virt. eigenvalues --    0.06016   0.06194   0.06678   0.07066   0.07343
 Alpha virt. eigenvalues --    0.07639   0.08194   0.08693   0.09470   0.10175
 Alpha virt. eigenvalues --    0.10728   0.11012   0.11617   0.11958   0.12346
 Alpha virt. eigenvalues --    0.12789   0.13141   0.13427   0.13697   0.13929
 Alpha virt. eigenvalues --    0.14319   0.14668   0.14793   0.15904   0.16119
 Alpha virt. eigenvalues --    0.16271   0.16787   0.17175   0.17488   0.18058
 Alpha virt. eigenvalues --    0.18120   0.18631   0.19216   0.19295   0.19447
 Alpha virt. eigenvalues --    0.19756   0.20028   0.20610   0.21071   0.21184
 Alpha virt. eigenvalues --    0.21280   0.21916   0.22238   0.22468   0.23041
 Alpha virt. eigenvalues --    0.23155   0.23411   0.23675   0.23957   0.24201
 Alpha virt. eigenvalues --    0.24783   0.25205   0.25397   0.25686   0.26134
 Alpha virt. eigenvalues --    0.26416   0.26743   0.27054   0.27194   0.27460
 Alpha virt. eigenvalues --    0.27665   0.27867   0.28559   0.28779   0.28869
 Alpha virt. eigenvalues --    0.29701   0.29797   0.30224   0.30617   0.31020
 Alpha virt. eigenvalues --    0.31146   0.32077   0.32243   0.32737   0.33399
 Alpha virt. eigenvalues --    0.33526   0.33990   0.34445   0.34598   0.34932
 Alpha virt. eigenvalues --    0.35477   0.36069   0.36233   0.36824   0.36896
 Alpha virt. eigenvalues --    0.36997   0.37682   0.38780   0.39060   0.39468
 Alpha virt. eigenvalues --    0.40054   0.40448   0.41345   0.42419   0.42999
 Alpha virt. eigenvalues --    0.43217   0.43477   0.43942   0.45116   0.45839
 Alpha virt. eigenvalues --    0.46035   0.46738   0.47438   0.48583   0.49253
 Alpha virt. eigenvalues --    0.50345   0.51131   0.51334   0.51711   0.52486
 Alpha virt. eigenvalues --    0.52919   0.53142   0.53860   0.54053   0.54837
 Alpha virt. eigenvalues --    0.55713   0.55863   0.56345   0.57297   0.57689
 Alpha virt. eigenvalues --    0.57986   0.58384   0.59013   0.59892   0.60148
 Alpha virt. eigenvalues --    0.60561   0.61137   0.62227   0.63110   0.63609
 Alpha virt. eigenvalues --    0.64090   0.64494   0.64652   0.65214   0.65656
 Alpha virt. eigenvalues --    0.66095   0.66633   0.67886   0.68608   0.69483
 Alpha virt. eigenvalues --    0.70028   0.70779   0.71308   0.71612   0.72043
 Alpha virt. eigenvalues --    0.72626   0.73187   0.73792   0.74830   0.76049
 Alpha virt. eigenvalues --    0.76342   0.77002   0.77597   0.78524   0.79249
 Alpha virt. eigenvalues --    0.79557   0.79710   0.80778   0.81567   0.82662
 Alpha virt. eigenvalues --    0.83078   0.83917   0.84934   0.85397   0.86411
 Alpha virt. eigenvalues --    0.87768   0.88750   0.89780   0.90653   0.90887
 Alpha virt. eigenvalues --    0.92379   0.92781   0.94784   0.96187   0.96773
 Alpha virt. eigenvalues --    0.98975   1.00251   1.02334   1.03681   1.05273
 Alpha virt. eigenvalues --    1.06101   1.08508   1.08587   1.09156   1.10013
 Alpha virt. eigenvalues --    1.11735   1.12364   1.12922   1.13382   1.14114
 Alpha virt. eigenvalues --    1.14493   1.14931   1.15738   1.16258   1.16497
 Alpha virt. eigenvalues --    1.16877   1.17341   1.17466   1.17870   1.19141
 Alpha virt. eigenvalues --    1.19413   1.20224   1.20573   1.21350   1.21628
 Alpha virt. eigenvalues --    1.21727   1.22776   1.23590   1.23727   1.24673
 Alpha virt. eigenvalues --    1.24780   1.25407   1.26299   1.26686   1.26886
 Alpha virt. eigenvalues --    1.27639   1.28347   1.28852   1.29110   1.29785
 Alpha virt. eigenvalues --    1.30532   1.30627   1.31067   1.31574   1.32494
 Alpha virt. eigenvalues --    1.32808   1.34294   1.34917   1.35450   1.36093
 Alpha virt. eigenvalues --    1.36747   1.37326   1.37960   1.38196   1.38779
 Alpha virt. eigenvalues --    1.39415   1.40193   1.40377   1.41194   1.41764
 Alpha virt. eigenvalues --    1.42350   1.43095   1.43472   1.44700   1.45183
 Alpha virt. eigenvalues --    1.45319   1.46736   1.46767   1.47260   1.49111
 Alpha virt. eigenvalues --    1.50056   1.50287   1.50530   1.51139   1.52564
 Alpha virt. eigenvalues --    1.53300   1.56440   1.57256   1.58029   1.59122
 Alpha virt. eigenvalues --    1.59586   1.60016   1.60715   1.61859   1.63517
 Alpha virt. eigenvalues --    1.64856   1.65208   1.65625   1.66423   1.68114
 Alpha virt. eigenvalues --    1.69584   1.70335   1.71081   1.72351   1.73079
 Alpha virt. eigenvalues --    1.73827   1.74637   1.75126   1.75962   1.76041
 Alpha virt. eigenvalues --    1.76212   1.77413   1.77616   1.78915   1.79541
 Alpha virt. eigenvalues --    1.79792   1.80484   1.81266   1.81898   1.82262
 Alpha virt. eigenvalues --    1.83653   1.84415   1.85684   1.86180   1.86715
 Alpha virt. eigenvalues --    1.87432   1.89280   1.90074   1.91293   1.91650
 Alpha virt. eigenvalues --    1.92717   1.94219   1.94568   1.95896   1.97431
 Alpha virt. eigenvalues --    1.97776   1.98981   2.00045   2.00311   2.02337
 Alpha virt. eigenvalues --    2.02889   2.03281   2.04343   2.05623   2.06421
 Alpha virt. eigenvalues --    2.07331   2.08268   2.09694   2.11255   2.11455
 Alpha virt. eigenvalues --    2.12218   2.12467   2.13244   2.13917   2.15125
 Alpha virt. eigenvalues --    2.16744   2.17261   2.18614   2.20455   2.21095
 Alpha virt. eigenvalues --    2.21433   2.22778   2.23767   2.24382   2.26177
 Alpha virt. eigenvalues --    2.26712   2.27014   2.27639   2.28560   2.29506
 Alpha virt. eigenvalues --    2.30170   2.31240   2.31762   2.32209   2.32889
 Alpha virt. eigenvalues --    2.33827   2.34941   2.36219   2.37267   2.39005
 Alpha virt. eigenvalues --    2.39691   2.40253   2.40525   2.41440   2.41819
 Alpha virt. eigenvalues --    2.43013   2.43873   2.45262   2.45751   2.45934
 Alpha virt. eigenvalues --    2.46938   2.47548   2.48745   2.50537   2.51365
 Alpha virt. eigenvalues --    2.52285   2.53304   2.54763   2.54970   2.55602
 Alpha virt. eigenvalues --    2.57792   2.58774   2.60692   2.62331   2.63079
 Alpha virt. eigenvalues --    2.63577   2.65376   2.66719   2.67885   2.68636
 Alpha virt. eigenvalues --    2.70342   2.71248   2.71719   2.73357   2.74391
 Alpha virt. eigenvalues --    2.75840   2.77180   2.78305   2.79874   2.82388
 Alpha virt. eigenvalues --    2.82788   2.84394   2.87070   2.87499   2.89015
 Alpha virt. eigenvalues --    2.91055   2.92738   2.93781   2.94727   2.97508
 Alpha virt. eigenvalues --    2.98924   3.00059   3.01187   3.02592   3.05183
 Alpha virt. eigenvalues --    3.06506   3.06956   3.07444   3.08035   3.10099
 Alpha virt. eigenvalues --    3.11039   3.13214   3.16064   3.17218   3.18930
 Alpha virt. eigenvalues --    3.20457   3.20744   3.23101   3.25016   3.25850
 Alpha virt. eigenvalues --    3.27993   3.28481   3.31927   3.33863   3.37073
 Alpha virt. eigenvalues --    3.37713   3.38699   3.40221   3.41163   3.42961
 Alpha virt. eigenvalues --    3.44562   3.47779   3.49932   3.52176   3.52844
 Alpha virt. eigenvalues --    3.55617   3.58219   3.58736   3.59576   3.61556
 Alpha virt. eigenvalues --    3.62809   3.64231   3.65917   3.66652   3.67978
 Alpha virt. eigenvalues --    3.70692   3.72994   3.73424   3.75185   3.76188
 Alpha virt. eigenvalues --    3.77831   3.81857   3.84681   3.86391   3.88914
 Alpha virt. eigenvalues --    3.91566   3.94619   3.98379   4.09969   4.14337
 Alpha virt. eigenvalues --    4.15237   4.16308   4.17501   4.18777   4.21396
 Alpha virt. eigenvalues --    4.22346   4.26395   4.29250   4.37335   4.42408
 Alpha virt. eigenvalues --    4.47855   4.80359   4.81546   4.83102   5.10232
 Alpha virt. eigenvalues --    5.11821   5.12161   5.14736   5.16392   5.17059
 Alpha virt. eigenvalues --    5.19210   5.21847   5.22313   5.24783   5.26092
 Alpha virt. eigenvalues --    5.27139   5.30803   5.32199   5.34316   5.38717
 Alpha virt. eigenvalues --    5.44667   5.44806   5.46507   5.48723   5.49653
 Alpha virt. eigenvalues --    5.52530   5.56102   5.60111   5.62468   5.63245
 Alpha virt. eigenvalues --    5.64227   5.65585   5.67570   5.91927   5.96933
 Alpha virt. eigenvalues --    5.98239   5.99101   6.00907   6.22673   6.77172
 Alpha virt. eigenvalues --    6.78438   6.79683   6.80455   6.80878   6.81679
 Alpha virt. eigenvalues --    6.82178   6.82981   6.83576   6.83814   6.84142
 Alpha virt. eigenvalues --    6.85489   6.86493   6.86909   6.88951   6.89433
 Alpha virt. eigenvalues --    6.90226   6.90695   6.92290   6.92605   6.93753
 Alpha virt. eigenvalues --    6.94564   6.95797   6.96938   6.98884   6.99995
 Alpha virt. eigenvalues --    7.00506   7.02332   7.02875   7.03374   7.04314
 Alpha virt. eigenvalues --    7.05595   7.06183   7.07277   7.09415   7.15111
 Alpha virt. eigenvalues --    7.16826   7.18174   7.20929   7.22237   7.23697
 Alpha virt. eigenvalues --    7.25836   7.29369   7.30626   7.31045   7.34049
 Alpha virt. eigenvalues --    7.37390   7.39163   7.43947   7.46478   7.72952
 Alpha virt. eigenvalues --   14.28621  14.33505  14.42845  23.98011  24.01727
 Alpha virt. eigenvalues --   24.06841  24.09450  24.10809  24.12520  24.23178
 Alpha virt. eigenvalues --   35.55327  50.04298  50.05232  50.05867  50.07613
 Alpha virt. eigenvalues --   50.09054  50.09721  50.10854  50.15435  50.18368
 Alpha virt. eigenvalues --   50.20766 163.99106
          Condensed to atoms (all electrons):
               1          2          3          4          5          6
     1  C    5.817686   0.414515   0.383150   0.426145  -0.047238   0.026950
     2  H    0.414515   0.396384  -0.016528  -0.015326   0.018458  -0.000223
     3  H    0.383150  -0.016528   0.471290  -0.015927  -0.022554   0.000101
     4  H    0.426145  -0.015326  -0.015927   0.400407  -0.003884   0.000089
     5  C   -0.047238   0.018458  -0.022554  -0.003884   5.757465   0.415475
     6  H    0.026950  -0.000223   0.000101   0.000089   0.415475   0.464495
     7  H   -0.003145   0.000183   0.000698   0.000940   0.423657  -0.017829
     8  H   -0.031682   0.000012  -0.000469   0.000057   0.384271  -0.017607
     9  C   -0.081879  -0.005619  -0.040118   0.022649  -0.195523  -0.015318
    10  H    0.023080   0.000125   0.000124  -0.000322  -0.000814   0.002512
    11  H   -0.013870  -0.000239  -0.000071   0.000374  -0.012414   0.000262
    12  H   -0.009325   0.001200  -0.000051  -0.000042   0.010124   0.000508
    13  C   -0.821134  -0.058756   0.097727  -0.070204  -0.637838  -0.081254
    14  H   -0.013336  -0.000644   0.000211   0.000316   0.020099  -0.000635
    15  H    0.016627   0.007663   0.000431  -0.000969   0.002466  -0.000041
    16  C   -0.062698  -0.008816  -0.004847   0.001696  -0.223336   0.025240
    17  H    0.002685   0.000140  -0.000026   0.000003   0.014811   0.000151
    18  H    0.007192   0.000047   0.000009   0.000048   0.001809  -0.000658
    19  C   -0.041286   0.003443   0.002031  -0.008793  -0.012463   0.001278
    20  H    0.000253  -0.000001  -0.000001   0.000002   0.000817   0.000021
    21  H    0.000328   0.000004  -0.000001   0.000027   0.003147   0.000042
    22  N    0.456388  -0.004029  -0.047150  -0.001059   0.516559  -0.006656
    23  C    0.008442  -0.005947  -0.000950   0.005037  -0.028628   0.001844
    24  O    0.001771  -0.000078   0.000003  -0.000096  -0.000493  -0.000046
    25  O   -0.008049   0.000318  -0.000047  -0.000109   0.003032  -0.000086
    26  P   -0.008320   0.009401   0.000829  -0.001224  -0.003162  -0.000092
    27  O   -0.004237   0.009771  -0.000237   0.000418   0.007816  -0.000014
    28  O   -0.000559  -0.000339   0.000007  -0.000014  -0.000254  -0.000000
    29  H   -0.000032   0.000062  -0.000000  -0.000002   0.000020  -0.000000
    30  O    0.000651   0.001720  -0.000038   0.000172   0.001575  -0.000007
    31  H   -0.001721  -0.000210   0.000014  -0.000158  -0.001224   0.000003
    32  O   -0.000952   0.000360  -0.000003  -0.000031  -0.000075  -0.000001
    33  H   -0.000611   0.000070   0.000001   0.000004  -0.000070   0.000001
    34  O   -0.016861  -0.000274  -0.000022  -0.001999  -0.001993  -0.000116
    35  H    0.005565   0.000081   0.000003   0.000476   0.002480   0.000030
    36  H   -0.000311  -0.000003   0.000000  -0.000027  -0.000679  -0.000001
    37  O   -0.024470   0.000003  -0.000301  -0.009945  -0.002821  -0.000495
    38  H    0.005427  -0.000003  -0.000092   0.001582   0.002313  -0.000003
    39  H    0.012167   0.000100  -0.000014   0.001033   0.003249   0.000199
    40  O   -0.003991   0.000048   0.000013   0.000027  -0.004393  -0.000476
    41  H   -0.000586   0.000001   0.000003  -0.000003  -0.000199   0.000054
    42  H    0.000236   0.000000   0.000001   0.000000  -0.000216   0.000000
    43  O    0.005922   0.000330  -0.000014   0.000049   0.000905  -0.000072
    44  H   -0.001318  -0.000185   0.000003  -0.000009  -0.000289   0.000005
    45  H   -0.001588   0.000018   0.000001  -0.000006  -0.000641   0.000005
               7          8          9         10         11         12
     1  C   -0.003145  -0.031682  -0.081879   0.023080  -0.013870  -0.009325
     2  H    0.000183   0.000012  -0.005619   0.000125  -0.000239   0.001200
     3  H    0.000698  -0.000469  -0.040118   0.000124  -0.000071  -0.000051
     4  H    0.000940   0.000057   0.022649  -0.000322   0.000374  -0.000042
     5  C    0.423657   0.384271  -0.195523  -0.000814  -0.012414   0.010124
     6  H   -0.017829  -0.017607  -0.015318   0.002512   0.000262   0.000508
     7  H    0.404256  -0.018602   0.025996   0.000348  -0.000041  -0.000184
     8  H   -0.018602   0.461590  -0.025467  -0.000073  -0.000858   0.000162
     9  C    0.025996  -0.025467   5.881781   0.408438   0.384108   0.374693
    10  H    0.000348  -0.000073   0.408438   0.424952  -0.020376  -0.013947
    11  H   -0.000041  -0.000858   0.384108  -0.020376   0.458542  -0.014132
    12  H   -0.000184   0.000162   0.374693  -0.013947  -0.014132   0.422965
    13  C   -0.065363   0.111008  -0.622009  -0.064434   0.037521   0.041810
    14  H   -0.000122   0.000535   0.009440  -0.000301  -0.000175  -0.000052
    15  H    0.000342  -0.000326  -0.020164   0.000599   0.000196   0.003983
    16  C    0.005676  -0.006852   0.083129   0.015522  -0.001137  -0.006379
    17  H    0.000110  -0.000095   0.000307   0.000747   0.000115  -0.002317
    18  H   -0.000248  -0.000093  -0.003383  -0.001658  -0.000075   0.000144
    19  C   -0.001570  -0.000894  -0.107231   0.006916   0.002320  -0.015577
    20  H   -0.000002   0.000001   0.001466   0.000034  -0.000000   0.000015
    21  H    0.000074   0.000002   0.000209   0.000012   0.000001   0.000023
    22  N   -0.006789  -0.054548   0.374121  -0.008586  -0.021866  -0.045342
    23  C   -0.001759   0.000656   0.009981  -0.000762  -0.000560   0.012610
    24  O   -0.000013  -0.000002   0.004168   0.000233   0.000005  -0.002162
    25  O   -0.000063   0.000007   0.000922   0.000010  -0.000010  -0.000454
    26  P   -0.000026   0.000065  -0.018064  -0.000348   0.000330   0.001265
    27  O   -0.000015  -0.000010  -0.001113   0.000646  -0.000603   0.005033
    28  O   -0.000000  -0.000000  -0.001150   0.000001  -0.000002   0.000043
    29  H   -0.000000  -0.000000  -0.000011  -0.000000  -0.000000  -0.000011
    30  O   -0.000006  -0.000003   0.004848   0.000008  -0.000006   0.000026
    31  H    0.000004  -0.000000  -0.000190   0.000001   0.000005   0.000186
    32  O   -0.000000   0.000000   0.001291   0.000009  -0.000003  -0.000687
    33  H    0.000000   0.000000  -0.000278  -0.000012  -0.000002   0.000216
    34  O   -0.000894   0.000001  -0.004379  -0.000012  -0.000002   0.000022
    35  H    0.000095  -0.000002   0.001167  -0.000003   0.000000  -0.000024
    36  H   -0.000026  -0.000000   0.000095  -0.000000  -0.000000   0.000000
    37  O   -0.013716  -0.000001  -0.000276  -0.000079  -0.000043  -0.000009
    38  H    0.001353  -0.000019   0.001047  -0.000000  -0.000001  -0.000000
    39  H    0.001208  -0.000036   0.000194   0.000014   0.000002   0.000004
    40  O   -0.000050  -0.000077  -0.022718  -0.034275   0.002724  -0.000946
    41  H    0.000005   0.000015  -0.000979   0.006340  -0.000182   0.002351
    42  H    0.000001   0.000004   0.002104   0.001161   0.000055  -0.000054
    43  O   -0.000018  -0.000030   0.005934  -0.005133   0.000464   0.001273
    44  H    0.000001   0.000002  -0.002117   0.000764   0.000048   0.002991
    45  H    0.000003   0.000002  -0.003657   0.000285  -0.000029   0.001073
              13         14         15         16         17         18
     1  C   -0.821134  -0.013336   0.016627  -0.062698   0.002685   0.007192
     2  H   -0.058756  -0.000644   0.007663  -0.008816   0.000140   0.000047
     3  H    0.097727   0.000211   0.000431  -0.004847  -0.000026   0.000009
     4  H   -0.070204   0.000316  -0.000969   0.001696   0.000003   0.000048
     5  C   -0.637838   0.020099   0.002466  -0.223336   0.014811   0.001809
     6  H   -0.081254  -0.000635  -0.000041   0.025240   0.000151  -0.000658
     7  H   -0.065363  -0.000122   0.000342   0.005676   0.000110  -0.000248
     8  H    0.111008   0.000535  -0.000326  -0.006852  -0.000095  -0.000093
     9  C   -0.622009   0.009440  -0.020164   0.083129   0.000307  -0.003383
    10  H   -0.064434  -0.000301   0.000599   0.015522   0.000747  -0.001658
    11  H    0.037521  -0.000175   0.000196  -0.001137   0.000115  -0.000075
    12  H    0.041810  -0.000052   0.003983  -0.006379  -0.002317   0.000144
    13  C   13.604613   0.362556   0.205267  -3.954688   0.074649  -0.112987
    14  H    0.362556   0.531534  -0.043159  -0.001362   0.005695  -0.007050
    15  H    0.205267  -0.043159   0.527457   0.017209  -0.007567   0.005767
    16  C   -3.954688  -0.001362   0.017209  10.238462   0.262806   0.436855
    17  H    0.074649   0.005695  -0.007567   0.262806   0.527901  -0.030530
    18  H   -0.112987  -0.007050   0.005767   0.436855  -0.030530   0.525005
    19  C    1.487573  -0.030762  -0.007591  -2.121805   0.037290  -0.074422
    20  H    0.030050  -0.000010  -0.000272  -0.034732  -0.007456  -0.002970
    21  H    0.027224   0.001496   0.000051  -0.018803   0.004652  -0.006311
    22  N   -1.497720  -0.024130   0.020295   0.060076  -0.000587   0.063812
    23  C   -1.596052   0.011118   0.068078   1.566793  -0.052294   0.034573
    24  O    0.057437  -0.001504   0.001832  -0.071999  -0.005136  -0.000318
    25  O    0.015042   0.004490  -0.018103   0.033249   0.002132  -0.002664
    26  P   -0.022821   0.000064   0.009931   0.044583   0.000154  -0.000180
    27  O   -0.049091   0.001117   0.009430  -0.029271  -0.001730   0.000050
    28  O   -0.006679  -0.000004  -0.000073   0.002283  -0.000016  -0.000000
    29  H    0.000637  -0.000003  -0.000091   0.000065   0.000000   0.000000
    30  O   -0.027970   0.001218   0.012233   0.005282   0.000290   0.000010
    31  H    0.010582  -0.001967   0.003436   0.000271  -0.000108   0.000014
    32  O   -0.014658  -0.000051   0.000611  -0.020457  -0.000004   0.000001
    33  H    0.001323   0.000049  -0.001645   0.015976   0.000319  -0.000012
    34  O   -0.056879   0.013050   0.001001   0.094508  -0.000451  -0.000253
    35  H    0.064950  -0.003371  -0.002299  -0.058898   0.000092   0.000060
    36  H   -0.008015  -0.001851   0.000182   0.002225   0.000001  -0.000004
    37  O   -0.000126   0.024894  -0.001062   0.043097   0.000064  -0.000085
    38  H   -0.006226  -0.001107  -0.000056  -0.003301   0.000001  -0.000001
    39  H    0.010185  -0.005551   0.000523  -0.030380  -0.000022   0.000203
    40  O   -0.001899  -0.000097   0.000426  -0.035521   0.010524   0.003646
    41  H    0.000944   0.000002  -0.000242   0.024916   0.001813  -0.000272
    42  H    0.005921  -0.000001  -0.000053  -0.001678  -0.001038  -0.000093
    43  O    0.106069  -0.000070  -0.000605  -0.201569   0.002919   0.001722
    44  H    0.028143  -0.000065  -0.000628   0.000513  -0.000050  -0.000049
    45  H   -0.039817  -0.000022  -0.000299   0.090900  -0.000389  -0.000384
              19         20         21         22         23         24
     1  C   -0.041286   0.000253   0.000328   0.456388   0.008442   0.001771
     2  H    0.003443  -0.000001   0.000004  -0.004029  -0.005947  -0.000078
     3  H    0.002031  -0.000001  -0.000001  -0.047150  -0.000950   0.000003
     4  H   -0.008793   0.000002   0.000027  -0.001059   0.005037  -0.000096
     5  C   -0.012463   0.000817   0.003147   0.516559  -0.028628  -0.000493
     6  H    0.001278   0.000021   0.000042  -0.006656   0.001844  -0.000046
     7  H   -0.001570  -0.000002   0.000074  -0.006789  -0.001759  -0.000013
     8  H   -0.000894   0.000001   0.000002  -0.054548   0.000656  -0.000002
     9  C   -0.107231   0.001466   0.000209   0.374121   0.009981   0.004168
    10  H    0.006916   0.000034   0.000012  -0.008586  -0.000762   0.000233
    11  H    0.002320  -0.000000   0.000001  -0.021866  -0.000560   0.000005
    12  H   -0.015577   0.000015   0.000023  -0.045342   0.012610  -0.002162
    13  C    1.487573   0.030050   0.027224  -1.497720  -1.596052   0.057437
    14  H   -0.030762  -0.000010   0.001496  -0.024130   0.011118  -0.001504
    15  H   -0.007591  -0.000272   0.000051   0.020295   0.068078   0.001832
    16  C   -2.121805  -0.034732  -0.018803   0.060076   1.566793  -0.071999
    17  H    0.037290  -0.007456   0.004652  -0.000587  -0.052294  -0.005136
    18  H   -0.074422  -0.002970  -0.006311   0.063812   0.034573  -0.000318
    19  C    8.918065   0.426716   0.410363  -0.228355  -2.284516  -0.048829
    20  H    0.426716   0.492626  -0.027223   0.000787  -0.080484  -0.002568
    21  H    0.410363  -0.027223   0.472749   0.001896  -0.062326   0.005728
    22  N   -0.228355   0.000787   0.001896   7.200521   0.124358   0.005090
    23  C   -2.284516  -0.080484  -0.062326   0.124358   7.469801   0.388385
    24  O   -0.048829  -0.002568   0.005728   0.005090   0.388385   8.285880
    25  O    0.105151   0.011706  -0.016408  -0.021058   0.064372  -0.118191
    26  P   -0.038295  -0.000178  -0.000041  -0.002836   0.045080   0.031010
    27  O   -0.015115   0.000094  -0.000044   0.052395   0.027706   0.019371
    28  O   -0.002287   0.000002  -0.000000  -0.000422   0.003161   0.006250
    29  H    0.000478  -0.000000  -0.000000  -0.000021  -0.001234  -0.000298
    30  O   -0.012395   0.000089  -0.000064   0.001716   0.008804  -0.020173
    31  H   -0.015842  -0.000192   0.000291  -0.000786   0.051129   0.004501
    32  O    0.055885   0.000026  -0.000050   0.001116  -0.045228  -0.012487
    33  H   -0.008304  -0.000160   0.000033  -0.000860   0.001136   0.028881
    34  O   -0.046397   0.000550  -0.003442  -0.017948   0.027933   0.000889
    35  H    0.015584  -0.000610   0.000703   0.007202   0.002346  -0.000578
    36  H    0.000535  -0.000035  -0.000100   0.000168   0.004995   0.000161
    37  O   -0.013198  -0.000026   0.000020   0.000349   0.006472  -0.000046
    38  H   -0.000398  -0.000000   0.000004   0.001832   0.000161  -0.000003
    39  H    0.008099   0.000027  -0.000186   0.009178  -0.004923  -0.000056
    40  O    0.008654   0.000254  -0.000075   0.020226  -0.006108   0.003083
    41  H   -0.016609   0.000020   0.000037  -0.007555   0.012786  -0.004649
    42  H    0.000173  -0.000012  -0.000001  -0.001284  -0.000823  -0.000036
    43  O    0.136194   0.000701  -0.000509   0.006735  -0.127936   0.047761
    44  H   -0.015651  -0.000022   0.000028  -0.007614   0.011265  -0.011447
    45  H   -0.063041  -0.001317   0.000180  -0.006014   0.072061   0.000642
              25         26         27         28         29         30
     1  C   -0.008049  -0.008320  -0.004237  -0.000559  -0.000032   0.000651
     2  H    0.000318   0.009401   0.009771  -0.000339   0.000062   0.001720
     3  H   -0.000047   0.000829  -0.000237   0.000007  -0.000000  -0.000038
     4  H   -0.000109  -0.001224   0.000418  -0.000014  -0.000002   0.000172
     5  C    0.003032  -0.003162   0.007816  -0.000254   0.000020   0.001575
     6  H   -0.000086  -0.000092  -0.000014  -0.000000  -0.000000  -0.000007
     7  H   -0.000063  -0.000026  -0.000015  -0.000000  -0.000000  -0.000006
     8  H    0.000007   0.000065  -0.000010  -0.000000  -0.000000  -0.000003
     9  C    0.000922  -0.018064  -0.001113  -0.001150  -0.000011   0.004848
    10  H    0.000010  -0.000348   0.000646   0.000001  -0.000000   0.000008
    11  H   -0.000010   0.000330  -0.000603  -0.000002  -0.000000  -0.000006
    12  H   -0.000454   0.001265   0.005033   0.000043  -0.000011   0.000026
    13  C    0.015042  -0.022821  -0.049091  -0.006679   0.000637  -0.027970
    14  H    0.004490   0.000064   0.001117  -0.000004  -0.000003   0.001218
    15  H   -0.018103   0.009931   0.009430  -0.000073  -0.000091   0.012233
    16  C    0.033249   0.044583  -0.029271   0.002283   0.000065   0.005282
    17  H    0.002132   0.000154  -0.001730  -0.000016   0.000000   0.000290
    18  H   -0.002664  -0.000180   0.000050  -0.000000   0.000000   0.000010
    19  C    0.105151  -0.038295  -0.015115  -0.002287   0.000478  -0.012395
    20  H    0.011706  -0.000178   0.000094   0.000002  -0.000000   0.000089
    21  H   -0.016408  -0.000041  -0.000044  -0.000000  -0.000000  -0.000064
    22  N   -0.021058  -0.002836   0.052395  -0.000422  -0.000021   0.001716
    23  C    0.064372   0.045080   0.027706   0.003161  -0.001234   0.008804
    24  O   -0.118191   0.031010   0.019371   0.006250  -0.000298  -0.020173
    25  O    8.504467   0.012150  -0.016749   0.002915   0.000441   0.008659
    26  P    0.012150  12.509910   0.389641   0.220145   0.004085   0.280811
    27  O   -0.016749   0.389641   8.358791  -0.013111  -0.009745  -0.013852
    28  O    0.002915   0.220145  -0.013111   7.999152   0.241601   0.016190
    29  H    0.000441   0.004085  -0.009745   0.241601   0.462721  -0.007598
    30  O    0.008659   0.280811  -0.013852   0.016190  -0.007598   8.146043
    31  H    0.002846   0.028264  -0.005976  -0.001969   0.000369   0.204304
    32  O   -0.013301   0.275573  -0.006255   0.004028  -0.005162   0.010373
    33  H    0.030422   0.012433  -0.015224  -0.001114   0.001967  -0.013747
    34  O   -0.025899   0.001332  -0.000326   0.000067  -0.000002   0.000864
    35  H    0.033011  -0.000144   0.000100  -0.000086   0.000002  -0.003911
    36  H    0.008640  -0.000240   0.000006   0.000002  -0.000000   0.000498
    37  O    0.000387  -0.000184   0.000042  -0.000002  -0.000000  -0.000416
    38  H   -0.000105   0.000021  -0.000001   0.000000  -0.000000   0.000022
    39  H   -0.005107   0.000047   0.000026   0.000000   0.000000  -0.000274
    40  O   -0.000188  -0.000049   0.000303  -0.000003  -0.000000  -0.000018
    41  H    0.000114   0.001412  -0.002431   0.000019   0.000000   0.000010
    42  H   -0.000003  -0.000018   0.000009  -0.000000   0.000000   0.000000
    43  O    0.000856  -0.027262  -0.004666   0.000342  -0.000027   0.001211
    44  H   -0.000339   0.012046   0.027498   0.000293   0.000043  -0.000308
    45  H    0.001321   0.003229  -0.006968  -0.000295   0.000026  -0.000403
              31         32         33         34         35         36
     1  C   -0.001721  -0.000952  -0.000611  -0.016861   0.005565  -0.000311
     2  H   -0.000210   0.000360   0.000070  -0.000274   0.000081  -0.000003
     3  H    0.000014  -0.000003   0.000001  -0.000022   0.000003   0.000000
     4  H   -0.000158  -0.000031   0.000004  -0.001999   0.000476  -0.000027
     5  C   -0.001224  -0.000075  -0.000070  -0.001993   0.002480  -0.000679
     6  H    0.000003  -0.000001   0.000001  -0.000116   0.000030  -0.000001
     7  H    0.000004  -0.000000   0.000000  -0.000894   0.000095  -0.000026
     8  H   -0.000000   0.000000   0.000000   0.000001  -0.000002  -0.000000
     9  C   -0.000190   0.001291  -0.000278  -0.004379   0.001167   0.000095
    10  H    0.000001   0.000009  -0.000012  -0.000012  -0.000003  -0.000000
    11  H    0.000005  -0.000003  -0.000002  -0.000002   0.000000  -0.000000
    12  H    0.000186  -0.000687   0.000216   0.000022  -0.000024   0.000000
    13  C    0.010582  -0.014658   0.001323  -0.056879   0.064950  -0.008015
    14  H   -0.001967  -0.000051   0.000049   0.013050  -0.003371  -0.001851
    15  H    0.003436   0.000611  -0.001645   0.001001  -0.002299   0.000182
    16  C    0.000271  -0.020457   0.015976   0.094508  -0.058898   0.002225
    17  H   -0.000108  -0.000004   0.000319  -0.000451   0.000092   0.000001
    18  H    0.000014   0.000001  -0.000012  -0.000253   0.000060  -0.000004
    19  C   -0.015842   0.055885  -0.008304  -0.046397   0.015584   0.000535
    20  H   -0.000192   0.000026  -0.000160   0.000550  -0.000610  -0.000035
    21  H    0.000291  -0.000050   0.000033  -0.003442   0.000703  -0.000100
    22  N   -0.000786   0.001116  -0.000860  -0.017948   0.007202   0.000168
    23  C    0.051129  -0.045228   0.001136   0.027933   0.002346   0.004995
    24  O    0.004501  -0.012487   0.028881   0.000889  -0.000578   0.000161
    25  O    0.002846  -0.013301   0.030422  -0.025899   0.033011   0.008640
    26  P    0.028264   0.275573   0.012433   0.001332  -0.000144  -0.000240
    27  O   -0.005976  -0.006255  -0.015224  -0.000326   0.000100   0.000006
    28  O   -0.001969   0.004028  -0.001114   0.000067  -0.000086   0.000002
    29  H    0.000369  -0.005162   0.001967  -0.000002   0.000002  -0.000000
    30  O    0.204304   0.010373  -0.013747   0.000864  -0.003911   0.000498
    31  H    0.329929  -0.009872   0.001818  -0.007593   0.011100  -0.000913
    32  O   -0.009872   8.172355   0.194553  -0.000183   0.000175   0.000019
    33  H    0.001818   0.194553   0.330975   0.000064  -0.000007  -0.000008
    34  O   -0.007593  -0.000183   0.000064   8.295781   0.200013   0.262613
    35  H    0.011100   0.000175  -0.000007   0.200013   0.345057  -0.019673
    36  H   -0.000913   0.000019  -0.000008   0.262613  -0.019673   0.446895
    37  O   -0.000244  -0.000018   0.000004  -0.013026  -0.001463   0.002065
    38  H   -0.000010  -0.000000   0.000000   0.002267   0.000349  -0.000519
    39  H    0.000562   0.000002   0.000001  -0.031974   0.014889  -0.002830
    40  O    0.000005   0.000201  -0.000171  -0.000015   0.000013  -0.000000
    41  H   -0.000007  -0.000251   0.000275   0.000005  -0.000005   0.000000
    42  H    0.000000  -0.000002   0.000003  -0.000000   0.000000  -0.000000
    43  O   -0.001278   0.030473  -0.016314  -0.000207   0.000200  -0.000000
    44  H    0.000383  -0.005463   0.000296   0.000012  -0.000018   0.000000
    45  H    0.000261  -0.011697   0.012324   0.000134  -0.000164  -0.000000
              37         38         39         40         41         42
     1  C   -0.024470   0.005427   0.012167  -0.003991  -0.000586   0.000236
     2  H    0.000003  -0.000003   0.000100   0.000048   0.000001   0.000000
     3  H   -0.000301  -0.000092  -0.000014   0.000013   0.000003   0.000001
     4  H   -0.009945   0.001582   0.001033   0.000027  -0.000003   0.000000
     5  C   -0.002821   0.002313   0.003249  -0.004393  -0.000199  -0.000216
     6  H   -0.000495  -0.000003   0.000199  -0.000476   0.000054   0.000000
     7  H   -0.013716   0.001353   0.001208  -0.000050   0.000005   0.000001
     8  H   -0.000001  -0.000019  -0.000036  -0.000077   0.000015   0.000004
     9  C   -0.000276   0.001047   0.000194  -0.022718  -0.000979   0.002104
    10  H   -0.000079  -0.000000   0.000014  -0.034275   0.006340   0.001161
[...]
     1  C    0.000000
     5  C    0.000000
     9  C    0.000000
    13  C    0.000000
    16  C    0.000000
    19  C    0.000000
    22  N    0.000000
    23  C    0.000000
    24  O    0.000000
    25  O    0.000000
    26  P    0.000000
    27  O    0.000000
    28  O    0.000000
    30  O    0.000000
    32  O    0.000000
    34  O    0.000000
    37  O    0.000000
    40  O    0.000000
    43  O    0.000000
         Mulliken charges condensed to fragments:
      1      0.000000
      2      0.000000
      3      0.000000
      4      0.000000
      5      0.000000
      6      0.000000
 Electronic spatial extent (au):  <R**2>=          14029.4735
 Charge=              0.0000 electrons
 Dipole moment (field-independent basis, Debye):
    X=              0.9395    Y=              0.4953    Z=             -1.8153  Tot=              2.1031
 Quadrupole moment (field-independent basis, Debye-Ang):
   XX=             12.0890   YY=              9.5158   ZZ=            -39.8869
   XY=             17.7151   XZ=            -10.6933   YZ=            -21.1783
 Traceless Quadrupole moment (field-independent basis, Debye-Ang):
   XX=             18.1830   YY=             15.6098   ZZ=            -33.7928
   XY=             17.7151   XZ=            -10.6933   YZ=            -21.1783
 Octapole moment (field-independent basis, Debye-Ang**2):
  XXX=             75.8971  YYY=            105.9481  ZZZ=           -640.1497  XYY=            267.3368
  XXY=            208.7836  XXZ=            -94.5984  XZZ=           -342.4551  YZZ=           -524.1515
  YYZ=           -278.1329  XYZ=           -110.8935
 Hexadecapole moment (field-independent basis, Debye-Ang**3):
 XXXX=           -469.4407 YYYY=            171.9076 ZZZZ=          -8962.9927 XXXY=           1373.6186
 XXXZ=          -1490.9345 YYYX=           3364.1692 YYYZ=          -4233.5046 ZZZX=          -6007.2019
 ZZZY=          -8706.1528 XXYY=           3017.5352 XXZZ=          -3441.5763 YYZZ=          -7245.8086
 XXYZ=           -991.6665 YYXZ=          -1428.2629 ZZXY=          -4484.4750
 N-N= 9.116094386094D+00 E-N=-1.990865616945D+02  KE= 7.620017739430D+01
 No NMR shielding tensors so no spin-rotation constants.
 Leave Link  601 at Fri May 20 18:46:19 2022, MaxMem= 13421772800 cpu:               1.6 elap:               0.1
 (Enter /data0/home/wuhanyu/software/g16/l122.exe)
 CPIOFr:  IOpCl= 0 IRwI=-1 IRwCP=  731 ICalc= 11 LCPTot=      705130 Len1MO=     1847911 IndFrg=    22880062
 Counterpoise: doing calculation for fragment   6 using the basis set of the fragment.
 Leave Link  122 at Fri May 20 18:46:19 2022, MaxMem= 13421772800 cpu:               0.3 elap:               0.0
 (Enter /data0/home/wuhanyu/software/g16/l301.exe)
 Basis read from rwf:  (5D, 7F)
 No pseudopotential information found on rwf file.
    39 basis functions,    58 primitive gaussians,    41 cartesian basis functions
     5 alpha electrons        5 beta electrons
       nuclear repulsion energy         9.0614604292 Hartrees.
 IExCor= 4336 DFT=T Ex+Corr=M062X ExCW=0 ScaHFX=  0.540000
 ScaDFX=  1.000000  1.000000  1.000000  1.000000 ScalE2=  1.000000  1.000000
 IRadAn=      5 IRanWt=     -1 IRanGd=            0 ICorTp=0 IEmpDi=131
 NAtoms=   45 NActive=    3 NUniq=    3 SFac= 1.00D+00 NAtFMM=   60 NAOKFM=F Big=F
 Integral buffers will be    131072 words long.
 Raffenetti 2 integral format.
 Two-electron integral symmetry is turned off.
 R6Disp:  Grimme-D3 Dispersion energy=       -0.0000000076 Hartrees.
 Nuclear repulsion after empirical dispersion term =        9.0614604216 Hartrees.
 No density basis found on file   718.
 Leave Link  301 at Fri May 20 18:46:19 2022, MaxMem= 13421772800 cpu:               1.1 elap:               0.1
 (Enter /data0/home/wuhanyu/software/g16/l302.exe)
 NPDir=0 NMtPBC=     1 NCelOv=     1 NCel=       1 NClECP=     1 NCelD=      1
         NCelK=      1 NCelE2=     1 NClLst=     1 CellRange=     0.0.
 One-electron integrals computed using PRISM.
 NBasis=    39 RedAO= T EigKep=  3.05D-03  NBF=    39
 NBsUse=    39 1.00D-06 EigRej= -1.00D+00 NBFU=    39
 Precomputing XC quadrature grid using
 IXCGrd= 4 IRadAn=           5 IRanWt=          -1 IRanGd=           0 AccXCQ= 0.00D+00.
 Generated NRdTot=       0 NPtTot=           0 NUsed=           0 NTot=          32
 NSgBfM=    41    41    41    41    41 MxSgAt=     3 MxSgA2=     3.
 Leave Link  302 at Fri May 20 18:46:19 2022, MaxMem= 13421772800 cpu:               2.1 elap:               0.1
 (Enter /data0/home/wuhanyu/software/g16/l303.exe)
 DipDrv:  MaxL=1.
 Leave Link  303 at Fri May 20 18:46:19 2022, MaxMem= 13421772800 cpu:               0.4 elap:               0.0
 (Enter /data0/home/wuhanyu/software/g16/l401.exe)
 ExpMin= 8.45D-02 ExpMax= 8.59D+03 ExpMxC= 1.30D+03 IAcc=3 IRadAn=         5 AccDes= 0.00D+00
 Harris functional with IExCor= 1009 and IRadAn=       5 diagonalized for initial guess.
 HarFok:  IExCor= 1009 AccDes= 0.00D+00 IRadAn=         5 IDoV= 1 UseB2=F ITyADJ=14
 ICtDFT=  3500011 ScaDFX=  1.000000  1.000000  1.000000  1.000000
 FoFCou: FMM=F IPFlag=           0 FMFlag=      100000 FMFlg1=           0
         NFxFlg=           0 DoJE=T BraDBF=F KetDBF=T FulRan=T
         wScrn=  0.000000 ICntrl=       500 IOpCl=  0 I1Cent=   200000004 NGrid=           0
         NMat0=    1 NMatS0=      1 NMatT0=    0 NMatD0=    1 NMtDS0=    0 NMtDT0=    0
 Symmetry not used in FoFCou.
 Harris En= -76.4159322455763    
 JPrj=0 DoOrth=F DoCkMO=F.
 Leave Link  401 at Fri May 20 18:46:20 2022, MaxMem= 13421772800 cpu:               2.6 elap:               0.1
 (Enter /data0/home/wuhanyu/software/g16/l502.exe)
 Keep R1 ints in memory in canonical form, NReq=19322320.
 FoFCou: FMM=F IPFlag=           0 FMFlag=           0 FMFlg1=           0
         NFxFlg=           0 DoJE=F BraDBF=F KetDBF=F FulRan=T
         wScrn=  0.000000 ICntrl=       600 IOpCl=  0 I1Cent=           0 NGrid=           0
         NMat0=    1 NMatS0=    780 NMatT0=    0 NMatD0=    1 NMtDS0=    0 NMtDT0=    0
 Symmetry not used in FoFCou.
 Two-electron integral symmetry not used.
 Closed shell SCF:
 Using DIIS extrapolation, IDIIS=  1040.
 NGot= 13421772800 LenX= 13421462174 LenY= 13421460052
 Requested convergence on RMS density matrix=1.00D-08 within 128 cycles.
 Requested convergence on MAX density matrix=1.00D-06.
 Requested convergence on             energy=1.00D-06.
 No special actions if energy rises.
 Integral accuracy reduced to 1.0D-05 until final iterations.

 Cycle   1  Pass 0  IDiag  1:
 E= -76.3467251792962    
 DIIS: error= 6.96D-02 at cycle   1 NSaved=   1.
 NSaved= 1 IEnMin= 1 EnMin= -76.3467251792962     IErMin= 1 ErrMin= 6.96D-02
 ErrMax= 6.96D-02  0.00D+00 EMaxC= 1.00D-01 BMatC= 1.20D-01 BMatP= 1.20D-01
 IDIUse=3 WtCom= 3.04D-01 WtEn= 6.96D-01
 Coeff-Com:  0.100D+01
 Coeff-En:   0.100D+01
 Coeff:      0.100D+01
 Gap=     0.324 Goal=   None    Shift=    0.000
 GapD=    0.324 DampG=1.000 DampE=0.500 DampFc=0.5000 IDamp=-1.
 Damping current iteration by 5.00D-01
 RMSDP=7.96D-03 MaxDP=1.00D-01              OVMax= 1.67D-01

 Cycle   2  Pass 0  IDiag  1:
 E= -76.3777558216153     Delta-E=       -0.031030642319 Rises=F Damp=T
 DIIS: error= 1.12D-02 at cycle   2 NSaved=   2.
 NSaved= 2 IEnMin= 2 EnMin= -76.3777558216153     IErMin= 2 ErrMin= 1.12D-02
 ErrMax= 1.12D-02  0.00D+00 EMaxC= 1.00D-01 BMatC= 4.89D-03 BMatP= 1.20D-01
 IDIUse=3 WtCom= 8.88D-01 WtEn= 1.12D-01
 Coeff-Com:  0.847D-01 0.915D+00
 Coeff-En:   0.191D+00 0.809D+00
 Coeff:      0.966D-01 0.903D+00
 Gap=     0.456 Goal=   None    Shift=    0.000
 RMSDP=9.54D-04 MaxDP=1.42D-02 DE=-3.10D-02 OVMax= 1.00D-01

 Cycle   3  Pass 0  IDiag  1:
 E= -76.4214777904872     Delta-E=       -0.043721968872 Rises=F Damp=F
 DIIS: error= 2.18D-03 at cycle   3 NSaved=   3.
 NSaved= 3 IEnMin= 3 EnMin= -76.4214777904872     IErMin= 3 ErrMin= 2.18D-03
 ErrMax= 2.18D-03  0.00D+00 EMaxC= 1.00D-01 BMatC= 9.19D-05 BMatP= 4.89D-03
 IDIUse=3 WtCom= 9.78D-01 WtEn= 2.18D-02
 Coeff-Com: -0.200D-01 0.400D-01 0.980D+00
 Coeff-En:   0.000D+00 0.000D+00 0.100D+01
 Coeff:     -0.195D-01 0.391D-01 0.980D+00
 Gap=     0.461 Goal=   None    Shift=    0.000
 RMSDP=1.15D-04 MaxDP=9.66D-04 DE=-4.37D-02 OVMax= 3.35D-03

 Cycle   4  Pass 0  IDiag  1:
 E= -76.4215562905334     Delta-E=       -0.000078500046 Rises=F Damp=F
 DIIS: error= 4.19D-04 at cycle   4 NSaved=   4.
 NSaved= 4 IEnMin= 4 EnMin= -76.4215562905334     IErMin= 4 ErrMin= 4.19D-04
 ErrMax= 4.19D-04  0.00D+00 EMaxC= 1.00D-01 BMatC= 3.35D-06 BMatP= 9.19D-05
 IDIUse=3 WtCom= 9.96D-01 WtEn= 4.19D-03
 Coeff-Com: -0.196D-02-0.223D-02 0.163D+00 0.841D+00
 Coeff-En:   0.000D+00 0.000D+00 0.000D+00 0.100D+01
 Coeff:     -0.195D-02-0.222D-02 0.163D+00 0.841D+00
 Gap=     0.461 Goal=   None    Shift=    0.000
 RMSDP=2.23D-05 MaxDP=3.57D-04 DE=-7.85D-05 OVMax= 5.44D-04

 Cycle   5  Pass 0  IDiag  1:
 E= -76.4215583663807     Delta-E=       -0.000002075847 Rises=F Damp=F
 DIIS: error= 9.06D-05 at cycle   5 NSaved=   5.
 NSaved= 5 IEnMin= 5 EnMin= -76.4215583663807     IErMin= 5 ErrMin= 9.06D-05
 ErrMax= 9.06D-05  0.00D+00 EMaxC= 1.00D-01 BMatC= 8.46D-08 BMatP= 3.35D-06
 IDIUse=1 WtCom= 1.00D+00 WtEn= 0.00D+00
 Coeff-Com:  0.119D-02-0.182D-02-0.371D-01-0.672D-01 0.110D+01
 Coeff:      0.119D-02-0.182D-02-0.371D-01-0.672D-01 0.110D+01
 Gap=     0.461 Goal=   None    Shift=    0.000
 RMSDP=9.13D-06 MaxDP=1.03D-04 DE=-2.08D-06 OVMax= 2.07D-04

 Initial convergence to 1.0D-05 achieved.  Increase integral accuracy.
 Cycle   6  Pass 1  IDiag  1:
 E= -76.4215603791800     Delta-E=       -0.000002012799 Rises=F Damp=F
 DIIS: error= 1.13D-05 at cycle   1 NSaved=   1.
 NSaved= 1 IEnMin= 1 EnMin= -76.4215603791800     IErMin= 1 ErrMin= 1.13D-05
 ErrMax= 1.13D-05  0.00D+00 EMaxC= 1.00D-01 BMatC= 6.02D-09 BMatP= 6.02D-09
 IDIUse=1 WtCom= 1.00D+00 WtEn= 0.00D+00
 Coeff-Com:  0.100D+01
 Coeff:      0.100D+01
 Gap=     0.461 Goal=   None    Shift=    0.000
 RMSDP=9.13D-06 MaxDP=1.03D-04 DE=-2.01D-06 OVMax= 3.41D-05

 Cycle   7  Pass 1  IDiag  1:
 E= -76.4215603839273     Delta-E=       -0.000000004747 Rises=F Damp=F
 DIIS: error= 6.71D-06 at cycle   2 NSaved=   2.
 NSaved= 2 IEnMin= 2 EnMin= -76.4215603839273     IErMin= 2 ErrMin= 6.71D-06
 ErrMax= 6.71D-06  0.00D+00 EMaxC= 1.00D-01 BMatC= 6.57D-10 BMatP= 6.02D-09
 IDIUse=1 WtCom= 1.00D+00 WtEn= 0.00D+00
 Coeff-Com:  0.931D-01 0.907D+00
 Coeff:      0.931D-01 0.907D+00
 Gap=     0.461 Goal=   None    Shift=    0.000
 RMSDP=5.40D-07 MaxDP=8.98D-06 DE=-4.75D-09 OVMax= 1.44D-05

 Cycle   8  Pass 1  IDiag  1:
 E= -76.4215603841118     Delta-E=       -0.000000000185 Rises=F Damp=F
 DIIS: error= 4.57D-06 at cycle   3 NSaved=   3.
 NSaved= 3 IEnMin= 3 EnMin= -76.4215603841118     IErMin= 3 ErrMin= 4.57D-06
 ErrMax= 4.57D-06  0.00D+00 EMaxC= 1.00D-01 BMatC= 5.52D-10 BMatP= 6.57D-10
 IDIUse=1 WtCom= 1.00D+00 WtEn= 0.00D+00
 Coeff-Com: -0.512D-01 0.490D+00 0.561D+00
 Coeff:     -0.512D-01 0.490D+00 0.561D+00
 Gap=     0.461 Goal=   None    Shift=    0.000
 RMSDP=2.81D-07 MaxDP=3.50D-06 DE=-1.85D-10 OVMax= 6.87D-06

 Cycle   9  Pass 1  IDiag  1:
 E= -76.4215603844849     Delta-E=       -0.000000000373 Rises=F Damp=F
 DIIS: error= 4.47D-07 at cycle   4 NSaved=   4.
 NSaved= 4 IEnMin= 4 EnMin= -76.4215603844849     IErMin= 4 ErrMin= 4.47D-07
 ErrMax= 4.47D-07  0.00D+00 EMaxC= 1.00D-01 BMatC= 2.10D-12 BMatP= 5.52D-10
 IDIUse=1 WtCom= 1.00D+00 WtEn= 0.00D+00
 Coeff-Com:  0.683D-02-0.127D+00-0.965D-01 0.122D+01
 Coeff:      0.683D-02-0.127D+00-0.965D-01 0.122D+01
 Gap=     0.461 Goal=   None    Shift=    0.000
 RMSDP=7.03D-08 MaxDP=4.99D-07 DE=-3.73D-10 OVMax= 1.43D-06

 Cycle  10  Pass 1  IDiag  1:
 E= -76.4215603844900     Delta-E=       -0.000000000005 Rises=F Damp=F
 DIIS: error= 2.85D-08 at cycle   5 NSaved=   5.
 NSaved= 5 IEnMin= 5 EnMin= -76.4215603844900     IErMin= 5 ErrMin= 2.85D-08
 ErrMax= 2.85D-08  0.00D+00 EMaxC= 1.00D-01 BMatC= 3.78D-14 BMatP= 2.10D-12
 IDIUse=1 WtCom= 1.00D+00 WtEn= 0.00D+00
 Coeff-Com:  0.181D-02-0.216D-01-0.221D-01 0.693D-01 0.973D+00
 Coeff:      0.181D-02-0.216D-01-0.221D-01 0.693D-01 0.973D+00
 Gap=     0.461 Goal=   None    Shift=    0.000
 RMSDP=9.25D-09 MaxDP=7.17D-08 DE=-5.09D-12 OVMax= 1.78D-07

 SCF Done:  E(RM062X) =  -76.4215603845     A.U. after   10 cycles
            NFock= 10  Conv=0.93D-08     -V/T= 2.0032
 KE= 7.618068646955D+01 PE=-1.989660836653D+02 EE= 3.730237638965D+01
 Leave Link  502 at Fri May 20 18:46:20 2022, MaxMem= 13421772800 cpu:               7.3 elap:               0.4
 (Enter /data0/home/wuhanyu/software/g16/l601.exe)
 Copying SCF densities to generalized density rwf, IOpCl= 0 IROHF=0.

 **********************************************************************

            Population analysis using the SCF density.

 **********************************************************************

 Alpha  occ. eigenvalues --  -19.62723  -1.13213  -0.60344  -0.47657  -0.39972
 Alpha virt. eigenvalues --    0.06152   0.13252   0.17430   0.17946   0.18900
 Alpha virt. eigenvalues --    0.23419   0.50634   0.53210   0.98165   1.00329
 Alpha virt. eigenvalues --    1.06002   1.17598   1.20042   1.31920   1.34166
 Alpha virt. eigenvalues --    1.70196   1.74097   1.75164   2.07064   2.09387
 Alpha virt. eigenvalues --    2.36220   2.39337   2.54719   2.87318   3.00739
 Alpha virt. eigenvalues --    5.05599   5.48206   5.89657   6.78485   6.80081
 Alpha virt. eigenvalues --    6.87365   6.91553   7.09770  49.95211
          Condensed to atoms (all electrons):
              43         44         45
    43  O    7.920932   0.318236   0.315137
    44  H    0.318236   0.429599  -0.023617
    45  H    0.315137  -0.023617   0.429959
 Mulliken charges:
               1
     1  C    0.000000
     2  H    0.000000
     3  H    0.000000
     4  H    0.000000
     5  C    0.000000
     6  H    0.000000
     7  H    0.000000
     8  H    0.000000
     9  C    0.000000
    10  H    0.000000
    11  H    0.000000
    12  H    0.000000
    13  C    0.000000
    14  H    0.000000
    15  H    0.000000
    16  C    0.000000
    17  H    0.000000
    18  H    0.000000
    19  C    0.000000
    20  H    0.000000
    21  H    0.000000
    22  N    0.000000
    23  C    0.000000
    24  O    0.000000
    25  O    0.000000
    26  P    0.000000
    27  O    0.000000
    28  O    0.000000
    29  H    0.000000
    30  O    0.000000
    31  H    0.000000
    32  O    0.000000
    33  H    0.000000
    34  O    0.000000
    35  H    0.000000
    36  H    0.000000
    37  O    0.000000
    38  H    0.000000
    39  H    0.000000
    40  O    0.000000
    41  H    0.000000
    42  H    0.000000
    43  O   -0.554304
    44  H    0.275783
    45  H    0.278522
 Sum of Mulliken charges =   0.00000
 Mulliken charges with hydrogens summed into heavy atoms:
               1
     1  C    0.000000
     5  C    0.000000
     9  C    0.000000
    13  C    0.000000
    16  C    0.000000
    19  C    0.000000
    22  N    0.000000
    23  C    0.000000
    24  O    0.000000
    25  O    0.000000
    26  P    0.000000
    27  O    0.000000
    28  O    0.000000
    30  O    0.000000
    32  O    0.000000
    34  O    0.000000
    37  O    0.000000
    40  O    0.000000
    43  O    0.000000
         Mulliken charges condensed to fragments:
      1      0.000000
      2      0.000000
      3      0.000000
      4      0.000000
      5      0.000000
      6      0.000000
 Electronic spatial extent (au):  <R**2>=          12311.5093
 Charge=              0.0000 electrons
 Dipole moment (field-independent basis, Debye):
    X=              0.2609    Y=             -2.1131    Z=             -0.1934  Tot=              2.1379
 Quadrupole moment (field-independent basis, Debye-Ang):
   XX=              0.2730   YY=            -58.5524   ZZ=             -9.3501
   XY=            -21.1717   XZ=              1.3665   YZ=            -18.2322
 Traceless Quadrupole moment (field-independent basis, Debye-Ang):
   XX=             22.8161   YY=            -36.0092   ZZ=             13.1931
   XY=            -21.1717   XZ=              1.3665   YZ=            -18.2322
 Octapole moment (field-independent basis, Debye-Ang**2):
  XXX=            -94.1402  YYY=          -1203.9416  ZZZ=           -180.0240  XYY=           -636.0263
  XXY=           -279.2386  XXZ=             13.5296  XZZ=            -68.1492  YZZ=           -235.0583
  YYZ=           -469.3502  XYZ=           -166.5371
 Hexadecapole moment (field-independent basis, Debye-Ang**3):
 XXXX=          -2966.7624 YYYY=         -21820.2262 ZZZZ=          -2579.2190 XXXY=          -4448.1126
 XXXZ=           -369.4205 YYYX=         -13402.3866 YYYZ=          -9422.1375 ZZZX=          -1679.9335
 ZZZY=          -3131.8990 XXYY=          -7785.5673 XXZZ=           -662.9382 YYZZ=          -4752.1042
 XXYZ=          -1963.6416 YYXZ=          -4880.5779 ZZXY=          -2229.7095
 N-N= 9.061460421588D+00 E-N=-1.989660835088D+02  KE= 7.618068646955D+01
 No NMR shielding tensors so no spin-rotation constants.
 Leave Link  601 at Fri May 20 18:46:20 2022, MaxMem= 13421772800 cpu:               1.6 elap:               0.1
 (Enter /data0/home/wuhanyu/software/g16/l122.exe)
 CPIOFr:  IOpCl= 0 IRwI=-1 IRwCP=  731 ICalc= 12 LCPTot=      705130 Len1MO=     1847911 IndFrg=    24727973
 Restoring MOs from calculation   1 to rwf.
 CPIOFr:  IOpCl= 0 IRwI=-2 IRwCP=  731 ICalc=  0 LCPTot=      705130 Len1MO=     1847911 IndFrg=     2553041
 Counterpoise corrected energy =   -1430.857327375462
                   BSSE energy =       0.009101639233
              sum of fragments =   -1430.664291734349
           complexation energy =    -126.84 kcal/mole (raw)
           complexation energy =    -121.13 kcal/mole (corrected)
 Leave Link  122 at Fri May 20 18:46:20 2022, MaxMem= 13421772800 cpu:               0.6 elap:               0.0
 (Enter /data0/home/wuhanyu/software/g16/l9999.exe)
 1\1\GINC-LOCALHOST\SP\RM062X\6-311+G(2d,p)\C7H26N1O10P1\WUHANYU\20-May
 -2022\0\\#p M062X/6-311+G(2d,p) nosymm em=GD3 counterpoise=6\\Title Ca
 rd Required\\0,1\C,0,10.398852,9.663905,11.866971\H,0,11.34178,9.46478
 1,11.309012\H,0,10.662036,9.952543,12.892875\H,0,9.839135,8.707591,11.
 906264\C,0,8.395089,11.064359,12.018397\H,0,7.759114,11.816586,11.5208
 79\H,0,7.773002,10.159306,12.185243\H,0,8.689639,11.45921,13.002461\C,
 0,10.448735,11.953498,11.01435\H,0,9.840296,12.843915,10.753923\H,0,11
 .008968,12.187578,11.930211\H,0,11.18556,11.81252,10.19174\C,0,9.15337
 3,10.189935,9.834037\H,0,8.43244,9.356841,10.001289\H,0,10.055576,9.72
 3737,9.360501\C,0,8.541331,11.218783,8.880438\H,0,9.271969,12.019552,8
 .630067\H,0,7.670397,11.728117,9.328206\C,0,8.123897,10.507023,7.58848
 1\H,0,7.820769,11.240302,6.819144\H,0,7.253963,9.844194,7.754497\N,0,9
 .593202,10.734258,11.17915\C,0,9.316587,9.692607,7.076068\O,0,10.21489
 1,10.286564,6.4585\O,0,9.343624,8.47628,7.38501\P,0,12.748051,8.79265,
 8.237331\O,0,12.564578,9.921727,9.160709\O,0,14.171871,8.120238,8.4526
 44\H,0,14.24093,7.336449,7.779402\O,0,11.727118,7.596153,8.465613\H,0,
 10.821583,7.828835,7.973039\O,0,12.702548,9.140649,6.693832\H,0,11.739
 772,9.554351,6.478378\O,0,7.458277,7.414336,8.900192\H,0,8.158694,7.84
 1221,8.317467\H,0,7.383589,6.532304,8.556848\O,0,7.606974,7.811896,11.
 646565\H,0,7.056062,7.131659,12.018078\H,0,7.569385,7.661994,10.677885
 \O,0,10.215343,14.227969,9.24931\H,0,10.695707,13.634674,8.633848\H,0,
 10.262904,15.08871,8.848714\O,0,11.509952,12.468491,7.618632\H,0,12.16
 9194,11.910498,8.043222\H,0,10.993259,11.831229,7.080589\\Version=ES64
 L-G16RevA.03\HF=-76.4215604\RMSD=9.251e-09\Dipole=-1.8767692,-0.060386
 2,2.1574422\Quadrupole=-78.0721708,1.8972384,76.1749324,-38.0393362,7.
 228304,43.4126646\PG=C01 [X(C7H26N1O10P1)]\\@


 In the beginning there was nothing, which exploded.
 Job cpu time:       0 days  7 hours 30 minutes  1.8 seconds.
 Elapsed time:       0 days  0 hours 20 minutes 34.3 seconds.
 File lengths (MBytes):  RWF=    476 Int=      0 D2E=      0 Chk=    215 Scr=      1
 Normal termination of Gaussian 16 at Fri May 20 18:46:20 2022.
