 Entering Gaussian System, Link 0=g16
 Initial command:
 /data0/hywu0/study/g16/l1.exe "/data0/hywu0/study/g16/scratch/Gau-3281997.inp" -scrdir="/data0/hywu0/study/g16/scratch/"
 Default is to use a total of   8 processors:
                                8 via shared-memory
                                1 via Linda
 Entering Link 1 = /data0/hywu0/study/g16/l1.exe PID=   3281998.
  
 Copyright (c) 1988,1990,1992,1993,1995,1998,2003,2009,2016,
            Gaussian, Inc.  All Rights Reserved.
  
 This is part of the Gaussian(R) 16 program.  It is based on
 the Gaussian(R) 09 system (copyright 2009, Gaussian, Inc.),
 the Gaussian(R) 03 system (copyright 2003, Gaussian, Inc.),
 the Gaussian(R) 98 system (copyright 1998, Gaussian, Inc.),
 the Gaussian(R) 94 system (copyright 1995, Gaussian, Inc.),
 the Gaussian 92(TM) system (copyright 1992, Gaussian, Inc.),
 the Gaussian 90(TM) system (copyright 1990, Gaussian, Inc.),
 the Gaussian 88(TM) system (copyright 1988, Gaussian, Inc.),
 the Gaussian 86(TM) system (copyright 1986, Carnegie Mellon
 University), and the Gaussian 82(TM) system (copyright 1983,
 Carnegie Mellon University). Gaussian is a federally registered
 trademark of Gaussian, Inc.
  
 This software contains proprietary and confidential information,
 including trade secrets, belonging to Gaussian, Inc.
  
 This software is provided under written license and may be
 used, copied, transmitted, or stored only in accord with that
 written license.
  
 The following legend is applicable only to US Government
 contracts under FAR:
  
                    RESTRICTED RIGHTS LEGEND
  
 Use, reproduction and disclosure by the US Government is
 subject to restrictions as set forth in subparagraphs (a)
 and (c) of the Commercial Computer Software - Restricted
 Rights clause in FAR 52.227-19.
  
 Gaussian, Inc.
 340 Quinnipiac St., Bldg. 40, Wallingford CT 06492
  
  
 ---------------------------------------------------------------
 Warning -- This program may not be used in any manner that
 competes with the business of Gaussian, Inc. or will provide
 assistance to any competitor of Gaussian, Inc.  The licensee
 of this program is prohibited from giving any competitor of
 Gaussian, Inc. access to this program.  By using this program,
 the user acknowledges that Gaussian, Inc. is engaged in the
 business of creating and licensing software in the field of
 computational chemistry and represents and warrants to the
 licensee that it is not a competitor of Gaussian, Inc. and that
 it will not use this program in any manner prohibited above.
 ---------------------------------------------------------------
  

 Cite this work as:
 Gaussian 16, Revision A.03,
 M. J. Frisch, G. W. Trucks, H. B. Schlegel, G. E. Scuseria, 
 M. A. Robb, J. R. Cheeseman, G. Scalmani, V. Barone, 
 G. A. Petersson, H. Nakatsuji, X. Li, M. Caricato, A. V. Marenich, 
 J. Bloino, B. G. Janesko, R. Gomperts, B. Mennucci, H. P. Hratchian, 
 J. V. Ortiz, A. F. Izmaylov, J. L. Sonnenberg, D. Williams-Young, 
 F. Ding, F. Lipparini, F. Egidi, J. Goings, B. Peng, A. Petrone, 
 T. Henderson, D. Ranasinghe, V. G. Zakrzewski, J. Gao, N. Rega, 
 G. Zheng, W. Liang, M. Hada, M. Ehara, K. Toyota, R. Fukuda, 
 J. Hasegawa, M. Ishida, T. Nakajima, Y. Honda, O. Kitao, H. Nakai, 
 T. Vreven, K. Throssell, J. A. Montgomery, Jr., J. E. Peralta, 
 F. Ogliaro, M. J. Bearpark, J. J. Heyd, E. N. Brothers, K. N. Kudin, 
 V. N. Staroverov, T. A. Keith, R. Kobayashi, J. Normand, 
 K. Raghavachari, A. P. Rendell, J. C. Burant, S. S. Iyengar, 
 J. Tomasi, M. Cossi, J. M. Millam, M. Klene, C. Adamo, R. Cammi, 
 J. W. Ochterski, R. L. Martin, K. Morokuma, O. Farkas, 
 J. B. Foresman, and D. J. Fox, Gaussian, Inc., Wallingford CT, 2016.
 
 ******************************************
 Gaussian 16:  ES64L-G16RevA.03 25-Dec-2016
                18-May-2022 
 ******************************************
 %nproc=8
 Will use up to    8 processors via shared memory.
 %mem=5GB
 ---------------------------------------------------
 #p M062X/6-311+G(2d,p) nosymm em=GD3 counterpoise=2
 ---------------------------------------------------
 1/38=1,62=2,172=1/1;
 2/12=2,15=1,17=6,18=5,40=1/2;
 1/38=1,53=2,62=2,63=1/22;
 3/5=4,6=6,7=112,11=2,25=1,30=1,74=-55,124=31/1,2,3;
 4//1;
 5/5=2,38=5/2;
 6/7=2,8=2,9=2,10=2,28=1/1;
 1/53=2,62=2,63=1/22;
 3/5=7,6=11,7=112,11=2,25=1,30=1,74=-55,82=7,124=31/1,2,3;
 4//1;
 5/5=2,38=5/2;
 6/7=2,8=2,9=2,10=2,28=1/1;
 1/53=2,62=2,63=1/22(-4);
 99/5=1,9=1/99;
 Leave Link    1 at Wed May 18 20:50:32 2022, MaxMem=   671088640 cpu:               0.3 elap:               0.0
 (Enter /data0/hywu0/study/g16/l101.exe)
 -------------------
 Title Card Required
 -------------------
 Symbolic Z-matrix:
 Charge =  0 Multiplicity = 1 in supermolecule
 Charge =  0 Multiplicity = 1 in fragment      1.
 Charge =  0 Multiplicity = 1 in fragment      2.
 C                     4.78741   8.88272   8.69111    
 C                     5.30345   9.45765   7.53487    
 C                     6.16405   10.54757   9.30937    
 N                     5.33586   9.56948   9.77563    
 H                     4.09181   8.07275   8.8052     
 H                     5.12141   9.22022   6.50385    
 H                     6.74621   11.26138   9.90895    
 C                     4.9538    9.41185   11.16716    
 H                     4.25326   10.23693   11.46015    
 H                     4.46103   8.44495   11.34679    
 H                     5.8376    9.49958   11.8396    
 N                     6.16684   10.47766   7.93452    
 C                     6.75502   11.5094   7.07998    
 H                     7.37866   11.02256   6.2974     
 H                     7.43866   12.14572   7.70881    
 C                     5.6923    12.42279   6.43145    
 H                     6.21523   13.34893   6.10037    
 H                     5.28866   11.94876   5.5181     
 C                     4.53724   12.81832   7.35224    
 H                     3.71794   12.07825   7.30706    
 H                     4.09641   13.7812   7.03216    
 C                     4.99797   12.9763   8.80666    
 O                     5.99348   13.67793   9.03422    
 O                     4.38256   12.28708   9.65287    
 P                     6.32953   12.86153   12.47149    
 O                     7.10412   11.63432   12.25567    
 O                     4.76357   12.69224   12.26888    
 H                     4.56121   12.59895   11.22061    
 O                     6.46136   13.35025   13.98322    
 H                     5.90513   14.21654   14.07041    
 O                     6.76536   14.13395   11.63288    
 H                     6.47288   13.99228   10.61833    
 
 ITRead=  0  0  0  0  0  0  0  0  0  0  0  0  0  0  0  0  0  0  0  0
 ITRead=  0  0  0  0  0  0  0  0  0  0  0  0
 MicOpt= -1 -1 -1 -1 -1 -1 -1 -1 -1 -1 -1 -1 -1 -1 -1 -1 -1 -1 -1 -1
 MicOpt= -1 -1 -1 -1 -1 -1 -1 -1 -1 -1 -1 -1
 NAtoms=     32 NQM=       32 NQMF=       0 NMMI=      0 NMMIF=      0
                NMic=       0 NMicF=      0.
                    Isotopes and Nuclear Properties:
 (Nuclear quadrupole moments (NQMom) in fm**2, nuclear magnetic moments (NMagM)
  in nuclear magnetons)

  Atom         1           2           3           4           5           6           7           8           9          10
 IAtWgt=          12          12          12          14           1           1           1          12           1           1
 AtmWgt=  12.0000000  12.0000000  12.0000000  14.0030740   1.0078250   1.0078250   1.0078250  12.0000000   1.0078250   1.0078250
 NucSpn=           0           0           0           2           1           1           1           0           1           1
 AtZEff=  -0.0000000  -0.0000000  -0.0000000  -0.0000000  -0.0000000  -0.0000000  -0.0000000  -0.0000000  -0.0000000  -0.0000000
 NQMom=    0.0000000   0.0000000   0.0000000   2.0440000   0.0000000   0.0000000   0.0000000   0.0000000   0.0000000   0.0000000
 NMagM=    0.0000000   0.0000000   0.0000000   0.4037610   2.7928460   2.7928460   2.7928460   0.0000000   2.7928460   2.7928460
 AtZNuc=   6.0000000   6.0000000   6.0000000   7.0000000   1.0000000   1.0000000   1.0000000   6.0000000   1.0000000   1.0000000

  Atom        11          12          13          14          15          16          17          18          19          20
 IAtWgt=           1          14          12           1           1          12           1           1          12           1
 AtmWgt=   1.0078250  14.0030740  12.0000000   1.0078250   1.0078250  12.0000000   1.0078250   1.0078250  12.0000000   1.0078250
 NucSpn=           1           2           0           1           1           0           1           1           0           1
 AtZEff=  -0.0000000  -0.0000000  -0.0000000  -0.0000000  -0.0000000  -0.0000000  -0.0000000  -0.0000000  -0.0000000  -0.0000000
 NQMom=    0.0000000   2.0440000   0.0000000   0.0000000   0.0000000   0.0000000   0.0000000   0.0000000   0.0000000   0.0000000
 NMagM=    2.7928460   0.4037610   0.0000000   2.7928460   2.7928460   0.0000000   2.7928460   2.7928460   0.0000000   2.7928460
 AtZNuc=   1.0000000   7.0000000   6.0000000   1.0000000   1.0000000   6.0000000   1.0000000   1.0000000   6.0000000   1.0000000

  Atom        21          22          23          24          25          26          27          28          29          30
 IAtWgt=           1          12          16          16          31          16          16           1          16           1
 AtmWgt=   1.0078250  12.0000000  15.9949146  15.9949146  30.9737634  15.9949146  15.9949146   1.0078250  15.9949146   1.0078250
 NucSpn=           1           0           0           0           1           0           0           1           0           1
 AtZEff=  -0.0000000  -0.0000000  -0.0000000  -0.0000000  -0.0000000  -0.0000000  -0.0000000  -0.0000000  -0.0000000  -0.0000000
 NQMom=    0.0000000   0.0000000   0.0000000   0.0000000   0.0000000   0.0000000   0.0000000   0.0000000   0.0000000   0.0000000
 NMagM=    2.7928460   0.0000000   0.0000000   0.0000000   1.1316000   0.0000000   0.0000000   2.7928460   0.0000000   2.7928460
 AtZNuc=   1.0000000   6.0000000   8.0000000   8.0000000  15.0000000   8.0000000   8.0000000   1.0000000   8.0000000   1.0000000

  Atom        31          32
 IAtWgt=          16           1
 AtmWgt=  15.9949146   1.0078250
 NucSpn=           0           1
 AtZEff=  -0.0000000  -0.0000000
 NQMom=    0.0000000   0.0000000
 NMagM=    0.0000000   2.7928460
 AtZNuc=   8.0000000   1.0000000
 Leave Link  101 at Wed May 18 20:50:32 2022, MaxMem=   671088640 cpu:               1.4 elap:               0.2
 (Enter /data0/hywu0/study/g16/l202.exe)
                          Input orientation:                          
 ---------------------------------------------------------------------
 Center     Atomic      Atomic             Coordinates (Angstroms)
 Number     Number       Type             X           Y           Z
 ---------------------------------------------------------------------
      1          6           0        4.787407    8.882723    8.691109
      2          6           0        5.303449    9.457646    7.534868
      3          6           0        6.164054   10.547574    9.309367
      4          7           0        5.335858    9.569481    9.775630
      5          1           0        4.091810    8.072748    8.805199
      6          1           0        5.121412    9.220217    6.503848
      7          1           0        6.746206   11.261377    9.908949
      8          6           0        4.953803    9.411846   11.167163
      9          1           0        4.253263   10.236933   11.460149
     10          1           0        4.461026    8.444948   11.346787
     11          1           0        5.837596    9.499578   11.839597
     12          7           0        6.166841   10.477662    7.934524
     13          6           0        6.755019   11.509402    7.079983
     14          1           0        7.378663   11.022562    6.297396
     15          1           0        7.438660   12.145724    7.708806
     16          6           0        5.692298   12.422793    6.431451
     17          1           0        6.215230   13.348926    6.100371
     18          1           0        5.288656   11.948756    5.518100
     19          6           0        4.537240   12.818318    7.352244
     20          1           0        3.717943   12.078248    7.307063
     21          1           0        4.096407   13.781197    7.032162
     22          6           0        4.997969   12.976303    8.806663
     23          8           0        5.993484   13.677935    9.034217
     24          8           0        4.382556   12.287076    9.652869
     25         15           0        6.329534   12.861526   12.471492
     26          8           0        7.104123   11.634319   12.255673
     27          8           0        4.763566   12.692243   12.268883
     28          1           0        4.561212   12.598947   11.220606
     29          8           0        6.461359   13.350253   13.983215
     30          1           0        5.905125   14.216538   14.070411
     31          8           0        6.765357   14.133946   11.632884
     32          1           0        6.472877   13.992277   10.618332
 ---------------------------------------------------------------------
                    Distance matrix (angstroms):
                    1          2          3          4          5
     1  C    0.000000
     2  C    1.390586   0.000000
     3  C    2.247027   2.253315   0.000000
     4  N    1.395930   2.243785   1.363809   0.000000
     5  H    1.073746   2.236013   3.266978   2.174765   0.000000
     6  H    2.238207   1.073551   3.274128   3.297352   2.770015
     7  H    3.313310   3.312288   1.099052   2.206664   4.293185
     8  C    2.537420   3.649372   2.491183   1.451613   2.848700
     9  H    3.128382   4.137392   2.893697   2.110713   3.429070
    10  H    2.711235   4.033108   3.387096   2.120953   2.595096
    11  H    3.375853   4.337945   2.758067   2.125226   3.780368
    12  N    2.240332   1.394849   1.376622   2.214723   3.293545
    13  C    3.656045   2.554149   2.498901   3.611623   4.677568
    14  H    4.125940   2.878682   3.282203   4.287494   5.078768
    15  H    4.317550   3.437316   2.596247   3.915427   5.384479
    16  C    4.296158   3.187606   3.467189   4.410439   5.207603
    17  H    5.357011   4.246314   4.260029   5.344626   6.297862
    18  H    4.440698   3.205183   4.135618   4.877473   5.221197
    19  C    4.164619   3.451745   3.410738   4.131045   4.982963
    20  H    3.642899   3.071364   3.512213   3.873678   4.292810
    21  H    5.217723   4.516941   4.462863   5.177008   5.977464
    22  C    4.100620   3.753895   2.740655   3.558019   4.986580
    23  O    4.956451   4.531560   3.147056   4.226294   5.923423
    24  O    3.560689   3.652348   2.513483   2.882564   4.308554
    25  P    5.700906   6.083544   3.921835   4.369511   6.432846
    26  O    5.064047   5.501485   3.278027   3.679800   5.802119
    27  O    5.226230   5.758905   3.914040   4.036765   5.812753
    28  H    4.501093   4.899322   3.229562   3.444662   5.151796
    29  O    7.125119   7.620651   5.457862   5.767561   7.763934
    30  H    7.657399   8.106935   6.016301   6.353294   8.291967
    31  O    6.335745   6.387385   4.315363   5.131004   7.202901
    32  H    5.715115   5.606977   3.697937   4.643714   6.633080
                    6          7          8          9         10
     6  H    0.000000
     7  H    4.289639   0.000000
     8  C    4.670259   2.866457   0.000000
     9  H    5.133450   3.109738   1.121323   0.000000
    10  H    4.948859   3.901499   1.099993   1.807547   0.000000
    11  H    5.390842   2.767112   1.113981   1.788235   1.802790
    12  N    2.172769   2.201869   3.613500   4.018677   4.322646
    13  C    2.870709   2.839831   4.934487   5.202289   5.732268
    14  H    2.895903   3.674282   5.673534   6.085997   6.375974
    15  H    3.921754   2.470261   5.060517   5.278524   5.983055
    16  C    3.253866   3.814787   5.660225   5.668916   6.442035
    17  H    4.290160   4.375507   6.539433   6.500849   7.392639
    18  H    2.905958   4.677232   6.201609   6.269794   6.850929
    19  C    3.742641   3.720260   5.131392   4.859946   5.923559
    20  H    3.283781   4.075226   4.851538   4.574400   5.483832
    21  H    4.704497   4.652616   6.076561   5.673930   6.872008
    22  C    4.407536   2.685580   4.275426   3.885836   5.222424
    23  O    5.199474   2.677965   4.881589   4.555657   5.922884
    24  O    4.457338   2.589300   3.299448   2.736067   4.199698
    25  P    7.094467   3.049708   3.936268   3.496027   4.925692
    26  O    6.545420   2.402978   3.278432   3.273064   4.240769
    27  O    6.739336   3.398165   3.465686   2.634959   4.356754
    28  H    5.829018   2.878148   3.211635   2.394018   4.157122
    29  O    8.648329   4.587394   5.070890   4.575403   5.917271
    30  H    9.101116   5.172829   5.693762   5.037794   6.543302
    31  O    7.290699   3.350220   5.079060   4.639737   6.144631
    32  H    6.444222   2.834739   4.856866   4.442741   5.945675
                   11         12         13         14         15
    11  H    0.000000
    12  N    4.039139   0.000000
    13  C    5.247379   1.463107   0.000000
    14  H    5.950660   2.108463   1.112829   0.000000
    15  H    5.160323   2.109716   1.125917   1.804763   0.000000
    16  C    6.149337   2.503588   1.544103   2.196006   2.181326
    17  H    6.920896   3.407435   2.152873   2.608518   2.351922
    18  H    6.801554   2.962167   2.186946   2.415216   3.075794
    19  C    5.730733   2.910897   2.589581   3.522943   2.999626
    20  H    5.629061   2.992104   3.098222   3.941417   3.742951
    21  H    6.668990   4.001787   3.497364   4.350075   3.781967
    22  C    4.689486   2.893112   2.867132   3.972559   2.802164
    23  O    5.035189   3.388381   3.016869   4.057082   2.488558
    24  O    3.830022   3.067631   3.585122   4.672778   3.624794
    25  P    3.456008   5.127705   5.574733   6.527015   4.942237
    26  O    2.516809   4.570414   5.188954   5.995889   4.587750
    27  O    3.395723   5.065592   5.682401   6.729430   5.314989
    28  H    3.408577   4.228029   4.810889   5.887361   4.562659
    29  O    4.451053   6.702625   7.150495   8.082785   6.463298
    30  H    5.218314   7.190049   7.544335   8.531856   6.863674
    31  O    4.730839   5.234931   5.255211   6.206794   4.450253
    32  H    4.698874   4.432719   4.331765   5.320728   3.578804
                   16         17         18         19         20
    16  C    0.000000
    17  H    1.113909   0.000000
    18  H    1.105372   1.777092   0.000000
    19  C    1.529202   2.159718   2.164451   0.000000
    20  H    2.187118   3.050766   2.384176   1.104985   0.000000
    21  H    2.180134   2.354677   2.659263   1.106310   1.766024
    22  C    2.535764   2.990751   3.457600   1.533807   2.166511
    23  O    2.905251   2.960552   3.981196   2.385083   3.274163
    24  O    3.480140   4.135996   4.246386   2.366225   2.447065
    25  P    6.089388   6.390759   7.089869   5.424102   5.839971
    26  O    6.044543   6.451182   6.984961   5.659890   6.012656
    27  O    5.916989   6.370958   6.811869   4.923460   5.107835
    28  H    4.924062   5.432776   5.785369   3.874651   4.037084
    29  O    7.647272   7.886686   8.660115   6.924952   7.329075
    30  H    7.849620   8.023120   8.869323   6.997135   7.422865
    31  O    5.579821   5.614944   6.659301   5.001926   5.676738
    32  H    4.539004   4.570805   5.620563   3.973940   4.713562
                   21         22         23         24         25
    21  H    0.000000
    22  C    2.146980   0.000000
    23  O    2.760034   1.238999   0.000000
    24  O    3.030245   1.252929   2.216373   0.000000
    25  P    5.951383   3.900924   3.548847   3.473522   0.000000
    26  O    6.398477   4.258224   3.973369   3.821990   1.467175
    27  O    5.390192   3.481753   3.598243   2.674483   1.588069
    28  H    4.376851   2.481990   2.827705   1.608409   2.181886
    29  O    7.354988   5.392406   4.981853   4.919722   1.594220
    30  H    7.279968   5.483444   5.065684   5.055266   2.138393
    31  O    5.330513   3.528643   2.748964   3.606817   1.585010
    32  H    4.307294   2.547489   1.684651   2.865183   2.175626
                   26         27         28         29         30
    26  O    0.000000
    27  O    2.568576   0.000000
    28  H    2.910029   1.071698   0.000000
    29  O    2.518328   2.500882   3.436136   0.000000
    30  H    3.376200   2.621476   3.541764   1.033174   0.000000
    31  O    2.598223   2.547581   2.717434   2.496126   2.586186
    32  H    2.939273   2.708533   2.441017   3.425604   3.505636
                   31         32
    31  O    0.000000
    32  H    1.065331   0.000000
 Symmetry turned off by external request.
 Stoichiometry    C8H15N2O6P
 Framework group  C1[X(C8H15N2O6P)]
 Deg. of freedom    90
 Full point group                 C1      NOp   1
 Rotational constants (GHZ):           0.7004974           0.3099943           0.2508600
 Leave Link  202 at Wed May 18 20:50:32 2022, MaxMem=   671088640 cpu:               0.0 elap:               0.0
 (Enter /data0/hywu0/study/g16/l122.exe)
 Counterpoise: doing full-system calculation.
 Leave Link  122 at Wed May 18 20:50:32 2022, MaxMem=   671088640 cpu:               0.0 elap:               0.0
 (Enter /data0/hywu0/study/g16/l301.exe)
 Standard basis: 6-311+G(2d,p) (5D, 7F)
 Ernie: Thresh=  0.10000D-02 Tol=  0.10000D-05 Strict=F.
   557 basis functions,   848 primitive gaussians,   591 cartesian basis functions
    70 alpha electrons       70 beta electrons
       nuclear repulsion energy      1547.9421575736 Hartrees.
 IExCor= 4336 DFT=T Ex+Corr=M062X ExCW=0 ScaHFX=  0.540000
 ScaDFX=  1.000000  1.000000  1.000000  1.000000 ScalE2=  1.000000  1.000000
 IRadAn=      5 IRanWt=     -1 IRanGd=            0 ICorTp=0 IEmpDi=131
 NAtoms=   32 NActive=   32 NUniq=   32 SFac= 1.00D+00 NAtFMM=   60 NAOKFM=F Big=F
 Integral buffers will be    131072 words long.
 Raffenetti 2 integral format.
 Two-electron integral symmetry is turned off.
 R6Disp:  Grimme-D3 Dispersion energy=       -0.0020739194 Hartrees.
 Nuclear repulsion after empirical dispersion term =     1547.9400836542 Hartrees.
 Leave Link  301 at Wed May 18 20:50:32 2022, MaxMem=   671088640 cpu:               0.4 elap:               0.0
 (Enter /data0/hywu0/study/g16/l302.exe)
 NPDir=0 NMtPBC=     1 NCelOv=     1 NCel=       1 NClECP=     1 NCelD=      1
         NCelK=      1 NCelE2=     1 NClLst=     1 CellRange=     0.0.
 One-electron integrals computed using PRISM.
 NBasis=   557 RedAO= T EigKep=  9.05D-06  NBF=   557
 NBsUse=   557 1.00D-06 EigRej= -1.00D+00 NBFU=   557
 Precomputing XC quadrature grid using
 IXCGrd= 4 IRadAn=           5 IRanWt=          -1 IRanGd=           0 AccXCQ= 0.00D+00.
 Generated NRdTot=       0 NPtTot=           0 NUsed=           0 NTot=          32
 NSgBfM=   591   591   591   591   591 MxSgAt=    32 MxSgA2=    32.
 Leave Link  302 at Wed May 18 20:50:33 2022, MaxMem=   671088640 cpu:               5.3 elap:               0.7
 (Enter /data0/hywu0/study/g16/l303.exe)
 DipDrv:  MaxL=1.
 Leave Link  303 at Wed May 18 20:50:33 2022, MaxMem=   671088640 cpu:               0.7 elap:               0.1
 (Enter /data0/hywu0/study/g16/l401.exe)
 ExpMin= 3.48D-02 ExpMax= 7.75D+04 ExpMxC= 2.65D+03 IAcc=3 IRadAn=         5 AccDes= 0.00D+00
 Harris functional with IExCor= 1009 and IRadAn=       5 diagonalized for initial guess.
 HarFok:  IExCor= 1009 AccDes= 0.00D+00 IRadAn=         5 IDoV= 1 UseB2=F ITyADJ=14
 ICtDFT=  3500011 ScaDFX=  1.000000  1.000000  1.000000  1.000000
 FoFCou: FMM=F IPFlag=           0 FMFlag=      100000 FMFlg1=           0
         NFxFlg=           0 DoJE=T BraDBF=F KetDBF=T FulRan=T
         wScrn=  0.000000 ICntrl=       500 IOpCl=  0 I1Cent=   200000004 NGrid=           0
         NMat0=    1 NMatS0=      1 NMatT0=    0 NMatD0=    1 NMtDS0=    0 NMtDT0=    0
 Symmetry not used in FoFCou.
 Harris En= -1215.63669432088    
 JPrj=0 DoOrth=F DoCkMO=F.
 Leave Link  401 at Wed May 18 20:50:38 2022, MaxMem=   671088640 cpu:              41.6 elap:               5.2
 (Enter /data0/hywu0/study/g16/l502.exe)
 Two-electron integral symmetry not used.
 Closed shell SCF:
 Using DIIS extrapolation, IDIIS=  1040.
 NGot=   671088640 LenX=   670381231 LenY=   670031359
 Requested convergence on RMS density matrix=1.00D-08 within 128 cycles.
 Requested convergence on MAX density matrix=1.00D-06.
 Requested convergence on             energy=1.00D-06.
 No special actions if energy rises.
 Fock matrices will be formed incrementally for  20 cycles.

 Cycle   1  Pass 1  IDiag  1:
 FoFJK:  IHMeth= 1 ICntrl=       0 DoSepK=F KAlg= 0 I1Cent=           0 FoldK=F
 IRaf= 860000000 NMat=       1 IRICut=       1 DoRegI=T DoRafI=F ISym2E= 0 IDoP0=0 IntGTp=1.
 FoFCou: FMM=F IPFlag=           0 FMFlag=      100000 FMFlg1=           0
         NFxFlg=           0 DoJE=F BraDBF=F KetDBF=F FulRan=T
         wScrn=  0.000000 ICntrl=         0 IOpCl=  0 I1Cent=           0 NGrid=           0
         NMat0=    1 NMatS0=      1 NMatT0=    0 NMatD0=    1 NMtDS0=    0 NMtDT0=    0
 Symmetry not used in FoFCou.
 E= -1215.60314644437    
 DIIS: error= 3.64D-02 at cycle   1 NSaved=   1.
 NSaved= 1 IEnMin= 1 EnMin= -1215.60314644437     IErMin= 1 ErrMin= 3.64D-02
 ErrMax= 3.64D-02  0.00D+00 EMaxC= 1.00D-01 BMatC= 9.14D-01 BMatP= 9.14D-01
 IDIUse=3 WtCom= 6.36D-01 WtEn= 3.64D-01
 Coeff-Com:  0.100D+01
 Coeff-En:   0.100D+01
 Coeff:      0.100D+01
 Gap=     0.332 Goal=   None    Shift=    0.000
 GapD=    0.332 DampG=1.000 DampE=0.500 DampFc=0.5000 IDamp=-1.
 Damping current iteration by 5.00D-01
 RMSDP=4.45D-03 MaxDP=4.31D-01              OVMax= 2.33D-01

 Cycle   2  Pass 1  IDiag  1:
 RMSU=  2.18D-03    CP:  9.60D-01
 E= -1215.85915013946     Delta-E=       -0.256003695091 Rises=F Damp=T
 DIIS: error= 6.10D-03 at cycle   2 NSaved=   2.
 NSaved= 2 IEnMin= 2 EnMin= -1215.85915013946     IErMin= 2 ErrMin= 6.10D-03
 ErrMax= 6.10D-03  0.00D+00 EMaxC= 1.00D-01 BMatC= 5.84D-02 BMatP= 9.14D-01
 IDIUse=3 WtCom= 9.39D-01 WtEn= 6.10D-02
 Coeff-Com:  0.394D-03 0.100D+01
 Coeff-En:   0.575D-01 0.942D+00
 Coeff:      0.388D-02 0.996D+00
 Gap=     0.328 Goal=   None    Shift=    0.000
 RMSDP=1.83D-03 MaxDP=2.66D-01 DE=-2.56D-01 OVMax= 1.39D-01

 Cycle   3  Pass 1  IDiag  1:
 RMSU=  1.57D-03    CP:  8.74D-01  9.80D-01
 E= -1216.14500757423     Delta-E=       -0.285857434767 Rises=F Damp=F
 DIIS: error= 4.63D-03 at cycle   3 NSaved=   3.
 NSaved= 3 IEnMin= 3 EnMin= -1216.14500757423     IErMin= 3 ErrMin= 4.63D-03
 ErrMax= 4.63D-03  0.00D+00 EMaxC= 1.00D-01 BMatC= 2.01D-02 BMatP= 5.84D-02
 IDIUse=3 WtCom= 9.54D-01 WtEn= 4.63D-02
 Coeff-Com: -0.622D-01 0.342D+00 0.721D+00
 Coeff-En:   0.000D+00 0.000D+00 0.100D+01
 Coeff:     -0.593D-01 0.326D+00 0.734D+00
 Gap=     0.317 Goal=   None    Shift=    0.000
 RMSDP=4.59D-04 MaxDP=3.60D-02 DE=-2.86D-01 OVMax= 3.93D-02

 Cycle   4  Pass 1  IDiag  1:
 RMSU=  4.16D-04    CP:  8.66D-01  1.06D+00  9.62D-01
 E= -1216.15511203432     Delta-E=       -0.010104460091 Rises=F Damp=F
 DIIS: error= 2.89D-03 at cycle   4 NSaved=   4.
 NSaved= 4 IEnMin= 4 EnMin= -1216.15511203432     IErMin= 4 ErrMin= 2.89D-03
 ErrMax= 2.89D-03  0.00D+00 EMaxC= 1.00D-01 BMatC= 5.84D-03 BMatP= 2.01D-02
 IDIUse=3 WtCom= 9.71D-01 WtEn= 2.89D-02
 Coeff-Com: -0.321D-01 0.867D-01 0.399D+00 0.546D+00
 Coeff-En:   0.000D+00 0.000D+00 0.209D+00 0.791D+00
 Coeff:     -0.312D-01 0.842D-01 0.394D+00 0.553D+00
 Gap=     0.315 Goal=   None    Shift=    0.000
 RMSDP=1.78D-04 MaxDP=1.12D-02 DE=-1.01D-02 OVMax= 1.61D-02

 Cycle   5  Pass 1  IDiag  1:
 RMSU=  1.25D-04    CP:  8.64D-01  1.04D+00  9.88D-01  7.20D-01
 E= -1216.15915784493     Delta-E=       -0.004045810607 Rises=F Damp=F
 DIIS: error= 4.38D-04 at cycle   5 NSaved=   5.
 NSaved= 5 IEnMin= 5 EnMin= -1216.15915784493     IErMin= 5 ErrMin= 4.38D-04
 ErrMax= 4.38D-04  0.00D+00 EMaxC= 1.00D-01 BMatC= 1.61D-04 BMatP= 5.84D-03
 IDIUse=3 WtCom= 9.96D-01 WtEn= 4.38D-03
 Coeff-Com: -0.893D-02 0.166D-01 0.120D+00 0.229D+00 0.643D+00
 Coeff-En:   0.000D+00 0.000D+00 0.000D+00 0.000D+00 0.100D+01
 Coeff:     -0.890D-02 0.166D-01 0.119D+00 0.228D+00 0.645D+00
 Gap=     0.308 Goal=   None    Shift=    0.000
 RMSDP=3.63D-05 MaxDP=3.56D-03 DE=-4.05D-03 OVMax= 2.15D-03

 Cycle   6  Pass 1  IDiag  1:
 RMSU=  3.02D-05    CP:  8.64D-01  1.04D+00  9.86D-01  7.43D-01  8.63D-01
 E= -1216.15927151774     Delta-E=       -0.000113672811 Rises=F Damp=F
 DIIS: error= 7.65D-05 at cycle   6 NSaved=   6.
 NSaved= 6 IEnMin= 6 EnMin= -1216.15927151774     IErMin= 6 ErrMin= 7.65D-05
 ErrMax= 7.65D-05  0.00D+00 EMaxC= 1.00D-01 BMatC= 1.03D-05 BMatP= 1.61D-04
 IDIUse=1 WtCom= 1.00D+00 WtEn= 0.00D+00
 Coeff-Com: -0.142D-02 0.117D-02 0.203D-01 0.526D-01 0.257D+00 0.670D+00
 Coeff:     -0.142D-02 0.117D-02 0.203D-01 0.526D-01 0.257D+00 0.670D+00
 Gap=     0.308 Goal=   None    Shift=    0.000
 RMSDP=1.25D-05 MaxDP=1.28D-03 DE=-1.14D-04 OVMax= 7.07D-04

 Cycle   7  Pass 1  IDiag  1:
 RMSU=  1.13D-05    CP:  8.64D-01  1.04D+00  9.87D-01  7.51D-01  8.90D-01
                    CP:  1.03D+00
 E= -1216.15928037865     Delta-E=       -0.000008860910 Rises=F Damp=F
 DIIS: error= 3.22D-05 at cycle   7 NSaved=   7.
 NSaved= 7 IEnMin= 7 EnMin= -1216.15928037865     IErMin= 7 ErrMin= 3.22D-05
 ErrMax= 3.22D-05  0.00D+00 EMaxC= 1.00D-01 BMatC= 1.09D-06 BMatP= 1.03D-05
 IDIUse=1 WtCom= 1.00D+00 WtEn= 0.00D+00
 Coeff-Com:  0.530D-03-0.155D-02-0.656D-02-0.701D-02 0.261D-01 0.249D+00
 Coeff-Com:  0.740D+00
 Coeff:      0.530D-03-0.155D-02-0.656D-02-0.701D-02 0.261D-01 0.249D+00
 Coeff:      0.740D+00
 Gap=     0.308 Goal=   None    Shift=    0.000
 RMSDP=4.59D-06 MaxDP=4.02D-04 DE=-8.86D-06 OVMax= 3.62D-04

 Cycle   8  Pass 1  IDiag  1:
 RMSU=  3.42D-06    CP:  8.64D-01  1.04D+00  9.87D-01  7.53D-01  9.05D-01
                    CP:  1.09D+00  9.47D-01
 E= -1216.15928134543     Delta-E=       -0.000000966777 Rises=F Damp=F
 DIIS: error= 1.86D-05 at cycle   8 NSaved=   8.
 NSaved= 8 IEnMin= 8 EnMin= -1216.15928134543     IErMin= 8 ErrMin= 1.86D-05
 ErrMax= 1.86D-05  0.00D+00 EMaxC= 1.00D-01 BMatC= 2.59D-07 BMatP= 1.09D-06
 IDIUse=1 WtCom= 1.00D+00 WtEn= 0.00D+00
 Coeff-Com:  0.450D-03-0.920D-03-0.600D-02-0.107D-01-0.213D-01 0.312D-01
 Coeff-Com:  0.369D+00 0.639D+00
 Coeff:      0.450D-03-0.920D-03-0.600D-02-0.107D-01-0.213D-01 0.312D-01
 Coeff:      0.369D+00 0.639D+00
 Gap=     0.308 Goal=   None    Shift=    0.000
 RMSDP=1.50D-06 MaxDP=9.25D-05 DE=-9.67D-07 OVMax= 1.58D-04

 Cycle   9  Pass 1  IDiag  1:
 RMSU=  1.25D-06    CP:  8.64D-01  1.04D+00  9.87D-01  7.53D-01  9.10D-01
                    CP:  1.10D+00  9.65D-01  9.70D-01
 E= -1216.15928157383     Delta-E=       -0.000000228399 Rises=F Damp=F
 DIIS: error= 5.01D-06 at cycle   9 NSaved=   9.
 NSaved= 9 IEnMin= 9 EnMin= -1216.15928157383     IErMin= 9 ErrMin= 5.01D-06
 ErrMax= 5.01D-06  0.00D+00 EMaxC= 1.00D-01 BMatC= 2.58D-08 BMatP= 2.59D-07
 IDIUse=1 WtCom= 1.00D+00 WtEn= 0.00D+00
 Coeff-Com:  0.138D-03-0.238D-03-0.196D-02-0.397D-02-0.118D-01-0.101D-01
 Coeff-Com:  0.901D-01 0.288D+00 0.649D+00
 Coeff:      0.138D-03-0.238D-03-0.196D-02-0.397D-02-0.118D-01-0.101D-01
 Coeff:      0.901D-01 0.288D+00 0.649D+00
 Gap=     0.308 Goal=   None    Shift=    0.000
 RMSDP=5.80D-07 MaxDP=3.70D-05 DE=-2.28D-07 OVMax= 4.51D-05

 Cycle  10  Pass 1  IDiag  1:
 RMSU=  4.50D-07    CP:  8.64D-01  1.04D+00  9.87D-01  7.53D-01  9.10D-01
                    CP:  1.11D+00  9.90D-01  1.00D+00  9.35D-01
 E= -1216.15928159857     Delta-E=       -0.000000024744 Rises=F Damp=F
 DIIS: error= 1.83D-06 at cycle  10 NSaved=  10.
 NSaved=10 IEnMin=10 EnMin= -1216.15928159857     IErMin=10 ErrMin= 1.83D-06
 ErrMax= 1.83D-06  0.00D+00 EMaxC= 1.00D-01 BMatC= 3.09D-09 BMatP= 2.58D-08
 IDIUse=1 WtCom= 1.00D+00 WtEn= 0.00D+00
 Coeff-Com: -0.910D-05 0.291D-04 0.704D-04-0.637D-04-0.181D-02-0.839D-02
 Coeff-Com: -0.185D-01 0.167D-01 0.263D+00 0.749D+00
 Coeff:     -0.910D-05 0.291D-04 0.704D-04-0.637D-04-0.181D-02-0.839D-02
 Coeff:     -0.185D-01 0.167D-01 0.263D+00 0.749D+00
 Gap=     0.308 Goal=   None    Shift=    0.000
 RMSDP=2.37D-07 MaxDP=2.18D-05 DE=-2.47D-08 OVMax= 2.14D-05

 Cycle  11  Pass 1  IDiag  1:
 RMSU=  1.52D-07    CP:  8.64D-01  1.04D+00  9.87D-01  7.53D-01  9.10D-01
                    CP:  1.11D+00  9.85D-01  1.03D+00  1.05D+00  1.08D+00
 E= -1216.15928160199     Delta-E=       -0.000000003419 Rises=F Damp=F
 DIIS: error= 8.05D-07 at cycle  11 NSaved=  11.
 NSaved=11 IEnMin=11 EnMin= -1216.15928160199     IErMin=11 ErrMin= 8.05D-07
 ErrMax= 8.05D-07  0.00D+00 EMaxC= 1.00D-01 BMatC= 5.43D-10 BMatP= 3.09D-09
 IDIUse=1 WtCom= 1.00D+00 WtEn= 0.00D+00
 Coeff-Com: -0.222D-04 0.459D-04 0.296D-03 0.494D-03 0.663D-03-0.252D-02
 Coeff-Com: -0.212D-01-0.336D-01 0.313D-01 0.353D+00 0.671D+00
 Coeff:     -0.222D-04 0.459D-04 0.296D-03 0.494D-03 0.663D-03-0.252D-02
 Coeff:     -0.212D-01-0.336D-01 0.313D-01 0.353D+00 0.671D+00
 Gap=     0.308 Goal=   None    Shift=    0.000
 RMSDP=8.48D-08 MaxDP=5.58D-06 DE=-3.42D-09 OVMax= 8.67D-06

 Cycle  12  Pass 1  IDiag  1:
 RMSU=  5.65D-08    CP:  8.64D-01  1.04D+00  9.87D-01  7.53D-01  9.10D-01
                    CP:  1.11D+00  9.85D-01  1.04D+00  1.08D+00  1.14D+00
                    CP:  9.24D-01
 E= -1216.15928160246     Delta-E=       -0.000000000469 Rises=F Damp=F
 DIIS: error= 1.95D-07 at cycle  12 NSaved=  12.
 NSaved=12 IEnMin=12 EnMin= -1216.15928160246     IErMin=12 ErrMin= 1.95D-07
 ErrMax= 1.95D-07  0.00D+00 EMaxC= 1.00D-01 BMatC= 3.53D-11 BMatP= 5.43D-10
 IDIUse=1 WtCom= 1.00D+00 WtEn= 0.00D+00
 Coeff-Com: -0.529D-05 0.103D-04 0.836D-04 0.154D-03 0.375D-03 0.131D-03
 Coeff-Com: -0.448D-02-0.120D-01-0.172D-01 0.370D-01 0.224D+00 0.772D+00
 Coeff:     -0.529D-05 0.103D-04 0.836D-04 0.154D-03 0.375D-03 0.131D-03
 Coeff:     -0.448D-02-0.120D-01-0.172D-01 0.370D-01 0.224D+00 0.772D+00
 Gap=     0.308 Goal=   None    Shift=    0.000
 RMSDP=2.69D-08 MaxDP=2.53D-06 DE=-4.69D-10 OVMax= 2.75D-06

 Cycle  13  Pass 1  IDiag  1:
 RMSU=  2.03D-08    CP:  8.64D-01  1.04D+00  9.87D-01  7.53D-01  9.10D-01
                    CP:  1.11D+00  9.85D-01  1.04D+00  1.08D+00  1.16D+00
                    CP:  1.00D+00  9.94D-01
 E= -1216.15928160256     Delta-E=       -0.000000000096 Rises=F Damp=F
 DIIS: error= 7.92D-08 at cycle  13 NSaved=  13.
 NSaved=13 IEnMin=13 EnMin= -1216.15928160256     IErMin=13 ErrMin= 7.92D-08
 ErrMax= 7.92D-08  0.00D+00 EMaxC= 1.00D-01 BMatC= 9.11D-12 BMatP= 3.53D-11
 IDIUse=1 WtCom= 1.00D+00 WtEn= 0.00D+00
 Coeff-Com:  0.127D-06-0.549D-06 0.747D-05 0.184D-04 0.108D-03 0.328D-03
 Coeff-Com:  0.268D-03-0.203D-02-0.124D-01-0.262D-01 0.229D-01 0.376D+00
 Coeff-Com:  0.641D+00
 Coeff:      0.127D-06-0.549D-06 0.747D-05 0.184D-04 0.108D-03 0.328D-03
 Coeff:      0.268D-03-0.203D-02-0.124D-01-0.262D-01 0.229D-01 0.376D+00
 Coeff:      0.641D+00
 Gap=     0.308 Goal=   None    Shift=    0.000
 RMSDP=1.13D-08 MaxDP=9.42D-07 DE=-9.64D-11 OVMax= 1.12D-06

 Cycle  14  Pass 1  IDiag  1:
 RMSU=  8.38D-09    CP:  8.64D-01  1.04D+00  9.87D-01  7.53D-01  9.10D-01
                    CP:  1.11D+00  9.84D-01  1.04D+00  1.09D+00  1.17D+00
                    CP:  1.03D+00  1.07D+00  9.59D-01
 E= -1216.15928160262     Delta-E=       -0.000000000060 Rises=F Damp=F
 DIIS: error= 2.60D-08 at cycle  14 NSaved=  14.
 NSaved=14 IEnMin=14 EnMin= -1216.15928160262     IErMin=14 ErrMin= 2.60D-08
 ErrMax= 2.60D-08  0.00D+00 EMaxC= 1.00D-01 BMatC= 1.44D-12 BMatP= 9.11D-12
 IDIUse=1 WtCom= 1.00D+00 WtEn= 0.00D+00
 Coeff-Com:  0.998D-06-0.205D-05-0.974D-05-0.159D-04-0.371D-05 0.153D-03
 Coeff-Com:  0.924D-03 0.898D-03-0.385D-02-0.208D-01-0.266D-01 0.797D-01
 Coeff-Com:  0.329D+00 0.641D+00
 Coeff:      0.998D-06-0.205D-05-0.974D-05-0.159D-04-0.371D-05 0.153D-03
 Coeff:      0.924D-03 0.898D-03-0.385D-02-0.208D-01-0.266D-01 0.797D-01
 Coeff:      0.329D+00 0.641D+00
 Gap=     0.308 Goal=   None    Shift=    0.000
 RMSDP=4.62D-09 MaxDP=3.09D-07 DE=-6.05D-11 OVMax= 3.68D-07

 SCF Done:  E(RM062X) =  -1216.15928160     A.U. after   14 cycles
            NFock= 14  Conv=0.46D-08     -V/T= 2.0036
 KE= 1.211807217653D+03 PE=-5.958228226123D+03 EE= 1.982321643213D+03
 Leave Link  502 at Wed May 18 20:56:36 2022, MaxMem=   671088640 cpu:            2855.0 elap:             357.9
 (Enter /data0/hywu0/study/g16/l601.exe)
 Copying SCF densities to generalized density rwf, IOpCl= 0 IROHF=0.

 **********************************************************************

            Population analysis using the SCF density.

 **********************************************************************

 Alpha  occ. eigenvalues --  -78.12005 -19.63574 -19.61123 -19.60744 -19.58915
 Alpha  occ. eigenvalues --  -19.58683 -19.55295 -14.87223 -14.87213 -10.67828
 Alpha  occ. eigenvalues --  -10.64417 -10.63552 -10.63451 -10.62417 -10.60349
 Alpha  occ. eigenvalues --  -10.57126 -10.54856  -6.92734  -5.04675  -5.04601
 Alpha  occ. eigenvalues --   -5.04447  -1.20311  -1.18895  -1.18116  -1.11190
 Alpha  occ. eigenvalues --   -1.09989  -1.08922  -1.08156  -1.05522  -0.93431
 Alpha  occ. eigenvalues --   -0.90583  -0.86237  -0.81739  -0.75993  -0.73038
 Alpha  occ. eigenvalues --   -0.71189  -0.67216  -0.65392  -0.61472  -0.61000
 Alpha  occ. eigenvalues --   -0.60195  -0.58839  -0.58181  -0.56971  -0.56618
 Alpha  occ. eigenvalues --   -0.55687  -0.54685  -0.54215  -0.52775  -0.51555
 Alpha  occ. eigenvalues --   -0.51030  -0.50794  -0.48981  -0.48279  -0.47560
 Alpha  occ. eigenvalues --   -0.45777  -0.45106  -0.44670  -0.43572  -0.42077
 Alpha  occ. eigenvalues --   -0.41361  -0.40693  -0.38895  -0.38476  -0.35854
 Alpha  occ. eigenvalues --   -0.35293  -0.33661  -0.33564  -0.33331  -0.32784
 Alpha virt. eigenvalues --   -0.01977  -0.01048  -0.00375   0.00309   0.01190
 Alpha virt. eigenvalues --    0.01756   0.02592   0.02886   0.03027   0.04151
 Alpha virt. eigenvalues --    0.04619   0.04962   0.05685   0.06252   0.06756
 Alpha virt. eigenvalues --    0.07282   0.07559   0.07817   0.08382   0.08665
 Alpha virt. eigenvalues --    0.09061   0.10189   0.10403   0.10817   0.11589
 Alpha virt. eigenvalues --    0.11837   0.12254   0.13212   0.13470   0.13986
 Alpha virt. eigenvalues --    0.14490   0.14811   0.15042   0.15760   0.16146
 Alpha virt. eigenvalues --    0.16406   0.16936   0.17227   0.17609   0.17849
 Alpha virt. eigenvalues --    0.18332   0.18800   0.19127   0.19377   0.19790
 Alpha virt. eigenvalues --    0.20002   0.20636   0.20826   0.21170   0.21972
 Alpha virt. eigenvalues --    0.22165   0.22775   0.23066   0.23663   0.23877
 Alpha virt. eigenvalues --    0.24145   0.25103   0.25472   0.25834   0.26406
 Alpha virt. eigenvalues --    0.27079   0.27266   0.27593   0.28061   0.28358
 Alpha virt. eigenvalues --    0.28805   0.29314   0.29971   0.30100   0.30455
 Alpha virt. eigenvalues --    0.30585   0.31349   0.31817   0.32244   0.32376
 Alpha virt. eigenvalues --    0.32990   0.33341   0.33630   0.33783   0.34381
 Alpha virt. eigenvalues --    0.34771   0.34992   0.35477   0.36755   0.37403
 Alpha virt. eigenvalues --    0.37896   0.38600   0.38963   0.39879   0.40413
 Alpha virt. eigenvalues --    0.40784   0.41268   0.41478   0.43054   0.43569
 Alpha virt. eigenvalues --    0.43763   0.43843   0.44663   0.44982   0.46779
 Alpha virt. eigenvalues --    0.46985   0.47792   0.48834   0.50216   0.50761
 Alpha virt. eigenvalues --    0.51276   0.52489   0.53308   0.53935   0.54812
 Alpha virt. eigenvalues --    0.55126   0.55655   0.56136   0.56876   0.57649
 Alpha virt. eigenvalues --    0.58330   0.58692   0.59403   0.59905   0.60614
 Alpha virt. eigenvalues --    0.61586   0.62610   0.62828   0.63337   0.65362
 Alpha virt. eigenvalues --    0.66098   0.66326   0.66469   0.66987   0.67855
 Alpha virt. eigenvalues --    0.68201   0.68921   0.69541   0.69734   0.71167
 Alpha virt. eigenvalues --    0.71578   0.72047   0.72466   0.74070   0.74751
 Alpha virt. eigenvalues --    0.75426   0.76389   0.77459   0.77955   0.78707
 Alpha virt. eigenvalues --    0.79161   0.79892   0.80366   0.83029   0.83573
 Alpha virt. eigenvalues --    0.84364   0.84837   0.85390   0.86588   0.87577
 Alpha virt. eigenvalues --    0.88045   0.89260   0.90925   0.91629   0.92516
 Alpha virt. eigenvalues --    0.92741   0.94710   0.95685   0.96798   0.99168
 Alpha virt. eigenvalues --    0.99898   1.00406   1.02150   1.03697   1.05404
 Alpha virt. eigenvalues --    1.06125   1.08025   1.08128   1.08862   1.09824
 Alpha virt. eigenvalues --    1.11502   1.12086   1.12643   1.13317   1.14741
 Alpha virt. eigenvalues --    1.15352   1.15556   1.16310   1.18215   1.18895
 Alpha virt. eigenvalues --    1.19893   1.20254   1.22159   1.22903   1.23369
 Alpha virt. eigenvalues --    1.23717   1.24162   1.24742   1.25739   1.26707
 Alpha virt. eigenvalues --    1.26778   1.27835   1.28672   1.29481   1.29982
 Alpha virt. eigenvalues --    1.30489   1.31560   1.31693   1.32397   1.33077
 Alpha virt. eigenvalues --    1.33868   1.35795   1.36013   1.36891   1.37720
 Alpha virt. eigenvalues --    1.38018   1.38605   1.40096   1.40812   1.41301
 Alpha virt. eigenvalues --    1.42218   1.43071   1.44057   1.44577   1.44988
 Alpha virt. eigenvalues --    1.45386   1.46559   1.47980   1.48238   1.48900
 Alpha virt. eigenvalues --    1.50439   1.51539   1.52300   1.53809   1.54895
 Alpha virt. eigenvalues --    1.56411   1.56955   1.58883   1.59774   1.61463
 Alpha virt. eigenvalues --    1.62356   1.63977   1.66375   1.68314   1.69676
 Alpha virt. eigenvalues --    1.70458   1.71890   1.73772   1.74269   1.75066
 Alpha virt. eigenvalues --    1.75924   1.76450   1.78004   1.78189   1.79611
 Alpha virt. eigenvalues --    1.80192   1.80788   1.81368   1.83063   1.83618
 Alpha virt. eigenvalues --    1.84175   1.84551   1.86027   1.88857   1.90050
 Alpha virt. eigenvalues --    1.90900   1.91787   1.92437   1.93098   1.94814
 Alpha virt. eigenvalues --    1.96677   1.97497   1.99353   2.00047   2.01694
 Alpha virt. eigenvalues --    2.04547   2.05473   2.05963   2.06891   2.08057
 Alpha virt. eigenvalues --    2.09474   2.11326   2.11802   2.14668   2.16143
 Alpha virt. eigenvalues --    2.16615   2.17678   2.18777   2.21351   2.23163
 Alpha virt. eigenvalues --    2.23930   2.25905   2.26064   2.28796   2.29378
 Alpha virt. eigenvalues --    2.30675   2.31308   2.31910   2.32675   2.33800
 Alpha virt. eigenvalues --    2.34008   2.34464   2.35793   2.36692   2.37837
 Alpha virt. eigenvalues --    2.40936   2.41680   2.42720   2.44791   2.46186
 Alpha virt. eigenvalues --    2.47257   2.48660   2.49873   2.51646   2.58642
 Alpha virt. eigenvalues --    2.59418   2.60989   2.63951   2.67707   2.69053
 Alpha virt. eigenvalues --    2.70661   2.71028   2.73828   2.76111   2.78082
 Alpha virt. eigenvalues --    2.80167   2.80442   2.82116   2.83334   2.84202
 Alpha virt. eigenvalues --    2.85754   2.86977   2.87740   2.88135   2.89958
 Alpha virt. eigenvalues --    2.91979   2.93557   2.93710   2.96443   2.97310
 Alpha virt. eigenvalues --    3.00216   3.02694   3.03956   3.06445   3.07001
 Alpha virt. eigenvalues --    3.09929   3.11120   3.14801   3.16904   3.19958
 Alpha virt. eigenvalues --    3.20713   3.24328   3.26368   3.28267   3.30805
 Alpha virt. eigenvalues --    3.31947   3.33398   3.33471   3.35468   3.36876
 Alpha virt. eigenvalues --    3.40263   3.40415   3.42811   3.42989   3.44622
 Alpha virt. eigenvalues --    3.46382   3.48156   3.49726   3.49895   3.50376
 Alpha virt. eigenvalues --    3.53883   3.56343   3.56750   3.59226   3.59896
 Alpha virt. eigenvalues --    3.60441   3.62073   3.63167   3.64280   3.65017
 Alpha virt. eigenvalues --    3.66034   3.68983   3.71385   3.71977   3.72808
 Alpha virt. eigenvalues --    3.73748   3.78960   3.79683   3.83888   3.87286
 Alpha virt. eigenvalues --    3.87903   3.88956   3.90190   3.95362   3.97145
 Alpha virt. eigenvalues --    4.00112   4.02533   4.03687   4.08773   4.12282
 Alpha virt. eigenvalues --    4.16160   4.20218   4.21840   4.23886   4.29586
 Alpha virt. eigenvalues --    4.34596   4.44261   4.50858   4.52304   4.97626
 Alpha virt. eigenvalues --    5.00739   5.02610   5.05348   5.06161   5.11480
 Alpha virt. eigenvalues --    5.12276   5.12610   5.15261   5.16432   5.19030
 Alpha virt. eigenvalues --    5.19434   5.21921   5.22880   5.29879   5.31619
 Alpha virt. eigenvalues --    5.32774   5.34128   5.39980   5.42242   5.44750
 Alpha virt. eigenvalues --    5.46387   5.49026   5.51376   5.56499   5.57289
 Alpha virt. eigenvalues --    5.61440   5.65167   5.68505   5.80980   5.98819
 Alpha virt. eigenvalues --    6.24731   6.78592   6.79150   6.82153   6.83056
 Alpha virt. eigenvalues --    6.83990   6.86386   6.86876   6.88102   6.91595
 Alpha virt. eigenvalues --    6.93771   6.96958   6.97608   7.01783   7.02486
 Alpha virt. eigenvalues --    7.05726   7.07026   7.07422   7.07770   7.11047
 Alpha virt. eigenvalues --    7.13348   7.22227   7.24634   7.30097   7.31882
 Alpha virt. eigenvalues --    7.33264   7.35741   7.39148   7.39735   7.44167
 Alpha virt. eigenvalues --    7.47686   7.73378  14.30148  14.33810  14.42829
 Alpha virt. eigenvalues --   23.90839  23.96326  24.01855  24.04126  24.06557
 Alpha virt. eigenvalues --   24.10540  24.15314  24.26680  35.62310  35.67449
 Alpha virt. eigenvalues --   50.06495  50.11014  50.12204  50.16641  50.20156
 Alpha virt. eigenvalues --   50.20310 163.97701
          Condensed to atoms (all electrons):
               1          2          3          4          5          6
     1  C    5.745257   0.149135  -0.578721   0.392899   0.397329  -0.029788
     2  C    0.149135   5.720292  -0.367041   0.001546  -0.013423   0.407609
     3  C   -0.578721  -0.367041   8.164906  -0.134114   0.008317   0.005195
     4  N    0.392899   0.001546  -0.134114   6.332023  -0.039017   0.010129
     5  H    0.397329  -0.013423   0.008317  -0.039017   0.476903  -0.001106
     6  H   -0.029788   0.407609   0.005195   0.010129  -0.001106   0.473130
     7  H    0.010922   0.008922   0.297104   0.000419  -0.000010  -0.000036
     8  C   -0.082417   0.038431  -0.284961   0.251453   0.000602  -0.000173
     9  H    0.003352  -0.003667  -0.029313  -0.013477   0.000102   0.000008
    10  H   -0.025203   0.022470   0.052512  -0.073019   0.001911  -0.000020
    11  H   -0.004019   0.001981  -0.018254  -0.032730   0.000077   0.000008
    12  N    0.064462   0.253452  -0.089204  -0.015442   0.007934  -0.035234
    13  C   -0.020996  -0.207937   0.021324  -0.101354   0.001777   0.008429
    14  H    0.004401  -0.012543   0.006599  -0.001492  -0.000012   0.000289
    15  H    0.000314  -0.004230  -0.001919   0.005593   0.000008  -0.000042
    16  C    0.049450   0.124976  -0.269392   0.021358  -0.000945   0.002643
    17  H    0.001666  -0.005709   0.007053  -0.000695  -0.000001  -0.000101
    18  H   -0.003061  -0.004256   0.012678   0.000395   0.000013  -0.000475
    19  C   -0.010293  -0.024057  -0.088423  -0.015308  -0.000004  -0.003384
    20  H    0.007719  -0.004950  -0.012767  -0.002342  -0.000036  -0.000394
    21  H    0.001516  -0.001669   0.009476  -0.000533   0.000000   0.000013
    22  C   -0.034001   0.065334  -0.173725   0.101546   0.000313  -0.000110
    23  O   -0.000881   0.002955   0.019172   0.004701  -0.000002  -0.000047
    24  O    0.041175  -0.026435   0.072160  -0.123380   0.000001   0.000202
    25  P    0.003998  -0.010468   0.020176  -0.013699   0.000077  -0.000009
    26  O   -0.002361   0.003867   0.060059  -0.032619  -0.000006   0.000000
    27  O    0.004080  -0.002552   0.010269  -0.017010   0.000010  -0.000002
    28  H   -0.005222   0.006730  -0.038745   0.022884  -0.000014   0.000002
    29  O    0.000394  -0.000231   0.009207  -0.001544  -0.000000   0.000000
    30  H    0.000007   0.000008  -0.002754   0.000151  -0.000000  -0.000000
    31  O   -0.000887  -0.000324  -0.002178   0.000213  -0.000001   0.000000
    32  H   -0.000759   0.000652  -0.004514  -0.000411   0.000000  -0.000000
               7          8          9         10         11         12
     1  C    0.010922  -0.082417   0.003352  -0.025203  -0.004019   0.064462
     2  C    0.008922   0.038431  -0.003667   0.022470   0.001981   0.253452
     3  C    0.297104  -0.284961  -0.029313   0.052512  -0.018254  -0.089204
     4  N    0.000419   0.251453  -0.013477  -0.073019  -0.032730  -0.015442
     5  H   -0.000010   0.000602   0.000102   0.001911   0.000077   0.007934
     6  H   -0.000036  -0.000173   0.000008  -0.000020   0.000008  -0.035234
     7  H    0.389631   0.003013   0.000612  -0.000287   0.001187  -0.025081
     8  C    0.003013   5.395900   0.406469   0.381320   0.424863  -0.025689
     9  H    0.000612   0.406469   0.438249  -0.021632  -0.022791   0.002568
    10  H   -0.000287   0.381320  -0.021632   0.507892  -0.011764  -0.004047
    11  H    0.001187   0.424863  -0.022791  -0.011764   0.417360   0.000436
    12  N   -0.025081  -0.025689   0.002568  -0.004047   0.000436   6.512070
    13  C   -0.008076  -0.013139  -0.000759   0.000954  -0.000096   0.110468
    14  H    0.000176  -0.000378   0.000002  -0.000002  -0.000006  -0.054079
    15  H    0.002295   0.000820   0.000012  -0.000001  -0.000007  -0.058602
    16  C    0.010768  -0.002832   0.000679   0.000009   0.000233   0.011584
    17  H   -0.000085  -0.000007  -0.000000  -0.000000  -0.000000   0.006814
    18  H   -0.000043  -0.000013  -0.000000   0.000000   0.000000  -0.002680
    19  C   -0.005624  -0.001696  -0.001583  -0.000368  -0.000033   0.086226
    20  H   -0.000123   0.000776  -0.000056  -0.000008  -0.000001   0.022544
    21  H   -0.000044  -0.000026   0.000002  -0.000000  -0.000000  -0.002519
    22  C    0.030315  -0.000520   0.001643  -0.000617   0.002035  -0.081077
    23  O    0.004587   0.002070   0.000469  -0.000012   0.000140  -0.025544
    24  O   -0.031427  -0.004229   0.006716   0.000189  -0.003627   0.013585
    25  P    0.007123   0.015484  -0.000934   0.000805   0.004027  -0.014989
    26  O    0.018418  -0.046810  -0.002492   0.001062   0.001024   0.013910
    27  O   -0.005571  -0.005630   0.006600   0.000761  -0.003100   0.003806
    28  H    0.003006   0.003151   0.000424  -0.000178   0.001505  -0.000519
    29  O    0.000374  -0.003712   0.000042  -0.000004   0.000183  -0.000187
    30  H   -0.000067   0.001463   0.000026  -0.000001   0.000015  -0.000019
    31  O    0.001961   0.001120   0.000549  -0.000003   0.000250  -0.001756
    32  H   -0.002016   0.000486  -0.000234   0.000000   0.000024   0.001875
              13         14         15         16         17         18
     1  C   -0.020996   0.004401   0.000314   0.049450   0.001666  -0.003061
     2  C   -0.207937  -0.012543  -0.004230   0.124976  -0.005709  -0.004256
     3  C    0.021324   0.006599  -0.001919  -0.269392   0.007053   0.012678
     4  N   -0.101354  -0.001492   0.005593   0.021358  -0.000695   0.000395
     5  H    0.001777  -0.000012   0.000008  -0.000945  -0.000001   0.000013
     6  H    0.008429   0.000289  -0.000042   0.002643  -0.000101  -0.000475
     7  H   -0.008076   0.000176   0.002295   0.010768  -0.000085  -0.000043
     8  C   -0.013139  -0.000378   0.000820  -0.002832  -0.000007  -0.000013
     9  H   -0.000759   0.000002   0.000012   0.000679  -0.000000  -0.000000
    10  H    0.000954  -0.000002  -0.000001   0.000009  -0.000000   0.000000
    11  H   -0.000096  -0.000006  -0.000007   0.000233  -0.000000   0.000000
    12  N    0.110468  -0.054079  -0.058602   0.011584   0.006814  -0.002680
    13  C    6.305752   0.428570   0.463534  -0.510170  -0.051887  -0.031878
    14  H    0.428570   0.496312  -0.018762  -0.034123  -0.000001  -0.008663
    15  H    0.463534  -0.018762   0.431298  -0.044201  -0.007921   0.004033
    16  C   -0.510170  -0.034123  -0.044201   6.457756   0.440005   0.452838
    17  H   -0.051887  -0.000001  -0.007921   0.440005   0.492114  -0.029495
    18  H   -0.031878  -0.008663   0.004033   0.452838  -0.029495   0.517015
    19  C    0.232718  -0.010318   0.011666  -0.258267  -0.066816  -0.066000
    20  H    0.008167  -0.000108  -0.000624  -0.088483   0.005950  -0.009899
    21  H    0.011787  -0.000035  -0.000083  -0.008919  -0.010382  -0.001107
    22  C   -0.302453   0.013341  -0.010520  -0.012869   0.028615  -0.001081
    23  O   -0.039553   0.001289  -0.001751   0.042363  -0.003114   0.000365
    24  O    0.057958  -0.000634  -0.000603   0.032953  -0.000513  -0.001355
    25  P    0.004680   0.000007  -0.000397  -0.001013   0.000137   0.000091
    26  O    0.010525  -0.000000  -0.000039  -0.000069  -0.000000   0.000001
    27  O    0.003915  -0.000001  -0.000020  -0.005642   0.000018   0.000001
    28  H   -0.009748   0.000005   0.000065   0.003957  -0.000032  -0.000004
    29  O    0.000701  -0.000000  -0.000003   0.000197  -0.000000  -0.000000
    30  H   -0.000109  -0.000000   0.000000  -0.000020   0.000000   0.000000
    31  O    0.005552   0.000016  -0.000488  -0.005710   0.000017  -0.000008
    32  H   -0.002557  -0.000025  -0.000050  -0.000615   0.000030   0.000018
              19         20         21         22         23         24
     1  C   -0.010293   0.007719   0.001516  -0.034001  -0.000881   0.041175
     2  C   -0.024057  -0.004950  -0.001669   0.065334   0.002955  -0.026435
     3  C   -0.088423  -0.012767   0.009476  -0.173725   0.019172   0.072160
     4  N   -0.015308  -0.002342  -0.000533   0.101546   0.004701  -0.123380
     5  H   -0.000004  -0.000036   0.000000   0.000313  -0.000002   0.000001
     6  H   -0.003384  -0.000394   0.000013  -0.000110  -0.000047   0.000202
     7  H   -0.005624  -0.000123  -0.000044   0.030315   0.004587  -0.031427
     8  C   -0.001696   0.000776  -0.000026  -0.000520   0.002070  -0.004229
     9  H   -0.001583  -0.000056   0.000002   0.001643   0.000469   0.006716
    10  H   -0.000368  -0.000008  -0.000000  -0.000617  -0.000012   0.000189
    11  H   -0.000033  -0.000001  -0.000000   0.002035   0.000140  -0.003627
    12  N    0.086226   0.022544  -0.002519  -0.081077  -0.025544   0.013585
    13  C    0.232718   0.008167   0.011787  -0.302453  -0.039553   0.057958
    14  H   -0.010318  -0.000108  -0.000035   0.013341   0.001289  -0.000634
    15  H    0.011666  -0.000624  -0.000083  -0.010520  -0.001751  -0.000603
    16  C   -0.258267  -0.088483  -0.008919  -0.012869   0.042363   0.032953
    17  H   -0.066816   0.005950  -0.010382   0.028615  -0.003114  -0.000513
    18  H   -0.066000  -0.009899  -0.001107  -0.001081   0.000365  -0.001355
    19  C    6.515824   0.477575   0.460798  -0.540315  -0.178607  -0.084237
    20  H    0.477575   0.500342  -0.030441  -0.051060   0.007282  -0.014717
    21  H    0.460798  -0.030441   0.499888  -0.126184   0.001273   0.009587
    22  C   -0.540315  -0.051060  -0.126184   6.089054   0.433033   0.083554
    23  O   -0.178607   0.007282   0.001273   0.433033   8.273694  -0.061559
    24  O   -0.084237  -0.014717   0.009587   0.083554  -0.061559   8.616594
    25  P   -0.024285   0.000064   0.000289  -0.037101   0.029233   0.058752
    26  O   -0.001270   0.000020  -0.000006   0.002194  -0.013452  -0.008622
    27  O    0.005209   0.000284   0.000024  -0.006396  -0.023445  -0.003315
    28  H   -0.005088  -0.000533  -0.000069   0.066360   0.004968   0.000608
    29  O   -0.001377  -0.000000   0.000001  -0.010036   0.003862   0.006637
    30  H   -0.000260   0.000000   0.000000  -0.000782   0.000329   0.000135
    31  O    0.007893  -0.000049   0.000058   0.000156  -0.022649  -0.024284
    32  H    0.018682   0.000141  -0.000252   0.003330   0.063862   0.010244
              25         26         27         28         29         30
     1  C    0.003998  -0.002361   0.004080  -0.005222   0.000394   0.000007
     2  C   -0.010468   0.003867  -0.002552   0.006730  -0.000231   0.000008
     3  C    0.020176   0.060059   0.010269  -0.038745   0.009207  -0.002754
     4  N   -0.013699  -0.032619  -0.017010   0.022884  -0.001544   0.000151
     5  H    0.000077  -0.000006   0.000010  -0.000014  -0.000000  -0.000000
     6  H   -0.000009   0.000000  -0.000002   0.000002   0.000000  -0.000000
     7  H    0.007123   0.018418  -0.005571   0.003006   0.000374  -0.000067
     8  C    0.015484  -0.046810  -0.005630   0.003151  -0.003712   0.001463
     9  H   -0.000934  -0.002492   0.006600   0.000424   0.000042   0.000026
    10  H    0.000805   0.001062   0.000761  -0.000178  -0.000004  -0.000001
    11  H    0.004027   0.001024  -0.003100   0.001505   0.000183   0.000015
    12  N   -0.014989   0.013910   0.003806  -0.000519  -0.000187  -0.000019
    13  C    0.004680   0.010525   0.003915  -0.009748   0.000701  -0.000109
    14  H    0.000007  -0.000000  -0.000001   0.000005  -0.000000  -0.000000
    15  H   -0.000397  -0.000039  -0.000020   0.000065  -0.000003   0.000000
    16  C   -0.001013  -0.000069  -0.005642   0.003957   0.000197  -0.000020
    17  H    0.000137  -0.000000   0.000018  -0.000032  -0.000000   0.000000
    18  H    0.000091   0.000001   0.000001  -0.000004  -0.000000   0.000000
    19  C   -0.024285  -0.001270   0.005209  -0.005088  -0.001377  -0.000260
    20  H    0.000064   0.000020   0.000284  -0.000533  -0.000000   0.000000
    21  H    0.000289  -0.000006   0.000024  -0.000069   0.000001   0.000000
    22  C   -0.037101   0.002194  -0.006396   0.066360  -0.010036  -0.000782
    23  O    0.029233  -0.013452  -0.023445   0.004968   0.003862   0.000329
    24  O    0.058752  -0.008622  -0.003315   0.000608   0.006637   0.000135
    25  P   12.438033   0.454411   0.303508  -0.012859   0.232913   0.009597
    26  O    0.454411   8.293806  -0.028117  -0.007944  -0.016988  -0.008407
    27  O    0.303508  -0.028117   8.238454   0.202727   0.007165  -0.005630
    28  H   -0.012859  -0.007944   0.202727   0.291727  -0.007634   0.001025
    29  O    0.232913  -0.016988   0.007165  -0.007634   8.016545   0.236604
    30  H    0.009597  -0.008407  -0.005630   0.001025   0.236604   0.467144
    31  O    0.274741  -0.018896   0.008531  -0.001685  -0.005453  -0.003845
    32  H    0.007293   0.001085   0.000717  -0.001193  -0.002806  -0.000114
              31         32
     1  C   -0.000887  -0.000759
     2  C   -0.000324   0.000652
     3  C   -0.002178  -0.004514
     4  N    0.000213  -0.000411
     5  H   -0.000001   0.000000
     6  H    0.000000  -0.000000
     7  H    0.001961  -0.002016
     8  C    0.001120   0.000486
     9  H    0.000549  -0.000234
    10  H   -0.000003   0.000000
    11  H    0.000250   0.000024
    12  N   -0.001756   0.001875
    13  C    0.005552  -0.002557
    14  H    0.000016  -0.000025
    15  H   -0.000488  -0.000050
    16  C   -0.005710  -0.000615
    17  H    0.000017   0.000030
    18  H   -0.000008   0.000018
    19  C    0.007893   0.018682
    20  H   -0.000049   0.000141
    21  H    0.000058  -0.000252
    22  C    0.000156   0.003330
    23  O   -0.022649   0.063862
    24  O   -0.024284   0.010244
    25  P    0.274741   0.007293
    26  O   -0.018896   0.001085
    27  O    0.008531   0.000717
    28  H   -0.001685  -0.001193
    29  O   -0.005453  -0.002806
    30  H   -0.003845  -0.000114
    31  O    8.198176   0.214367
    32  H    0.214367   0.257996
 Mulliken charges:
               1
     1  C   -0.079465
     2  C   -0.118867
     3  C   -0.680184
     4  N    0.472874
     5  H    0.159201
     6  H    0.163264
     7  H    0.287656
     8  C   -0.455191
     9  H    0.228414
    10  H    0.167283
    11  H    0.241079
    12  N    0.324937
    13  C   -0.376099
    14  H    0.190174
    15  H    0.230627
    16  C   -0.408498
    17  H    0.194340
    18  H    0.172570
    19  C   -0.428978
    20  H    0.185729
    21  H    0.187555
    22  C    0.468023
    23  O   -0.525032
    24  O   -0.622115
    25  P    1.250311
    26  O   -0.672284
    27  O   -0.689652
    28  H    0.482322
    29  O   -0.464853
    30  H    0.305503
    31  O   -0.625384
    32  H    0.434743
 Sum of Mulliken charges =  -0.00000
 Mulliken charges with hydrogens summed into heavy atoms:
               1
     1  C    0.079735
     2  C    0.044397
     3  C   -0.392528
     4  N    0.472874
     8  C    0.181584
    12  N    0.324937
    13  C    0.044702
    16  C   -0.041588
    19  C   -0.055694
    22  C    0.468023
    23  O   -0.525032
    24  O   -0.622115
    25  P    1.250311
    26  O   -0.672284
    27  O   -0.207330
    29  O   -0.159350
    31  O   -0.190641
         Mulliken charges condensed to fragments:
      1     -0.020706
      2      0.020706
 Electronic spatial extent (au):  <R**2>=         140617.1679
 Charge=              0.0000 electrons
 Dipole moment (field-independent basis, Debye):
    X=             -2.6186    Y=             -6.2527    Z=             -7.9349  Tot=             10.4363
 Quadrupole moment (field-independent basis, Debye-Ang):
   XX=           -143.8581   YY=           -242.7131   ZZ=           -257.9570
   XY=            -63.5322   XZ=            -79.9150   YZ=           -149.2698
 Traceless Quadrupole moment (field-independent basis, Debye-Ang):
   XX=             70.9847   YY=            -27.8704   ZZ=            -43.1143
   XY=            -63.5322   XZ=            -79.9150   YZ=           -149.2698
 Octapole moment (field-independent basis, Debye-Ang**2):
  XXX=          -2208.1776  YYY=          -6016.1174  ZZZ=          -5402.9715  XYY=          -1715.0899
  XXY=          -1874.2031  XXZ=          -1803.9043  XZZ=          -1925.9068  YZZ=          -3526.0570
  YYZ=          -3346.7476  XYZ=          -1234.4207
 Hexadecapole moment (field-independent basis, Debye-Ang**3):
 XXXX=         -24872.6875 YYYY=        -123955.2936 ZZZZ=         -96293.4693 XXXY=         -27175.8955
 XXXZ=         -24763.1984 YYYX=         -38751.4842 YYYZ=         -69793.7142 ZZZX=         -36934.3662
 ZZZY=         -67974.8867 XXYY=         -28107.0948 XXZZ=         -25878.2007 YYZZ=         -57063.3225
 XXYZ=         -23007.5828 YYXZ=         -23727.7443 ZZXY=         -25310.6993
 N-N= 1.547940083654D+03 E-N=-5.958228234250D+03  KE= 1.211807217653D+03
 No NMR shielding tensors so no spin-rotation constants.
 Leave Link  601 at Wed May 18 20:56:36 2022, MaxMem=   671088640 cpu:               1.6 elap:               0.2
 (Enter /data0/hywu0/study/g16/l122.exe)
 CPIOFr:  IOpCl= 0 IRwI=-1 IRwCP=  731 ICalc= -1 LCPTot=      476096 Len1MO=     1252357 IndFrg=      476096
 CPIOFr:  IOpCl= 0 IRwI=-1 IRwCP=  731 ICalc=  0 LCPTot=      476096 Len1MO=     1252357 IndFrg=     1728453
 Counterpoise: doing calculation for fragment   1 using the basis set of the full-system, NewBq=T
 Leave Link  122 at Wed May 18 20:56:36 2022, MaxMem=   671088640 cpu:               0.2 elap:               0.0
 (Enter /data0/hywu0/study/g16/l301.exe)
 Basis read from rwf:  (5D, 7F)
 No pseudopotential information found on rwf file.
   557 basis functions,   848 primitive gaussians,   591 cartesian basis functions
    45 alpha electrons       45 beta electrons
       nuclear repulsion energy       752.3558506945 Hartrees.
 IExCor= 4336 DFT=T Ex+Corr=M062X ExCW=0 ScaHFX=  0.540000
 ScaDFX=  1.000000  1.000000  1.000000  1.000000 ScalE2=  1.000000  1.000000
 IRadAn=      5 IRanWt=     -1 IRanGd=            0 ICorTp=0 IEmpDi=131
 NAtoms=   32 NActive=   32 NUniq=   32 SFac= 1.00D+00 NAtFMM=   60 NAOKFM=F Big=F
 Integral buffers will be    131072 words long.
 Raffenetti 2 integral format.
 Two-electron integral symmetry is turned off.
 R6Disp:  Grimme-D3 Dispersion energy=       -0.0009846379 Hartrees.
 Nuclear repulsion after empirical dispersion term =      752.3548660567 Hartrees.
 No density basis found on file   718.
 Leave Link  301 at Wed May 18 20:56:37 2022, MaxMem=   671088640 cpu:               0.4 elap:               0.1
 (Enter /data0/hywu0/study/g16/l302.exe)
 NPDir=0 NMtPBC=     1 NCelOv=     1 NCel=       1 NClECP=     1 NCelD=      1
         NCelK=      1 NCelE2=     1 NClLst=     1 CellRange=     0.0.
 One-electron integrals computed using PRISM.
 NBasis=   557 RedAO= T EigKep=  9.05D-06  NBF=   557
 NBsUse=   557 1.00D-06 EigRej= -1.00D+00 NBFU=   557
 Precomputing XC quadrature grid using
 IXCGrd= 4 IRadAn=           5 IRanWt=          -1 IRanGd=           0 AccXCQ= 0.00D+00.
 Generated NRdTot=       0 NPtTot=           0 NUsed=           0 NTot=          32
 NSgBfM=   591   591   591   591   591 MxSgAt=    32 MxSgA2=    32.
 Leave Link  302 at Wed May 18 20:56:37 2022, MaxMem=   671088640 cpu:               5.2 elap:               0.7
 (Enter /data0/hywu0/study/g16/l303.exe)
 DipDrv:  MaxL=1.
 Leave Link  303 at Wed May 18 20:56:37 2022, MaxMem=   671088640 cpu:               0.7 elap:               0.1
 (Enter /data0/hywu0/study/g16/l401.exe)
 ExpMin= 3.48D-02 ExpMax= 7.75D+04 ExpMxC= 2.65D+03 IAcc=3 IRadAn=         5 AccDes= 0.00D+00
 Harris functional with IExCor= 1009 and IRadAn=       5 diagonalized for initial guess.
 HarFok:  IExCor= 1009 AccDes= 0.00D+00 IRadAn=         5 IDoV= 1 UseB2=F ITyADJ=14
 ICtDFT=  3500011 ScaDFX=  1.000000  1.000000  1.000000  1.000000
 FoFCou: FMM=F IPFlag=           0 FMFlag=      100000 FMFlg1=           0
         NFxFlg=           0 DoJE=T BraDBF=F KetDBF=T FulRan=T
         wScrn=  0.000000 ICntrl=       500 IOpCl=  0 I1Cent=   200000004 NGrid=           0
         NMat0=    1 NMatS0=      1 NMatT0=    0 NMatD0=    1 NMtDS0=    0 NMtDT0=    0
 Symmetry not used in FoFCou.
 Harris En= -571.683016495808    
 JPrj=0 DoOrth=F DoCkMO=F.
 Leave Link  401 at Wed May 18 20:56:43 2022, MaxMem=   671088640 cpu:              43.5 elap:               5.5
 (Enter /data0/hywu0/study/g16/l502.exe)
 Two-electron integral symmetry not used.
 Closed shell SCF:
 Using DIIS extrapolation, IDIIS=  1040.
 NGot=   671088640 LenX=   670381231 LenY=   670031359
 Requested convergence on RMS density matrix=1.00D-08 within 128 cycles.
 Requested convergence on MAX density matrix=1.00D-06.
 Requested convergence on             energy=1.00D-06.
 No special actions if energy rises.
 Fock matrices will be formed incrementally for  20 cycles.

 Cycle   1  Pass 1  IDiag  1:
 FoFJK:  IHMeth= 1 ICntrl=       0 DoSepK=F KAlg= 0 I1Cent=           0 FoldK=F
 IRaf= 860000000 NMat=       1 IRICut=       1 DoRegI=T DoRafI=F ISym2E= 0 IDoP0=0 IntGTp=1.
 FoFCou: FMM=F IPFlag=           0 FMFlag=      100000 FMFlg1=           0
         NFxFlg=           0 DoJE=F BraDBF=F KetDBF=F FulRan=T
         wScrn=  0.000000 ICntrl=         0 IOpCl=  0 I1Cent=           0 NGrid=           0
         NMat0=    1 NMatS0=      1 NMatT0=    0 NMatD0=    1 NMtDS0=    0 NMtDT0=    0
 Symmetry not used in FoFCou.
 E= -571.600186782550    
 DIIS: error= 1.45D-02 at cycle   1 NSaved=   1.
 NSaved= 1 IEnMin= 1 EnMin= -571.600186782550     IErMin= 1 ErrMin= 1.45D-02
 ErrMax= 1.45D-02  0.00D+00 EMaxC= 1.00D-01 BMatC= 4.61D-01 BMatP= 4.61D-01
 IDIUse=3 WtCom= 8.55D-01 WtEn= 1.45D-01
 Coeff-Com:  0.100D+01
 Coeff-En:   0.100D+01
 Coeff:      0.100D+01
 Gap=     0.321 Goal=   None    Shift=    0.000
 GapD=    0.321 DampG=1.000 DampE=0.500 DampFc=0.5000 IDamp=-1.
 Damping current iteration by 5.00D-01
 RMSDP=6.75D-03 MaxDP=8.14D-01              OVMax= 2.50D-01

 Cycle   2  Pass 1  IDiag  1:
 RMSU=  3.37D-03    CP:  1.03D+00
 E= -571.747373672071     Delta-E=       -0.147186889521 Rises=F Damp=T
 DIIS: error= 4.17D-03 at cycle   2 NSaved=   2.
 NSaved= 2 IEnMin= 2 EnMin= -571.747373672071     IErMin= 2 ErrMin= 4.17D-03
 ErrMax= 4.17D-03  0.00D+00 EMaxC= 1.00D-01 BMatC= 3.94D-02 BMatP= 4.61D-01
 IDIUse=3 WtCom= 9.58D-01 WtEn= 4.17D-02
 Coeff-Com: -0.382D-02 0.100D+01
 Coeff-En:   0.497D-01 0.950D+00
 Coeff:     -0.159D-02 0.100D+01
 Gap=     0.267 Goal=   None    Shift=    0.000
 RMSDP=3.29D-03 MaxDP=5.72D-01 DE=-1.47D-01 OVMax= 1.61D-01

 Cycle   3  Pass 1  IDiag  1:
 RMSU=  2.10D-03    CP:  8.66D-01  3.67D-01
 E= -571.919985659246     Delta-E=       -0.172611987175 Rises=F Damp=F
 DIIS: error= 2.67D-03 at cycle   3 NSaved=   3.
 NSaved= 3 IEnMin= 3 EnMin= -571.919985659246     IErMin= 3 ErrMin= 2.67D-03
 ErrMax= 2.67D-03  0.00D+00 EMaxC= 1.00D-01 BMatC= 1.66D-02 BMatP= 3.94D-02
 IDIUse=3 WtCom= 9.73D-01 WtEn= 2.67D-02
 Coeff-Com: -0.891D-01 0.390D+00 0.699D+00
 Coeff-En:   0.000D+00 0.000D+00 0.100D+01
 Coeff:     -0.867D-01 0.380D+00 0.707D+00
 Gap=     0.253 Goal=   None    Shift=    0.000
 RMSDP=4.98D-04 MaxDP=8.34D-02 DE=-1.73D-01 OVMax= 2.55D-02

 Cycle   4  Pass 1  IDiag  1:
 RMSU=  4.29D-04    CP:  8.54D-01  4.32D-01  1.03D+00
 E= -571.930114800868     Delta-E=       -0.010129141622 Rises=F Damp=F
 DIIS: error= 1.07D-03 at cycle   4 NSaved=   4.
 NSaved= 4 IEnMin= 4 EnMin= -571.930114800868     IErMin= 4 ErrMin= 1.07D-03
 ErrMax= 1.07D-03  0.00D+00 EMaxC= 1.00D-01 BMatC= 2.14D-03 BMatP= 1.66D-02
 IDIUse=3 WtCom= 9.89D-01 WtEn= 1.07D-02
 Coeff-Com: -0.428D-01 0.107D+00 0.330D+00 0.605D+00
 Coeff-En:   0.000D+00 0.000D+00 0.224D-01 0.978D+00
 Coeff:     -0.423D-01 0.106D+00 0.327D+00 0.609D+00
 Gap=     0.244 Goal=   None    Shift=    0.000
 RMSDP=1.40D-04 MaxDP=2.10D-02 DE=-1.01D-02 OVMax= 8.38D-03

 Cycle   5  Pass 1  IDiag  1:
 RMSU=  1.22D-04    CP:  8.55D-01  4.38D-01  1.03D+00  8.56D-01
 E= -571.931930904516     Delta-E=       -0.001816103648 Rises=F Damp=F
 DIIS: error= 2.70D-04 at cycle   5 NSaved=   5.
 NSaved= 5 IEnMin= 5 EnMin= -571.931930904516     IErMin= 5 ErrMin= 2.70D-04
 ErrMax= 2.70D-04  0.00D+00 EMaxC= 1.00D-01 BMatC= 1.37D-04 BMatP= 2.14D-03
 IDIUse=3 WtCom= 9.97D-01 WtEn= 2.70D-03
 Coeff-Com: -0.145D-01 0.271D-01 0.971D-01 0.268D+00 0.622D+00
 Coeff-En:   0.000D+00 0.000D+00 0.000D+00 0.000D+00 0.100D+01
 Coeff:     -0.145D-01 0.270D-01 0.968D-01 0.267D+00 0.624D+00
 Gap=     0.245 Goal=   None    Shift=    0.000
 RMSDP=5.12D-05 MaxDP=3.91D-03 DE=-1.82D-03 OVMax= 3.31D-03

 Cycle   6  Pass 1  IDiag  1:
 RMSU=  4.33D-05    CP:  8.56D-01  4.36D-01  1.03D+00  9.08D-01  9.21D-01
 E= -571.932035179407     Delta-E=       -0.000104274890 Rises=F Damp=F
 DIIS: error= 1.05D-04 at cycle   6 NSaved=   6.
 NSaved= 6 IEnMin= 6 EnMin= -571.932035179407     IErMin= 6 ErrMin= 1.05D-04
 ErrMax= 1.05D-04  0.00D+00 EMaxC= 1.00D-01 BMatC= 2.02D-05 BMatP= 1.37D-04
 IDIUse=3 WtCom= 9.99D-01 WtEn= 1.05D-03
 Coeff-Com: -0.306D-02 0.341D-02 0.138D-01 0.721D-01 0.317D+00 0.597D+00
 Coeff-En:   0.000D+00 0.000D+00 0.000D+00 0.000D+00 0.000D+00 0.100D+01
 Coeff:     -0.305D-02 0.340D-02 0.137D-01 0.721D-01 0.317D+00 0.597D+00
 Gap=     0.244 Goal=   None    Shift=    0.000
 RMSDP=2.11D-05 MaxDP=2.40D-03 DE=-1.04D-04 OVMax= 1.53D-03

 Cycle   7  Pass 1  IDiag  1:
 RMSU=  1.64D-05    CP:  8.57D-01  4.36D-01  1.03D+00  9.28D-01  9.76D-01
                    CP:  1.13D+00
 E= -571.932052231009     Delta-E=       -0.000017051603 Rises=F Damp=F
 DIIS: error= 3.66D-05 at cycle   7 NSaved=   7.
 NSaved= 7 IEnMin= 7 EnMin= -571.932052231009     IErMin= 7 ErrMin= 3.66D-05
 ErrMax= 3.66D-05  0.00D+00 EMaxC= 1.00D-01 BMatC= 2.92D-06 BMatP= 2.02D-05
 IDIUse=1 WtCom= 1.00D+00 WtEn= 0.00D+00
 Coeff-Com:  0.187D-02-0.460D-02-0.159D-01-0.250D-01 0.164D-01 0.291D+00
 Coeff-Com:  0.737D+00
 Coeff:      0.187D-02-0.460D-02-0.159D-01-0.250D-01 0.164D-01 0.291D+00
 Coeff:      0.737D+00
 Gap=     0.244 Goal=   None    Shift=    0.000
 RMSDP=8.95D-06 MaxDP=7.09D-04 DE=-1.71D-05 OVMax= 6.19D-04

 Cycle   8  Pass 1  IDiag  1:
 RMSU=  5.92D-06    CP:  8.57D-01  4.36D-01  1.03D+00  9.33D-01  1.01D+00
                    CP:  1.23D+00  1.02D+00
 E= -571.932055291976     Delta-E=       -0.000003060967 Rises=F Damp=F
 DIIS: error= 9.81D-06 at cycle   8 NSaved=   8.
 NSaved= 8 IEnMin= 8 EnMin= -571.932055291976     IErMin= 8 ErrMin= 9.81D-06
 ErrMax= 9.81D-06  0.00D+00 EMaxC= 1.00D-01 BMatC= 1.44D-07 BMatP= 2.92D-06
 IDIUse=1 WtCom= 1.00D+00 WtEn= 0.00D+00
 Coeff-Com:  0.789D-03-0.155D-02-0.568D-02-0.138D-01-0.233D-01 0.430D-01
 Coeff-Com:  0.239D+00 0.762D+00
 Coeff:      0.789D-03-0.155D-02-0.568D-02-0.138D-01-0.233D-01 0.430D-01
 Coeff:      0.239D+00 0.762D+00
 Gap=     0.244 Goal=   None    Shift=    0.000
 RMSDP=2.49D-06 MaxDP=3.29D-04 DE=-3.06D-06 OVMax= 2.48D-04

 Cycle   9  Pass 1  IDiag  1:
 RMSU=  1.86D-06    CP:  8.57D-01  4.36D-01  1.03D+00  9.33D-01  1.01D+00
                    CP:  1.25D+00  1.07D+00  1.11D+00
 E= -571.932055511278     Delta-E=       -0.000000219302 Rises=F Damp=F
 DIIS: error= 3.57D-06 at cycle   9 NSaved=   9.
 NSaved= 9 IEnMin= 9 EnMin= -571.932055511278     IErMin= 9 ErrMin= 3.57D-06
 ErrMax= 3.57D-06  0.00D+00 EMaxC= 1.00D-01 BMatC= 1.89D-08 BMatP= 1.44D-07
 IDIUse=1 WtCom= 1.00D+00 WtEn= 0.00D+00
 Coeff-Com:  0.159D-03-0.270D-03-0.106D-02-0.346D-02-0.965D-02-0.395D-02
 Coeff-Com:  0.305D-01 0.278D+00 0.710D+00
 Coeff:      0.159D-03-0.270D-03-0.106D-02-0.346D-02-0.965D-02-0.395D-02
 Coeff:      0.305D-01 0.278D+00 0.710D+00
 Gap=     0.244 Goal=   None    Shift=    0.000
 RMSDP=8.12D-07 MaxDP=6.12D-05 DE=-2.19D-07 OVMax= 7.51D-05

 Cycle  10  Pass 1  IDiag  1:
 RMSU=  5.63D-07    CP:  8.57D-01  4.36D-01  1.03D+00  9.32D-01  1.01D+00
                    CP:  1.25D+00  1.08D+00  1.17D+00  1.16D+00
 E= -571.932055534465     Delta-E=       -0.000000023187 Rises=F Damp=F
 DIIS: error= 2.09D-06 at cycle  10 NSaved=  10.
 NSaved=10 IEnMin=10 EnMin= -571.932055534465     IErMin=10 ErrMin= 2.09D-06
 ErrMax= 2.09D-06  0.00D+00 EMaxC= 1.00D-01 BMatC= 5.25D-09 BMatP= 1.89D-08
 IDIUse=1 WtCom= 1.00D+00 WtEn= 0.00D+00
 Coeff-Com: -0.604D-04 0.134D-03 0.414D-03 0.600D-03-0.898D-03-0.943D-02
 Coeff-Com: -0.284D-01 0.136D-01 0.364D+00 0.660D+00
 Coeff:     -0.604D-04 0.134D-03 0.414D-03 0.600D-03-0.898D-03-0.943D-02
 Coeff:     -0.284D-01 0.136D-01 0.364D+00 0.660D+00
 Gap=     0.244 Goal=   None    Shift=    0.000
 RMSDP=4.45D-07 MaxDP=3.02D-05 DE=-2.32D-08 OVMax= 3.66D-05

 Cycle  11  Pass 1  IDiag  1:
 RMSU=  2.22D-07    CP:  8.57D-01  4.36D-01  1.03D+00  9.32D-01  1.01D+00
                    CP:  1.25D+00  1.09D+00  1.20D+00  1.28D+00  1.06D+00
 E= -571.932055540712     Delta-E=       -0.000000006246 Rises=F Damp=F
 DIIS: error= 6.93D-07 at cycle  11 NSaved=  11.
 NSaved=11 IEnMin=11 EnMin= -571.932055540712     IErMin=11 ErrMin= 6.93D-07
 ErrMax= 6.93D-07  0.00D+00 EMaxC= 1.00D-01 BMatC= 5.37D-10 BMatP= 5.25D-09
 IDIUse=1 WtCom= 1.00D+00 WtEn= 0.00D+00
 Coeff-Com: -0.468D-04 0.938D-04 0.291D-03 0.663D-03 0.796D-03-0.340D-02
 Coeff-Com: -0.161D-01-0.263D-01 0.660D-01 0.283D+00 0.695D+00
 Coeff:     -0.468D-04 0.938D-04 0.291D-03 0.663D-03 0.796D-03-0.340D-02
 Coeff:     -0.161D-01-0.263D-01 0.660D-01 0.283D+00 0.695D+00
 Gap=     0.244 Goal=   None    Shift=    0.000
 RMSDP=1.28D-07 MaxDP=8.88D-06 DE=-6.25D-09 OVMax= 1.36D-05

 Cycle  12  Pass 1  IDiag  1:
 RMSU=  7.31D-08    CP:  8.57D-01  4.36D-01  1.03D+00  9.32D-01  1.01D+00
                    CP:  1.25D+00  1.09D+00  1.21D+00  1.31D+00  1.11D+00
                    CP:  1.04D+00
 E= -571.932055541431     Delta-E=       -0.000000000719 Rises=F Damp=F
 DIIS: error= 2.79D-07 at cycle  12 NSaved=  12.
 NSaved=12 IEnMin=12 EnMin= -571.932055541431     IErMin=12 ErrMin= 2.79D-07
 ErrMax= 2.79D-07  0.00D+00 EMaxC= 1.00D-01 BMatC= 7.57D-11 BMatP= 5.37D-10
 IDIUse=1 WtCom= 1.00D+00 WtEn= 0.00D+00
 Coeff-Com: -0.121D-04 0.247D-04 0.692D-04 0.188D-03 0.378D-03-0.437D-03
 Coeff-Com: -0.344D-02-0.117D-01-0.154D-01 0.322D-01 0.294D+00 0.705D+00
 Coeff:     -0.121D-04 0.247D-04 0.692D-04 0.188D-03 0.378D-03-0.437D-03
 Coeff:     -0.344D-02-0.117D-01-0.154D-01 0.322D-01 0.294D+00 0.705D+00
 Gap=     0.244 Goal=   None    Shift=    0.000
 RMSDP=5.05D-08 MaxDP=4.52D-06 DE=-7.19D-10 OVMax= 6.12D-06

 Cycle  13  Pass 1  IDiag  1:
 RMSU=  3.04D-08    CP:  8.57D-01  4.36D-01  1.03D+00  9.32D-01  1.01D+00
                    CP:  1.25D+00  1.09D+00  1.21D+00  1.32D+00  1.13D+00
                    CP:  1.12D+00  1.03D+00
 E= -571.932055541543     Delta-E=       -0.000000000112 Rises=F Damp=F
 DIIS: error= 1.13D-07 at cycle  13 NSaved=  13.
 NSaved=13 IEnMin=13 EnMin= -571.932055541543     IErMin=13 ErrMin= 1.13D-07
 ErrMax= 1.13D-07  0.00D+00 EMaxC= 1.00D-01 BMatC= 1.20D-11 BMatP= 7.57D-11
 IDIUse=1 WtCom= 1.00D+00 WtEn= 0.00D+00
 Coeff-Com:  0.380D-05-0.761D-05-0.230D-04-0.407D-04 0.194D-04 0.416D-03
 Coeff-Com:  0.145D-02-0.163D-03-0.174D-01-0.389D-01-0.187D-02 0.299D+00
 Coeff-Com:  0.758D+00
 Coeff:      0.380D-05-0.761D-05-0.230D-04-0.407D-04 0.194D-04 0.416D-03
 Coeff:      0.145D-02-0.163D-03-0.174D-01-0.389D-01-0.187D-02 0.299D+00
 Coeff:      0.758D+00
 Gap=     0.244 Goal=   None    Shift=    0.000
 RMSDP=1.94D-08 MaxDP=1.40D-06 DE=-1.12D-10 OVMax= 2.97D-06

 Cycle  14  Pass 1  IDiag  1:
 RMSU=  1.11D-08    CP:  8.57D-01  4.36D-01  1.03D+00  9.32D-01  1.01D+00
                    CP:  1.25D+00  1.09D+00  1.21D+00  1.32D+00  1.14D+00
                    CP:  1.16D+00  1.12D+00  1.20D+00
 E= -571.932055541559     Delta-E=       -0.000000000016 Rises=F Damp=F
 DIIS: error= 2.57D-08 at cycle  14 NSaved=  14.
 NSaved=14 IEnMin=14 EnMin= -571.932055541559     IErMin=14 ErrMin= 2.57D-08
 ErrMax= 2.57D-08  0.00D+00 EMaxC= 1.00D-01 BMatC= 1.11D-12 BMatP= 1.20D-11
 IDIUse=1 WtCom= 1.00D+00 WtEn= 0.00D+00
 Coeff-Com:  0.224D-05-0.450D-05-0.112D-04-0.270D-04-0.285D-04 0.161D-03
 Coeff-Com:  0.780D-03 0.928D-03-0.311D-02-0.152D-01-0.340D-01 0.698D-02
 Coeff-Com:  0.241D+00 0.802D+00
 Coeff:      0.224D-05-0.450D-05-0.112D-04-0.270D-04-0.285D-04 0.161D-03
 Coeff:      0.780D-03 0.928D-03-0.311D-02-0.152D-01-0.340D-01 0.698D-02
 Coeff:      0.241D+00 0.802D+00
 Gap=     0.244 Goal=   None    Shift=    0.000
 RMSDP=6.91D-09 MaxDP=5.37D-07 DE=-1.59D-11 OVMax= 1.03D-06

 SCF Done:  E(RM062X) =  -571.932055542     A.U. after   14 cycles
            NFock= 14  Conv=0.69D-08     -V/T= 2.0048
 KE= 5.691722564354D+02 PE=-2.839115385614D+03 EE= 9.456562075804D+02
 Leave Link  502 at Wed May 18 21:02:41 2022, MaxMem=   671088640 cpu:            2855.6 elap:             358.0
 (Enter /data0/hywu0/study/g16/l601.exe)
 Copying SCF densities to generalized density rwf, IOpCl= 0 IROHF=0.

 **********************************************************************

            Population analysis using the SCF density.

 **********************************************************************

 Alpha  occ. eigenvalues --  -19.51351 -19.51277 -14.86613 -14.86080 -10.67481
 Alpha  occ. eigenvalues --  -10.62749 -10.62543 -10.61544 -10.60468 -10.57553
 Alpha  occ. eigenvalues --  -10.54421 -10.50687  -1.19322  -1.10945  -1.08057
 Alpha  occ. eigenvalues --   -1.00856  -0.92149  -0.88977  -0.85080  -0.79790
 Alpha  occ. eigenvalues --   -0.74413  -0.72026  -0.69165  -0.64227  -0.59789
 Alpha  occ. eigenvalues --   -0.58029  -0.56463  -0.55680  -0.55443  -0.54257
 Alpha  occ. eigenvalues --   -0.51834  -0.51661  -0.49612  -0.48241  -0.46661
 Alpha  occ. eigenvalues --   -0.44873  -0.44424  -0.41996  -0.39755  -0.38661
 Alpha  occ. eigenvalues --   -0.37276  -0.33325  -0.26946  -0.26398  -0.26125
 Alpha virt. eigenvalues --   -0.01721  -0.00359  -0.00085   0.00828   0.01434
 Alpha virt. eigenvalues --    0.02295   0.02667   0.03403   0.03953   0.04872
 Alpha virt. eigenvalues --    0.05174   0.05409   0.06320   0.07002   0.07271
 Alpha virt. eigenvalues --    0.07571   0.08342   0.08846   0.09050   0.09630
 Alpha virt. eigenvalues --    0.10332   0.11164   0.11503   0.12305   0.12320
 Alpha virt. eigenvalues --    0.12745   0.13509   0.13814   0.14046   0.14415
 Alpha virt. eigenvalues --    0.15200   0.15393   0.16057   0.16264   0.17000
 Alpha virt. eigenvalues --    0.17276   0.17301   0.18020   0.18521   0.18673
 Alpha virt. eigenvalues --    0.19097   0.19465   0.19917   0.20338   0.20972
 Alpha virt. eigenvalues --    0.21342   0.21642   0.21955   0.22603   0.22901
 Alpha virt. eigenvalues --    0.23542   0.23591   0.24427   0.24849   0.25055
 Alpha virt. eigenvalues --    0.25695   0.25787   0.26499   0.27037   0.27487
[...]
 One-electron integrals computed using PRISM.
 NBasis=   161 RedAO= T EigKep=  5.96D-04  NBF=   161
 NBsUse=   161 1.00D-06 EigRej= -1.00D+00 NBFU=   161
 Precomputing XC quadrature grid using
 IXCGrd= 4 IRadAn=           5 IRanWt=          -1 IRanGd=           0 AccXCQ= 0.00D+00.
 Generated NRdTot=       0 NPtTot=           0 NUsed=           0 NTot=          32
 NSgBfM=   171   171   171   171   171 MxSgAt=     8 MxSgA2=     8.
 Leave Link  302 at Wed May 18 21:10:32 2022, MaxMem=   671088640 cpu:               1.0 elap:               0.1
 (Enter /data0/hywu0/study/g16/l303.exe)
 DipDrv:  MaxL=1.
 Leave Link  303 at Wed May 18 21:10:32 2022, MaxMem=   671088640 cpu:               0.3 elap:               0.0
 (Enter /data0/hywu0/study/g16/l401.exe)
 ExpMin= 3.48D-02 ExpMax= 7.75D+04 ExpMxC= 2.65D+03 IAcc=3 IRadAn=         5 AccDes= 0.00D+00
 Harris functional with IExCor= 1009 and IRadAn=       5 diagonalized for initial guess.
 HarFok:  IExCor= 1009 AccDes= 0.00D+00 IRadAn=         5 IDoV= 1 UseB2=F ITyADJ=14
 ICtDFT=  3500011 ScaDFX=  1.000000  1.000000  1.000000  1.000000
 FoFCou: FMM=F IPFlag=           0 FMFlag=      100000 FMFlg1=           0
         NFxFlg=           0 DoJE=T BraDBF=F KetDBF=T FulRan=T
         wScrn=  0.000000 ICntrl=       500 IOpCl=  0 I1Cent=   200000004 NGrid=           0
         NMat0=    1 NMatS0=      1 NMatT0=    0 NMatD0=    1 NMtDS0=    0 NMtDT0=    0
 Symmetry not used in FoFCou.
 Harris En= -643.937460496016    
 JPrj=0 DoOrth=F DoCkMO=F.
 Leave Link  401 at Wed May 18 21:10:32 2022, MaxMem=   671088640 cpu:               3.6 elap:               0.5
 (Enter /data0/hywu0/study/g16/l502.exe)
 Keep R1 ints in memory in canonical form, NReq=93017836.
 FoFCou: FMM=F IPFlag=           0 FMFlag=           0 FMFlg1=           0
         NFxFlg=           0 DoJE=F BraDBF=F KetDBF=F FulRan=T
         wScrn=  0.000000 ICntrl=       600 IOpCl=  0 I1Cent=           0 NGrid=           0
         NMat0=    1 NMatS0=  13041 NMatT0=    0 NMatD0=    1 NMtDS0=    0 NMtDT0=    0
 Symmetry not used in FoFCou.
 Two-electron integral symmetry not used.
 Closed shell SCF:
 Using DIIS extrapolation, IDIIS=  1040.
 NGot=   671088640 LenX=   585986410 LenY=   585956728
 Requested convergence on RMS density matrix=1.00D-08 within 128 cycles.
 Requested convergence on MAX density matrix=1.00D-06.
 Requested convergence on             energy=1.00D-06.
 No special actions if energy rises.

 Cycle   1  Pass 1  IDiag  1:
 E= -643.839972694348    
 DIIS: error= 5.06D-02 at cycle   1 NSaved=   1.
 NSaved= 1 IEnMin= 1 EnMin= -643.839972694348     IErMin= 1 ErrMin= 5.06D-02
 ErrMax= 5.06D-02  0.00D+00 EMaxC= 1.00D-01 BMatC= 5.12D-01 BMatP= 5.12D-01
 IDIUse=3 WtCom= 4.94D-01 WtEn= 5.06D-01
 Coeff-Com:  0.100D+01
 Coeff-En:   0.100D+01
 Coeff:      0.100D+01
 Gap=     0.229 Goal=   None    Shift=    0.000
 GapD=    0.229 DampG=1.000 DampE=0.500 DampFc=0.5000 IDamp=-1.
 Damping current iteration by 5.00D-01
 RMSDP=8.09D-03 MaxDP=2.26D-01              OVMax= 2.78D-01

 Cycle   2  Pass 1  IDiag  1:
 E= -643.956768500501     Delta-E=       -0.116795806152 Rises=F Damp=T
 DIIS: error= 1.06D-02 at cycle   2 NSaved=   2.
 NSaved= 2 IEnMin= 2 EnMin= -643.956768500501     IErMin= 2 ErrMin= 1.06D-02
 ErrMax= 1.06D-02  0.00D+00 EMaxC= 1.00D-01 BMatC= 2.82D-02 BMatP= 5.12D-01
 IDIUse=3 WtCom= 8.94D-01 WtEn= 1.06D-01
 Coeff-Com:  0.791D-01 0.921D+00
 Coeff-En:   0.215D+00 0.785D+00
 Coeff:      0.935D-01 0.907D+00
 Gap=     0.333 Goal=   None    Shift=    0.000
 RMSDP=1.96D-03 MaxDP=7.39D-02 DE=-1.17D-01 OVMax= 1.83D-01

 Cycle   3  Pass 1  IDiag  1:
 E= -644.128538591609     Delta-E=       -0.171770091108 Rises=F Damp=F
 DIIS: error= 7.09D-03 at cycle   3 NSaved=   3.
 NSaved= 3 IEnMin= 3 EnMin= -644.128538591609     IErMin= 3 ErrMin= 7.09D-03
 ErrMax= 7.09D-03  0.00D+00 EMaxC= 1.00D-01 BMatC= 1.04D-02 BMatP= 2.82D-02
 IDIUse=3 WtCom= 9.29D-01 WtEn= 7.09D-02
 Coeff-Com: -0.116D-01 0.337D+00 0.675D+00
 Coeff-En:   0.000D+00 0.000D+00 0.100D+01
 Coeff:     -0.108D-01 0.313D+00 0.698D+00
 Gap=     0.323 Goal=   None    Shift=    0.000
 RMSDP=6.85D-04 MaxDP=1.52D-02 DE=-1.72D-01 OVMax= 3.57D-02

 Cycle   4  Pass 1  IDiag  1:
 E= -644.133160603393     Delta-E=       -0.004622011784 Rises=F Damp=F
 DIIS: error= 4.35D-03 at cycle   4 NSaved=   4.
 NSaved= 4 IEnMin= 4 EnMin= -644.133160603393     IErMin= 4 ErrMin= 4.35D-03
 ErrMax= 4.35D-03  0.00D+00 EMaxC= 1.00D-01 BMatC= 4.08D-03 BMatP= 1.04D-02
 IDIUse=3 WtCom= 9.56D-01 WtEn= 4.35D-02
 Coeff-Com: -0.206D-01 0.467D-01 0.405D+00 0.569D+00
 Coeff-En:   0.000D+00 0.000D+00 0.282D+00 0.718D+00
 Coeff:     -0.197D-01 0.447D-01 0.400D+00 0.575D+00
 Gap=     0.329 Goal=   None    Shift=    0.000
 RMSDP=2.72D-04 MaxDP=6.34D-03 DE=-4.62D-03 OVMax= 1.16D-02

 Cycle   5  Pass 1  IDiag  1:
 E= -644.135865080340     Delta-E=       -0.002704476947 Rises=F Damp=F
 DIIS: error= 2.39D-04 at cycle   5 NSaved=   5.
 NSaved= 5 IEnMin= 5 EnMin= -644.135865080340     IErMin= 5 ErrMin= 2.39D-04
 ErrMax= 2.39D-04  0.00D+00 EMaxC= 1.00D-01 BMatC= 1.72D-05 BMatP= 4.08D-03
 IDIUse=3 WtCom= 9.98D-01 WtEn= 2.39D-03
 Coeff-Com: -0.222D-02-0.470D-03 0.570D-01 0.117D+00 0.828D+00
 Coeff-En:   0.000D+00 0.000D+00 0.000D+00 0.000D+00 0.100D+01
 Coeff:     -0.222D-02-0.469D-03 0.569D-01 0.117D+00 0.829D+00
 Gap=     0.328 Goal=   None    Shift=    0.000
 RMSDP=2.93D-05 MaxDP=7.36D-04 DE=-2.70D-03 OVMax= 8.03D-04

 Cycle   6  Pass 1  IDiag  1:
 E= -644.135876392798     Delta-E=       -0.000011312458 Rises=F Damp=F
 DIIS: error= 8.37D-05 at cycle   6 NSaved=   6.
 NSaved= 6 IEnMin= 6 EnMin= -644.135876392798     IErMin= 6 ErrMin= 8.37D-05
 ErrMax= 8.37D-05  0.00D+00 EMaxC= 1.00D-01 BMatC= 1.69D-06 BMatP= 1.72D-05
 IDIUse=1 WtCom= 1.00D+00 WtEn= 0.00D+00
 Coeff-Com: -0.613D-05-0.176D-02 0.342D-02 0.153D-01 0.261D+00 0.722D+00
 Coeff:     -0.613D-05-0.176D-02 0.342D-02 0.153D-01 0.261D+00 0.722D+00
 Gap=     0.328 Goal=   None    Shift=    0.000
 RMSDP=1.10D-05 MaxDP=2.79D-04 DE=-1.13D-05 OVMax= 2.92D-04

 Cycle   7  Pass 1  IDiag  1:
 E= -644.135877492039     Delta-E=       -0.000001099241 Rises=F Damp=F
 DIIS: error= 4.55D-05 at cycle   7 NSaved=   7.
 NSaved= 7 IEnMin= 7 EnMin= -644.135877492039     IErMin= 7 ErrMin= 4.55D-05
 ErrMax= 4.55D-05  0.00D+00 EMaxC= 1.00D-01 BMatC= 3.97D-07 BMatP= 1.69D-06
 IDIUse=1 WtCom= 1.00D+00 WtEn= 0.00D+00
 Coeff-Com:  0.381D-03-0.651D-03-0.904D-02-0.144D-01-0.232D-01 0.325D+00
 Coeff-Com:  0.722D+00
 Coeff:      0.381D-03-0.651D-03-0.904D-02-0.144D-01-0.232D-01 0.325D+00
 Coeff:      0.722D+00
 Gap=     0.328 Goal=   None    Shift=    0.000
 RMSDP=4.68D-06 MaxDP=9.87D-05 DE=-1.10D-06 OVMax= 1.35D-04

 Cycle   8  Pass 1  IDiag  1:
 E= -644.135877767001     Delta-E=       -0.000000274962 Rises=F Damp=F
 DIIS: error= 9.66D-06 at cycle   8 NSaved=   8.
 NSaved= 8 IEnMin= 8 EnMin= -644.135877767001     IErMin= 8 ErrMin= 9.66D-06
 ErrMax= 9.66D-06  0.00D+00 EMaxC= 1.00D-01 BMatC= 2.98D-08 BMatP= 3.97D-07
 IDIUse=1 WtCom= 1.00D+00 WtEn= 0.00D+00
 Coeff-Com:  0.138D-03-0.165D-03-0.379D-02-0.606D-02-0.173D-01 0.916D-01
 Coeff-Com:  0.300D+00 0.636D+00
 Coeff:      0.138D-03-0.165D-03-0.379D-02-0.606D-02-0.173D-01 0.916D-01
 Coeff:      0.300D+00 0.636D+00
 Gap=     0.328 Goal=   None    Shift=    0.000
 RMSDP=8.83D-07 MaxDP=2.69D-05 DE=-2.75D-07 OVMax= 3.55D-05

 Cycle   9  Pass 1  IDiag  1:
 E= -644.135877790221     Delta-E=       -0.000000023220 Rises=F Damp=F
 DIIS: error= 1.84D-06 at cycle   9 NSaved=   9.
 NSaved= 9 IEnMin= 9 EnMin= -644.135877790221     IErMin= 9 ErrMin= 1.84D-06
 ErrMax= 1.84D-06  0.00D+00 EMaxC= 1.00D-01 BMatC= 9.50D-10 BMatP= 2.98D-08
 IDIUse=1 WtCom= 1.00D+00 WtEn= 0.00D+00
 Coeff-Com: -0.270D-04 0.535D-04 0.264D-03 0.576D-03-0.792D-03-0.194D-01
 Coeff-Com: -0.288D-01 0.778D-01 0.970D+00
 Coeff:     -0.270D-04 0.535D-04 0.264D-03 0.576D-03-0.792D-03-0.194D-01
 Coeff:     -0.288D-01 0.778D-01 0.970D+00
 Gap=     0.328 Goal=   None    Shift=    0.000
 RMSDP=3.73D-07 MaxDP=9.72D-06 DE=-2.32D-08 OVMax= 1.31D-05

 Cycle  10  Pass 1  IDiag  1:
 E= -644.135877791404     Delta-E=       -0.000000001183 Rises=F Damp=F
 DIIS: error= 2.82D-07 at cycle  10 NSaved=  10.
 NSaved=10 IEnMin=10 EnMin= -644.135877791404     IErMin=10 ErrMin= 2.82D-07
 ErrMax= 2.82D-07  0.00D+00 EMaxC= 1.00D-01 BMatC= 2.95D-11 BMatP= 9.50D-10
 IDIUse=1 WtCom= 1.00D+00 WtEn= 0.00D+00
 Coeff-Com: -0.527D-05 0.918D-05 0.130D-03 0.221D-03 0.442D-03-0.518D-02
 Coeff-Com: -0.140D-01-0.116D-01 0.100D+00 0.930D+00
 Coeff:     -0.527D-05 0.918D-05 0.130D-03 0.221D-03 0.442D-03-0.518D-02
 Coeff:     -0.140D-01-0.116D-01 0.100D+00 0.930D+00
 Gap=     0.328 Goal=   None    Shift=    0.000
 RMSDP=7.47D-08 MaxDP=1.18D-06 DE=-1.18D-09 OVMax= 3.25D-06

 Cycle  11  Pass 1  IDiag  1:
 E= -644.135877791437     Delta-E=       -0.000000000033 Rises=F Damp=F
 DIIS: error= 3.46D-07 at cycle  11 NSaved=  11.
 NSaved=11 IEnMin=11 EnMin= -644.135877791437     IErMin=10 ErrMin= 2.82D-07
 ErrMax= 3.46D-07  0.00D+00 EMaxC= 1.00D-01 BMatC= 1.97D-11 BMatP= 2.95D-11
 IDIUse=1 WtCom= 1.00D+00 WtEn= 0.00D+00
 Coeff-Com:  0.246D-06-0.961D-06 0.410D-04 0.563D-04 0.310D-03-0.828D-03
 Coeff-Com: -0.447D-02-0.134D-01-0.465D-01 0.503D+00 0.562D+00
 Coeff:      0.246D-06-0.961D-06 0.410D-04 0.563D-04 0.310D-03-0.828D-03
 Coeff:     -0.447D-02-0.134D-01-0.465D-01 0.503D+00 0.562D+00
 Gap=     0.328 Goal=   None    Shift=    0.000
 RMSDP=2.35D-08 MaxDP=6.31D-07 DE=-3.33D-11 OVMax= 8.60D-07

 Cycle  12  Pass 1  IDiag  1:
 E= -644.135877791459     Delta-E=       -0.000000000021 Rises=F Damp=F
 DIIS: error= 4.50D-08 at cycle  12 NSaved=  12.
 NSaved=12 IEnMin=12 EnMin= -644.135877791459     IErMin=12 ErrMin= 4.50D-08
 ErrMax= 4.50D-08  0.00D+00 EMaxC= 1.00D-01 BMatC= 5.36D-13 BMatP= 1.97D-11
 IDIUse=1 WtCom= 1.00D+00 WtEn= 0.00D+00
 Coeff-Com:  0.725D-06-0.137D-05-0.597D-05-0.126D-04 0.939D-05 0.417D-03
 Coeff-Com:  0.875D-03-0.985D-03-0.230D-01-0.406D-02 0.124D+00 0.903D+00
 Coeff:      0.725D-06-0.137D-05-0.597D-05-0.126D-04 0.939D-05 0.417D-03
 Coeff:      0.875D-03-0.985D-03-0.230D-01-0.406D-02 0.124D+00 0.903D+00
 Gap=     0.328 Goal=   None    Shift=    0.000
 RMSDP=9.13D-09 MaxDP=1.79D-07 DE=-2.14D-11 OVMax= 3.96D-07

 SCF Done:  E(RM062X) =  -644.135877791     A.U. after   12 cycles
            NFock= 12  Conv=0.91D-08     -V/T= 2.0026
 KE= 6.424888814181D+02 PE=-2.087128390755D+03 EE= 5.207410967262D+02
 Leave Link  502 at Wed May 18 21:10:43 2022, MaxMem=   671088640 cpu:              79.0 elap:              10.9
 (Enter /data0/hywu0/study/g16/l601.exe)
 Copying SCF densities to generalized density rwf, IOpCl= 0 IROHF=0.

 **********************************************************************

            Population analysis using the SCF density.

 **********************************************************************

 Alpha  occ. eigenvalues --  -78.16844 -19.69547 -19.69195 -19.68136 -19.58015
 Alpha  occ. eigenvalues --   -6.97634  -5.09549  -5.09542  -5.09286  -1.24579
 Alpha  occ. eigenvalues --   -1.17276  -1.16770  -1.08386  -0.72714  -0.65740
 Alpha  occ. eigenvalues --   -0.63801  -0.58918  -0.53350  -0.51801  -0.50003
 Alpha  occ. eigenvalues --   -0.46281  -0.45376  -0.45118  -0.37924  -0.36883
 Alpha virt. eigenvalues --   -0.04077   0.00903   0.02881   0.04624   0.08177
 Alpha virt. eigenvalues --    0.08889   0.10596   0.12829   0.15896   0.17333
 Alpha virt. eigenvalues --    0.17451   0.18398   0.19468   0.19876   0.21186
 Alpha virt. eigenvalues --    0.22421   0.24293   0.25709   0.25876   0.27503
 Alpha virt. eigenvalues --    0.28366   0.28611   0.30195   0.31930   0.33059
 Alpha virt. eigenvalues --    0.34062   0.36499   0.38210   0.40216   0.43133
 Alpha virt. eigenvalues --    0.44224   0.44729   0.52339   0.55923   0.57297
 Alpha virt. eigenvalues --    0.73478   0.76035   0.76376   0.86009   0.97873
 Alpha virt. eigenvalues --    0.99802   1.00270   1.05018   1.06014   1.11728
 Alpha virt. eigenvalues --    1.14089   1.15174   1.18574   1.19363   1.20163
 Alpha virt. eigenvalues --    1.21912   1.22734   1.26397   1.26634   1.32427
 Alpha virt. eigenvalues --    1.33001   1.42308   1.42554   1.49760   1.51505
 Alpha virt. eigenvalues --    1.52504   1.55162   1.57938   1.59270   1.64230
 Alpha virt. eigenvalues --    1.66193   1.67643   1.70293   1.72491   1.82455
 Alpha virt. eigenvalues --    1.83263   1.84747   1.87411   1.89438   1.97121
 Alpha virt. eigenvalues --    1.99164   2.04197   2.09480   2.11787   2.13847
 Alpha virt. eigenvalues --    2.18336   2.21287   2.25491   2.36924   2.42246
 Alpha virt. eigenvalues --    2.44337   2.57004   2.61606   2.61766   2.70515
 Alpha virt. eigenvalues --    2.72588   2.80765   2.86508   2.90304   2.94271
 Alpha virt. eigenvalues --    5.01134   5.03162   5.06233   5.06438   5.10500
 Alpha virt. eigenvalues --    5.13548   5.17207   5.23458   5.35166   5.43472
 Alpha virt. eigenvalues --    5.44673   5.51654   6.71683   6.73818   6.74842
 Alpha virt. eigenvalues --    6.76530   6.79521   6.80502   6.82762   6.85234
 Alpha virt. eigenvalues --    6.91561   6.92213   6.93981   6.98180   7.00303
 Alpha virt. eigenvalues --    7.00779   7.10529   7.24664   7.25734   7.27862
 Alpha virt. eigenvalues --    7.31441   7.40371   7.64196  14.23380  14.23655
 Alpha virt. eigenvalues --   14.34128  49.97397  49.98955  50.00458  50.10487
 Alpha virt. eigenvalues --  163.85400
          Condensed to atoms (all electrons):
              25         26         27         28         29         30
    25  P   12.473834   0.558700   0.231300   0.000573   0.172544   0.043484
    26  O    0.558700   8.130319  -0.008592  -0.015201  -0.033290   0.002241
    27  O    0.231300  -0.008592   8.054034   0.254769   0.006830  -0.013265
    28  H    0.000573  -0.015201   0.254769   0.457389  -0.000672   0.001821
    29  O    0.172544  -0.033290   0.006830  -0.000672   8.114203   0.222629
    30  H    0.043484   0.002241  -0.013265   0.001821   0.222629   0.451098
    31  O    0.231498  -0.006451   0.036184  -0.004328   0.003727  -0.013821
    32  H    0.000861  -0.014426  -0.003300  -0.003594  -0.000146   0.001739
              31         32
    25  P    0.231498   0.000861
    26  O   -0.006451  -0.014426
    27  O    0.036184  -0.003300
    28  H   -0.004328  -0.003594
    29  O    0.003727  -0.000146
    30  H   -0.013821   0.001739
    31  O    8.052843   0.254434
    32  H    0.254434   0.453786
 Mulliken charges:
               1
     1  C    0.000000
     2  C    0.000000
     3  C    0.000000
     4  N    0.000000
     5  H    0.000000
     6  H    0.000000
     7  H    0.000000
     8  C    0.000000
     9  H    0.000000
    10  H    0.000000
    11  H    0.000000
    12  N    0.000000
    13  C    0.000000
    14  H    0.000000
    15  H    0.000000
    16  C    0.000000
    17  H    0.000000
    18  H    0.000000
    19  C    0.000000
    20  H    0.000000
    21  H    0.000000
    22  C    0.000000
    23  O    0.000000
    24  O    0.000000
    25  P    1.287206
    26  O   -0.613301
    27  O   -0.557960
    28  H    0.309244
    29  O   -0.485825
    30  H    0.304074
    31  O   -0.554085
    32  H    0.310646
 Sum of Mulliken charges =  -0.00000
 Mulliken charges with hydrogens summed into heavy atoms:
               1
     1  C    0.000000
     2  C    0.000000
     3  C    0.000000
     4  N    0.000000
     8  C    0.000000
    12  N    0.000000
    13  C    0.000000
    16  C    0.000000
    19  C    0.000000
    22  C    0.000000
    23  O    0.000000
    24  O    0.000000
    25  P    1.287206
    26  O   -0.613301
    27  O   -0.248716
    29  O   -0.181751
    31  O   -0.243439
         Mulliken charges condensed to fragments:
      1      0.000000
      2     -0.000000
 Electronic spatial extent (au):  <R**2>=          65225.4988
 Charge=             -0.0000 electrons
 Dipole moment (field-independent basis, Debye):
    X=             -3.3323    Y=              3.6636    Z=             -2.8197  Tot=              5.6988
 Quadrupole moment (field-independent basis, Debye-Ang):
   XX=            -79.4367   YY=             56.0698   ZZ=            -97.6863
   XY=            -18.9293   XZ=            -56.6413   YZ=             10.2389
 Traceless Quadrupole moment (field-independent basis, Debye-Ang):
   XX=            -39.0856   YY=             96.4209   ZZ=            -57.3353
   XY=            -18.9293   XZ=            -56.6413   YZ=             10.2389
 Octapole moment (field-independent basis, Debye-Ang**2):
  XXX=          -1103.6631  YYY=            343.9012  ZZZ=          -2357.7308  XYY=           -181.0498
  XXY=           -867.5258  XXZ=          -1074.2260  XZZ=          -1074.4559  YZZ=           -659.8529
  YYZ=            258.7293  XYZ=           -428.4943
 Hexadecapole moment (field-independent basis, Debye-Ang**3):
 XXXX=         -12383.2923 YYYY=          -6946.4898 ZZZZ=         -48461.1305 XXXY=         -13209.7251
 XXXZ=         -14240.8306 YYYX=          -4689.9191 YYYZ=          -1108.8915 ZZZX=         -20350.7698
 ZZZY=         -22603.5839 XXYY=         -10807.7933 XXZZ=         -15663.2137 YYZZ=          -6666.7789
 XXYZ=         -11903.3525 YYXZ=          -4683.4960 ZZXY=         -10018.7241
 N-N= 2.797625348190D+02 E-N=-2.087128395322D+03  KE= 6.424888814181D+02
 No NMR shielding tensors so no spin-rotation constants.
 Leave Link  601 at Wed May 18 21:10:43 2022, MaxMem=   671088640 cpu:               0.7 elap:               0.1
 (Enter /data0/hywu0/study/g16/l122.exe)
 CPIOFr:  IOpCl= 0 IRwI=-1 IRwCP=  731 ICalc=  4 LCPTot=      476096 Len1MO=     1252357 IndFrg=     6737881
 Restoring MOs from calculation   1 to rwf.
 CPIOFr:  IOpCl= 0 IRwI=-2 IRwCP=  731 ICalc=  0 LCPTot=      476096 Len1MO=     1252357 IndFrg=     1728453
 Counterpoise corrected energy =   -1216.156698565689
                   BSSE energy =       0.002583036928
              sum of fragments =   -1216.067096745064
           complexation energy =     -57.85 kcal/mole (raw)
           complexation energy =     -56.23 kcal/mole (corrected)
 Leave Link  122 at Wed May 18 21:10:43 2022, MaxMem=   671088640 cpu:               0.2 elap:               0.0
 (Enter /data0/hywu0/study/g16/l9999.exe)
 1\1\GINC-LOCALHOST\SP\RM062X\6-311+G(2d,p)\C8H15N2O6P1\HYWU0\18-May-20
 22\0\\#p M062X/6-311+G(2d,p) nosymm em=GD3 counterpoise=2\\Title Card 
 Required\\0,1\C,0,4.787407,8.882723,8.691109\C,0,5.303449,9.457646,7.5
 34868\C,0,6.164054,10.547574,9.309367\N,0,5.335858,9.569481,9.77563\H,
 0,4.09181,8.072748,8.805199\H,0,5.121412,9.220217,6.503848\H,0,6.74620
 6,11.261377,9.908949\C,0,4.953803,9.411846,11.167163\H,0,4.253263,10.2
 36933,11.460149\H,0,4.461026,8.444948,11.346787\H,0,5.837596,9.499578,
 11.839597\N,0,6.166841,10.477662,7.934524\C,0,6.755019,11.509402,7.079
 983\H,0,7.378663,11.022562,6.297396\H,0,7.43866,12.145724,7.708806\C,0
 ,5.692298,12.422793,6.431451\H,0,6.21523,13.348926,6.100371\H,0,5.2886
 56,11.948756,5.5181\C,0,4.53724,12.818318,7.352244\H,0,3.717943,12.078
 248,7.307063\H,0,4.096407,13.781197,7.032162\C,0,4.997969,12.976303,8.
 806663\O,0,5.993484,13.677935,9.034217\O,0,4.382556,12.287076,9.652869
 \P,0,6.329534,12.861526,12.471492\O,0,7.104123,11.634319,12.255673\O,0
 ,4.763566,12.692243,12.268883\H,0,4.561212,12.598947,11.220606\O,0,6.4
 61359,13.350253,13.983215\H,0,5.905125,14.216538,14.070411\O,0,6.76535
 7,14.133946,11.632884\H,0,6.472877,13.992277,10.618332\\Version=ES64L-
 G16RevA.03\HF=-644.1358778\RMSD=9.125e-09\Dipole=-1.0314427,-2.4756116
 ,-3.1567391\Quadrupole=53.449345,-20.7160477,-32.7332973,-47.4289631,-
 59.8115531,-112.1136417\PG=C01 [X(C8H15N2O6P1)]\\@


 The hours that make us happy make us wise.
                         -- John Masefield
 Job cpu time:       0 days  2 hours 40 minutes 53.2 seconds.
 Elapsed time:       0 days  0 hours 20 minutes 11.2 seconds.
 File lengths (MBytes):  RWF=    234 Int=      0 D2E=      0 Chk=     70 Scr=      1
 Normal termination of Gaussian 16 at Wed May 18 21:10:44 2022.
