          44
 G =       -0.714906 Gcorr = 0.257164 a.u. Nimag =   0 Frame:     1 Step:     1 Geom:     1
C           3.91399300      3.06085300      7.92988400
C           4.10291500      2.81501400      9.28452400
C           3.14357700      4.84299600      9.06898600
N           3.30742700      4.31093500      7.82022300
H           4.19890900      2.46066700      7.08033600
H           4.54939300      1.96356500      9.77352400
H           2.71961500      5.81930100      9.31163200
C           2.94931300      4.94402800      6.56428800
H           2.28193100      4.29478200      5.97329500
H           2.44981200      5.92366900      6.72439500
H           3.86740100      5.15790400      5.96317700
N           3.61932800      3.92629500      9.97420500
C           3.70592900      4.10885000     11.42413700
H           3.13613800      3.28803600     11.91698300
H           3.20658000      5.07369800     11.70502400
C           5.17321200      4.11685800     11.89835700
H           5.27012500      3.49639100     12.81081500
H           5.83649900      3.63626200     11.14503100
C           5.67613900      5.52985400     12.18156100
H           6.72335700      5.50585300     12.54368300
H           5.08323400      6.02501800     12.97203700
C           5.60259100      6.35672900     10.90132600
O           4.48128800      6.82995300     10.59283600
O           6.63798200      6.49811200     10.22959200
P           5.45857900      7.69050400      7.14525200
O           6.04268100      6.64548200      6.30554600
O           6.39074800      8.34179200      8.25689500
H           6.60151400      7.61104400      8.99983700
O           4.91941600      8.92693300      6.32541100
H           4.42740300      9.56788600      7.00198400
O           4.17183300      7.14559400      7.92659700
H           4.32214100      7.14551900      8.96214800
O           3.65498400     10.74734800      8.21227500
H           4.10502500     11.58845900      8.21882000
H           3.90591400     10.33592900      9.06732500
O           6.39115500      2.07705900      8.23348700
H           7.16125200      1.54907200      8.04653400
H           6.73340200      2.99740800      8.26837400
O           4.77729600      9.63949100     10.50571000
H           5.62195700      9.53515400     10.05121400
H           4.50667500      8.70965300     10.64358200
O           7.45345000      4.58760900      8.28968900
H           7.27469600      5.17758000      9.04410900
H           7.19319700      5.11486600      7.52537600
          44
 G =       -0.717710 Gcorr = 0.257092 a.u. Nimag =   0 Frame:     2 Step:     2 Geom:     2
C           3.66561400      4.52369500      7.47556000
C           4.33398600      3.61988300      8.29384100
C           2.92980100      4.81660600      9.58375100
N           2.79339700      5.24554000      8.28994300
H           3.78155500      4.72093900      6.41894500
H           5.09532100      2.89604800      8.04495100
H           2.41559000      5.22304800     10.44680400
C           2.01456700      6.40202800      7.88146200
H           2.25737500      7.28427700      8.52283300
H           2.27387200      6.70576900      6.84375600
H           0.93304000      6.19943000      7.94286000
N           3.86243100      3.81200300      9.59326000
C           4.35305300      3.13389100     10.79214600
H           4.70985100      2.11053800     10.49744700
H           3.51103200      3.00015700     11.50760700
C           5.51611900      3.88715900     11.46269400
H           5.88013100      3.26929200     12.30990900
H           6.38614400      3.94153100     10.76797100
C           5.16575000      5.28964300     11.94955900
H           5.84587600      5.59247400     12.77144500
H           4.14460600      5.34826300     12.35722600
C           5.34479700      6.28118700     10.79819100
O           4.29299700      6.71862200     10.26422300
O           6.49315300      6.56005800     10.43057100
P           6.09648000      7.32897200      7.01402400
O           6.88348600      6.21191100      6.49803100
O           6.72372600      8.17656300      8.20452700
H           6.70860300      7.59899300      9.08785500
O           5.75295700      8.41712900      5.91968300
H           5.16487800      9.15420200      6.38899200
O           4.65207600      6.86967200      7.53023000
H           4.58570600      6.89636400      8.56503800
O           4.26403200     10.45499900      7.36580600
H           5.03037200     10.88984000      7.74319000
H           3.85843500      9.99860100      8.12616000
O           6.90842600      2.00883900      9.34126100
H           7.65291600      1.42714800      9.23005900
H           7.27507900      2.90729600      9.19179700
O           3.28452300      9.19690400      9.75245500
H           3.44713600      9.68083400     10.55506200
H           3.70831700      8.32262300      9.90808800
O           7.93919700      4.53899800      8.95296400
H           7.57572800      5.22281700      9.54471700
H           7.80787000      4.91522800      8.07312000
          44
 G =       -0.716935 Gcorr = 0.232899 a.u. Nimag =   0 Frame:     3 Step:     3 Geom:     3
C           3.76543900      2.75662300      7.62706400
C           3.96545100      2.60785000      8.99672100
C           3.35396300      4.75035300      8.60634300
N           3.38607100      4.08861300      7.40148800
H           3.88568600      2.02804000      6.84095000
H           4.32704000      1.74456100      9.54644100
H           3.13259900      5.83303400      8.75079400
C           3.14568500      4.70562700      6.09491800
H           2.33433200      5.45564700      6.14347300
H           4.06799800      5.26755000      5.76361400
H           2.89800100      3.95631700      5.32787000
N           3.69687100      3.84718900      9.59627800
C           3.84819400      4.16966400     11.03502000
H           3.24522300      3.44327500     11.62525900
H           3.40912400      5.18644100     11.22500200
C           5.32490300      4.13265800     11.46132500
H           5.46759900      3.36965100     12.25211600
H           5.97490200      3.78021600     10.61864000
C           5.82570400      5.48647700     11.96098600
H           6.90041100      5.41276200     12.23299600
H           5.29502800      5.79453900     12.88440800
C           5.65313300      6.56033000     10.90161900
O           4.59800600      7.24307800     10.88034300
O           6.59903700      6.72276900     10.06732600
P           4.89596700      7.86305800      7.39242400
O           5.22994300      6.60678100      6.67178900
O           5.99848300      8.51842800      8.38489200
H           6.50921800      7.81384900      9.08718400
O           4.40214900      9.12515000      6.54865700
H           4.42275700     10.08374600      7.10882300
O           3.65647500      7.54978700      8.45689400
H           3.85150500      7.79561800      9.44959300
O           4.78702400     10.99829600      8.26053800
H           5.67694600     10.66902400      8.51526200
H           4.22011300     10.75277200      9.04001000
O           6.57594700      2.23184300      9.28765500
H           7.48891600      1.98940100      9.39317900
H           6.57084000      2.97902100      8.64113000
O           4.71385700      9.75086100     10.48281000
H           4.14851200      9.20409200     11.04782400
H           5.48478100      9.18948600     10.28535000
O           6.66926700      4.67519600      8.18598000
H           6.93922400      5.31578800      8.86648600
H           6.28767900      5.19454500      7.45254800
          44
 G =       -0.715361 Gcorr = 0.250297 a.u. Nimag =   0 Frame:     4 Step:     4 Geom:     4
C           3.51286400      2.37473300      8.12623300
C           3.47524600      2.30497800      9.51374200
C           3.75875300      4.46294900      8.93351000
N           3.67621000      3.71735600      7.78823200
H           3.47331500      1.58750000      7.39022000
H           3.36765700      1.45314600     10.15653400
H           3.91052100      5.55349400      9.00307900
C           3.84053600      4.23013900      6.43916800
H           4.92383700      4.31350500      6.18461200
H           3.37627300      3.55703200      5.69882500
H           3.39615400      5.24395400      6.33561800
N           3.61893600      3.60836300      9.99436600
C           3.70995000      3.98713600     11.40440100
H           3.07972300      3.29883000     12.00750200
H           3.27734200      5.02155100     11.52632500
C           5.17538400      3.96772700     11.88646200
H           5.27730600      3.29639200     12.75948200
H           5.83939000      3.53725700     11.10407300
C           5.66653700      5.36932700     12.24643000
H           6.70138700      5.33442500     12.63739000
H           5.04757600      5.83173700     13.03489500
C           5.62516600      6.23785400     10.98752100
O           4.49852800      6.65737900     10.63646100
O           6.68672500      6.40264300     10.36070400
P           5.42742600      7.97321500      7.51958900
O           5.28886200      6.64193400      6.90812800
O           6.77243400      8.23562700      8.31422700
H           6.80818500      7.54634200      9.12841000
O           5.34176000      9.12346400      6.44293900
H           5.48658300     10.04419000      6.93844700
O           4.25715700      8.30091700      8.55435500
H           4.37184800      7.68695600      9.42437300
O           5.65225300     11.63009300      7.81392500
H           6.44281900     11.53135300      8.34724100
H           4.91678500     11.53384000      8.44718200
O           5.88930300      2.00082400      7.04272400
H           6.72981000      1.61260700      6.81763600
H           6.10796900      2.77147200      7.58990000
O           3.55755000     10.94729000      9.54544500
H           3.77848000     10.01430500      9.37839300
H           2.71554200     11.06863700      9.10907800
O           6.36100500      4.39421200      8.47790900
H           6.70623100      4.92409400      9.22355700
H           6.16268500      5.07922700      7.82078100
          44
 G =       -0.714617 Gcorr = 0.234151 a.u. Nimag =   0 Frame:     5 Step:     5 Geom:     5
C           4.46272400      3.23517300      7.89250100
C           4.72071000      3.01691500      9.24283500
C           3.17277700      4.65960000      9.08350700
N           3.49426200      4.24278500      7.80913100
H           4.92482200      2.78813000      7.01149600
H           5.44281600      2.35435900      9.70061100
H           2.51298200      5.48833500      9.34164600
C           2.95596900      4.81538600      6.57180700
H           3.70791300      4.72100200      5.74452300
H           2.03305800      4.29860000      6.26087300
H           2.74440500      5.90008100      6.69317400
N           3.90494800      3.89368000      9.97417600
C           3.81806400      3.98276900     11.45180200
H           3.45513400      3.00008900     11.83455200
H           3.04359400      4.74530900     11.71877800
C           5.16320100      4.34548600     12.09655700
H           5.34820900      3.68128400     12.96367600
H           6.01126900      4.14181100     11.38888500
C           5.22786300      5.80390900     12.54871600
H           6.15153900      5.97157900     13.14339800
H           4.38125500      6.06387800     13.21301800
C           5.24239200      6.73269700     11.34636900
O           4.14632800      7.20562800     10.92839800
O           6.35965800      6.97853900     10.81072700
P           5.49622000      7.19184900      7.60885000
O           6.15018300      5.88201800      7.33260500
O           6.21385200      8.23253000      8.61018300
H           6.46372600      7.86813500      9.62718900
O           5.15205800      8.11675900      6.34400200
H           4.96705800      9.17260500      6.61325200
O           4.01982500      6.96953300      8.32109000
H           3.92342700      7.34236500      9.29705200
O           4.78931800     10.31766600      7.62429700
H           5.41042200     10.08459500      8.36649900
H           3.90416900     10.22839000      8.03501900
O           5.60108400      4.04739600      5.39242700
H           6.00199100      4.70900500      6.01764600
H           6.10772200      4.10822900      4.59268000
O           3.97552800      9.79479400      9.91506500
H           3.94677200     10.38737700     10.65511900
H           4.07326700      8.88413800     10.29307200
O           7.10350300      4.47830700      9.66879600
H           7.30140900      5.32389900     10.10356300
H           6.91257600      4.71339600      8.74046300
          44
 G =       -0.718254 Gcorr = 0.251389 a.u. Nimag =   0 Frame:     6 Step:     6 Geom:     6
C           3.34829200      2.45477000      7.93242300
C           2.99031900      2.54423000      9.27327300
C           3.74273200      4.56131100      8.61534600
N           3.80092400      3.71428300      7.54359800
H           3.34538900      1.60362300      7.26963300
H           2.60511400      1.79109100      9.93326300
H           4.04079100      5.61847500      8.63067200
C           4.35077200      4.05520000      6.24335100
H           5.45645200      3.90719300      6.23917500
H           3.91952600      3.42368000      5.44921000
H           4.16697500      5.12482400      5.99568900
N           3.23246700      3.85901500      9.67523200
C           3.07324900      4.38714900     11.02975800
H           2.25951100      3.83161100     11.54541300
H           2.73742200      5.45906600     10.96191700
C           4.39625700      4.29072900     11.81707600
H           4.25609700      3.66494300     12.71865800
H           5.17579200      3.76756700     11.21794900
C           4.91217700      5.67204900     12.21543000
H           5.80809700      5.58301800     12.86107200
H           4.16339100      6.23982700     12.79630700
C           5.28443000      6.44010100     10.94960300
O           4.41801800      7.18581900     10.44428500
O           6.41464100      6.23789800     10.46138800
P           6.13185800      7.54068900      7.20269600
O           6.50704900      6.28085700      6.55633800
O           6.98962400      7.99356300      8.46001700
H           6.87546800      7.27510200      9.23537600
O           6.16058000      8.79065900      6.24578400
H           5.70580300      9.59109500      6.77206600
O           4.61354600      7.45757600      7.72273800
H           4.55785400      7.52432200      8.76074000
O           4.75839800     10.82705500      7.73301500
H           3.84779200     10.54887800      7.64088300
H           4.97833100     10.60464600      8.66284300
O           5.79459200      1.59321000      7.60022800
H           6.58321400      1.06162300      7.65712000
H           6.01296600      2.41856400      8.05973000
O           5.37003900      9.85832700     10.29192800
H           4.93667600      8.99163600     10.41400100
H           6.27222100      9.61682300     10.05573600
O           6.33396900      4.12635000      8.72775000
H           6.48273400      4.72723000      9.48859100
H           6.58845300      4.67432800      7.97271600
          44
 G =       -0.723260 Gcorr = 0.254259 a.u. Nimag =   0 Frame:     7 Step:     7 Geom:     7
C           2.69451100      5.38359400      7.48891100
C           2.48965100      5.48483800      8.86473900
C           3.71782900      3.63887700      8.47810900
N           3.45961800      4.24025400      7.27556300
H           2.39424300      6.04870900      6.69442700
H           2.01425300      6.26505300      9.43828800
H           4.32991100      2.74760600      8.62965200
C           4.00572700      3.81288900      6.00058900
H           5.01790500      3.36620700      6.12965300
H           3.34616100      3.07480600      5.51390300
H           4.14839500      4.68213900      5.32012000
N           3.11853700      4.39034600      9.45396800
C           3.13188200      4.09979100     10.88812300
H           2.53587100      3.17517100     11.06761300
H           2.61209700      4.94120000     11.41812600
C           4.55580600      3.94412800     11.44982600
H           4.57315800      3.12442000     12.19551900
H           5.27316700      3.62369500     10.65909500
C           5.05435900      5.23563700     12.09479500
H           6.01419100      5.05516200     12.62275200
H           4.34989200      5.62053900     12.85237700
C           5.25969800      6.28084100     11.00455500
O           4.26245100      6.87235200     10.54548000
O           6.43269400      6.46166300     10.60558400
P           5.91902900      6.98838400      7.15868900
O           6.26356200      5.68519900      6.58083800
O           6.89768200      7.59971900      8.23898300
H           6.74552100      7.12239100      9.18083100
O           5.81904100      8.12130900      6.05995600
H           5.43470500      8.98228100      6.54005400
O           4.44746100      6.96250500      7.79179600
H           4.44281400      7.02572900      8.82745300
O           4.54742600     10.32050900      7.44247600
H           4.76311300     10.14263500      8.38348100
H           3.62388700     10.08393500      7.37750000
O           6.30825700      3.18569200      8.28206300
H           6.40720900      3.95295000      7.70705500
H           6.87809400      3.39487900      9.04530800
O           5.05169900      9.55855100     10.10253400
H           4.69148400      8.67083000     10.29648900
H           5.99941400      9.40219100     10.05673700
O           7.77158400      4.11023300     10.44801400
H           7.32023500      4.98207600     10.56092500
H           8.66578200      4.33809500     10.20706600
          44
 G =       -0.715799 Gcorr = 0.252948 a.u. Nimag =   0 Frame:     8 Step:     8 Geom:     8
C           2.37164800      4.00623500      7.18595700
C           2.05293300      4.49474800      8.44889600
C           4.25528000      4.04429800      8.41574000
N           3.73229600      3.71576600      7.19325400
H           1.74875800      3.87230900      6.32203900
H           1.11380600      4.84846600      8.83159200
H           5.31009200      3.97503600      8.69877600
C           4.50098200      3.26213100      6.05041700
H           4.78835000      4.12570100      5.40638200
H           5.45731500      2.78313800      6.37182900
H           3.93051600      2.54017700      5.44494000
N           3.22611200      4.49186700      9.20271800
C           3.31825500      5.03566200     10.56048500
H           2.34092600      4.88790800     11.07395000
H           3.45207200      6.15305900     10.47226900
C           4.45535300      4.41076800     11.38478000
H           4.08125900      3.54654800     11.96518800
H           5.25533900      3.99911800     10.73441300
C           5.07982400      5.44443500     12.32249200
H           5.96768700      5.02592700     12.83056200
H           4.37729600      5.74681700     13.11965900
C           5.50776200      6.67776700     11.51597700
O           4.95324000      7.74973900     11.77977900
O           6.36237700      6.49726500     10.61317900
P           4.96619300      7.34859900      7.50993800
O           5.03083300      5.97949900      6.98535200
O           6.19615500      7.87208600      8.35140000
H           6.27379600      7.34358500      9.28792000
O           4.83988100      8.43453200      6.36417500
H           5.03712900      9.37476100      6.80385000
O           3.67007700      7.49335800      8.43612300
H           3.75465000      8.34487100      9.02085600
O           5.45844900     10.83136800      7.86633900
H           5.00051700     10.57402700      8.68707300
H           6.37985800     10.62888600      8.05342600
O           7.13882900      3.84918900      7.08324400
H           6.83863600      4.72699400      6.82960000
H           7.38213800      3.94369300      8.01819500
O           4.20057700      9.71034900     10.19591300
H           3.55930100     10.10416400     10.77423400
H           4.65729800      9.02086800     10.76632600
O           7.47569900      4.21966900      9.83968800
H           7.05975400      5.07843700     10.14029800
H           8.39076000      4.30618700     10.08079800
          44
 G =       -0.709126 Gcorr = 0.257766 a.u. Nimag =   0 Frame:     9 Step:     9 Geom:     9
C           2.33653300      3.26060700      7.70807000
C           2.20709800      3.15754200      9.08779200
C           3.52124100      4.93368600      8.64097300
N           3.13804400      4.37190800      7.45274600
H           1.93442400      2.63777000      6.93174000
H           1.67393700      2.43551500      9.67639600
H           4.17082300      5.81284600      8.77265000
C           3.56754200      4.80659200      6.13610900
H           4.66812000      4.65728600      6.01291500
H           3.05781200      4.24305900      5.33901500
H           3.36811200      5.88996800      5.98805900
N           2.93493500      4.20763200      9.64758900
C           3.05973000      4.47154700     11.08257100
H           2.32337300      3.84297600     11.63049300
H           2.76910600      5.53938600     11.27603400
C           4.48906800      4.19725200     11.58404000
H           4.47179500      3.41517500     12.36777500
H           5.11773000      3.76044400     10.77347400
C           5.15838300      5.45688000     12.12652100
H           6.14811500      5.20472900     12.56000200
H           4.56850300      5.91546900     12.93874900
C           5.34730100      6.47435200     10.99787000
O           4.39078300      7.21218500     10.71165000
O           6.45219000      6.46344100     10.41057900
P           6.57856300      7.19608800      6.94977300
O           6.86931400      5.79209400      6.64596000
O           7.13122700      7.87072800      8.25559500
H           6.79210900      7.32496400      9.12926700
O           7.11158000      8.15961400      5.79809600
H           7.18261000      9.11346400      6.18193600
O           4.98932000      7.35578100      6.98623200
H           4.69968800      8.32884400      7.17288100
O           4.02912900      9.93726600      7.57309000
H           4.35518300      9.98749800      8.50265900
H           3.08252800      9.89413500      7.66255300
O           5.59086300      3.64187000      8.28878500
H           6.01552500      4.24197800      7.66348400
H           6.24678200      3.60794400      9.01298200
O           4.66639900      9.82362400     10.22096600
H           4.04479300     10.08229600     10.88995500
H           4.73178000      8.83666900     10.32961500
O           7.53485900      4.00871600     10.22966000
H           8.36805100      4.13744300      9.78246300
H           7.19500200      4.93074700     10.37025400
          44
 G =       -0.715229 Gcorr = 0.238216 a.u. Nimag =   0 Frame:    10 Step:    10 Geom:    10
C           2.42868500      3.66770600      7.18450200
C           1.99193700      3.80639100      8.49673800
C           4.13970000      4.51716800      8.39891400
N           3.76161700      4.10873600      7.13853200
H           1.89764600      3.30154400      6.32153700
H           1.03031300      3.57409000      8.92241600
H           5.14017300      4.90806900      8.66624600
C           4.61236300      4.16244900      5.94679000
H           5.61099900      4.62137600      6.20187800
H           4.79361100      3.15517800      5.53862300
H           4.16803000      4.81178200      5.17105500
N           3.06020200      4.33606900      9.24377000
C           3.02360700      4.66858100     10.68846800
H           2.10031000      4.23748400     11.13332100
H           2.92522400      5.78948600     10.78362900
C           4.27028200      4.15797400     11.42662300
H           3.98267200      3.35435700     12.13342900
H           4.98381800      3.65450300     10.72108600
C           5.00908300      5.25815700     12.19111500
H           5.98532800      4.87124600     12.55350900
H           4.44093100      5.55940900     13.09565200
C           5.23803300      6.48544400     11.33082600
O           4.37471400      7.36897500     11.22716200
O           6.37007300      6.54074400     10.70308800
P           5.71675100      7.45849500      7.56895600
O           6.29612100      6.08431800      7.37740500
O           6.22605500      8.23657200      8.85572400
H           6.44259600      7.52541200      9.82646300
O           5.94736300      8.42154800      6.27474100
H           5.69365700      9.39649000      6.42754600
O           4.09508200      7.16242000      7.73868000
H           3.52830100      7.96543300      7.97863600
O           4.48421700      9.51550500      7.84663100
H           4.84286800      9.74181200      8.83817500
H           3.88944100     10.22258700      7.62947400
O           5.92215300      2.84190900      9.13949200
H           6.29866300      1.97563300      9.16015900
H           6.71459000      3.48773100      9.07918000
O           5.08763000      9.87362100     10.31692800
H           6.04651600      9.68991000     10.27133400
H           4.69785400      9.00138400     10.64431900
O           7.74524900      4.68716300      9.15588100
H           7.55871800      5.23870800      8.34999300
H           7.46682400      5.24643900      9.91139500
          44
 G =       -0.717897 Gcorr = 0.254136 a.u. Nimag =   0 Frame:    11 Step:    12 Geom:    12
C           3.06524900      3.36102800      7.65613000
C           3.01213400      3.07427200      9.01422900
C           3.35382700      5.29231000      8.78130800
N           3.26502000      4.73668900      7.53544300
H           3.01022200      2.69716400      6.81453000
H           2.91333300      2.12641500      9.51546400
H           3.56221100      6.35147800      9.02352600
C           3.37797800      5.43728300      6.26988600
H           4.45164100      5.54800900      5.97861700
H           2.86098600      4.89083000      5.46394400
H           2.94599400      6.45780200      6.33109800
N           3.17880300      4.28028000      9.69336800
C           3.24587900      4.40227200     11.15051400
H           2.47666500      3.73662200     11.60006600
H           2.97692500      5.45724600     11.44147000
C           4.65366300      4.04509200     11.66634800
H           4.57999700      3.28319200     12.46530600
H           5.25480700      3.55961100     10.86311400
C           5.39629100      5.27351400     12.18536400
H           6.42199900      5.00430800     12.50465700
H           4.89668500      5.70698900     13.07083200
C           5.45684400      6.32793000     11.08248300
O           4.41392800      6.94920800     10.81381700
O           6.55229000      6.46734800     10.48896900
P           6.28291600      7.79997700      7.24192200
O           6.71869400      6.48101000      6.77796600
O           6.76883100      8.30529000      8.64853100
H           6.65911400      7.50337500      9.40097400
O           6.64892800      9.03968800      6.29770500
H           7.63802300      9.26628900      6.46325800
O           4.69492400      7.83582700      7.22423200
H           4.32562700      8.75418300      7.55745900
O           3.52454600     10.14739100      8.25128600
H           3.88022700     10.00178900      9.16609300
H           3.97550300     10.93087300      7.94617100
O           5.31946700      2.09559900      8.81786100
H           5.94133700      1.37363000      8.81360200
H           5.88560100      2.89707200      8.80702700
O           4.83741900      9.64383700     10.54241200
H           5.69571300      9.50769700     10.12347100
H           4.56815900      8.71240300     10.73396900
O           7.01053800      4.25085800      8.86445900
H           7.05017900      4.77470300      8.05613600
H           6.94088800      4.94162000      9.55499600
          44
 G =       -0.716666 Gcorr = 0.237267 a.u. Nimag =   0 Frame:    12 Step:    13 Geom:    13
C           2.24823100      4.25797800      7.12841600
C           1.88333700      4.46782200      8.45300500
C           4.13330000      4.67970700      8.30832600
N           3.64536500      4.38800300      7.05331200
H           1.62769200      4.04112100      6.27449000
H           0.90277100      4.45842900      8.89897500
H           5.19874600      4.82925600      8.56059000
C           4.46537000      4.27708300      5.84388300
H           4.00399600      4.81573700      4.99810000
H           5.47260800      4.75383400      6.01375200
H           4.63033200      3.22087700      5.57036700
N           3.06100500      4.72293100      9.17975500
C           3.13527900      5.07063900     10.61866200
H           2.17632300      4.78861600     11.10753500
H           3.20929600      6.19424900     10.69719100
C           4.32025300      4.38279000     11.31419200
H           3.94235800      3.60880000     12.01244400
H           4.94465900      3.80278100     10.58456700
C           5.21675100      5.35484600     12.08055400
H           6.13877400      4.83170200     12.41093200
H           4.71509700      5.70580400     13.00635600
C           5.59868600      6.56607500     11.24705800
O           4.85749300      7.58722500     11.30410200
O           6.62749600      6.52535900     10.51656600
P           5.57034000      7.50566500      7.56256200
O           6.25860400      6.23067100      7.16013300
O           6.40970600      8.33118500      8.71184500
H           6.78572600      7.71756900      9.52647400
O           5.52994800      8.66307900      6.38968400
H           6.40198500      9.00210000      6.07154200
O           4.11568500      7.31530500      8.05223100
H           3.51290000      8.22884200      8.84072800
O           3.11742500      8.65225000      9.86335000
H           3.98713000      9.34208300     10.14608700
H           3.31830100      7.86794900     10.47044100
O           5.77042100      2.78721700      9.02815100
H           6.09223600      1.90345500      9.12509500
H           6.59414100      3.37209300      8.89947400