 Entering Gaussian System, Link 0=g16
 Initial command:
 /data0/home/software/g16/l1.exe "/data0/home/software/g16/scratch/Gau-228225.inp" -scrdir="/data0/home/software/g16/scratch/"
 Default is to use a total of  22 processors:
                               22 via shared-memory
                                1 via Linda
 Entering Link 1 = /data0/home/software/g16/l1.exe PID=    228226.
  
 Copyright (c) 1988,1990,1992,1993,1995,1998,2003,2009,2016,
            Gaussian, Inc.  All Rights Reserved.
  
 This is part of the Gaussian(R) 16 program.  It is based on
 the Gaussian(R) 09 system (copyright 2009, Gaussian, Inc.),
 the Gaussian(R) 03 system (copyright 2003, Gaussian, Inc.),
 the Gaussian(R) 98 system (copyright 1998, Gaussian, Inc.),
 the Gaussian(R) 94 system (copyright 1995, Gaussian, Inc.),
 the Gaussian 92(TM) system (copyright 1992, Gaussian, Inc.),
 the Gaussian 90(TM) system (copyright 1990, Gaussian, Inc.),
 the Gaussian 88(TM) system (copyright 1988, Gaussian, Inc.),
 the Gaussian 86(TM) system (copyright 1986, Carnegie Mellon
 University), and the Gaussian 82(TM) system (copyright 1983,
 Carnegie Mellon University). Gaussian is a federally registered
 trademark of Gaussian, Inc.
  
 This software contains proprietary and confidential information,
 including trade secrets, belonging to Gaussian, Inc.
  
 This software is provided under written license and may be
 used, copied, transmitted, or stored only in accord with that
 written license.
  
 The following legend is applicable only to US Government
 contracts under FAR:
  
                    RESTRICTED RIGHTS LEGEND
  
 Use, reproduction and disclosure by the US Government is
 subject to restrictions as set forth in subparagraphs (a)
 and (c) of the Commercial Computer Software - Restricted
 Rights clause in FAR 52.227-19.
  
 Gaussian, Inc.
 340 Quinnipiac St., Bldg. 40, Wallingford CT 06492
  
  
 ---------------------------------------------------------------
 Warning -- This program may not be used in any manner that
 competes with the business of Gaussian, Inc. or will provide
 assistance to any competitor of Gaussian, Inc.  The licensee
 of this program is prohibited from giving any competitor of
 Gaussian, Inc. access to this program.  By using this program,
 the user acknowledges that Gaussian, Inc. is engaged in the
 business of creating and licensing software in the field of
 computational chemistry and represents and warrants to the
 licensee that it is not a competitor of Gaussian, Inc. and that
 it will not use this program in any manner prohibited above.
 ---------------------------------------------------------------
  

 Cite this work as:
 Gaussian 16, Revision A.03,
 M. J. Frisch, G. W. Trucks, H. B. Schlegel, G. E. Scuseria, 
 M. A. Robb, J. R. Cheeseman, G. Scalmani, V. Barone, 
 G. A. Petersson, H. Nakatsuji, X. Li, M. Caricato, A. V. Marenich, 
 J. Bloino, B. G. Janesko, R. Gomperts, B. Mennucci, H. P. Hratchian, 
 J. V. Ortiz, A. F. Izmaylov, J. L. Sonnenberg, D. Williams-Young, 
 F. Ding, F. Lipparini, F. Egidi, J. Goings, B. Peng, A. Petrone, 
 T. Henderson, D. Ranasinghe, V. G. Zakrzewski, J. Gao, N. Rega, 
 G. Zheng, W. Liang, M. Hada, M. Ehara, K. Toyota, R. Fukuda, 
 J. Hasegawa, M. Ishida, T. Nakajima, Y. Honda, O. Kitao, H. Nakai, 
 T. Vreven, K. Throssell, J. A. Montgomery, Jr., J. E. Peralta, 
 F. Ogliaro, M. J. Bearpark, J. J. Heyd, E. N. Brothers, K. N. Kudin, 
 V. N. Staroverov, T. A. Keith, R. Kobayashi, J. Normand, 
 K. Raghavachari, A. P. Rendell, J. C. Burant, S. S. Iyengar, 
 J. Tomasi, M. Cossi, J. M. Millam, M. Klene, C. Adamo, R. Cammi, 
 J. W. Ochterski, R. L. Martin, K. Morokuma, O. Farkas, 
 J. B. Foresman, and D. J. Fox, Gaussian, Inc., Wallingford CT, 2016.
 
 ******************************************
 Gaussian 16:  ES64L-G16RevA.03 25-Dec-2016
                17-Feb-2023 
 ******************************************
 %nproc=24
 Will use up to   24 processors via shared memory.
 %mem=50GB
 ---------------------------------------------------
 #p M062X/6-311+G(2d,p) nosymm em=GD3 counterpoise=4
 ---------------------------------------------------
 1/38=1,62=4,172=1/1;
 2/12=2,15=1,17=6,18=5,40=1/2;
 1/38=1,53=2,62=4,63=1/22;
 3/5=4,6=6,7=112,11=2,25=1,30=1,74=-55,124=31/1,2,3;
 4//1;
 5/5=2,38=5/2;
 6/7=2,8=2,9=2,10=2,28=1/1;
 1/53=2,62=4,63=1/22;
 3/5=7,6=11,7=112,11=2,25=1,30=1,74=-55,82=7,124=31/1,2,3;
 4//1;
 5/5=2,38=5/2;
 6/7=2,8=2,9=2,10=2,28=1/1;
 1/53=2,62=4,63=1/22(-4);
 99/5=1,9=1/99;
 Leave Link    1 at Fri Feb 17 21:25:42 2023, MaxMem=  6710886400 cpu:               0.7 elap:               0.0
 (Enter /data0/home/software/g16/l101.exe)
 -------------------
 Title Card Required
 -------------------
 Symbolic Z-matrix:
 Charge =  0 Multiplicity = 1 in supermolecule
 Charge =  0 Multiplicity = 1 in fragment      1.
 Charge =  0 Multiplicity = 1 in fragment      2.
 Charge =  0 Multiplicity = 1 in fragment      3.
 Charge =  0 Multiplicity = 1 in fragment      4.
 C                     11.37683   15.13363   12.4105    
 C                     12.00708   15.98048   11.49531    
 C                     12.63955   13.92937   11.00369    
 N                     11.78699   13.84184   12.0952    
 H                     11.45726   12.97889   12.52227    
 H                     10.70942   15.35021   13.21721    
 H                     11.96736   17.04849   11.40931    
 H                     13.11936   13.07617   10.54176    
 N                     12.77794   15.2185   10.63049    
 O                     11.01568   12.231    8.97854    
 H                     10.61861   11.76011   8.2456     
 H                     11.89643   12.50789   8.63745    
 O                     10.29907   15.00738   8.69814    
 H                     10.41002   14.06726   8.89644    
 H                     10.75685   15.46393   9.4126     
 O                     11.07684   11.42189   11.67341    
 H                     10.47508   10.69801   11.81134    
 H                     11.03304   11.63739   10.72682    
 
 ITRead=  0  0  0  0  0  0  0  0  0  0  0  0  0  0  0  0  0  0
 MicOpt= -1 -1 -1 -1 -1 -1 -1 -1 -1 -1 -1 -1 -1 -1 -1 -1 -1 -1
 NAtoms=     18 NQM=       18 NQMF=       0 NMMI=      0 NMMIF=      0
                NMic=       0 NMicF=      0.
                    Isotopes and Nuclear Properties:
 (Nuclear quadrupole moments (NQMom) in fm**2, nuclear magnetic moments (NMagM)
  in nuclear magnetons)

  Atom         1           2           3           4           5           6           7           8           9          10
 IAtWgt=          12          12          12          14           1           1           1           1          14          16
 AtmWgt=  12.0000000  12.0000000  12.0000000  14.0030740   1.0078250   1.0078250   1.0078250   1.0078250  14.0030740  15.9949146
 NucSpn=           0           0           0           2           1           1           1           1           2           0
 AtZEff=  -0.0000000  -0.0000000  -0.0000000  -0.0000000  -0.0000000  -0.0000000  -0.0000000  -0.0000000  -0.0000000  -0.0000000
 NQMom=    0.0000000   0.0000000   0.0000000   2.0440000   0.0000000   0.0000000   0.0000000   0.0000000   2.0440000   0.0000000
 NMagM=    0.0000000   0.0000000   0.0000000   0.4037610   2.7928460   2.7928460   2.7928460   2.7928460   0.4037610   0.0000000
 AtZNuc=   6.0000000   6.0000000   6.0000000   7.0000000   1.0000000   1.0000000   1.0000000   1.0000000   7.0000000   8.0000000

  Atom        11          12          13          14          15          16          17          18
 IAtWgt=           1           1          16           1           1          16           1           1
 AtmWgt=   1.0078250   1.0078250  15.9949146   1.0078250   1.0078250  15.9949146   1.0078250   1.0078250
 NucSpn=           1           1           0           1           1           0           1           1
 AtZEff=  -0.0000000  -0.0000000  -0.0000000  -0.0000000  -0.0000000  -0.0000000  -0.0000000  -0.0000000
 NQMom=    0.0000000   0.0000000   0.0000000   0.0000000   0.0000000   0.0000000   0.0000000   0.0000000
 NMagM=    2.7928460   2.7928460   0.0000000   2.7928460   2.7928460   0.0000000   2.7928460   2.7928460
 AtZNuc=   1.0000000   1.0000000   8.0000000   1.0000000   1.0000000   8.0000000   1.0000000   1.0000000
 Leave Link  101 at Fri Feb 17 21:25:42 2023, MaxMem=  6710886400 cpu:               1.9 elap:               0.1
 (Enter /data0/home/software/g16/l202.exe)
                          Input orientation:                          
 ---------------------------------------------------------------------
 Center     Atomic      Atomic             Coordinates (Angstroms)
 Number     Number       Type             X           Y           Z
 ---------------------------------------------------------------------
      1          6           0       11.376828   15.133632   12.410501
      2          6           0       12.007084   15.980477   11.495308
      3          6           0       12.639553   13.929368   11.003689
      4          7           0       11.786988   13.841842   12.095201
      5          1           0       11.457265   12.978891   12.522268
      6          1           0       10.709418   15.350211   13.217207
      7          1           0       11.967356   17.048487   11.409313
      8          1           0       13.119357   13.076171   10.541762
      9          7           0       12.777943   15.218503   10.630494
     10          8           0       11.015679   12.231005    8.978544
     11          1           0       10.618605   11.760113    8.245603
     12          1           0       11.896434   12.507888    8.637446
     13          8           0       10.299073   15.007382    8.698143
     14          1           0       10.410017   14.067264    8.896445
     15          1           0       10.756852   15.463931    9.412599
     16          8           0       11.076842   11.421891   11.673408
     17          1           0       10.475078   10.698013   11.811341
     18          1           0       11.033036   11.637388   10.726820
 ---------------------------------------------------------------------
                    Distance matrix (angstroms):
                    1          2          3          4          5
     1  C    0.000000
     2  C    1.397121   0.000000
     3  C    2.241394   2.201989   0.000000
     4  N    1.391534   2.232056   1.387777   0.000000
     5  H    2.159137   3.219700   2.146461   1.017737   0.000000
     6  H    1.069167   2.246354   3.262496   2.166848   2.581739
     7  H    2.240038   1.072203   3.216408   3.284136   4.249762
     8  H    3.280509   3.252906   1.082374   2.185093   2.587357
     9  N    2.266881   1.386626   1.349183   2.241106   3.215410
    10  O    4.509324   4.623367   3.102034   3.592111   3.648604
    11  H    5.413124   5.504537   4.049313   4.529693   4.525332
    12  H    4.626064   4.498721   2.858660   3.707760   3.937836
    13  O    3.867699   3.418823   3.457673   3.887464   4.481084
    14  H    3.797427   3.600708   3.070883   3.489829   3.927834
    15  H    3.079104   2.483461   2.903621   3.299804   4.041787
    16  O    3.796093   4.655940   3.029526   2.557026   1.813707
    17  H    4.565836   5.509205   3.972267   3.418383   2.583121
    18  H    3.895728   4.516831   2.812601   2.701949   2.281060
                    6          7          8          9         10
     6  H    0.000000
     7  H    2.781192   0.000000
     8  H    4.258764   4.225996   0.000000
     9  N    3.314699   2.147662   2.171180   0.000000
    10  O    5.271575   5.479275   2.753801   3.841830   0.000000
    11  H    6.133017   6.308335   3.641170   4.723442   0.957397
    12  H    5.519241   5.320274   2.333432   3.478036   0.984247
    13  O    4.550588   3.781497   3.883621   3.150135   2.881045
    14  H    4.517143   4.198512   3.321123   3.152674   1.935307
    15  H    3.806603   2.821880   3.543704   2.372406   3.272187
    16  O    4.236746   5.702749   2.861666   4.289018   2.814374
    17  H    4.865626   6.535827   3.776199   5.208879   3.266045
    18  H    4.482389   5.533421   2.541078   3.984766   1.846389
                   11         12         13         14         15
    11  H    0.000000
    12  H    1.531521   0.000000
    13  O    3.294184   2.966937   0.000000
    14  H    2.406252   2.169832   0.967189   0.000000
    15  H    3.885777   3.261549   0.963559   1.528852   0.000000
    16  O    3.474798   3.326888   4.723650   3.892837   4.642385
    17  H    3.723324   3.920397   5.319177   4.455637   5.342971
    18  H    2.518581   2.422542   4.001386   3.105273   4.055353
                   16         17         18
    16  O    0.000000
    17  H    0.951391   0.000000
    18  H    0.971796   1.539457   0.000000
 Symmetry turned off by external request.
 Stoichiometry    C3H10N2O3
 Framework group  C1[X(C3H10N2O3)]
 Deg. of freedom    48
 Full point group                 C1      NOp   1
 Rotational constants (GHZ):           1.7919578           1.3604117           0.9276446
 Leave Link  202 at Fri Feb 17 21:25:42 2023, MaxMem=  6710886400 cpu:               0.1 elap:               0.0
 (Enter /data0/home/software/g16/l122.exe)
 Counterpoise: doing full-system calculation.
 Leave Link  122 at Fri Feb 17 21:25:42 2023, MaxMem=  6710886400 cpu:               0.0 elap:               0.0
 (Enter /data0/home/software/g16/l301.exe)
 Standard basis: 6-311+G(2d,p) (5D, 7F)
 Ernie: Thresh=  0.10000D-02 Tol=  0.10000D-05 Strict=F.
   276 basis functions,   416 primitive gaussians,   292 cartesian basis functions
    33 alpha electrons       33 beta electrons
       nuclear repulsion energy       395.3155787675 Hartrees.
 IExCor= 4336 DFT=T Ex+Corr=M062X ExCW=0 ScaHFX=  0.540000
 ScaDFX=  1.000000  1.000000  1.000000  1.000000 ScalE2=  1.000000  1.000000
 IRadAn=      5 IRanWt=     -1 IRanGd=            0 ICorTp=0 IEmpDi=131
 NAtoms=   18 NActive=   18 NUniq=   18 SFac= 1.00D+00 NAtFMM=   60 NAOKFM=F Big=F
 Integral buffers will be    131072 words long.
 Raffenetti 2 integral format.
 Two-electron integral symmetry is turned off.
 R6Disp:  Grimme-D3 Dispersion energy=       -0.0006261081 Hartrees.
 Nuclear repulsion after empirical dispersion term =      395.3149526594 Hartrees.
 Leave Link  301 at Fri Feb 17 21:25:42 2023, MaxMem=  6710886400 cpu:               1.1 elap:               0.1
 (Enter /data0/home/software/g16/l302.exe)
 NPDir=0 NMtPBC=     1 NCelOv=     1 NCel=       1 NClECP=     1 NCelD=      1
         NCelK=      1 NCelE2=     1 NClLst=     1 CellRange=     0.0.
 One-electron integrals computed using PRISM.
 NBasis=   276 RedAO= T EigKep=  4.59D-05  NBF=   276
 NBsUse=   276 1.00D-06 EigRej= -1.00D+00 NBFU=   276
 Precomputing XC quadrature grid using
 IXCGrd= 4 IRadAn=           5 IRanWt=          -1 IRanGd=           0 AccXCQ= 0.00D+00.
 Generated NRdTot=       0 NPtTot=           0 NUsed=           0 NTot=          32
 NSgBfM=   292   292   292   292   292 MxSgAt=    18 MxSgA2=    18.
 Leave Link  302 at Fri Feb 17 21:25:42 2023, MaxMem=  6710886400 cpu:               4.4 elap:               0.2
 (Enter /data0/home/software/g16/l303.exe)
 DipDrv:  MaxL=1.
 Leave Link  303 at Fri Feb 17 21:25:42 2023, MaxMem=  6710886400 cpu:               0.6 elap:               0.0
 (Enter /data0/home/software/g16/l401.exe)
 ExpMin= 4.38D-02 ExpMax= 8.59D+03 ExpMxC= 1.30D+03 IAcc=3 IRadAn=         5 AccDes= 0.00D+00
 Harris functional with IExCor= 1009 and IRadAn=       5 diagonalized for initial guess.
 HarFok:  IExCor= 1009 AccDes= 0.00D+00 IRadAn=         5 IDoV= 1 UseB2=F ITyADJ=14
 ICtDFT=  3500011 ScaDFX=  1.000000  1.000000  1.000000  1.000000
 FoFCou: FMM=F IPFlag=           0 FMFlag=      100000 FMFlg1=           0
         NFxFlg=           0 DoJE=T BraDBF=F KetDBF=T FulRan=T
         wScrn=  0.000000 ICntrl=       500 IOpCl=  0 I1Cent=   200000004 NGrid=           0
         NMat0=    1 NMatS0=      1 NMatT0=    0 NMatD0=    1 NMtDS0=    0 NMtDT0=    0
 Symmetry not used in FoFCou.
 Harris En= -455.300622190170    
 JPrj=0 DoOrth=F DoCkMO=F.
 Leave Link  401 at Fri Feb 17 21:25:43 2023, MaxMem=  6710886400 cpu:              15.2 elap:               0.7
 (Enter /data0/home/software/g16/l502.exe)
 Two-electron integral symmetry not used.
 Closed shell SCF:
 Using DIIS extrapolation, IDIIS=  1040.
 NGot=  6710886400 LenX=  6710706710 LenY=  6710621005
 Requested convergence on RMS density matrix=1.00D-08 within 128 cycles.
 Requested convergence on MAX density matrix=1.00D-06.
 Requested convergence on             energy=1.00D-06.
 No special actions if energy rises.
 Fock matrices will be formed incrementally for  20 cycles.

 Cycle   1  Pass 1  IDiag  1:
 FoFJK:  IHMeth= 1 ICntrl=       0 DoSepK=F KAlg= 0 I1Cent=           0 FoldK=F
 IRaf= 940000000 NMat=       1 IRICut=       1 DoRegI=T DoRafI=F ISym2E= 0 IDoP0=0 IntGTp=1.
 FoFCou: FMM=F IPFlag=           0 FMFlag=      100000 FMFlg1=           0
         NFxFlg=           0 DoJE=F BraDBF=F KetDBF=F FulRan=T
         wScrn=  0.000000 ICntrl=         0 IOpCl=  0 I1Cent=           0 NGrid=           0
         NMat0=    1 NMatS0=      1 NMatT0=    0 NMatD0=    1 NMtDS0=    0 NMtDT0=    0
 Symmetry not used in FoFCou.
 E= -455.196621825381    
 DIIS: error= 3.42D-02 at cycle   1 NSaved=   1.
 NSaved= 1 IEnMin= 1 EnMin= -455.196621825381     IErMin= 1 ErrMin= 3.42D-02
 ErrMax= 3.42D-02  0.00D+00 EMaxC= 1.00D-01 BMatC= 4.51D-01 BMatP= 4.51D-01
 IDIUse=3 WtCom= 6.58D-01 WtEn= 3.42D-01
 Coeff-Com:  0.100D+01
 Coeff-En:   0.100D+01
 Coeff:      0.100D+01
 Gap=     0.314 Goal=   None    Shift=    0.000
 GapD=    0.314 DampG=1.000 DampE=0.500 DampFc=0.5000 IDamp=-1.
 Damping current iteration by 5.00D-01
 RMSDP=4.83D-03 MaxDP=3.14D-01              OVMax= 1.75D-01

 Cycle   2  Pass 1  IDiag  1:
 RMSU=  2.42D-03    CP:  1.00D+00
 E= -455.327781248165     Delta-E=       -0.131159422784 Rises=F Damp=T
 DIIS: error= 6.63D-03 at cycle   2 NSaved=   2.
 NSaved= 2 IEnMin= 2 EnMin= -455.327781248165     IErMin= 2 ErrMin= 6.63D-03
 ErrMax= 6.63D-03  0.00D+00 EMaxC= 1.00D-01 BMatC= 2.68D-02 BMatP= 4.51D-01
 IDIUse=3 WtCom= 9.34D-01 WtEn= 6.63D-02
 Coeff-Com:  0.826D-02 0.992D+00
 Coeff-En:   0.685D-01 0.932D+00
 Coeff:      0.123D-01 0.988D+00
 Gap=     0.345 Goal=   None    Shift=    0.000
 RMSDP=8.85D-04 MaxDP=2.65D-02 DE=-1.31D-01 OVMax= 1.14D-01

 Cycle   3  Pass 1  IDiag  1:
 RMSU=  8.82D-04    CP:  1.00D+00  9.71D-01
 E= -455.478710432557     Delta-E=       -0.150929184392 Rises=F Damp=F
 DIIS: error= 3.49D-03 at cycle   3 NSaved=   3.
 NSaved= 3 IEnMin= 3 EnMin= -455.478710432557     IErMin= 3 ErrMin= 3.49D-03
 ErrMax= 3.49D-03  0.00D+00 EMaxC= 1.00D-01 BMatC= 5.58D-03 BMatP= 2.68D-02
 IDIUse=3 WtCom= 9.65D-01 WtEn= 3.49D-02
 Coeff-Com: -0.558D-01 0.262D+00 0.794D+00
 Coeff-En:   0.000D+00 0.000D+00 0.100D+01
 Coeff:     -0.538D-01 0.253D+00 0.801D+00
 Gap=     0.287 Goal=   None    Shift=    0.000
 RMSDP=3.36D-04 MaxDP=1.61D-02 DE=-1.51D-01 OVMax= 2.84D-02

 Cycle   4  Pass 1  IDiag  1:
 RMSU=  3.26D-04    CP:  9.98D-01  9.98D-01  9.49D-01
 E= -455.481410484510     Delta-E=       -0.002700051952 Rises=F Damp=F
 DIIS: error= 2.75D-03 at cycle   4 NSaved=   4.
 NSaved= 4 IEnMin= 4 EnMin= -455.481410484510     IErMin= 4 ErrMin= 2.75D-03
 ErrMax= 2.75D-03  0.00D+00 EMaxC= 1.00D-01 BMatC= 1.90D-03 BMatP= 5.58D-03
 IDIUse=3 WtCom= 9.72D-01 WtEn= 2.75D-02
 Coeff-Com: -0.303D-01 0.808D-01 0.440D+00 0.510D+00
 Coeff-En:   0.000D+00 0.000D+00 0.253D+00 0.747D+00
 Coeff:     -0.295D-01 0.785D-01 0.434D+00 0.516D+00
 Gap=     0.282 Goal=   None    Shift=    0.000
 RMSDP=1.69D-04 MaxDP=5.84D-03 DE=-2.70D-03 OVMax= 1.45D-02

 Cycle   5  Pass 1  IDiag  1:
 RMSU=  1.27D-04    CP:  9.96D-01  9.70D-01  9.87D-01  7.55D-01
 E= -455.482949590531     Delta-E=       -0.001539106022 Rises=F Damp=F
 DIIS: error= 7.17D-04 at cycle   5 NSaved=   5.
 NSaved= 5 IEnMin= 5 EnMin= -455.482949590531     IErMin= 5 ErrMin= 7.17D-04
 ErrMax= 7.17D-04  0.00D+00 EMaxC= 1.00D-01 BMatC= 9.42D-05 BMatP= 1.90D-03
 IDIUse=3 WtCom= 9.93D-01 WtEn= 7.17D-03
 Coeff-Com: -0.965D-02 0.187D-01 0.148D+00 0.248D+00 0.595D+00
 Coeff-En:   0.000D+00 0.000D+00 0.000D+00 0.000D+00 0.100D+01
 Coeff:     -0.958D-02 0.185D-01 0.147D+00 0.246D+00 0.598D+00
 Gap=     0.280 Goal=   None    Shift=    0.000
 RMSDP=4.36D-05 MaxDP=1.37D-03 DE=-1.54D-03 OVMax= 3.75D-03

 Cycle   6  Pass 1  IDiag  1:
 RMSU=  2.80D-05    CP:  9.96D-01  9.74D-01  9.83D-01  7.44D-01  7.52D-01
 E= -455.483028427057     Delta-E=       -0.000078836526 Rises=F Damp=F
 DIIS: error= 1.02D-04 at cycle   6 NSaved=   6.
 NSaved= 6 IEnMin= 6 EnMin= -455.483028427057     IErMin= 6 ErrMin= 1.02D-04
 ErrMax= 1.02D-04  0.00D+00 EMaxC= 1.00D-01 BMatC= 6.00D-06 BMatP= 9.42D-05
 IDIUse=3 WtCom= 9.99D-01 WtEn= 1.02D-03
 Coeff-Com: -0.184D-02 0.195D-02 0.315D-01 0.647D-01 0.258D+00 0.646D+00
 Coeff-En:   0.000D+00 0.000D+00 0.000D+00 0.000D+00 0.000D+00 0.100D+01
 Coeff:     -0.183D-02 0.195D-02 0.315D-01 0.647D-01 0.258D+00 0.646D+00
 Gap=     0.281 Goal=   None    Shift=    0.000
 RMSDP=1.35D-05 MaxDP=5.64D-04 DE=-7.88D-05 OVMax= 5.66D-04

 Cycle   7  Pass 1  IDiag  1:
 RMSU=  7.67D-06    CP:  9.96D-01  9.72D-01  9.86D-01  7.52D-01  8.16D-01
                    CP:  8.58D-01
 E= -455.483033722417     Delta-E=       -0.000005295361 Rises=F Damp=F
 DIIS: error= 3.56D-05 at cycle   7 NSaved=   7.
 NSaved= 7 IEnMin= 7 EnMin= -455.483033722417     IErMin= 7 ErrMin= 3.56D-05
 ErrMax= 3.56D-05  0.00D+00 EMaxC= 1.00D-01 BMatC= 2.36D-07 BMatP= 6.00D-06
 IDIUse=1 WtCom= 1.00D+00 WtEn= 0.00D+00
 Coeff-Com:  0.671D-03-0.155D-02-0.790D-02-0.135D-01-0.794D-02 0.114D+00
 Coeff-Com:  0.917D+00
 Coeff:      0.671D-03-0.155D-02-0.790D-02-0.135D-01-0.794D-02 0.114D+00
 Coeff:      0.917D+00
 Gap=     0.281 Goal=   None    Shift=    0.000
 RMSDP=6.89D-06 MaxDP=4.80D-04 DE=-5.30D-06 OVMax= 2.04D-04

 Cycle   8  Pass 1  IDiag  1:
 RMSU=  2.44D-06    CP:  9.96D-01  9.70D-01  9.86D-01  7.53D-01  8.31D-01
                    CP:  9.70D-01  1.11D+00
 E= -455.483033945203     Delta-E=       -0.000000222786 Rises=F Damp=F
 DIIS: error= 2.14D-05 at cycle   8 NSaved=   8.
 NSaved= 8 IEnMin= 8 EnMin= -455.483033945203     IErMin= 8 ErrMin= 2.14D-05
 ErrMax= 2.14D-05  0.00D+00 EMaxC= 1.00D-01 BMatC= 9.12D-08 BMatP= 2.36D-07
 IDIUse=1 WtCom= 1.00D+00 WtEn= 0.00D+00
 Coeff-Com:  0.500D-03-0.964D-03-0.658D-02-0.126D-01-0.244D-01 0.145D-02
 Coeff-Com:  0.470D+00 0.573D+00
 Coeff:      0.500D-03-0.964D-03-0.658D-02-0.126D-01-0.244D-01 0.145D-02
 Coeff:      0.470D+00 0.573D+00
 Gap=     0.281 Goal=   None    Shift=    0.000
 RMSDP=1.17D-06 MaxDP=4.08D-05 DE=-2.23D-07 OVMax= 8.26D-05

 Cycle   9  Pass 1  IDiag  1:
 RMSU=  6.95D-07    CP:  9.96D-01  9.70D-01  9.87D-01  7.53D-01  8.36D-01
                    CP:  9.76D-01  1.17D+00  8.52D-01
 E= -455.483034018532     Delta-E=       -0.000000073329 Rises=F Damp=F
 DIIS: error= 2.39D-06 at cycle   9 NSaved=   9.
 NSaved= 9 IEnMin= 9 EnMin= -455.483034018532     IErMin= 9 ErrMin= 2.39D-06
 ErrMax= 2.39D-06  0.00D+00 EMaxC= 1.00D-01 BMatC= 1.95D-09 BMatP= 9.12D-08
 IDIUse=1 WtCom= 1.00D+00 WtEn= 0.00D+00
 Coeff-Com: -0.409D-04 0.858D-04 0.401D-03 0.206D-03 0.232D-03-0.115D-01
 Coeff-Com: -0.520D-01 0.428D-01 0.102D+01
 Coeff:     -0.409D-04 0.858D-04 0.401D-03 0.206D-03 0.232D-03-0.115D-01
 Coeff:     -0.520D-01 0.428D-01 0.102D+01
 Gap=     0.281 Goal=   None    Shift=    0.000
 RMSDP=3.98D-07 MaxDP=1.69D-05 DE=-7.33D-08 OVMax= 2.78D-05

 Cycle  10  Pass 1  IDiag  1:
 RMSU=  2.20D-07    CP:  9.96D-01  9.70D-01  9.87D-01  7.52D-01  8.36D-01
                    CP:  9.78D-01  1.19D+00  9.20D-01  1.18D+00
 E= -455.483034021138     Delta-E=       -0.000000002606 Rises=F Damp=F
 DIIS: error= 1.51D-06 at cycle  10 NSaved=  10.
 NSaved=10 IEnMin=10 EnMin= -455.483034021138     IErMin=10 ErrMin= 1.51D-06
 ErrMax= 1.51D-06  0.00D+00 EMaxC= 1.00D-01 BMatC= 3.06D-10 BMatP= 1.95D-09
 IDIUse=1 WtCom= 1.00D+00 WtEn= 0.00D+00
 Coeff-Com: -0.400D-04 0.808D-04 0.475D-03 0.639D-03 0.133D-02-0.504D-02
 Coeff-Com: -0.434D-01-0.873D-02 0.420D+00 0.634D+00
 Coeff:     -0.400D-04 0.808D-04 0.475D-03 0.639D-03 0.133D-02-0.504D-02
 Coeff:     -0.434D-01-0.873D-02 0.420D+00 0.634D+00
 Gap=     0.281 Goal=   None    Shift=    0.000
 RMSDP=1.16D-07 MaxDP=5.77D-06 DE=-2.61D-09 OVMax= 1.13D-05

 Cycle  11  Pass 1  IDiag  1:
 RMSU=  6.30D-08    CP:  9.96D-01  9.70D-01  9.87D-01  7.52D-01  8.36D-01
                    CP:  9.79D-01  1.19D+00  9.33D-01  1.23D+00  8.31D-01
 E= -455.483034021440     Delta-E=       -0.000000000302 Rises=F Damp=F
 DIIS: error= 5.57D-07 at cycle  11 NSaved=  11.
 NSaved=11 IEnMin=11 EnMin= -455.483034021440     IErMin=11 ErrMin= 5.57D-07
 ErrMax= 5.57D-07  0.00D+00 EMaxC= 1.00D-01 BMatC= 4.83D-11 BMatP= 3.06D-10
 IDIUse=1 WtCom= 1.00D+00 WtEn= 0.00D+00
 Coeff-Com: -0.803D-05 0.164D-04 0.115D-03 0.182D-03 0.461D-03-0.433D-03
 Coeff-Com: -0.924D-02-0.103D-01-0.214D-03 0.271D+00 0.748D+00
 Coeff:     -0.803D-05 0.164D-04 0.115D-03 0.182D-03 0.461D-03-0.433D-03
 Coeff:     -0.924D-02-0.103D-01-0.214D-03 0.271D+00 0.748D+00
 Gap=     0.281 Goal=   None    Shift=    0.000
 RMSDP=3.37D-08 MaxDP=1.45D-06 DE=-3.02D-10 OVMax= 3.56D-06

 Cycle  12  Pass 1  IDiag  1:
 RMSU=  2.34D-08    CP:  9.96D-01  9.70D-01  9.87D-01  7.52D-01  8.36D-01
                    CP:  9.79D-01  1.19D+00  9.39D-01  1.24D+00  9.02D-01
                    CP:  1.02D+00
 E= -455.483034021495     Delta-E=       -0.000000000055 Rises=F Damp=F
 DIIS: error= 1.11D-07 at cycle  12 NSaved=  12.
 NSaved=12 IEnMin=12 EnMin= -455.483034021495     IErMin=12 ErrMin= 1.11D-07
 ErrMax= 1.11D-07  0.00D+00 EMaxC= 1.00D-01 BMatC= 2.69D-12 BMatP= 4.83D-11
 IDIUse=1 WtCom= 1.00D+00 WtEn= 0.00D+00
 Coeff-Com:  0.222D-05-0.409D-05-0.141D-04-0.209D-04 0.892D-05 0.381D-03
 Coeff-Com:  0.190D-02-0.154D-02-0.428D-01 0.174D-01 0.212D+00 0.812D+00
 Coeff:      0.222D-05-0.409D-05-0.141D-04-0.209D-04 0.892D-05 0.381D-03
 Coeff:      0.190D-02-0.154D-02-0.428D-01 0.174D-01 0.212D+00 0.812D+00
 Gap=     0.281 Goal=   None    Shift=    0.000
 RMSDP=1.21D-08 MaxDP=3.08D-07 DE=-5.46D-11 OVMax= 1.21D-06

 Cycle  13  Pass 1  IDiag  1:
 RMSU=  7.62D-09    CP:  9.96D-01  9.70D-01  9.87D-01  7.52D-01  8.36D-01
                    CP:  9.79D-01  1.19D+00  9.38D-01  1.24D+00  9.21D-01
                    CP:  1.09D+00  1.04D+00
 E= -455.483034021499     Delta-E=       -0.000000000004 Rises=F Damp=F
 DIIS: error= 2.50D-08 at cycle  13 NSaved=  13.
 NSaved=13 IEnMin=13 EnMin= -455.483034021499     IErMin=13 ErrMin= 2.50D-08
 ErrMax= 2.50D-08  0.00D+00 EMaxC= 1.00D-01 BMatC= 2.18D-13 BMatP= 2.69D-12
 IDIUse=1 WtCom= 1.00D+00 WtEn= 0.00D+00
 Coeff-Com:  0.109D-05-0.218D-05-0.973D-05-0.165D-04-0.237D-04 0.140D-03
 Coeff-Com:  0.105D-02 0.617D-03-0.948D-02-0.190D-01-0.240D-01 0.172D+00
 Coeff-Com:  0.879D+00
 Coeff:      0.109D-05-0.218D-05-0.973D-05-0.165D-04-0.237D-04 0.140D-03
 Coeff:      0.105D-02 0.617D-03-0.948D-02-0.190D-01-0.240D-01 0.172D+00
 Coeff:      0.879D+00
 Gap=     0.281 Goal=   None    Shift=    0.000
 RMSDP=4.01D-09 MaxDP=2.24D-07 DE=-4.09D-12 OVMax= 2.36D-07

 SCF Done:  E(RM062X) =  -455.483034021     A.U. after   13 cycles
            NFock= 13  Conv=0.40D-08     -V/T= 2.0039
 KE= 4.537145921902D+02 PE=-1.859575647379D+03 EE= 5.550630685077D+02
 Leave Link  502 at Fri Feb 17 21:26:04 2023, MaxMem=  6710886400 cpu:             507.6 elap:              21.2
 (Enter /data0/home/software/g16/l601.exe)
 Copying SCF densities to generalized density rwf, IOpCl= 0 IROHF=0.

 **********************************************************************

            Population analysis using the SCF density.

 **********************************************************************

 Alpha  occ. eigenvalues --  -19.68443 -19.63681 -19.58059 -14.79779 -14.73378
 Alpha  occ. eigenvalues --  -10.60078 -10.57216 -10.55446  -1.19281  -1.15314
 Alpha  occ. eigenvalues --   -1.10948  -1.09088  -0.96223  -0.83331  -0.69420
 Alpha  occ. eigenvalues --   -0.67037  -0.66079  -0.64218  -0.63022  -0.57548
 Alpha  occ. eigenvalues --   -0.54399  -0.51988  -0.50244  -0.49752  -0.48212
 Alpha  occ. eigenvalues --   -0.47519  -0.46026  -0.42779  -0.41785  -0.36161
 Alpha  occ. eigenvalues --   -0.33938  -0.33675  -0.28263
 Alpha virt. eigenvalues --   -0.00168   0.02123   0.03479   0.03843   0.05148
 Alpha virt. eigenvalues --    0.05548   0.06345   0.07351   0.07696   0.08876
 Alpha virt. eigenvalues --    0.09492   0.10158   0.11557   0.12094   0.13749
 Alpha virt. eigenvalues --    0.14681   0.15222   0.15868   0.16704   0.17409
 Alpha virt. eigenvalues --    0.18692   0.19339   0.20488   0.21165   0.21696
 Alpha virt. eigenvalues --    0.21977   0.22762   0.23625   0.23763   0.24843
 Alpha virt. eigenvalues --    0.25771   0.26185   0.26749   0.27506   0.28469
 Alpha virt. eigenvalues --    0.28861   0.29703   0.30018   0.31765   0.32192
 Alpha virt. eigenvalues --    0.33105   0.34231   0.35898   0.37827   0.39279
 Alpha virt. eigenvalues --    0.43077   0.44523   0.45934   0.48484   0.49788
 Alpha virt. eigenvalues --    0.51054   0.52722   0.56469   0.56713   0.58464
 Alpha virt. eigenvalues --    0.58655   0.60310   0.62217   0.62845   0.65070
 Alpha virt. eigenvalues --    0.65476   0.66842   0.67678   0.69550   0.71900
 Alpha virt. eigenvalues --    0.71945   0.74234   0.77156   0.79086   0.79501
 Alpha virt. eigenvalues --    0.80418   0.83618   0.84803   0.87770   0.90122
 Alpha virt. eigenvalues --    0.90936   0.92660   0.93139   0.95448   0.97459
 Alpha virt. eigenvalues --    0.98073   0.98738   1.01301   1.06507   1.07944
 Alpha virt. eigenvalues --    1.08035   1.09220   1.10481   1.11922   1.12647
 Alpha virt. eigenvalues --    1.14684   1.15444   1.15832   1.16708   1.18025
 Alpha virt. eigenvalues --    1.21390   1.25270   1.26203   1.27408   1.29904
 Alpha virt. eigenvalues --    1.31022   1.31426   1.32967   1.34706   1.35689
 Alpha virt. eigenvalues --    1.36811   1.39255   1.40106   1.42131   1.43638
 Alpha virt. eigenvalues --    1.46077   1.46420   1.48875   1.50347   1.52308
 Alpha virt. eigenvalues --    1.53844   1.55895   1.58821   1.62928   1.69906
 Alpha virt. eigenvalues --    1.71211   1.72861   1.73321   1.74777   1.76138
 Alpha virt. eigenvalues --    1.76775   1.80533   1.82418   1.84479   1.87498
 Alpha virt. eigenvalues --    1.91861   1.94803   1.95345   1.98860   2.01342
 Alpha virt. eigenvalues --    2.02287   2.03678   2.05570   2.10547   2.10935
 Alpha virt. eigenvalues --    2.18155   2.18621   2.20449   2.26931   2.27609
 Alpha virt. eigenvalues --    2.32194   2.36438   2.37221   2.44527   2.46748
 Alpha virt. eigenvalues --    2.47719   2.53541   2.53849   2.56422   2.61233
 Alpha virt. eigenvalues --    2.62473   2.63805   2.64746   2.69276   2.73069
 Alpha virt. eigenvalues --    2.79897   2.82785   2.85052   2.87571   2.88126
 Alpha virt. eigenvalues --    2.93873   2.96454   2.97026   3.00194   3.01524
 Alpha virt. eigenvalues --    3.03312   3.10735   3.12468   3.19657   3.21297
 Alpha virt. eigenvalues --    3.27355   3.32281   3.35806   3.37724   3.40048
 Alpha virt. eigenvalues --    3.41738   3.45290   3.46334   3.48217   3.54269
 Alpha virt. eigenvalues --    3.58682   3.60847   3.65673   3.67284   3.70887
 Alpha virt. eigenvalues --    3.74638   3.97121   3.98758   4.00113   4.02492
 Alpha virt. eigenvalues --    4.08660   4.49389   4.61666   4.92462   4.97879
 Alpha virt. eigenvalues --    4.99497   5.02630   5.03183   5.06050   5.10999
 Alpha virt. eigenvalues --    5.11543   5.12371   5.16669   5.23937   5.28517
 Alpha virt. eigenvalues --    5.36167   5.42319   5.51550   5.55430   5.57554
 Alpha virt. eigenvalues --    5.59332   5.61232   5.87321   5.98111   6.02049
 Alpha virt. eigenvalues --    6.76037   6.78385   6.80827   6.83732   6.84822
 Alpha virt. eigenvalues --    6.85603   6.86483   6.87755   6.95599   6.97087
 Alpha virt. eigenvalues --    6.98381   6.99576   7.06209   7.16788   7.20059
 Alpha virt. eigenvalues --   23.91685  24.10377  24.14639  35.66393  35.71298
 Alpha virt. eigenvalues --   49.97400  50.02610  50.05871
          Condensed to atoms (all electrons):
               1          2          3          4          5          6
     1  C    5.775622  -0.138707  -0.339778   0.342884  -0.049022   0.380036
     2  C   -0.138707   5.758727   0.032048  -0.106188   0.031562   0.000517
     3  C   -0.339778   0.032048   5.458015   0.294413  -0.012599   0.010933
     4  N    0.342884  -0.106188   0.294413   6.392540   0.374577  -0.031904
     5  H   -0.049022   0.031562  -0.012599   0.374577   0.368023  -0.002172
     6  H    0.380036   0.000517   0.010933  -0.031904  -0.002172   0.505926
     7  H   -0.076734   0.460022   0.017762   0.009381   0.000062  -0.000135
     8  H   -0.009454   0.024902   0.438120  -0.060201   0.001370  -0.000044
     9  N    0.230396   0.005042   0.195892  -0.026829  -0.004996   0.001813
    10  O   -0.004356   0.000077   0.010267  -0.010178  -0.000155  -0.000032
    11  H    0.000548  -0.001658   0.006838   0.001133  -0.000071  -0.000001
    12  H   -0.000098  -0.000958   0.009960   0.000027  -0.000064  -0.000004
    13  O   -0.008557   0.004850  -0.006447   0.002686  -0.000337   0.000007
    14  H    0.007152  -0.004746   0.004294   0.002698   0.000322  -0.000007
    15  H   -0.009327   0.018173   0.005433   0.002018   0.000041  -0.000077
    16  O   -0.010964   0.000745   0.025279  -0.028995  -0.047996  -0.000041
    17  H   -0.000390   0.000989   0.000571   0.002739   0.002505   0.000008
    18  H   -0.000495   0.002255  -0.002301  -0.001459   0.004978   0.000044
               7          8          9         10         11         12
     1  C   -0.076734  -0.009454   0.230396  -0.004356   0.000548  -0.000098
     2  C    0.460022   0.024902   0.005042   0.000077  -0.001658  -0.000958
     3  C    0.017762   0.438120   0.195892   0.010267   0.006838   0.009960
     4  N    0.009381  -0.060201  -0.026829  -0.010178   0.001133   0.000027
     5  H    0.000062   0.001370  -0.004996  -0.000155  -0.000071  -0.000064
     6  H   -0.000135  -0.000044   0.001813  -0.000032  -0.000001  -0.000004
     7  H    0.519493   0.000033  -0.060490  -0.000051  -0.000000   0.000005
     8  H    0.000033   0.513868  -0.057850   0.003513   0.000585   0.001190
     9  N   -0.060490  -0.057850   7.013534   0.012311   0.000495  -0.003737
    10  O   -0.000051   0.003513   0.012311   8.027787   0.291454   0.330902
    11  H   -0.000000   0.000585   0.000495   0.291454   0.387981  -0.016824
    12  H    0.000005   0.001190  -0.003737   0.330902  -0.016824   0.369010
    13  O   -0.000397  -0.000121   0.022795   0.012350  -0.001956  -0.006944
    14  H    0.000117  -0.000547  -0.006064  -0.010579   0.001532  -0.002514
    15  H    0.000239   0.000217  -0.003895  -0.001110   0.000186   0.000768
    16  O   -0.000004   0.001510   0.001269  -0.005586  -0.000973  -0.001381
    17  H   -0.000001   0.000255  -0.000514   0.001549  -0.000576   0.000557
    18  H    0.000003  -0.001105  -0.002471  -0.008898  -0.000216   0.002261
              13         14         15         16         17         18
     1  C   -0.008557   0.007152  -0.009327  -0.010964  -0.000390  -0.000495
     2  C    0.004850  -0.004746   0.018173   0.000745   0.000989   0.002255
     3  C   -0.006447   0.004294   0.005433   0.025279   0.000571  -0.002301
     4  N    0.002686   0.002698   0.002018  -0.028995   0.002739  -0.001459
     5  H   -0.000337   0.000322   0.000041  -0.047996   0.002505   0.004978
     6  H    0.000007  -0.000007  -0.000077  -0.000041   0.000008   0.000044
     7  H   -0.000397   0.000117   0.000239  -0.000004  -0.000001   0.000003
     8  H   -0.000121  -0.000547   0.000217   0.001510   0.000255  -0.001105
     9  N    0.022795  -0.006064  -0.003895   0.001269  -0.000514  -0.002471
    10  O    0.012350  -0.010579  -0.001110  -0.005586   0.001549  -0.008898
    11  H   -0.001956   0.001532   0.000186  -0.000973  -0.000576  -0.000216
    12  H   -0.006944  -0.002514   0.000768  -0.001381   0.000557   0.002261
    13  O    8.000145   0.287736   0.315470   0.000360  -0.000051  -0.001052
    14  H    0.287736   0.405892  -0.021740  -0.002593   0.000161   0.000454
    15  H    0.315470  -0.021740   0.367831  -0.000391   0.000009   0.000201
    16  O    0.000360  -0.002593  -0.000391   8.169061   0.279681   0.293827
    17  H   -0.000051   0.000161   0.000009   0.279681   0.414062  -0.013881
    18  H   -0.001052   0.000454   0.000201   0.293827  -0.013881   0.353739
 Mulliken charges:
               1
     1  C   -0.088757
     2  C   -0.087650
     3  C   -0.148700
     4  N   -0.159342
     5  H    0.333972
     6  H    0.135135
     7  H    0.130696
     8  H    0.143760
     9  N   -0.316701
    10  O   -0.649264
    11  H    0.331524
    12  H    0.317843
    13  O   -0.620535
    14  H    0.338434
    15  H    0.325954
    16  O   -0.672809
    17  H    0.312326
    18  H    0.374115
 Sum of Mulliken charges =  -0.00000
 Mulliken charges with hydrogens summed into heavy atoms:
               1
     1  C    0.046377
     2  C    0.043046
     3  C   -0.004939
     4  N    0.174630
     9  N   -0.316701
    10  O    0.000103
    13  O    0.043853
    16  O    0.013632
         Mulliken charges condensed to fragments:
      1     -0.057588
      2      0.000103
      3      0.043853
      4      0.013632
 Electronic spatial extent (au):  <R**2>=         105380.2771
 Charge=             -0.0000 electrons
 Dipole moment (field-independent basis, Debye):
    X=             -1.0935    Y=             -5.4340    Z=              0.7930  Tot=              5.5994
 Quadrupole moment (field-independent basis, Debye-Ang):
   XX=            -79.9439   YY=           -191.9390   ZZ=            -29.1458
   XY=            -74.4887   XZ=             -8.5310   YZ=            -34.9210
 Traceless Quadrupole moment (field-independent basis, Debye-Ang):
   XX=             20.3990   YY=            -91.5961   ZZ=             71.1971
   XY=            -74.4887   XZ=             -8.5310   YZ=            -34.9210
 Octapole moment (field-independent basis, Debye-Ang**2):
  XXX=          -2337.8430  YYY=          -4890.4162  ZZZ=          -1223.9930  XYY=          -2353.1990
  XXY=          -1783.8134  XXZ=           -888.5784  XZZ=           -593.2361  YZZ=           -805.5884
  YYZ=          -1568.2524  XYZ=           -618.6696
 Hexadecapole moment (field-independent basis, Debye-Ang**3):
 XXXX=         -51035.3451 YYYY=        -108400.1960 ZZZZ=         -29035.1775 XXXY=         -40496.6902
 XXXZ=         -26286.7379 YYYX=         -58298.4571 YYYZ=         -43431.0325 ZZZX=         -17730.9697
 ZZZY=         -20699.0574 XXYY=         -40257.9541 XXZZ=         -16236.7584 YYZZ=         -21784.9634
 XXYZ=         -18067.7348 YYXZ=         -20947.4819 ZZXY=         -12608.7247
 N-N= 3.953149526594D+02 E-N=-1.859575646716D+03  KE= 4.537145921902D+02
 No NMR shielding tensors so no spin-rotation constants.
 Leave Link  601 at Fri Feb 17 21:26:04 2023, MaxMem=  6710886400 cpu:               2.3 elap:               0.1
 (Enter /data0/home/software/g16/l122.exe)
 CPIOFr:  IOpCl= 0 IRwI=-1 IRwCP=  731 ICalc= -1 LCPTot=      119191 Len1MO=      310658 IndFrg=      119191
 CPIOFr:  IOpCl= 0 IRwI=-1 IRwCP=  731 ICalc=  0 LCPTot=      119191 Len1MO=      310658 IndFrg=      429849
 Counterpoise: doing calculation for fragment   1 using the basis set of the full-system, NewBq=T
 Leave Link  122 at Fri Feb 17 21:26:04 2023, MaxMem=  6710886400 cpu:               0.2 elap:               0.0
 (Enter /data0/home/software/g16/l301.exe)
 Basis read from rwf:  (5D, 7F)
 No pseudopotential information found on rwf file.
   276 basis functions,   416 primitive gaussians,   292 cartesian basis functions
    18 alpha electrons       18 beta electrons
       nuclear repulsion energy       160.9886598869 Hartrees.
 IExCor= 4336 DFT=T Ex+Corr=M062X ExCW=0 ScaHFX=  0.540000
 ScaDFX=  1.000000  1.000000  1.000000  1.000000 ScalE2=  1.000000  1.000000
 IRadAn=      5 IRanWt=     -1 IRanGd=            0 ICorTp=0 IEmpDi=131
 NAtoms=   18 NActive=   18 NUniq=   18 SFac= 1.00D+00 NAtFMM=   60 NAOKFM=F Big=F
 Integral buffers will be    131072 words long.
 Raffenetti 2 integral format.
 Two-electron integral symmetry is turned off.
 R6Disp:  Grimme-D3 Dispersion energy=       -0.0000417754 Hartrees.
 Nuclear repulsion after empirical dispersion term =      160.9886181114 Hartrees.
 No density basis found on file   718.
 Leave Link  301 at Fri Feb 17 21:26:04 2023, MaxMem=  6710886400 cpu:               1.3 elap:               0.1
 (Enter /data0/home/software/g16/l302.exe)
 NPDir=0 NMtPBC=     1 NCelOv=     1 NCel=       1 NClECP=     1 NCelD=      1
         NCelK=      1 NCelE2=     1 NClLst=     1 CellRange=     0.0.
 One-electron integrals computed using PRISM.
 NBasis=   276 RedAO= T EigKep=  4.59D-05  NBF=   276
 NBsUse=   276 1.00D-06 EigRej= -1.00D+00 NBFU=   276
 Precomputing XC quadrature grid using
 IXCGrd= 4 IRadAn=           5 IRanWt=          -1 IRanGd=           0 AccXCQ= 0.00D+00.
 Generated NRdTot=       0 NPtTot=           0 NUsed=           0 NTot=          32
 NSgBfM=   292   292   292   292   292 MxSgAt=    18 MxSgA2=    18.
 Leave Link  302 at Fri Feb 17 21:26:04 2023, MaxMem=  6710886400 cpu:               4.4 elap:               0.2
 (Enter /data0/home/software/g16/l303.exe)
 DipDrv:  MaxL=1.
 Leave Link  303 at Fri Feb 17 21:26:04 2023, MaxMem=  6710886400 cpu:               0.6 elap:               0.0
 (Enter /data0/home/software/g16/l401.exe)
 ExpMin= 4.38D-02 ExpMax= 8.59D+03 ExpMxC= 1.30D+03 IAcc=3 IRadAn=         5 AccDes= 0.00D+00
 Harris functional with IExCor= 1009 and IRadAn=       5 diagonalized for initial guess.
 HarFok:  IExCor= 1009 AccDes= 0.00D+00 IRadAn=         5 IDoV= 1 UseB2=F ITyADJ=14
 ICtDFT=  3500011 ScaDFX=  1.000000  1.000000  1.000000  1.000000
 FoFCou: FMM=F IPFlag=           0 FMFlag=      100000 FMFlg1=           0
         NFxFlg=           0 DoJE=T BraDBF=F KetDBF=T FulRan=T
         wScrn=  0.000000 ICntrl=       500 IOpCl=  0 I1Cent=   200000004 NGrid=           0
         NMat0=    1 NMatS0=      1 NMatT0=    0 NMatD0=    1 NMtDS0=    0 NMtDT0=    0
 Symmetry not used in FoFCou.
 Harris En= -226.054067290235    
 JPrj=0 DoOrth=F DoCkMO=F.
 Leave Link  401 at Fri Feb 17 21:26:05 2023, MaxMem=  6710886400 cpu:              15.3 elap:               0.7
 (Enter /data0/home/software/g16/l502.exe)
 Two-electron integral symmetry not used.
 Closed shell SCF:
 Using DIIS extrapolation, IDIIS=  1040.
 NGot=  6710886400 LenX=  6710706710 LenY=  6710621005
 Requested convergence on RMS density matrix=1.00D-08 within 128 cycles.
 Requested convergence on MAX density matrix=1.00D-06.
 Requested convergence on             energy=1.00D-06.
 No special actions if energy rises.
 Fock matrices will be formed incrementally for  20 cycles.

 Cycle   1  Pass 1  IDiag  1:
 FoFJK:  IHMeth= 1 ICntrl=       0 DoSepK=F KAlg= 0 I1Cent=           0 FoldK=F
 IRaf= 940000000 NMat=       1 IRICut=       1 DoRegI=T DoRafI=F ISym2E= 0 IDoP0=0 IntGTp=1.
 FoFCou: FMM=F IPFlag=           0 FMFlag=      100000 FMFlg1=           0
         NFxFlg=           0 DoJE=F BraDBF=F KetDBF=F FulRan=T
         wScrn=  0.000000 ICntrl=         0 IOpCl=  0 I1Cent=           0 NGrid=           0
         NMat0=    1 NMatS0=      1 NMatT0=    0 NMatD0=    1 NMtDS0=    0 NMtDT0=    0
 Symmetry not used in FoFCou.
 E= -226.087005821436    
 DIIS: error= 1.78D-02 at cycle   1 NSaved=   1.
 NSaved= 1 IEnMin= 1 EnMin= -226.087005821436     IErMin= 1 ErrMin= 1.78D-02
 ErrMax= 1.78D-02  0.00D+00 EMaxC= 1.00D-01 BMatC= 1.33D-01 BMatP= 1.33D-01
 IDIUse=3 WtCom= 8.22D-01 WtEn= 1.78D-01
 Coeff-Com:  0.100D+01
 Coeff-En:   0.100D+01
 Coeff:      0.100D+01
 Gap=     0.310 Goal=   None    Shift=    0.000
 GapD=    0.310 DampG=1.000 DampE=0.500 DampFc=0.5000 IDamp=-1.
 Damping current iteration by 5.00D-01
 RMSDP=3.44D-03 MaxDP=2.40D-01              OVMax= 1.75D-01

 Cycle   2  Pass 1  IDiag  1:
 RMSU=  1.72D-03    CP:  1.01D+00
 E= -226.134376075656     Delta-E=       -0.047370254220 Rises=F Damp=T
 DIIS: error= 4.79D-03 at cycle   2 NSaved=   2.
 NSaved= 2 IEnMin= 2 EnMin= -226.134376075656     IErMin= 2 ErrMin= 4.79D-03
 ErrMax= 4.79D-03  0.00D+00 EMaxC= 1.00D-01 BMatC= 1.57D-02 BMatP= 1.33D-01
 IDIUse=3 WtCom= 9.52D-01 WtEn= 4.79D-02
 Coeff-Com: -0.931D-01 0.109D+01
 Coeff-En:   0.000D+00 0.100D+01
 Coeff:     -0.887D-01 0.109D+01
 Gap=     0.286 Goal=   None    Shift=    0.000
 RMSDP=9.38D-04 MaxDP=6.46D-02 DE=-4.74D-02 OVMax= 1.16D-01

 Cycle   3  Pass 1  IDiag  1:
 RMSU=  7.26D-04    CP:  9.94D-01  6.60D-01
 E= -226.179418638932     Delta-E=       -0.045042563276 Rises=F Damp=F
 DIIS: error= 7.18D-03 at cycle   3 NSaved=   3.
 NSaved= 3 IEnMin= 3 EnMin= -226.179418638932     IErMin= 2 ErrMin= 4.79D-03
 ErrMax= 7.18D-03  0.00D+00 EMaxC= 1.00D-01 BMatC= 1.04D-02 BMatP= 1.57D-02
 IDIUse=3 WtCom= 9.28D-01 WtEn= 7.18D-02
 Coeff-Com: -0.152D+00 0.541D+00 0.611D+00
 Coeff-En:   0.000D+00 0.000D+00 0.100D+01
 Coeff:     -0.141D+00 0.502D+00 0.639D+00
 Gap=     0.290 Goal=   None    Shift=    0.000
 RMSDP=3.56D-04 MaxDP=1.43D-02 DE=-4.50D-02 OVMax= 4.39D-02

 Cycle   4  Pass 1  IDiag  1:
 RMSU=  2.75D-04    CP:  9.96D-01  7.72D-01  8.40D-01
 E= -226.187176327188     Delta-E=       -0.007757688256 Rises=F Damp=F
 DIIS: error= 2.46D-03 at cycle   4 NSaved=   4.
 NSaved= 4 IEnMin= 4 EnMin= -226.187176327188     IErMin= 4 ErrMin= 2.46D-03
 ErrMax= 2.46D-03  0.00D+00 EMaxC= 1.00D-01 BMatC= 1.53D-03 BMatP= 1.04D-02
 IDIUse=3 WtCom= 9.75D-01 WtEn= 2.46D-02
 Coeff-Com: -0.639D-01 0.158D+00 0.343D+00 0.563D+00
 Coeff-En:   0.000D+00 0.000D+00 0.942D-01 0.906D+00
 Coeff:     -0.623D-01 0.154D+00 0.337D+00 0.571D+00
 Gap=     0.284 Goal=   None    Shift=    0.000
 RMSDP=1.40D-04 MaxDP=5.23D-03 DE=-7.76D-03 OVMax= 1.10D-02

 Cycle   5  Pass 1  IDiag  1:
 RMSU=  7.74D-05    CP:  9.93D-01  7.26D-01  9.00D-01  7.47D-01
 E= -226.188477768244     Delta-E=       -0.001301441055 Rises=F Damp=F
 DIIS: error= 3.44D-04 at cycle   5 NSaved=   5.
 NSaved= 5 IEnMin= 5 EnMin= -226.188477768244     IErMin= 5 ErrMin= 3.44D-04
 ErrMax= 3.44D-04  0.00D+00 EMaxC= 1.00D-01 BMatC= 2.74D-05 BMatP= 1.53D-03
 IDIUse=3 WtCom= 9.97D-01 WtEn= 3.44D-03
 Coeff-Com: -0.152D-01 0.303D-01 0.851D-01 0.199D+00 0.700D+00
 Coeff-En:   0.000D+00 0.000D+00 0.000D+00 0.000D+00 0.100D+01
 Coeff:     -0.152D-01 0.302D-01 0.848D-01 0.199D+00 0.702D+00
 Gap=     0.284 Goal=   None    Shift=    0.000
 RMSDP=1.90D-05 MaxDP=8.26D-04 DE=-1.30D-03 OVMax= 2.27D-03

 Cycle   6  Pass 1  IDiag  1:
 RMSU=  1.63D-05    CP:  9.93D-01  7.24D-01  9.07D-01  7.66D-01  9.26D-01
 E= -226.188499348061     Delta-E=       -0.000021579817 Rises=F Damp=F
 DIIS: error= 1.13D-04 at cycle   6 NSaved=   6.
 NSaved= 6 IEnMin= 6 EnMin= -226.188499348061     IErMin= 6 ErrMin= 1.13D-04
 ErrMax= 1.13D-04  0.00D+00 EMaxC= 1.00D-01 BMatC= 4.47D-06 BMatP= 2.74D-05
 IDIUse=3 WtCom= 9.99D-01 WtEn= 1.13D-03
 Coeff-Com: -0.396D-02 0.591D-02 0.232D-01 0.645D-01 0.350D+00 0.560D+00
 Coeff-En:   0.000D+00 0.000D+00 0.000D+00 0.000D+00 0.179D-01 0.982D+00
 Coeff:     -0.395D-02 0.590D-02 0.232D-01 0.644D-01 0.350D+00 0.561D+00
 Gap=     0.284 Goal=   None    Shift=    0.000
 RMSDP=1.03D-05 MaxDP=4.93D-04 DE=-2.16D-05 OVMax= 9.53D-04

 Cycle   7  Pass 1  IDiag  1:
 RMSU=  6.19D-06    CP:  9.93D-01  7.20D-01  9.10D-01  7.65D-01  9.70D-01
                    CP:  9.54D-01
 E= -226.188503510019     Delta-E=       -0.000004161958 Rises=F Damp=F
 DIIS: error= 2.21D-05 at cycle   7 NSaved=   7.
 NSaved= 7 IEnMin= 7 EnMin= -226.188503510019     IErMin= 7 ErrMin= 2.21D-05
 ErrMax= 2.21D-05  0.00D+00 EMaxC= 1.00D-01 BMatC= 1.54D-07 BMatP= 4.47D-06
 IDIUse=1 WtCom= 1.00D+00 WtEn= 0.00D+00
 Coeff-Com:  0.187D-02-0.397D-02-0.861D-02-0.221D-01-0.527D-01 0.802D-01
 Coeff-Com:  0.101D+01
 Coeff:      0.187D-02-0.397D-02-0.861D-02-0.221D-01-0.527D-01 0.802D-01
 Coeff:      0.101D+01
 Gap=     0.284 Goal=   None    Shift=    0.000
 RMSDP=6.28D-06 MaxDP=3.48D-04 DE=-4.16D-06 OVMax= 2.33D-04

 Cycle   8  Pass 1  IDiag  1:
 RMSU=  1.46D-06    CP:  9.92D-01  7.17D-01  9.13D-01  7.65D-01  9.94D-01
                    CP:  1.09D+00  1.17D+00
 E= -226.188503733192     Delta-E=       -0.000000223173 Rises=F Damp=F
 DIIS: error= 7.32D-06 at cycle   8 NSaved=   8.
 NSaved= 8 IEnMin= 8 EnMin= -226.188503733192     IErMin= 8 ErrMin= 7.32D-06
 ErrMax= 7.32D-06  0.00D+00 EMaxC= 1.00D-01 BMatC= 1.32D-08 BMatP= 1.54D-07
 IDIUse=1 WtCom= 1.00D+00 WtEn= 0.00D+00
 Coeff-Com:  0.728D-03-0.148D-02-0.317D-02-0.905D-02-0.252D-01 0.131D-01
 Coeff-Com:  0.345D+00 0.680D+00
 Coeff:      0.728D-03-0.148D-02-0.317D-02-0.905D-02-0.252D-01 0.131D-01
 Coeff:      0.345D+00 0.680D+00
 Gap=     0.284 Goal=   None    Shift=    0.000
 RMSDP=6.57D-07 MaxDP=2.30D-05 DE=-2.23D-07 OVMax= 5.38D-05

 Cycle   9  Pass 1  IDiag  1:
 RMSU=  3.88D-07    CP:  9.92D-01  7.17D-01  9.13D-01  7.64D-01  9.96D-01
                    CP:  1.10D+00  1.21D+00  1.09D+00
 E= -226.188503745477     Delta-E=       -0.000000012285 Rises=F Damp=F
 DIIS: error= 2.55D-06 at cycle   9 NSaved=   9.
 NSaved= 9 IEnMin= 9 EnMin= -226.188503745477     IErMin= 9 ErrMin= 2.55D-06
 ErrMax= 2.55D-06  0.00D+00 EMaxC= 1.00D-01 BMatC= 3.01D-09 BMatP= 1.32D-08
 IDIUse=1 WtCom= 1.00D+00 WtEn= 0.00D+00
 Coeff-Com: -0.108D-03 0.240D-03 0.715D-03 0.105D-02 0.118D-02-0.132D-01
 Coeff-Com: -0.854D-01 0.301D+00 0.794D+00
 Coeff:     -0.108D-03 0.240D-03 0.715D-03 0.105D-02 0.118D-02-0.132D-01
 Coeff:     -0.854D-01 0.301D+00 0.794D+00
 Gap=     0.284 Goal=   None    Shift=    0.000
 RMSDP=3.08D-07 MaxDP=1.61D-05 DE=-1.23D-08 OVMax= 2.03D-05

 Cycle  10  Pass 1  IDiag  1:
 RMSU=  1.37D-07    CP:  9.92D-01  7.17D-01  9.13D-01  7.64D-01  9.96D-01
                    CP:  1.10D+00  1.22D+00  1.22D+00  1.02D+00
 E= -226.188503748509     Delta-E=       -0.000000003032 Rises=F Damp=F
 DIIS: error= 4.33D-07 at cycle  10 NSaved=  10.
 NSaved=10 IEnMin=10 EnMin= -226.188503748509     IErMin=10 ErrMin= 4.33D-07
 ErrMax= 4.33D-07  0.00D+00 EMaxC= 1.00D-01 BMatC= 6.48D-11 BMatP= 3.01D-09
 IDIUse=1 WtCom= 1.00D+00 WtEn= 0.00D+00
 Coeff-Com: -0.467D-04 0.101D-03 0.276D-03 0.530D-03 0.129D-02-0.181D-02
 Coeff-Com: -0.290D-01 0.154D-01 0.962D-01 0.917D+00
 Coeff:     -0.467D-04 0.101D-03 0.276D-03 0.530D-03 0.129D-02-0.181D-02
 Coeff:     -0.290D-01 0.154D-01 0.962D-01 0.917D+00
 Gap=     0.284 Goal=   None    Shift=    0.000
 RMSDP=5.08D-08 MaxDP=2.46D-06 DE=-3.03D-09 OVMax= 4.28D-06

 Cycle  11  Pass 1  IDiag  1:
 RMSU=  2.74D-08    CP:  9.92D-01  7.17D-01  9.13D-01  7.64D-01  9.96D-01
                    CP:  1.10D+00  1.22D+00  1.24D+00  1.07D+00  1.10D+00
 E= -226.188503748574     Delta-E=       -0.000000000065 Rises=F Damp=F
 DIIS: error= 2.57D-07 at cycle  11 NSaved=  11.
 NSaved=11 IEnMin=11 EnMin= -226.188503748574     IErMin=11 ErrMin= 2.57D-07
 ErrMax= 2.57D-07  0.00D+00 EMaxC= 1.00D-01 BMatC= 1.59D-11 BMatP= 6.48D-11
 IDIUse=1 WtCom= 1.00D+00 WtEn= 0.00D+00
 Coeff-Com: -0.658D-05 0.138D-04 0.460D-04 0.902D-04 0.329D-03 0.440D-03
 Coeff-Com: -0.435D-02-0.169D-01-0.311D-01 0.397D+00 0.655D+00
 Coeff:     -0.658D-05 0.138D-04 0.460D-04 0.902D-04 0.329D-03 0.440D-03
 Coeff:     -0.435D-02-0.169D-01-0.311D-01 0.397D+00 0.655D+00
 Gap=     0.284 Goal=   None    Shift=    0.000
 RMSDP=1.65D-08 MaxDP=8.97D-07 DE=-6.47D-11 OVMax= 1.87D-06

 Cycle  12  Pass 1  IDiag  1:
 RMSU=  1.17D-08    CP:  9.92D-01  7.17D-01  9.13D-01  7.64D-01  9.96D-01
                    CP:  1.10D+00  1.22D+00  1.24D+00  1.07D+00  1.15D+00
                    CP:  8.71D-01
 E= -226.188503748592     Delta-E=       -0.000000000018 Rises=F Damp=F
 DIIS: error= 7.15D-08 at cycle  12 NSaved=  12.
 NSaved=12 IEnMin=12 EnMin= -226.188503748592     IErMin=12 ErrMin= 7.15D-08
 ErrMax= 7.15D-08  0.00D+00 EMaxC= 1.00D-01 BMatC= 1.70D-12 BMatP= 1.59D-11
 IDIUse=1 WtCom= 1.00D+00 WtEn= 0.00D+00
 Coeff-Com:  0.347D-05-0.745D-05-0.148D-04-0.305D-04-0.241D-04 0.425D-03
 Coeff-Com:  0.197D-02-0.670D-02-0.253D-01 0.173D-02 0.254D+00 0.774D+00
 Coeff:      0.347D-05-0.745D-05-0.148D-04-0.305D-04-0.241D-04 0.425D-03
 Coeff:      0.197D-02-0.670D-02-0.253D-01 0.173D-02 0.254D+00 0.774D+00
 Gap=     0.284 Goal=   None    Shift=    0.000
 RMSDP=5.50D-09 MaxDP=2.07D-07 DE=-1.78D-11 OVMax= 3.85D-07

 SCF Done:  E(RM062X) =  -226.188503749     A.U. after   12 cycles
            NFock= 12  Conv=0.55D-08     -V/T= 2.0053
 KE= 2.249972175735D+02 PE=-8.484216282608D+02 EE= 2.362472888273D+02
 Leave Link  502 at Fri Feb 17 21:26:24 2023, MaxMem=  6710886400 cpu:             444.1 elap:              18.6
 (Enter /data0/home/software/g16/l601.exe)
 Copying SCF densities to generalized density rwf, IOpCl= 0 IROHF=0.

 **********************************************************************

            Population analysis using the SCF density.

 **********************************************************************

 Alpha  occ. eigenvalues --  -14.81510 -14.73527 -10.60453 -10.57713 -10.55844
 Alpha  occ. eigenvalues --   -1.11746  -0.96861  -0.83726  -0.70062  -0.67001
 Alpha  occ. eigenvalues --   -0.64206  -0.51500  -0.50533  -0.50097  -0.48007
 Alpha  occ. eigenvalues --   -0.34485  -0.34063  -0.28495
 Alpha virt. eigenvalues --   -0.00096   0.02428   0.03236   0.03584   0.05146
 Alpha virt. eigenvalues --    0.05462   0.05773   0.07405   0.07567   0.08431
 Alpha virt. eigenvalues --    0.09990   0.10188   0.10820   0.13454   0.14158
 Alpha virt. eigenvalues --    0.14657   0.15701   0.16819   0.17999   0.18416
 Alpha virt. eigenvalues --    0.19147   0.20625   0.20812   0.21061   0.22272
 Alpha virt. eigenvalues --    0.22896   0.23331   0.24559   0.24912   0.25917
 Alpha virt. eigenvalues --    0.26533   0.26774   0.27989   0.28342   0.29122
 Alpha virt. eigenvalues --    0.30884   0.30996   0.31779   0.33522   0.34794
 Alpha virt. eigenvalues --    0.36271   0.37387   0.38285   0.39202   0.41145
 Alpha virt. eigenvalues --    0.43516   0.44462   0.44812   0.48511   0.50434
 Alpha virt. eigenvalues --    0.55849   0.57181   0.57791   0.58781   0.61671
 Alpha virt. eigenvalues --    0.62660   0.65233   0.65699   0.66267   0.67917
 Alpha virt. eigenvalues --    0.69490   0.71256   0.72415   0.73015   0.75851
 Alpha virt. eigenvalues --    0.76041   0.76750   0.77867   0.78277   0.78991
 Alpha virt. eigenvalues --    0.79819   0.80541   0.81124   0.82492   0.84521
 Alpha virt. eigenvalues --    0.85045   0.85375   0.89271   0.90173   0.91222
 Alpha virt. eigenvalues --    0.92662   0.93246   0.94971   0.96342   0.99555
 Alpha virt. eigenvalues --    1.01358   1.02389   1.03299   1.04325   1.07702
 Alpha virt. eigenvalues --    1.09723   1.12721   1.13266   1.15868   1.17773
 Alpha virt. eigenvalues --    1.20914   1.21380   1.29622   1.33098   1.33563
 Alpha virt. eigenvalues --    1.36856   1.37921   1.42327   1.43509   1.44371
 Alpha virt. eigenvalues --    1.44957   1.48250   1.49552   1.53866   1.65923
 Alpha virt. eigenvalues --    1.69514   1.71185   1.74357   1.76235   1.77842
 Alpha virt. eigenvalues --    1.78382   1.81076   1.83719   1.85509   1.85990
 Alpha virt. eigenvalues --    1.89448   1.90744   1.91942   1.97637   1.99792
 Alpha virt. eigenvalues --    2.01464   2.04215   2.09710   2.13274   2.16011
 Alpha virt. eigenvalues --    2.17300   2.21918   2.22309   2.24663   2.28047
 Alpha virt. eigenvalues --    2.30658   2.32176   2.39626   2.41143   2.43445
 Alpha virt. eigenvalues --    2.45314   2.47268   2.47581   2.48762   2.53556
 Alpha virt. eigenvalues --    2.55234   2.57785   2.58799   2.61285   2.62062
 Alpha virt. eigenvalues --    2.62622   2.65502   2.66423   2.67596   2.69128
 Alpha virt. eigenvalues --    2.70216   2.72203   2.75342   2.76150   2.78974
 Alpha virt. eigenvalues --    2.82104   2.84998   2.88421   2.89326   2.92081
 Alpha virt. eigenvalues --    2.94098   2.95855   2.97859   2.98731   3.01659
 Alpha virt. eigenvalues --    3.06326   3.07281   3.11540   3.13256   3.20253
 Alpha virt. eigenvalues --    3.27558   3.32487   3.35882   3.37499   3.39993
 Alpha virt. eigenvalues --    3.41588   3.44765   3.46190   3.48400   3.48712
 Alpha virt. eigenvalues --    3.51090   3.54461   3.58039   3.58891   3.60706
 Alpha virt. eigenvalues --    3.62119   3.63127   3.65015   3.68623   3.69016
 Alpha virt. eigenvalues --    3.71870   3.74841   3.97030   3.98830   3.99775
 Alpha virt. eigenvalues --    4.02314   4.08800   4.48747   4.52016   4.56194
 Alpha virt. eigenvalues --    4.60212   4.62486   4.92667   4.96961   4.99209
 Alpha virt. eigenvalues --    5.02896   5.03404   5.03723   5.06467   5.11714
 Alpha virt. eigenvalues --    5.12510   5.16233   5.23934   5.27981   5.35490
 Alpha virt. eigenvalues --    5.42398   5.54732   5.60824   9.74091   9.74676
 Alpha virt. eigenvalues --    9.77891   9.81137   9.83472   9.85323   9.90261
 Alpha virt. eigenvalues --    9.93119   9.93497   9.96205  10.02775  10.05330
 Alpha virt. eigenvalues --   10.07764  10.13115  10.27509  12.78086  12.82549
 Alpha virt. eigenvalues --   12.97738  13.17677  13.24703  13.37050  13.56193
 Alpha virt. eigenvalues --   13.69011  13.89902  17.53735  17.62795  17.87214
 Alpha virt. eigenvalues --   23.91272  24.10045  24.14205  35.65120  35.70728
 Alpha virt. eigenvalues --  132.51092 134.76598 135.93104
          Condensed to atoms (all electrons):
               1          2          3          4          5          6
     1  C    5.472136   0.241873  -0.231860   0.390552  -0.051280   0.377809
     2  C    0.241873   5.249768  -0.068514  -0.177681   0.028050   0.004240
     3  C   -0.231860  -0.068514   5.241834   0.293617  -0.023486   0.010748
     4  N    0.390552  -0.177681   0.293617   6.338777   0.374534  -0.033524
     5  H   -0.051280   0.028050  -0.023486   0.374534   0.404174  -0.002131
     6  H    0.377809   0.004240   0.010748  -0.033524  -0.002131   0.505779
     7  H   -0.068096   0.442315   0.015884   0.008392   0.000018  -0.000060
     8  H   -0.004942   0.019827   0.440504  -0.060837   0.000108  -0.000040
     9  N    0.014281   0.299220   0.378201   0.015104   0.001116   0.001962
    10  O   -0.000536   0.000013  -0.001068   0.004400   0.000183  -0.000026
    11  H   -0.000019  -0.000007   0.000549  -0.000028   0.000012  -0.000001
    12  H   -0.000151   0.000422   0.000034   0.000163   0.000036   0.000001
    13  O    0.000962   0.009243  -0.002524  -0.000746   0.000128  -0.000004
    14  H    0.002892   0.002084  -0.007231  -0.000079  -0.000075   0.000005
    15  H   -0.007003  -0.016000   0.012552   0.000891   0.000006  -0.000008
    16  O   -0.002675   0.000984   0.001603   0.015355   0.001841  -0.000035
    17  H    0.000194  -0.000227   0.001086  -0.000323  -0.000128   0.000013
    18  H   -0.000543  -0.000142   0.004159  -0.005635   0.000144   0.000033
               7          8          9         10         11         12
     1  C   -0.068096  -0.004942   0.014281  -0.000536  -0.000019  -0.000151
     2  C    0.442315   0.019827   0.299220   0.000013  -0.000007   0.000422
     3  C    0.015884   0.440504   0.378201  -0.001068   0.000549   0.000034
     4  N    0.008392  -0.060837   0.015104   0.004400  -0.000028   0.000163
     5  H    0.000018   0.000108   0.001116   0.000183   0.000012   0.000036
     6  H   -0.000060  -0.000040   0.001962  -0.000026  -0.000001   0.000001
     7  H    0.527098   0.000020  -0.050910   0.000001   0.000000   0.000003
     8  H    0.000020   0.499229  -0.047527  -0.001752  -0.000104   0.000567
     9  N   -0.050910  -0.047527   6.645998   0.000282  -0.000064   0.000223
    10  O    0.000001  -0.001752   0.000282   0.002111  -0.000647  -0.000294
    11  H    0.000000  -0.000104  -0.000064  -0.000647   0.000895  -0.000038
    12  H    0.000003   0.000567   0.000223  -0.000294  -0.000038   0.000407
    13  O    0.000260   0.000066   0.003509  -0.000090   0.000037   0.000275
    14  H   -0.000025   0.000129  -0.000949  -0.000000  -0.000015  -0.000088
    15  H   -0.000312  -0.000053  -0.002552   0.000052  -0.000014  -0.000100
    16  O   -0.000016   0.001967  -0.000414   0.001924   0.000317  -0.000074
    17  H   -0.000000   0.000216   0.000048  -0.000224  -0.000057   0.000009
    18  H    0.000004   0.000656  -0.000061  -0.001299  -0.000295   0.000131
              13         14         15         16         17         18
     1  C    0.000962   0.002892  -0.007003  -0.002675   0.000194  -0.000543
     2  C    0.009243   0.002084  -0.016000   0.000984  -0.000227  -0.000142
     3  C   -0.002524  -0.007231   0.012552   0.001603   0.001086   0.004159
     4  N   -0.000746  -0.000079   0.000891   0.015355  -0.000323  -0.005635
     5  H    0.000128  -0.000075   0.000006   0.001841  -0.000128   0.000144
     6  H   -0.000004   0.000005  -0.000008  -0.000035   0.000013   0.000033
     7  H    0.000260  -0.000025  -0.000312  -0.000016  -0.000000   0.000004
     8  H    0.000066   0.000129  -0.000053   0.001967   0.000216   0.000656
     9  N    0.003509  -0.000949  -0.002552  -0.000414   0.000048  -0.000061
    10  O   -0.000090  -0.000000   0.000052   0.001924  -0.000224  -0.001299
    11  H    0.000037  -0.000015  -0.000014   0.000317  -0.000057  -0.000295
    12  H    0.000275  -0.000088  -0.000100  -0.000074   0.000009   0.000131
    13  O    0.004586  -0.000500  -0.003570  -0.000131   0.000005   0.000127
    14  H   -0.000500   0.001520  -0.001040   0.000193  -0.000008  -0.000211
    15  H   -0.003570  -0.001040   0.005025  -0.000027   0.000002   0.000041
    16  O   -0.000131   0.000193  -0.000027   0.016738  -0.003158  -0.007118
    17  H    0.000005  -0.000008   0.000002  -0.003158   0.001333   0.001187
    18  H    0.000127  -0.000211   0.000041  -0.007118   0.001187   0.004203
 Mulliken charges:
               1
     1  C   -0.133592
     2  C   -0.035468
     3  C   -0.066088
     4  N   -0.162933
     5  H    0.266749
     6  H    0.135239
     7  H    0.125424
     8  H    0.151966
     9  N   -0.257469
    10  O   -0.003029
    11  H   -0.000523
    12  H   -0.001527
    13  O   -0.011633
    14  H    0.003399
    15  H    0.012110
    16  O   -0.027275
    17  H    0.000032
    18  H    0.004618
 Sum of Mulliken charges =  -0.00000
 Mulliken charges with hydrogens summed into heavy atoms:
               1
     1  C    0.001647
     2  C    0.089956
     3  C    0.085878
     4  N    0.103816
     9  N   -0.257469
    10  O   -0.005078
    13  O    0.003875
    16  O   -0.022625
         Mulliken charges condensed to fragments:
      1      0.023828
      2     -0.005078
      3      0.003875
      4     -0.022625
 Electronic spatial extent (au):  <R**2>=          64409.6194
 Charge=              0.0000 electrons
 Dipole moment (field-independent basis, Debye):
    X=             -1.6914    Y=             -2.3718    Z=              2.3362  Tot=              3.7342
 Quadrupole moment (field-independent basis, Debye-Ang):
   XX=            -72.1485   YY=            -92.7118   ZZ=             22.9652
   XY=            -54.9065   XZ=              7.1072   YZ=              7.5543
 Traceless Quadrupole moment (field-independent basis, Debye-Ang):
   XX=            -24.8501   YY=            -45.4134   ZZ=             70.2636
   XY=            -54.9065   XZ=              7.1072   YZ=              7.5543
 Octapole moment (field-independent basis, Debye-Ang**2):
  XXX=          -1878.0565  YYY=          -2564.2500  ZZZ=           -132.5528  XYY=          -1528.4933
  XXY=          -1447.2369  XXZ=           -526.6120  XZZ=              9.1444  YZZ=             26.9199
  YYZ=           -546.1755  XYZ=           -231.8944
 Hexadecapole moment (field-independent basis, Debye-Ang**3):
 XXXX=         -39602.6532 YYYY=         -60858.5499 ZZZZ=         -10237.6854 XXXY=         -32644.0848
 XXXZ=         -18087.3379 YYYX=         -37338.0585 YYYZ=         -21719.4361 ZZZX=          -5020.2389
 ZZZY=          -5641.5023 XXYY=         -30408.5442 XXZZ=          -7247.1505 YYZZ=          -7239.2316
 XXYZ=         -12033.9849 YYXZ=         -11554.6563 ZZXY=          -3729.6761
 N-N= 1.609886181114D+02 E-N=-8.484216318234D+02  KE= 2.249972175735D+02
 No NMR shielding tensors so no spin-rotation constants.
 Leave Link  601 at Fri Feb 17 21:26:24 2023, MaxMem=  6710886400 cpu:               2.3 elap:               0.1
 (Enter /data0/home/software/g16/l122.exe)
 CPIOFr:  IOpCl= 0 IRwI=-1 IRwCP=  731 ICalc=  1 LCPTot=      119191 Len1MO=      310658 IndFrg=      740507
 Counterpoise: doing calculation for fragment   2 using the basis set of the full-system, NewBq=T
 Leave Link  122 at Fri Feb 17 21:26:24 2023, MaxMem=  6710886400 cpu:               0.1 elap:               0.0
 (Enter /data0/home/software/g16/l301.exe)
 Basis read from rwf:  (5D, 7F)
 No pseudopotential information found on rwf file.
   276 basis functions,   416 primitive gaussians,   292 cartesian basis functions
     5 alpha electrons        5 beta electrons
       nuclear repulsion energy         9.0684981312 Hartrees.
 IExCor= 4336 DFT=T Ex+Corr=M062X ExCW=0 ScaHFX=  0.540000
 ScaDFX=  1.000000  1.000000  1.000000  1.000000 ScalE2=  1.000000  1.000000
 IRadAn=      5 IRanWt=     -1 IRanGd=            0 ICorTp=0 IEmpDi=131
 NAtoms=   18 NActive=   18 NUniq=   18 SFac= 1.00D+00 NAtFMM=   60 NAOKFM=F Big=F
 Integral buffers will be    131072 words long.
 Raffenetti 2 integral format.
 Two-electron integral symmetry is turned off.
 R6Disp:  Grimme-D3 Dispersion energy=       -0.0000000079 Hartrees.
 Nuclear repulsion after empirical dispersion term =        9.0684981232 Hartrees.
 No density basis found on file   718.
 Leave Link  301 at Fri Feb 17 21:26:24 2023, MaxMem=  6710886400 cpu:               1.3 elap:               0.1
 (Enter /data0/home/software/g16/l302.exe)
 NPDir=0 NMtPBC=     1 NCelOv=     1 NCel=       1 NClECP=     1 NCelD=      1
         NCelK=      1 NCelE2=     1 NClLst=     1 CellRange=     0.0.
 One-electron integrals computed using PRISM.
 NBasis=   276 RedAO= T EigKep=  4.59D-05  NBF=   276
 NBsUse=   276 1.00D-06 EigRej= -1.00D+00 NBFU=   276
 Precomputing XC quadrature grid using
 IXCGrd= 4 IRadAn=           5 IRanWt=          -1 IRanGd=           0 AccXCQ= 0.00D+00.
 Generated NRdTot=       0 NPtTot=           0 NUsed=           0 NTot=          32
 NSgBfM=   292   292   292   292   292 MxSgAt=    18 MxSgA2=    18.
 Leave Link  302 at Fri Feb 17 21:26:24 2023, MaxMem=  6710886400 cpu:               4.5 elap:               0.2
 (Enter /data0/home/software/g16/l303.exe)
 DipDrv:  MaxL=1.
 Leave Link  303 at Fri Feb 17 21:26:24 2023, MaxMem=  6710886400 cpu:               0.7 elap:               0.0
 (Enter /data0/home/software/g16/l401.exe)
 ExpMin= 4.38D-02 ExpMax= 8.59D+03 ExpMxC= 1.30D+03 IAcc=3 IRadAn=         5 AccDes= 0.00D+00
 Harris functional with IExCor= 1009 and IRadAn=       5 diagonalized for initial guess.
 HarFok:  IExCor= 1009 AccDes= 0.00D+00 IRadAn=         5 IDoV= 1 UseB2=F ITyADJ=14
 ICtDFT=  3500011 ScaDFX=  1.000000  1.000000  1.000000  1.000000
 FoFCou: FMM=F IPFlag=           0 FMFlag=      100000 FMFlg1=           0
         NFxFlg=           0 DoJE=T BraDBF=F KetDBF=T FulRan=T
         wScrn=  0.000000 ICntrl=       500 IOpCl=  0 I1Cent=   200000004 NGrid=           0
         NMat0=    1 NMatS0=      1 NMatT0=    0 NMatD0=    1 NMtDS0=    0 NMtDT0=    0
 Symmetry not used in FoFCou.
 Harris En= -76.4171136159585    
 JPrj=0 DoOrth=F DoCkMO=F.
 Leave Link  401 at Fri Feb 17 21:26:25 2023, MaxMem=  6710886400 cpu:              15.5 elap:               0.7
 (Enter /data0/home/software/g16/l502.exe)
 Two-electron integral symmetry not used.
 Closed shell SCF:
 Using DIIS extrapolation, IDIIS=  1040.
 NGot=  6710886400 LenX=  6710706710 LenY=  6710621005
 Requested convergence on RMS density matrix=1.00D-08 within 128 cycles.
 Requested convergence on MAX density matrix=1.00D-06.
 Requested convergence on             energy=1.00D-06.
 No special actions if energy rises.
 Fock matrices will be formed incrementally for  20 cycles.

 Cycle   1  Pass 1  IDiag  1:
 FoFJK:  IHMeth= 1 ICntrl=       0 DoSepK=F KAlg= 0 I1Cent=           0 FoldK=F
 IRaf= 940000000 NMat=       1 IRICut=       1 DoRegI=T DoRafI=F ISym2E= 0 IDoP0=0 IntGTp=1.
 FoFCou: FMM=F IPFlag=           0 FMFlag=      100000 FMFlg1=           0
         NFxFlg=           0 DoJE=F BraDBF=F KetDBF=F FulRan=T
         wScrn=  0.000000 ICntrl=         0 IOpCl=  0 I1Cent=           0 NGrid=           0
         NMat0=    1 NMatS0=      1 NMatT0=    0 NMatD0=    1 NMtDS0=    0 NMtDT0=    0
 Symmetry not used in FoFCou.
 E= -76.3478900603719    
 DIIS: error= 4.17D-02 at cycle   1 NSaved=   1.
 NSaved= 1 IEnMin= 1 EnMin= -76.3478900603719     IErMin= 1 ErrMin= 4.17D-02
 ErrMax= 4.17D-02  0.00D+00 EMaxC= 1.00D-01 BMatC= 1.20D-01 BMatP= 1.20D-01
 IDIUse=3 WtCom= 5.83D-01 WtEn= 4.17D-01
 Coeff-Com:  0.100D+01
 Coeff-En:   0.100D+01
 Coeff:      0.100D+01
 Gap=     0.278 Goal=   None    Shift=    0.000
 GapD=    0.278 DampG=1.000 DampE=0.500 DampFc=0.5000 IDamp=-1.
 Damping current iteration by 5.00D-01
 RMSDP=1.70D-03 MaxDP=9.79D-02              OVMax= 1.72D-01

 Cycle   2  Pass 1  IDiag  1:
 RMSU=  8.31D-04    CP:  9.60D-01
 E= -76.3786092480284     Delta-E=       -0.030719187656 Rises=F Damp=T
 DIIS: error= 5.57D-03 at cycle   2 NSaved=   2.
 NSaved= 2 IEnMin= 2 EnMin= -76.3786092480284     IErMin= 2 ErrMin= 5.57D-03
 ErrMax= 5.57D-03  0.00D+00 EMaxC= 1.00D-01 BMatC= 5.08D-03 BMatP= 1.20D-01
 IDIUse=3 WtCom= 9.44D-01 WtEn= 5.57D-02
 Coeff-Com:  0.890D-01 0.911D+00
 Coeff-En:   0.199D+00 0.801D+00
 Coeff:      0.951D-01 0.905D+00
 Gap=     0.405 Goal=   None    Shift=    0.000
 RMSDP=3.35D-04 MaxDP=1.65D-02 DE=-3.07D-02 OVMax= 1.04D-01

 Cycle   3  Pass 1  IDiag  1:
 RMSU=  2.76D-04    CP:  9.61D-01  7.73D-01
 E= -76.4228101560925     Delta-E=       -0.044200908064 Rises=F Damp=F
 DIIS: error= 1.34D-03 at cycle   3 NSaved=   3.
 NSaved= 3 IEnMin= 3 EnMin= -76.4228101560925     IErMin= 3 ErrMin= 1.34D-03
 ErrMax= 1.34D-03  0.00D+00 EMaxC= 1.00D-01 BMatC= 1.49D-04 BMatP= 5.08D-03
 IDIUse=3 WtCom= 9.87D-01 WtEn= 1.34D-02
 Coeff-Com: -0.274D-01 0.500D-01 0.977D+00
 Coeff-En:   0.000D+00 0.000D+00 0.100D+01
 Coeff:     -0.271D-01 0.494D-01 0.978D+00
 Gap=     0.407 Goal=   None    Shift=    0.000
 RMSDP=3.45D-05 MaxDP=2.40D-03 DE=-4.42D-02 OVMax= 3.89D-03

 Cycle   4  Pass 1  IDiag  1:
 RMSU=  2.22D-05    CP:  9.59D-01  7.86D-01  1.08D+00
 E= -76.4229288572788     Delta-E=       -0.000118701186 Rises=F Damp=F
 DIIS: error= 1.03D-04 at cycle   4 NSaved=   4.
 NSaved= 4 IEnMin= 4 EnMin= -76.4229288572788     IErMin= 4 ErrMin= 1.03D-04
 ErrMax= 1.03D-04  0.00D+00 EMaxC= 1.00D-01 BMatC= 2.75D-06 BMatP= 1.49D-04
 IDIUse=3 WtCom= 9.99D-01 WtEn= 1.03D-03
 Coeff-Com: -0.279D-02 0.642D-04 0.144D+00 0.859D+00
 Coeff-En:   0.000D+00 0.000D+00 0.000D+00 0.100D+01
 Coeff:     -0.279D-02 0.642D-04 0.144D+00 0.859D+00
 Gap=     0.408 Goal=   None    Shift=    0.000
 RMSDP=5.71D-06 MaxDP=3.23D-04 DE=-1.19D-04 OVMax= 5.35D-04

 Cycle   5  Pass 1  IDiag  1:
 RMSU=  4.01D-06    CP:  9.59D-01  7.82D-01  1.08D+00  1.08D+00
 E= -76.4229306419611     Delta-E=       -0.000001784682 Rises=F Damp=F
 DIIS: error= 1.61D-05 at cycle   5 NSaved=   5.
 NSaved= 5 IEnMin= 5 EnMin= -76.4229306419611     IErMin= 5 ErrMin= 1.61D-05
 ErrMax= 1.61D-05  0.00D+00 EMaxC= 1.00D-01 BMatC= 7.37D-08 BMatP= 2.75D-06
 IDIUse=1 WtCom= 1.00D+00 WtEn= 0.00D+00
 Coeff-Com:  0.143D-02-0.221D-02-0.366D-01-0.457D-01 0.108D+01
 Coeff:      0.143D-02-0.221D-02-0.366D-01-0.457D-01 0.108D+01
 Gap=     0.408 Goal=   None    Shift=    0.000
 RMSDP=3.08D-06 MaxDP=1.23D-04 DE=-1.78D-06 OVMax= 2.14D-04

 Cycle   6  Pass 1  IDiag  1:
 RMSU=  9.57D-07    CP:  9.59D-01  7.80D-01  1.09D+00  1.15D+00  1.27D+00
 E= -76.4229307762666     Delta-E=       -0.000000134305 Rises=F Damp=F
 DIIS: error= 6.13D-06 at cycle   6 NSaved=   6.
 NSaved= 6 IEnMin= 6 EnMin= -76.4229307762666     IErMin= 6 ErrMin= 6.13D-06
 ErrMax= 6.13D-06  0.00D+00 EMaxC= 1.00D-01 BMatC= 1.91D-09 BMatP= 7.37D-08
 IDIUse=1 WtCom= 1.00D+00 WtEn= 0.00D+00
 Coeff-Com: -0.263D-03 0.376D-03 0.334D-02-0.863D-02-0.148D+00 0.115D+01
 Coeff:     -0.263D-03 0.376D-03 0.334D-02-0.863D-02-0.148D+00 0.115D+01
 Gap=     0.408 Goal=   None    Shift=    0.000
 RMSDP=4.48D-07 MaxDP=2.05D-05 DE=-1.34D-07 OVMax= 4.00D-05

 Cycle   7  Pass 1  IDiag  1:
 RMSU=  1.57D-07    CP:  9.59D-01  7.79D-01  1.09D+00  1.17D+00  1.34D+00
                    CP:  1.19D+00
 E= -76.4229307800865     Delta-E=       -0.000000003820 Rises=F Damp=F
 DIIS: error= 4.01D-07 at cycle   7 NSaved=   7.
 NSaved= 7 IEnMin= 7 EnMin= -76.4229307800865     IErMin= 7 ErrMin= 4.01D-07
 ErrMax= 4.01D-07  0.00D+00 EMaxC= 1.00D-01 BMatC= 2.98D-11 BMatP= 1.91D-09
 IDIUse=1 WtCom= 1.00D+00 WtEn= 0.00D+00
 Coeff-Com: -0.213D-05 0.198D-04 0.159D-03 0.142D-02-0.151D-01-0.350D-01
 Coeff-Com:  0.105D+01
 Coeff:     -0.213D-05 0.198D-04 0.159D-03 0.142D-02-0.151D-01-0.350D-01
 Coeff:      0.105D+01
 Gap=     0.408 Goal=   None    Shift=    0.000
 RMSDP=6.45D-08 MaxDP=2.50D-06 DE=-3.82D-09 OVMax= 5.17D-06

 Cycle   8  Pass 1  IDiag  1:
 RMSU=  1.96D-08    CP:  9.59D-01  7.79D-01  1.09D+00  1.17D+00  1.34D+00
                    CP:  1.21D+00  1.21D+00
 E= -76.4229307801474     Delta-E=       -0.000000000061 Rises=F Damp=F
 DIIS: error= 1.64D-07 at cycle   8 NSaved=   8.
 NSaved= 8 IEnMin= 8 EnMin= -76.4229307801474     IErMin= 8 ErrMin= 1.64D-07
 ErrMax= 1.64D-07  0.00D+00 EMaxC= 1.00D-01 BMatC= 1.99D-12 BMatP= 2.98D-11
 IDIUse=1 WtCom= 1.00D+00 WtEn= 0.00D+00
 Coeff-Com:  0.129D-04-0.157D-04-0.130D-03 0.706D-03 0.422D-02-0.550D-01
 Coeff-Com:  0.151D+00 0.900D+00
 Coeff:      0.129D-04-0.157D-04-0.130D-03 0.706D-03 0.422D-02-0.550D-01
 Coeff:      0.151D+00 0.900D+00
 Gap=     0.408 Goal=   None    Shift=    0.000
 RMSDP=9.34D-09 MaxDP=3.42D-07 DE=-6.09D-11 OVMax= 8.14D-07

 SCF Done:  E(RM062X) =  -76.4229307801     A.U. after    8 cycles
            NFock=  8  Conv=0.93D-08     -V/T= 2.0033
 KE= 7.617053048127D+01 PE=-1.989705428348D+02 EE= 3.730858345013D+01
 Leave Link  502 at Fri Feb 17 21:26:38 2023, MaxMem=  6710886400 cpu:             306.3 elap:              12.8
 (Enter /data0/home/software/g16/l601.exe)
 Copying SCF densities to generalized density rwf, IOpCl= 0 IROHF=0.

 **********************************************************************

            Population analysis using the SCF density.

 **********************************************************************

 Alpha  occ. eigenvalues --  -19.62757  -1.13170  -0.60557  -0.47541  -0.39990
 Alpha virt. eigenvalues --    0.00781   0.04247   0.05442   0.05732   0.08555
 Alpha virt. eigenvalues --    0.08932   0.09665   0.11053   0.11586   0.12694
 Alpha virt. eigenvalues --    0.13425   0.13927   0.15215   0.15570   0.17170
 Alpha virt. eigenvalues --    0.17753   0.17846   0.19671   0.19950   0.20175
 Alpha virt. eigenvalues --    0.21215   0.22086   0.23233   0.24076   0.24392
 Alpha virt. eigenvalues --    0.26365   0.27582   0.28393   0.28931   0.29859
 Alpha virt. eigenvalues --    0.31784   0.32406   0.32888   0.33464   0.34702
 Alpha virt. eigenvalues --    0.35874   0.36783   0.37962   0.40171   0.41688
 Alpha virt. eigenvalues --    0.43289   0.44344   0.47012   0.48866   0.50799
 Alpha virt. eigenvalues --    0.52082   0.54383   0.54949   0.55685   0.57579
 Alpha virt. eigenvalues --    0.58094   0.61241   0.64721   0.65704   0.66490
 Alpha virt. eigenvalues --    0.68916   0.70317   0.73130   0.74024   0.75171
 Alpha virt. eigenvalues --    0.77554   0.79031   0.79885   0.81069   0.84715
 Alpha virt. eigenvalues --    0.85480   0.86665   0.89053   0.91910   0.93394
 Alpha virt. eigenvalues --    0.95730   0.96597   0.97957   1.00098   1.01534
 Alpha virt. eigenvalues --    1.03844   1.06620   1.07908   1.09742   1.10173
 Alpha virt. eigenvalues --    1.17149   1.17459   1.18308   1.22489   1.24306
 Alpha virt. eigenvalues --    1.25248   1.28303   1.29573   1.30142   1.35977
 Alpha virt. eigenvalues --    1.39141   1.41843   1.44430   1.45171   1.47180
 Alpha virt. eigenvalues --    1.49539   1.50967   1.54315   1.58226   1.60060
 Alpha virt. eigenvalues --    1.61084   1.63008   1.64547   1.65676   1.70433
 Alpha virt. eigenvalues --    1.71623   1.75166   1.75502   1.77325   1.79899
 Alpha virt. eigenvalues --    1.80207   1.82963   1.84829   1.86885   1.88048
 Alpha virt. eigenvalues --    1.89814   1.91166   1.93827   1.94873   2.01252
 Alpha virt. eigenvalues --    2.02549   2.03844   2.06331   2.09150   2.09358
 Alpha virt. eigenvalues --    2.11095   2.12470   2.14024   2.18244   2.19433
 Alpha virt. eigenvalues --    2.24720   2.26091   2.26327   2.27781   2.30673
 Alpha virt. eigenvalues --    2.34388   2.36973   2.39368   2.40831   2.41484
 Alpha virt. eigenvalues --    2.41739   2.46427   2.48606   2.50413   2.52283
 Alpha virt. eigenvalues --    2.53510   2.56067   2.57451   2.58862   2.59470
 Alpha virt. eigenvalues --    2.60127   2.63314   2.64628   2.66237   2.69009
 Alpha virt. eigenvalues --    2.71338   2.73499   2.76916   2.79439   2.81461
 Alpha virt. eigenvalues --    2.82420   2.83704   2.86193   2.87924   2.91180
 Alpha virt. eigenvalues --    2.93011   2.95508   3.00037   3.03488   3.04068
 Alpha virt. eigenvalues --    3.05841   3.09696   3.15812   3.16584   3.26639
 Alpha virt. eigenvalues --    3.47331   3.49414   3.58284   3.62459   3.63747
 Alpha virt. eigenvalues --    3.65348   3.70375   3.71462   3.82963   4.34771
 Alpha virt. eigenvalues --    4.59451   4.59905   4.68669   4.81645   4.88791
 Alpha virt. eigenvalues --    4.96025   4.97686   4.99053   5.04718   5.06390
 Alpha virt. eigenvalues --    5.11732   5.13540   5.17210   5.22907   5.25856
 Alpha virt. eigenvalues --    5.29298   5.34171   5.38584   5.46700   5.59193
 Alpha virt. eigenvalues --    5.60837   5.65660   5.90503   5.93108   6.10004
 Alpha virt. eigenvalues --    6.82723   6.87094   6.94414   6.99595   7.09974
 Alpha virt. eigenvalues --    7.13961   7.14679   7.23093   7.35540   7.41141
 Alpha virt. eigenvalues --    7.44049   7.45432   7.46058   7.52100   7.62699
 Alpha virt. eigenvalues --    7.67554   7.70366   7.75812   7.89717   8.03205
 Alpha virt. eigenvalues --    8.13394   8.19594   8.26761   8.39829   9.62155
 Alpha virt. eigenvalues --    9.69997   9.73627   9.75845   9.76949   9.84012
 Alpha virt. eigenvalues --    9.85928   9.87321   9.88497   9.96695  10.03872
 Alpha virt. eigenvalues --   10.05734  10.12617  10.15055  10.17818  10.79296
 Alpha virt. eigenvalues --   11.24440  11.34313  11.47365  12.80028  12.93509
 Alpha virt. eigenvalues --   13.18395  13.38094  13.69448  13.76492  13.80098
 Alpha virt. eigenvalues --   13.86439  17.66443  17.84482  50.03536  69.24064
 Alpha virt. eigenvalues --   69.91762  70.00059 101.27913 101.51347 136.65538
 Alpha virt. eigenvalues --  137.01320
          Condensed to atoms (all electrons):
               1          2          3          4          5          6
     1  C    0.016705  -0.006783  -0.018727   0.003760  -0.001114   0.000042
     2  C   -0.006783   0.007157  -0.001785   0.000413   0.000489  -0.000069
     3  C   -0.018727  -0.001785   0.053350  -0.011158   0.000827   0.000011
     4  N    0.003760   0.000413  -0.011158   0.007353  -0.001117  -0.000002
     5  H   -0.001114   0.000489   0.000827  -0.001117   0.000524   0.000004
     6  H    0.000042  -0.000069   0.000011  -0.000002   0.000004   0.000015
     7  H    0.000066  -0.000171   0.000114  -0.000025  -0.000005  -0.000001
     8  H   -0.000567   0.000640  -0.001009  -0.001058   0.000209  -0.000001
     9  N    0.005634  -0.000640  -0.014364   0.001210   0.000015   0.000010
    10  O   -0.005368   0.003383   0.012904  -0.016123   0.001371  -0.000004
    11  H    0.000078  -0.000060   0.001478   0.001031  -0.000035  -0.000000
    12  H   -0.000362  -0.001843   0.013972  -0.000526  -0.000050   0.000000
    13  O    0.002400  -0.001239  -0.004232   0.000173  -0.000025   0.000008
[...]

 **********************************************************************

 Alpha  occ. eigenvalues --  -19.62557  -1.13376  -0.60917  -0.47430  -0.39984
 Alpha virt. eigenvalues --    0.06318   0.13345   0.17385   0.17948   0.18943
 Alpha virt. eigenvalues --    0.23233   0.51522   0.53257   0.97863   1.00164
 Alpha virt. eigenvalues --    1.06049   1.18843   1.19859   1.32574   1.33797
 Alpha virt. eigenvalues --    1.69518   1.74167   1.75870   2.08446   2.08762
 Alpha virt. eigenvalues --    2.35204   2.42606   2.54333   2.88872   3.01095
 Alpha virt. eigenvalues --    5.05697   5.47869   5.93369   6.78225   6.80312
 Alpha virt. eigenvalues --    6.87005   6.91518   7.09494  49.95981
          Condensed to atoms (all electrons):
              13         14         15
    13  O    7.914259   0.321437   0.322052
    14  H    0.321437   0.424040  -0.024629
    15  H    0.322052  -0.024629   0.423981
 Mulliken charges:
               1
     1  C    0.000000
     2  C    0.000000
     3  C    0.000000
     4  N    0.000000
     5  H    0.000000
     6  H    0.000000
     7  H    0.000000
     8  H    0.000000
     9  N    0.000000
    10  O    0.000000
    11  H    0.000000
    12  H    0.000000
    13  O   -0.557749
    14  H    0.279152
    15  H    0.278596
    16  O    0.000000
    17  H    0.000000
    18  H    0.000000
 Sum of Mulliken charges =   0.00000
 Mulliken charges with hydrogens summed into heavy atoms:
               1
     1  C    0.000000
     2  C    0.000000
     3  C    0.000000
     4  N    0.000000
     9  N    0.000000
    10  O    0.000000
    13  O    0.000000
    16  O    0.000000
         Mulliken charges condensed to fragments:
      1      0.000000
      2      0.000000
      3      0.000000
      4      0.000000
 Electronic spatial extent (au):  <R**2>=          14581.7530
 Charge=              0.0000 electrons
 Dipole moment (field-independent basis, Debye):
    X=              1.0168    Y=             -0.8622    Z=              1.6319  Tot=              2.1072
 Quadrupole moment (field-independent basis, Debye-Ang):
   XX=             13.8112   YY=            -30.4923   ZZ=             22.1438
   XY=              6.7154   XZ=             26.6004   YZ=             17.4471
 Traceless Quadrupole moment (field-independent basis, Debye-Ang):
   XX=             11.9903   YY=            -32.3132   ZZ=             20.3229
   XY=              6.7154   XZ=             26.6004   YZ=             17.4471
 Octapole moment (field-independent basis, Debye-Ang**2):
  XXX=            102.6157  YYY=           -791.1462  ZZZ=            207.0056  XYY=            -74.8193
  XXY=            123.1078  XXZ=            312.6878  XZZ=            321.7383  YZZ=            275.6490
  YYZ=            116.2737  XYZ=            329.8482
 Hexadecapole moment (field-independent basis, Debye-Ang**3):
 XXXX=           -126.4881 YYYY=         -17949.9244 ZZZZ=           1438.5906 XXXY=            716.8336
 XXXZ=           2974.5557 YYYX=          -4478.0882 YYYZ=          -1045.5688 ZZZX=           3022.9174
 ZZZY=           2659.3954 XXYY=             95.7137 XXZZ=           3734.8762 YYZZ=           2939.5694
 XXYZ=           4014.6558 YYXZ=           3500.2410 ZZXY=           4275.0518
 N-N= 9.116682688083D+00 E-N=-1.990875246458D+02  KE= 7.620003883514D+01
 No NMR shielding tensors so no spin-rotation constants.
 Leave Link  601 at Fri Feb 17 21:27:14 2023, MaxMem=  6710886400 cpu:               1.8 elap:               0.1
 (Enter /data0/home/software/g16/l122.exe)
 CPIOFr:  IOpCl= 0 IRwI=-1 IRwCP=  731 ICalc=  7 LCPTot=      119191 Len1MO=      310658 IndFrg=     2604455
 Counterpoise: doing calculation for fragment   4 using the basis set of the fragment.
 Leave Link  122 at Fri Feb 17 21:27:14 2023, MaxMem=  6710886400 cpu:               0.1 elap:               0.0
 (Enter /data0/home/software/g16/l301.exe)
 Basis read from rwf:  (5D, 7F)
 No pseudopotential information found on rwf file.
    39 basis functions,    58 primitive gaussians,    41 cartesian basis functions
     5 alpha electrons        5 beta electrons
       nuclear repulsion energy         9.1497405786 Hartrees.
 IExCor= 4336 DFT=T Ex+Corr=M062X ExCW=0 ScaHFX=  0.540000
 ScaDFX=  1.000000  1.000000  1.000000  1.000000 ScalE2=  1.000000  1.000000
 IRadAn=      5 IRanWt=     -1 IRanGd=            0 ICorTp=0 IEmpDi=131
 NAtoms=   18 NActive=    3 NUniq=    3 SFac= 1.00D+00 NAtFMM=   60 NAOKFM=F Big=F
 Integral buffers will be    131072 words long.
 Raffenetti 2 integral format.
 Two-electron integral symmetry is turned off.
 R6Disp:  Grimme-D3 Dispersion energy=       -0.0000000082 Hartrees.
 Nuclear repulsion after empirical dispersion term =        9.1497405704 Hartrees.
 No density basis found on file   718.
 Leave Link  301 at Fri Feb 17 21:27:14 2023, MaxMem=  6710886400 cpu:               1.3 elap:               0.1
 (Enter /data0/home/software/g16/l302.exe)
 NPDir=0 NMtPBC=     1 NCelOv=     1 NCel=       1 NClECP=     1 NCelD=      1
         NCelK=      1 NCelE2=     1 NClLst=     1 CellRange=     0.0.
 One-electron integrals computed using PRISM.
 NBasis=    39 RedAO= T EigKep=  3.08D-03  NBF=    39
 NBsUse=    39 1.00D-06 EigRej= -1.00D+00 NBFU=    39
 Precomputing XC quadrature grid using
 IXCGrd= 4 IRadAn=           5 IRanWt=          -1 IRanGd=           0 AccXCQ= 0.00D+00.
 Generated NRdTot=       0 NPtTot=           0 NUsed=           0 NTot=          32
 NSgBfM=    41    41    41    41    41 MxSgAt=     3 MxSgA2=     3.
 Leave Link  302 at Fri Feb 17 21:27:15 2023, MaxMem=  6710886400 cpu:               2.3 elap:               0.1
 (Enter /data0/home/software/g16/l303.exe)
 DipDrv:  MaxL=1.
 Leave Link  303 at Fri Feb 17 21:27:15 2023, MaxMem=  6710886400 cpu:               0.4 elap:               0.0
 (Enter /data0/home/software/g16/l401.exe)
 ExpMin= 8.45D-02 ExpMax= 8.59D+03 ExpMxC= 1.30D+03 IAcc=3 IRadAn=         5 AccDes= 0.00D+00
 Harris functional with IExCor= 1009 and IRadAn=       5 diagonalized for initial guess.
 HarFok:  IExCor= 1009 AccDes= 0.00D+00 IRadAn=         5 IDoV= 1 UseB2=F ITyADJ=14
 ICtDFT=  3500011 ScaDFX=  1.000000  1.000000  1.000000  1.000000
 FoFCou: FMM=F IPFlag=           0 FMFlag=      100000 FMFlg1=           0
         NFxFlg=           0 DoJE=T BraDBF=F KetDBF=T FulRan=T
         wScrn=  0.000000 ICntrl=       500 IOpCl=  0 I1Cent=   200000004 NGrid=           0
         NMat0=    1 NMatS0=      1 NMatT0=    0 NMatD0=    1 NMtDS0=    0 NMtDT0=    0
 Symmetry not used in FoFCou.
 Harris En= -76.4171463897712    
 JPrj=0 DoOrth=F DoCkMO=F.
 Leave Link  401 at Fri Feb 17 21:27:15 2023, MaxMem=  6710886400 cpu:               2.9 elap:               0.1
 (Enter /data0/home/software/g16/l502.exe)
 Keep R1 ints in memory in canonical form, NReq=21038691.
 FoFCou: FMM=F IPFlag=           0 FMFlag=           0 FMFlg1=           0
         NFxFlg=           0 DoJE=F BraDBF=F KetDBF=F FulRan=T
         wScrn=  0.000000 ICntrl=       600 IOpCl=  0 I1Cent=           0 NGrid=           0
         NMat0=    1 NMatS0=    780 NMatT0=    0 NMatD0=    1 NMtDS0=    0 NMtDT0=    0
 Symmetry not used in FoFCou.
 Two-electron integral symmetry not used.
 Closed shell SCF:
 Using DIIS extrapolation, IDIIS=  1040.
 NGot=  6710886400 LenX=  6710576565 LenY=  6710574443
 Requested convergence on RMS density matrix=1.00D-08 within 128 cycles.
 Requested convergence on MAX density matrix=1.00D-06.
 Requested convergence on             energy=1.00D-06.
 No special actions if energy rises.
 Integral accuracy reduced to 1.0D-05 until final iterations.

 Cycle   1  Pass 0  IDiag  1:
 E= -76.3454960431736    
 DIIS: error= 7.11D-02 at cycle   1 NSaved=   1.
 NSaved= 1 IEnMin= 1 EnMin= -76.3454960431736     IErMin= 1 ErrMin= 7.11D-02
 ErrMax= 7.11D-02  0.00D+00 EMaxC= 1.00D-01 BMatC= 1.22D-01 BMatP= 1.22D-01
 IDIUse=3 WtCom= 2.89D-01 WtEn= 7.11D-01
 Coeff-Com:  0.100D+01
 Coeff-En:   0.100D+01
 Coeff:      0.100D+01
 Gap=     0.326 Goal=   None    Shift=    0.000
 GapD=    0.326 DampG=1.000 DampE=0.500 DampFc=0.5000 IDamp=-1.
 Damping current iteration by 5.00D-01
 RMSDP=7.83D-03 MaxDP=1.02D-01              OVMax= 1.69D-01

 Cycle   2  Pass 0  IDiag  1:
 E= -76.3774731179825     Delta-E=       -0.031977074809 Rises=F Damp=T
 DIIS: error= 1.17D-02 at cycle   2 NSaved=   2.
 NSaved= 2 IEnMin= 2 EnMin= -76.3774731179825     IErMin= 2 ErrMin= 1.17D-02
 ErrMax= 1.17D-02  0.00D+00 EMaxC= 1.00D-01 BMatC= 4.77D-03 BMatP= 1.22D-01
 IDIUse=3 WtCom= 8.83D-01 WtEn= 1.17D-01
 Coeff-Com:  0.793D-01 0.921D+00
 Coeff-En:   0.183D+00 0.817D+00
 Coeff:      0.914D-01 0.909D+00
 Gap=     0.459 Goal=   None    Shift=    0.000
 RMSDP=9.24D-04 MaxDP=1.37D-02 DE=-3.20D-02 OVMax= 1.01D-01

 Cycle   3  Pass 0  IDiag  1:
 E= -76.4217252120168     Delta-E=       -0.044252094034 Rises=F Damp=F
 DIIS: error= 2.19D-03 at cycle   3 NSaved=   3.
 NSaved= 3 IEnMin= 3 EnMin= -76.4217252120168     IErMin= 3 ErrMin= 2.19D-03
 ErrMax= 2.19D-03  0.00D+00 EMaxC= 1.00D-01 BMatC= 9.16D-05 BMatP= 4.77D-03
 IDIUse=3 WtCom= 9.78D-01 WtEn= 2.19D-02
 Coeff-Com: -0.200D-01 0.399D-01 0.980D+00
 Coeff-En:   0.000D+00 0.000D+00 0.100D+01
 Coeff:     -0.195D-01 0.390D-01 0.980D+00
 Gap=     0.463 Goal=   None    Shift=    0.000
 RMSDP=1.15D-04 MaxDP=1.03D-03 DE=-4.43D-02 OVMax= 3.28D-03

 Cycle   4  Pass 0  IDiag  1:
 E= -76.4218028486644     Delta-E=       -0.000077636648 Rises=F Damp=F
 DIIS: error= 4.07D-04 at cycle   4 NSaved=   4.
 NSaved= 4 IEnMin= 4 EnMin= -76.4218028486644     IErMin= 4 ErrMin= 4.07D-04
 ErrMax= 4.07D-04  0.00D+00 EMaxC= 1.00D-01 BMatC= 3.28D-06 BMatP= 9.16D-05
 IDIUse=3 WtCom= 9.96D-01 WtEn= 4.07D-03
 Coeff-Com: -0.191D-02-0.206D-02 0.164D+00 0.840D+00
 Coeff-En:   0.000D+00 0.000D+00 0.000D+00 0.100D+01
 Coeff:     -0.190D-02-0.205D-02 0.163D+00 0.841D+00
 Gap=     0.464 Goal=   None    Shift=    0.000
 RMSDP=2.19D-05 MaxDP=3.49D-04 DE=-7.76D-05 OVMax= 5.22D-04

 Cycle   5  Pass 0  IDiag  1:
 E= -76.4218048532225     Delta-E=       -0.000002004558 Rises=F Damp=F
 DIIS: error= 8.79D-05 at cycle   5 NSaved=   5.
 NSaved= 5 IEnMin= 5 EnMin= -76.4218048532225     IErMin= 5 ErrMin= 8.79D-05
 ErrMax= 8.79D-05  0.00D+00 EMaxC= 1.00D-01 BMatC= 8.17D-08 BMatP= 3.28D-06
 IDIUse=1 WtCom= 1.00D+00 WtEn= 0.00D+00
 Coeff-Com:  0.115D-02-0.176D-02-0.357D-01-0.682D-01 0.110D+01
 Coeff:      0.115D-02-0.176D-02-0.357D-01-0.682D-01 0.110D+01
 Gap=     0.464 Goal=   None    Shift=    0.000
 RMSDP=8.90D-06 MaxDP=1.03D-04 DE=-2.00D-06 OVMax= 1.96D-04

 Initial convergence to 1.0D-05 achieved.  Increase integral accuracy.
 Cycle   6  Pass 1  IDiag  1:
 E= -76.4218094724614     Delta-E=       -0.000004619239 Rises=F Damp=F
 DIIS: error= 3.55D-05 at cycle   1 NSaved=   1.
 NSaved= 1 IEnMin= 1 EnMin= -76.4218094724614     IErMin= 1 ErrMin= 3.55D-05
 ErrMax= 3.55D-05  0.00D+00 EMaxC= 1.00D-01 BMatC= 2.14D-08 BMatP= 2.14D-08
 IDIUse=1 WtCom= 1.00D+00 WtEn= 0.00D+00
 Coeff-Com:  0.100D+01
 Coeff:      0.100D+01
 Gap=     0.464 Goal=   None    Shift=    0.000
 RMSDP=8.90D-06 MaxDP=1.03D-04 DE=-4.62D-06 OVMax= 3.91D-05

 Cycle   7  Pass 1  IDiag  1:
 E= -76.4218094885953     Delta-E=       -0.000000016134 Rises=F Damp=F
 DIIS: error= 6.80D-06 at cycle   2 NSaved=   2.
 NSaved= 2 IEnMin= 2 EnMin= -76.4218094885953     IErMin= 2 ErrMin= 6.80D-06
 ErrMax= 6.80D-06  0.00D+00 EMaxC= 1.00D-01 BMatC= 6.82D-10 BMatP= 2.14D-08
 IDIUse=1 WtCom= 1.00D+00 WtEn= 0.00D+00
 Coeff-Com: -0.257D-01 0.103D+01
 Coeff:     -0.257D-01 0.103D+01
 Gap=     0.464 Goal=   None    Shift=    0.000
 RMSDP=6.03D-07 MaxDP=8.49D-06 DE=-1.61D-08 OVMax= 1.69D-05

 Cycle   8  Pass 1  IDiag  1:
 E= -76.4218094887667     Delta-E=       -0.000000000171 Rises=F Damp=F
 DIIS: error= 5.43D-06 at cycle   3 NSaved=   3.
 NSaved= 3 IEnMin= 3 EnMin= -76.4218094887667     IErMin= 3 ErrMin= 5.43D-06
 ErrMax= 5.43D-06  0.00D+00 EMaxC= 1.00D-01 BMatC= 7.16D-10 BMatP= 6.82D-10
 IDIUse=1 WtCom= 1.00D+00 WtEn= 0.00D+00
 Coeff-Com: -0.456D-01 0.538D+00 0.507D+00
 Coeff:     -0.456D-01 0.538D+00 0.507D+00
 Gap=     0.464 Goal=   None    Shift=    0.000
 RMSDP=2.99D-07 MaxDP=4.35D-06 DE=-1.71D-10 OVMax= 6.79D-06

 Cycle   9  Pass 1  IDiag  1:
 E= -76.4218094892321     Delta-E=       -0.000000000465 Rises=F Damp=F
 DIIS: error= 5.73D-07 at cycle   4 NSaved=   4.
 NSaved= 4 IEnMin= 4 EnMin= -76.4218094892321     IErMin= 4 ErrMin= 5.73D-07
 ErrMax= 5.73D-07  0.00D+00 EMaxC= 1.00D-01 BMatC= 4.30D-12 BMatP= 6.82D-10
 IDIUse=1 WtCom= 1.00D+00 WtEn= 0.00D+00
 Coeff-Com:  0.355D-02-0.738D-01-0.110D-01 0.108D+01
 Coeff:      0.355D-02-0.738D-01-0.110D-01 0.108D+01
 Gap=     0.464 Goal=   None    Shift=    0.000
 RMSDP=7.60D-08 MaxDP=5.44D-07 DE=-4.65D-10 OVMax= 1.88D-06

 Cycle  10  Pass 1  IDiag  1:
 E= -76.4218094892404     Delta-E=       -0.000000000008 Rises=F Damp=F
 DIIS: error= 8.50D-08 at cycle   5 NSaved=   5.
 NSaved= 5 IEnMin= 5 EnMin= -76.4218094892404     IErMin= 5 ErrMin= 8.50D-08
 ErrMax= 8.50D-08  0.00D+00 EMaxC= 1.00D-01 BMatC= 2.46D-13 BMatP= 4.30D-12
 IDIUse=1 WtCom= 1.00D+00 WtEn= 0.00D+00
 Coeff-Com:  0.335D-02-0.457D-01-0.370D-01 0.142D+00 0.938D+00
 Coeff:      0.335D-02-0.457D-01-0.370D-01 0.142D+00 0.938D+00
 Gap=     0.464 Goal=   None    Shift=    0.000
 RMSDP=2.17D-08 MaxDP=1.82D-07 DE=-8.30D-12 OVMax= 4.62D-07

 Cycle  11  Pass 1  IDiag  1:
 E= -76.4218094892408     Delta-E=       -0.000000000000 Rises=F Damp=F
 DIIS: error= 1.32D-08 at cycle   6 NSaved=   6.
 NSaved= 6 IEnMin= 6 EnMin= -76.4218094892408     IErMin= 6 ErrMin= 1.32D-08
 ErrMax= 1.32D-08  0.00D+00 EMaxC= 1.00D-01 BMatC= 4.04D-15 BMatP= 2.46D-13
 IDIUse=1 WtCom= 1.00D+00 WtEn= 0.00D+00
 Coeff-Com: -0.107D-03 0.260D-02-0.147D-03-0.357D-01-0.155D-01 0.105D+01
 Coeff:     -0.107D-03 0.260D-02-0.147D-03-0.357D-01-0.155D-01 0.105D+01
 Gap=     0.464 Goal=   None    Shift=    0.000
 RMSDP=4.22D-09 MaxDP=4.23D-08 DE=-4.83D-13 OVMax= 8.70D-08

 SCF Done:  E(RM062X) =  -76.4218094892     A.U. after   11 cycles
            NFock= 11  Conv=0.42D-08     -V/T= 2.0028
 KE= 7.621146441777D+01 PE=-1.991608088645D+02 EE= 3.737779438710D+01
 Leave Link  502 at Fri Feb 17 21:27:15 2023, MaxMem=  6710886400 cpu:               8.8 elap:               0.4
 (Enter /data0/home/software/g16/l601.exe)
 Copying SCF densities to generalized density rwf, IOpCl= 0 IROHF=0.

 **********************************************************************

            Population analysis using the SCF density.

 **********************************************************************

 Alpha  occ. eigenvalues --  -19.62429  -1.13442  -0.61373  -0.47174  -0.39978
 Alpha virt. eigenvalues --    0.06412   0.13391   0.17349   0.17952   0.18996
 Alpha virt. eigenvalues --    0.23067   0.51672   0.53678   0.97559   1.00138
 Alpha virt. eigenvalues --    1.06081   1.19625   1.20031   1.33192   1.33582
 Alpha virt. eigenvalues --    1.68655   1.73976   1.76561   2.07572   2.09979
 Alpha virt. eigenvalues --    2.33709   2.45906   2.53950   2.89724   3.01419
 Alpha virt. eigenvalues --    5.05780   5.46943   5.96193   6.77967   6.80557
 Alpha virt. eigenvalues --    6.86325   6.91803   7.09374  49.96590
          Condensed to atoms (all electrons):
              16         17         18
    16  O    7.910298   0.327437   0.323919
    17  H    0.327437   0.418664  -0.025314
    18  H    0.323919  -0.025314   0.418954
 Mulliken charges:
               1
     1  C    0.000000
     2  C    0.000000
     3  C    0.000000
     4  N    0.000000
     5  H    0.000000
     6  H    0.000000
     7  H    0.000000
     8  H    0.000000
     9  N    0.000000
    10  O    0.000000
    11  H    0.000000
    12  H    0.000000
    13  O    0.000000
    14  H    0.000000
    15  H    0.000000
    16  O   -0.561654
    17  H    0.279213
    18  H    0.282441
 Sum of Mulliken charges =  -0.00000
 Mulliken charges with hydrogens summed into heavy atoms:
               1
     1  C    0.000000
     2  C    0.000000
     3  C    0.000000
     4  N    0.000000
     9  N    0.000000
    10  O    0.000000
    13  O    0.000000
    16  O   -0.000000
         Mulliken charges condensed to fragments:
      1      0.000000
      2      0.000000
      3      0.000000
      4     -0.000000
 Electronic spatial extent (au):  <R**2>=          13826.7078
 Charge=             -0.0000 electrons
 Dipole moment (field-independent basis, Debye):
    X=             -1.1682    Y=             -0.9238    Z=             -1.4497  Tot=              2.0784
 Quadrupole moment (field-independent basis, Debye-Ang):
   XX=            -32.5967   YY=            -27.2006   ZZ=            -39.0182
   XY=            -22.3685   XZ=            -29.8770   YZ=            -28.2666
 Traceless Quadrupole moment (field-independent basis, Debye-Ang):
   XX=              0.3418   YY=              5.7379   ZZ=             -6.0797
   XY=            -22.3685   XZ=            -29.8770   YZ=            -28.2666
 Octapole moment (field-independent basis, Debye-Ang**2):
  XXX=           -652.8299  YYY=           -570.6322  ZZZ=           -774.4565  XYY=           -426.5062
  XXY=           -459.2450  XXZ=           -561.9558  XZZ=           -595.4599  YZZ=           -592.5421
  YYZ=           -527.3570  XYZ=           -456.7046
 Hexadecapole moment (field-independent basis, Debye-Ang**3):
 XXXX=         -11286.2057 YYYY=         -10292.3326 ZZZZ=         -13490.8483 XXXY=          -8278.3938
 XXXZ=          -9642.7643 YYYX=          -7601.7661 YYYZ=          -9169.1218 ZZZX=         -10505.0243
 ZZZY=         -10673.0186 XXYY=          -6997.0674 XXZZ=          -9311.3060 YYZZ=          -9269.3246
 XXYZ=          -7543.6519 YYXZ=          -7323.6025 ZZXY=          -8260.3904
 N-N= 9.149740570429D+00 E-N=-1.991608087364D+02  KE= 7.621146441777D+01
 No NMR shielding tensors so no spin-rotation constants.
 Leave Link  601 at Fri Feb 17 21:27:15 2023, MaxMem=  6710886400 cpu:               1.8 elap:               0.1
 (Enter /data0/home/software/g16/l122.exe)
 CPIOFr:  IOpCl= 0 IRwI=-1 IRwCP=  731 ICalc=  8 LCPTot=      119191 Len1MO=      310658 IndFrg=     2915113
 Restoring MOs from calculation   1 to rwf.
 CPIOFr:  IOpCl= 0 IRwI=-2 IRwCP=  731 ICalc=  0 LCPTot=      119191 Len1MO=      310658 IndFrg=      429849
 Counterpoise corrected energy =    -455.479140600493
                   BSSE energy =       0.003893421006
              sum of fragments =    -455.453404724411
           complexation energy =     -18.59 kcal/mole (raw)
           complexation energy =     -16.15 kcal/mole (corrected)
 Leave Link  122 at Fri Feb 17 21:27:15 2023, MaxMem=  6710886400 cpu:               0.2 elap:               0.0
 (Enter /data0/home/software/g16/l9999.exe)
 1\1\GINC-LOCALHOST\SP\RM062X\6-311+G(2d,p)\C3H10N2O3\WUHANYU\17-Feb-20
 23\0\\#p M062X/6-311+G(2d,p) nosymm em=GD3 counterpoise=4\\Title Card 
 Required\\0,1\C,0,11.376828,15.133632,12.410501\C,0,12.007084,15.98047
 7,11.495308\C,0,12.639553,13.929368,11.003689\N,0,11.786988,13.841842,
 12.095201\H,0,11.457265,12.978891,12.522268\H,0,10.709418,15.350211,13
 .217207\H,0,11.967356,17.048487,11.409313\H,0,13.119357,13.076171,10.5
 41762\N,0,12.777943,15.218503,10.630494\O,0,11.015679,12.231005,8.9785
 44\H,0,10.618605,11.760113,8.245603\H,0,11.896434,12.507888,8.637446\O
 ,0,10.299073,15.007382,8.698143\H,0,10.410017,14.067264,8.896445\H,0,1
 0.756852,15.463931,9.412599\O,0,11.076842,11.421891,11.673408\H,0,10.4
 75078,10.698013,11.811341\H,0,11.033036,11.637388,10.72682\\Version=ES
 64L-G16RevA.03\HF=-76.4218095\RMSD=4.219e-09\Dipole=-0.4150892,-2.1910
 089,0.2769346\Quadrupole=16.8825617,-69.5187072,52.6361454,-55.997288,
 -6.9715772,-27.6086305\PG=C01 [X(C3H10N2O3)]\\@


 I SUPPOSE A BABY LLAMA HAS A MMAMA AND A PPOPA.
     -- RICHARD AMOUR
 Job cpu time:       0 days  0 hours 36 minutes 14.4 seconds.
 Elapsed time:       0 days  0 hours  1 minutes 33.5 seconds.
 File lengths (MBytes):  RWF=     74 Int=      0 D2E=      0 Chk=     28 Scr=      1
 Normal termination of Gaussian 16 at Fri Feb 17 21:27:15 2023.
