 Entering Gaussian System, Link 0=g16
 Initial command:
 /data0/home/software/g16/l1.exe "/data0/home/software/g16/scratch/Gau-3361038.inp" -scrdir="/data0/home/software/g16/scratch/"
 Default is to use a total of  22 processors:
                               22 via shared-memory
                                1 via Linda
 Entering Link 1 = /data0/home/software/g16/l1.exe PID=   3361039.
  
 Copyright (c) 1988,1990,1992,1993,1995,1998,2003,2009,2016,
            Gaussian, Inc.  All Rights Reserved.
  
 This is part of the Gaussian(R) 16 program.  It is based on
 the Gaussian(R) 09 system (copyright 2009, Gaussian, Inc.),
 the Gaussian(R) 03 system (copyright 2003, Gaussian, Inc.),
 the Gaussian(R) 98 system (copyright 1998, Gaussian, Inc.),
 the Gaussian(R) 94 system (copyright 1995, Gaussian, Inc.),
 the Gaussian 92(TM) system (copyright 1992, Gaussian, Inc.),
 the Gaussian 90(TM) system (copyright 1990, Gaussian, Inc.),
 the Gaussian 88(TM) system (copyright 1988, Gaussian, Inc.),
 the Gaussian 86(TM) system (copyright 1986, Carnegie Mellon
 University), and the Gaussian 82(TM) system (copyright 1983,
 Carnegie Mellon University). Gaussian is a federally registered
 trademark of Gaussian, Inc.
  
 This software contains proprietary and confidential information,
 including trade secrets, belonging to Gaussian, Inc.
  
 This software is provided under written license and may be
 used, copied, transmitted, or stored only in accord with that
 written license.
  
 The following legend is applicable only to US Government
 contracts under FAR:
  
                    RESTRICTED RIGHTS LEGEND
  
 Use, reproduction and disclosure by the US Government is
 subject to restrictions as set forth in subparagraphs (a)
 and (c) of the Commercial Computer Software - Restricted
 Rights clause in FAR 52.227-19.
  
 Gaussian, Inc.
 340 Quinnipiac St., Bldg. 40, Wallingford CT 06492
  
  
 ---------------------------------------------------------------
 Warning -- This program may not be used in any manner that
 competes with the business of Gaussian, Inc. or will provide
 assistance to any competitor of Gaussian, Inc.  The licensee
 of this program is prohibited from giving any competitor of
 Gaussian, Inc. access to this program.  By using this program,
 the user acknowledges that Gaussian, Inc. is engaged in the
 business of creating and licensing software in the field of
 computational chemistry and represents and warrants to the
 licensee that it is not a competitor of Gaussian, Inc. and that
 it will not use this program in any manner prohibited above.
 ---------------------------------------------------------------
  

 Cite this work as:
 Gaussian 16, Revision A.03,
 M. J. Frisch, G. W. Trucks, H. B. Schlegel, G. E. Scuseria, 
 M. A. Robb, J. R. Cheeseman, G. Scalmani, V. Barone, 
 G. A. Petersson, H. Nakatsuji, X. Li, M. Caricato, A. V. Marenich, 
 J. Bloino, B. G. Janesko, R. Gomperts, B. Mennucci, H. P. Hratchian, 
 J. V. Ortiz, A. F. Izmaylov, J. L. Sonnenberg, D. Williams-Young, 
 F. Ding, F. Lipparini, F. Egidi, J. Goings, B. Peng, A. Petrone, 
 T. Henderson, D. Ranasinghe, V. G. Zakrzewski, J. Gao, N. Rega, 
 G. Zheng, W. Liang, M. Hada, M. Ehara, K. Toyota, R. Fukuda, 
 J. Hasegawa, M. Ishida, T. Nakajima, Y. Honda, O. Kitao, H. Nakai, 
 T. Vreven, K. Throssell, J. A. Montgomery, Jr., J. E. Peralta, 
 F. Ogliaro, M. J. Bearpark, J. J. Heyd, E. N. Brothers, K. N. Kudin, 
 V. N. Staroverov, T. A. Keith, R. Kobayashi, J. Normand, 
 K. Raghavachari, A. P. Rendell, J. C. Burant, S. S. Iyengar, 
 J. Tomasi, M. Cossi, J. M. Millam, M. Klene, C. Adamo, R. Cammi, 
 J. W. Ochterski, R. L. Martin, K. Morokuma, O. Farkas, 
 J. B. Foresman, and D. J. Fox, Gaussian, Inc., Wallingford CT, 2016.
 
 ******************************************
 Gaussian 16:  ES64L-G16RevA.03 25-Dec-2016
                15-Dec-2022 
 ******************************************
 %nproc=24
 Will use up to   24 processors via shared memory.
 %mem=100GB
 ---------------------------------------------------
 #p M062X/6-311+G(2d,p) nosymm em=GD3 counterpoise=6
 ---------------------------------------------------
 1/38=1,62=6,172=1/1;
 2/12=2,15=1,17=6,18=5,40=1/2;
 1/38=1,53=2,62=6,63=1/22;
 3/5=4,6=6,7=112,11=2,25=1,30=1,74=-55,124=31/1,2,3;
 4//1;
 5/5=2,38=5/2;
 6/7=2,8=2,9=2,10=2,28=1/1;
 1/53=2,62=6,63=1/22;
 3/5=7,6=11,7=112,11=2,25=1,30=1,74=-55,82=7,124=31/1,2,3;
 4//1;
 5/5=2,38=5/2;
 6/7=2,8=2,9=2,10=2,28=1/1;
 1/53=2,62=6,63=1/22(-4);
 99/5=1,9=1/99;
 Leave Link    1 at Thu Dec 15 13:20:23 2022, MaxMem= 13421772800 cpu:               0.7 elap:               0.0
 (Enter /data0/home/software/g16/l101.exe)
 -------------------
 Title Card Required
 -------------------
 Symbolic Z-matrix:
 Charge =  0 Multiplicity = 1 in supermolecule
 Charge =  0 Multiplicity = 1 in fragment      1.
 Charge =  0 Multiplicity = 1 in fragment      2.
 Charge =  0 Multiplicity = 1 in fragment      3.
 Charge =  0 Multiplicity = 1 in fragment      4.
 Charge =  0 Multiplicity = 1 in fragment      5.
 Charge =  0 Multiplicity = 1 in fragment      6.
 C                     17.29936   6.37306   10.4891    
 C                     16.67787   6.67355   11.7068    
 C                     16.32895   8.00066   11.98131    
 C                     16.64567   8.99322   11.05564    
 C                     17.28551   8.65995   9.86531    
 H                     15.79232   8.25248   12.90245    
 H                     17.5238   5.32883   10.20701    
 H                     16.36586   10.03757   11.23837    
 H                     17.53631   9.42051   9.1108     
 C                     16.36748   5.57495   12.65455    
 H                     15.54037   5.83985   13.33812    
 H                     16.01515   4.66571   12.12995    
 H                     17.23375   5.29568   13.26705    
 N                     17.59911   7.35977   9.59963    
 C                     18.27882   7.01876   8.3262     
 H                     19.25093   7.5607    8.29803    
 H                     18.51154   5.92388   8.32039    
 C                     17.43181   7.36096   7.08711    
 H                     16.68543   8.15656   7.31488    
 H                     18.0851   7.79607   6.30516    
 C                     16.70631   6.1387    6.52813    
 H                     16.22921   6.38124   5.55698    
 H                     17.39335   5.29779   6.33388    
 C                     15.63496   5.69897   7.52223    
 O                     14.44017   5.81529   7.18783    
 O                     16.02315   5.29106   8.63842    
 P                     13.29395   6.64332   10.56513    
 O                     13.72668   7.61448   11.58271    
 O                     11.81458   6.15798   10.81171    
 H                     11.70202   5.19721   10.37598    
 O                     13.32466   7.34571   9.13664    
 H                     13.60103   6.68426   8.37404    
 O                     14.13415   5.29788   10.52713    
 H                     14.85602   5.2915    9.74155    
 O                     12.63055   3.77485   7.16328    
 H                     13.35526   4.43896   7.22028    
 H                     12.00927   4.16888   6.55667    
 O                     13.97204   10.46303   10.99969    
 H                     13.86899   9.52369   11.24226    
 H                     13.07829   10.7545   10.82049    
 O                     11.64174   3.56316   9.73458    
 H                     12.40924   3.18788   10.17332    
 H                     11.92196   3.61871   8.79544    
 O                     15.20243   9.61979   8.58331    
 H                     14.61544   8.8591    8.4982     
 H                     14.82948   10.07934   9.35231    
 
 ITRead=  0  0  0  0  0  0  0  0  0  0  0  0  0  0  0  0  0  0  0  0
 ITRead=  0  0  0  0  0  0  0  0  0  0  0  0  0  0  0  0  0  0  0  0
 ITRead=  0  0  0  0  0  0
 MicOpt= -1 -1 -1 -1 -1 -1 -1 -1 -1 -1 -1 -1 -1 -1 -1 -1 -1 -1 -1 -1
 MicOpt= -1 -1 -1 -1 -1 -1 -1 -1 -1 -1 -1 -1 -1 -1 -1 -1 -1 -1 -1 -1
 MicOpt= -1 -1 -1 -1 -1 -1
 NAtoms=     46 NQM=       46 NQMF=       0 NMMI=      0 NMMIF=      0
                NMic=       0 NMicF=      0.
                    Isotopes and Nuclear Properties:
 (Nuclear quadrupole moments (NQMom) in fm**2, nuclear magnetic moments (NMagM)
  in nuclear magnetons)

  Atom         1           2           3           4           5           6           7           8           9          10
 IAtWgt=          12          12          12          12          12           1           1           1           1          12
 AtmWgt=  12.0000000  12.0000000  12.0000000  12.0000000  12.0000000   1.0078250   1.0078250   1.0078250   1.0078250  12.0000000
 NucSpn=           0           0           0           0           0           1           1           1           1           0
 AtZEff=  -0.0000000  -0.0000000  -0.0000000  -0.0000000  -0.0000000  -0.0000000  -0.0000000  -0.0000000  -0.0000000  -0.0000000
 NQMom=    0.0000000   0.0000000   0.0000000   0.0000000   0.0000000   0.0000000   0.0000000   0.0000000   0.0000000   0.0000000
 NMagM=    0.0000000   0.0000000   0.0000000   0.0000000   0.0000000   2.7928460   2.7928460   2.7928460   2.7928460   0.0000000
 AtZNuc=   6.0000000   6.0000000   6.0000000   6.0000000   6.0000000   1.0000000   1.0000000   1.0000000   1.0000000   6.0000000

  Atom        11          12          13          14          15          16          17          18          19          20
 IAtWgt=           1           1           1          14          12           1           1          12           1           1
 AtmWgt=   1.0078250   1.0078250   1.0078250  14.0030740  12.0000000   1.0078250   1.0078250  12.0000000   1.0078250   1.0078250
 NucSpn=           1           1           1           2           0           1           1           0           1           1
 AtZEff=  -0.0000000  -0.0000000  -0.0000000  -0.0000000  -0.0000000  -0.0000000  -0.0000000  -0.0000000  -0.0000000  -0.0000000
 NQMom=    0.0000000   0.0000000   0.0000000   2.0440000   0.0000000   0.0000000   0.0000000   0.0000000   0.0000000   0.0000000
 NMagM=    2.7928460   2.7928460   2.7928460   0.4037610   0.0000000   2.7928460   2.7928460   0.0000000   2.7928460   2.7928460
 AtZNuc=   1.0000000   1.0000000   1.0000000   7.0000000   6.0000000   1.0000000   1.0000000   6.0000000   1.0000000   1.0000000

  Atom        21          22          23          24          25          26          27          28          29          30
 IAtWgt=          12           1           1          12          16          16          31          16          16           1
 AtmWgt=  12.0000000   1.0078250   1.0078250  12.0000000  15.9949146  15.9949146  30.9737634  15.9949146  15.9949146   1.0078250
 NucSpn=           0           1           1           0           0           0           1           0           0           1
 AtZEff=  -0.0000000  -0.0000000  -0.0000000  -0.0000000  -0.0000000  -0.0000000  -0.0000000  -0.0000000  -0.0000000  -0.0000000
 NQMom=    0.0000000   0.0000000   0.0000000   0.0000000   0.0000000   0.0000000   0.0000000   0.0000000   0.0000000   0.0000000
 NMagM=    0.0000000   2.7928460   2.7928460   0.0000000   0.0000000   0.0000000   1.1316000   0.0000000   0.0000000   2.7928460
 AtZNuc=   6.0000000   1.0000000   1.0000000   6.0000000   8.0000000   8.0000000  15.0000000   8.0000000   8.0000000   1.0000000

  Atom        31          32          33          34          35          36          37          38          39          40
 IAtWgt=          16           1          16           1          16           1           1          16           1           1
 AtmWgt=  15.9949146   1.0078250  15.9949146   1.0078250  15.9949146   1.0078250   1.0078250  15.9949146   1.0078250   1.0078250
 NucSpn=           0           1           0           1           0           1           1           0           1           1
 AtZEff=  -0.0000000  -0.0000000  -0.0000000  -0.0000000  -0.0000000  -0.0000000  -0.0000000  -0.0000000  -0.0000000  -0.0000000
 NQMom=    0.0000000   0.0000000   0.0000000   0.0000000   0.0000000   0.0000000   0.0000000   0.0000000   0.0000000   0.0000000
 NMagM=    0.0000000   2.7928460   0.0000000   2.7928460   0.0000000   2.7928460   2.7928460   0.0000000   2.7928460   2.7928460
 AtZNuc=   8.0000000   1.0000000   8.0000000   1.0000000   8.0000000   1.0000000   1.0000000   8.0000000   1.0000000   1.0000000

  Atom        41          42          43          44          45          46
 IAtWgt=          16           1           1          16           1           1
 AtmWgt=  15.9949146   1.0078250   1.0078250  15.9949146   1.0078250   1.0078250
 NucSpn=           0           1           1           0           1           1
 AtZEff=  -0.0000000  -0.0000000  -0.0000000  -0.0000000  -0.0000000  -0.0000000
 NQMom=    0.0000000   0.0000000   0.0000000   0.0000000   0.0000000   0.0000000
 NMagM=    0.0000000   2.7928460   2.7928460   0.0000000   2.7928460   2.7928460
 AtZNuc=   8.0000000   1.0000000   1.0000000   8.0000000   1.0000000   1.0000000
 Leave Link  101 at Thu Dec 15 13:20:23 2022, MaxMem= 13421772800 cpu:               2.2 elap:               0.1
 (Enter /data0/home/software/g16/l202.exe)
                          Input orientation:                          
 ---------------------------------------------------------------------
 Center     Atomic      Atomic             Coordinates (Angstroms)
 Number     Number       Type             X           Y           Z
 ---------------------------------------------------------------------
      1          6           0       17.299360    6.373064   10.489098
      2          6           0       16.677871    6.673549   11.706801
      3          6           0       16.328951    8.000664   11.981306
      4          6           0       16.645667    8.993219   11.055639
      5          6           0       17.285505    8.659954    9.865310
      6          1           0       15.792322    8.252482   12.902449
      7          1           0       17.523803    5.328829   10.207012
      8          1           0       16.365865   10.037571   11.238366
      9          1           0       17.536307    9.420515    9.110803
     10          6           0       16.367481    5.574951   12.654545
     11          1           0       15.540368    5.839847   13.338115
     12          1           0       16.015146    4.665714   12.129952
     13          1           0       17.233748    5.295682   13.267047
     14          7           0       17.599114    7.359768    9.599631
     15          6           0       18.278816    7.018757    8.326198
     16          1           0       19.250933    7.560704    8.298030
     17          1           0       18.511536    5.923880    8.320388
     18          6           0       17.431812    7.360960    7.087109
     19          1           0       16.685425    8.156558    7.314880
     20          1           0       18.085102    7.796073    6.305161
     21          6           0       16.706309    6.138698    6.528134
     22          1           0       16.229206    6.381238    5.556980
     23          1           0       17.393345    5.297793    6.333882
     24          6           0       15.634956    5.698971    7.522230
     25          8           0       14.440169    5.815293    7.187827
     26          8           0       16.023154    5.291065    8.638416
     27         15           0       13.293946    6.643324   10.565128
     28          8           0       13.726683    7.614477   11.582713
     29          8           0       11.814584    6.157975   10.811709
     30          1           0       11.702019    5.197208   10.375979
     31          8           0       13.324663    7.345708    9.136645
     32          1           0       13.601026    6.684258    8.374036
     33          8           0       14.134153    5.297877   10.527126
     34          1           0       14.856018    5.291503    9.741545
     35          8           0       12.630554    3.774847    7.163280
     36          1           0       13.355265    4.438959    7.220284
     37          1           0       12.009270    4.168882    6.556673
     38          8           0       13.972038   10.463029   10.999691
     39          1           0       13.868988    9.523690   11.242255
     40          1           0       13.078289   10.754501   10.820493
     41          8           0       11.641740    3.563158    9.734581
     42          1           0       12.409237    3.187881   10.173319
     43          1           0       11.921955    3.618708    8.795440
     44          8           0       15.202429    9.619788    8.583305
     45          1           0       14.615438    8.859100    8.498200
     46          1           0       14.829477   10.079340    9.352311
 ---------------------------------------------------------------------
                    Distance matrix (angstroms):
                    1          2          3          4          5
     1  C    0.000000
     2  C    1.399764   0.000000
     3  C    2.411941   1.399404   0.000000
     4  C    2.759256   2.409547   1.393676   0.000000
     5  C    2.370479   2.775989   2.413938   1.391884   0.000000
     6  H    3.409932   2.169516   1.095394   2.165086   3.408789
     7  H    1.104705   2.184775   3.422644   3.862518   3.357073
     8  H    3.855052   3.410780   2.168482   1.096517   2.151476
     9  H    3.353028   3.875815   3.422495   2.181332   1.100289
    10  C    2.488884   1.483738   2.517701   3.783972   4.259090
    11  H    3.390468   2.156422   2.670566   4.046621   4.801966
    12  H    2.693817   2.156308   3.352978   4.503222   4.764071
    13  H    2.980278   2.154503   3.128692   4.348327   4.784644
    14  N    1.361833   2.399948   2.774245   2.386877   1.363605
    15  C    2.460567   3.756417   4.257456   3.743731   2.459484
    16  H    3.165423   4.362042   4.722083   4.055110   2.743652
    17  H    2.524765   3.923280   4.741206   4.514854   3.372838
    18  C    3.544998   4.731016   5.057538   4.362513   3.070373
    19  H    3.692347   4.635552   4.682618   3.833388   2.667995
    20  H    4.488616   5.693687   5.945128   5.106092   3.749708
    21  C    4.011966   5.206291   5.774634   5.352595   4.222433
    22  H    5.046889   6.173090   6.626044   6.101732   4.986985
    23  H    4.293118   5.592215   6.350736   6.042366   4.877165
    24  C    3.467989   4.421324   5.065844   4.935442   4.120893
    25  O    4.402780   5.115177   5.596498   5.470229   4.832903
    26  O    2.494884   3.428542   4.313972   4.465023   3.801080
    27  P    4.015241   3.571453   3.613750   4.122698   4.526487
    28  O    3.937146   3.100041   2.660792   3.270964   4.087506
    29  O    5.498464   4.971777   5.014277   5.606913   6.089872
    30  H    5.720635   5.358150   5.643132   6.269872   6.589894
    31  O    4.309685   4.278026   4.188891   4.174434   4.236327
    32  H    4.271768   4.535903   4.710297   4.668205   4.438768
    33  O    3.343054   3.123237   3.773173   4.499176   4.655382
    34  H    2.774622   3.015200   3.811248   4.316525   4.155019
    35  O    6.293612   6.739943   7.399260   7.648725   7.268687
    36  H    5.475563   6.013480   6.647998   6.802792   6.345057
    37  H    6.950355   7.388708   7.922679   8.062946   7.678246
    38  O    5.297130   4.709745   3.547090   3.051518   3.939158
    39  H    4.718171   4.028515   2.986172   2.833050   3.783465
    40  H    6.092968   5.513320   4.415644   3.985423   4.795849
    41  O    6.361881   6.239135   6.834411   7.501336   7.605689
    42  H    5.844520   5.720375   6.464971   7.240703   7.335969
    43  H    6.274666   6.358208   6.983759   7.503821   7.438175
    44  O    4.309337   4.540207   3.928998   2.930522   2.627551
    45  H    4.165031   4.396065   3.975559   3.268075   3.006311
    46  H    4.596639   4.534269   3.671639   2.716529   2.882689
                    6          7          8          9         10
     6  H    0.000000
     7  H    4.337183   0.000000
     8  H    2.506924   4.957496   0.000000
     9  H    4.333862   4.236003   2.505437   0.000000
    10  C    2.749807   2.718101   4.681938   5.358416   0.000000
    11  H    2.464568   3.741518   4.765635   5.888559   1.105239
    12  H    3.675773   2.532482   5.456627   5.834152   1.107271
    13  H    3.309578   3.073930   5.230132   5.863459   1.097073
    14  N    3.869114   2.121155   3.372979   2.118862   3.746330
    15  C    5.352271   2.638818   4.610135   2.633508   4.946955
    16  H    5.800105   3.407118   4.806669   2.656961   5.588983
    17  H    5.814791   2.211120   5.480963   3.715143   4.848055
    18  C    6.107448   3.724488   5.053061   2.889295   5.942977
    19  H    5.659308   4.130782   4.362805   2.355191   5.939512
    20  H    6.999240   4.650461   5.684769   3.288102   6.942498
    21  C    6.777562   3.854650   6.124002   4.257863   6.161617
    22  H    7.592650   4.940278   6.757632   4.855448   7.144554
    23  H    7.378315   3.875451   6.897476   4.972782   6.409368
    24  C    5.957511   3.303453   5.759110   4.470860   5.185811
    25  O    6.358075   4.342917   6.159773   5.126552   5.801491
    26  O    5.196658   2.171144   5.422777   4.423250   4.040847
    27  P    3.780786   4.443854   4.627186   5.274986   3.867002
    28  O    2.532907   4.640567   3.599339   4.887264   3.504612
    29  O    4.957878   5.800717   5.995620   6.802600   4.946194
    30  H    5.696343   5.825723   6.776746   7.312722   5.205871
    31  O    4.592696   4.779776   4.572993   4.695044   4.976941
    32  H    5.269500   4.537088   5.205135   4.849367   5.215994
    33  O    4.137798   3.404873   5.286880   5.529626   3.096843
    34  H    4.431182   2.708344   5.200507   4.962915   3.293999
    35  O    7.936249   5.968505   8.353477   7.728701   6.881787
    36  H    7.264241   5.204721   7.520183   6.772819   6.316258
    37  H    8.441335   6.714203   8.679843   8.040607   7.625948
    38  O    3.438087   6.293122   2.443028   4.166383   5.689464
    39  H    2.841026   5.659175   2.549212   4.242990   4.881554
    40  H    4.237997   7.041084   3.390688   4.957467   6.403926
    41  O    7.018011   6.159501   8.154554   8.333286   5.908141
    42  H    6.674099   5.544689   7.981697   8.140118   5.246168
    43  H    7.301995   6.024761   8.180344   8.079689   6.203409
    44  O    4.568644   5.141744   2.928733   2.401031   5.856027
    45  H    4.598962   4.882770   3.458511   3.036766   5.579471
    46  H    4.107062   5.527862   2.432989   2.796302   5.793076
                   11         12         13         14         15
    11  H    0.000000
    12  H    1.750331   0.000000
    13  H    1.780085   1.781807   0.000000
    14  N    4.530437   4.021120   4.224202   0.000000
    15  C    5.831658   5.012939   5.336023   1.483211   0.000000
    16  H    6.490924   5.790934   5.821554   2.112592   1.113333
    17  H    5.832022   4.725222   5.147505   2.128556   1.119352
    18  C    6.705701   5.890803   6.518914   2.518086   1.539435
    19  H    6.554210   5.984997   6.626731   2.586463   2.203690
    20  H    7.730778   6.929073   7.446114   3.358583   2.174014
    21  C    6.915531   5.833331   6.811888   3.423771   2.545647
    22  H    7.830304   6.796529   7.850648   4.379178   3.503698
    23  H    7.265441   5.991109   6.935002   3.867712   2.777607
    24  C    5.818360   4.737432   5.976763   3.306321   3.062384
    25  O    6.247966   5.312879   6.710514   4.263934   4.180840
    26  O    4.756198   3.547105   4.784327   2.772565   2.858393
    27  P    3.658066   3.710060   4.963723   4.469894   5.477471
    28  O    3.085482   3.772497   4.529161   4.358120   5.628649
    29  O    4.512804   4.648584   6.011620   6.031105   6.978897
    30  H    4.890824   4.686360   6.242435   6.328911   7.125581
    31  O    4.982902   4.835386   6.045145   4.299475   5.030641
    32  H    5.395939   4.899939   6.250310   4.235930   4.689978
    33  O    3.189488   2.550846   4.136987   4.137342   4.998374
    34  H    3.701936   2.727577   4.252385   3.438377   4.086828
    35  O    7.131608   6.075931   7.794761   6.593486   6.616509
    36  H    6.645677   5.588490   7.234635   5.674740   5.667430
    37  H    7.826157   6.881520   8.578693   7.119530   7.110571
    38  O    5.413104   6.249851   6.517755   4.974543   6.128533
    39  H    4.555967   5.384601   5.770394   4.614609   5.850185
    40  H    6.045997   6.885720   7.283692   5.783820   6.871883
    41  O    5.776510   5.106869   6.837434   7.065604   7.614163
    42  H    5.181972   4.360617   6.106544   6.683456   7.248408
    43  H    6.217899   5.382323   7.143014   6.846341   7.224279
    44  O    6.083615   6.146712   6.690410   3.447420   4.036784
    45  H    5.778941   5.721302   6.503491   3.516173   4.103265
    46  H    5.862192   6.199068   6.632425   3.889489   4.724195
                   16         17         18         19         20
    16  H    0.000000
    17  H    1.796218   0.000000
    18  C    2.194408   2.179904   0.000000
    19  H    2.811309   3.054600   1.114428   0.000000
    20  H    2.320795   2.783540   1.107950   1.763116   0.000000
    21  C    3.410241   2.552874   1.527328   2.165910   2.167413
    22  H    4.246802   3.613119   2.178855   2.539707   2.450690
    23  H    3.525518   2.364010   2.196700   3.104198   2.592442
    24  C    4.140435   2.993719   2.486007   2.680711   3.447073
    25  O    5.236646   4.227353   3.368851   3.246358   4.241241
    26  O    3.960515   2.587207   2.945392   3.225120   3.996345
    27  P    6.439489   5.725356   5.452848   4.935192   6.513933
    28  O    6.427237   6.032885   5.831184   5.221341   6.846996
    29  O    7.974053   7.149171   6.846391   6.320383   7.893778
    30  H    8.178636   7.150037   6.951907   6.554572   8.004337
    31  O    5.989171   5.439809   4.590153   3.907816   5.557149
    32  H    5.717988   4.969322   4.097442   3.578127   5.061948
    33  O    6.022515   4.941969   5.192743   4.999957   6.298886
    34  H    5.152503   3.972707   4.238325   4.176598   5.339344
    35  O    7.710369   6.367354   5.993170   5.971964   6.830719
    36  H    6.757642   5.477440   5.017376   4.991939   5.871884
    37  H    8.184037   6.962052   6.314641   6.192161   7.080643
    38  O    6.602211   6.956262   6.074633   5.124462   6.787383
    39  H    6.441049   6.561188   5.885266   5.022513   6.718272
    40  H    7.393558   7.688016   6.663891   5.661277   7.362655
    41  O    8.714578   7.400476   7.413322   7.238303   8.437737
    42  H    8.333492   6.939531   7.222572   7.151518   8.271247
    43  H    8.336706   6.997290   6.876145   6.743500   7.850876
    44  O    4.550999   4.967801   3.508711   2.439103   4.101912
    45  H    4.818061   4.881261   3.488204   2.485691   4.240049
    46  H    5.196567   5.647147   4.392366   3.360470   5.009743
                   21         22         23         24         25
    21  C    0.000000
    22  H    1.108870   0.000000
    23  H    1.103120   1.769929   0.000000
    24  C    1.526232   2.163522   2.159872   0.000000
    25  O    2.382263   2.486083   3.117415   1.246143   0.000000
    26  O    2.374547   3.275085   2.681109   1.250182   2.210173
    27  P    5.310008   5.810851   6.043093   3.953651   3.661369
    28  O    6.050195   6.640253   6.808940   4.878339   4.802202
    29  O    6.502181   6.866652   7.205097   5.062272   4.488168
    30  H    6.382416   6.717150   6.981394   4.885043   4.247800
    31  O    4.438100   4.709626   5.348234   3.264281   2.717428
    32  H    3.653460   3.864577   4.523958   2.415209   1.693031
    33  O    4.828551   5.501388   5.310897   3.382704   3.392976
    34  H    3.803594   4.536932   4.248557   2.387076   2.639841
    35  O    4.754259   4.724804   5.068673   3.585740   2.727403
    36  H    3.820691   3.846890   4.222487   2.622173   1.752816
    37  H    5.093443   4.868446   5.505664   4.052045   3.003048
    38  O    6.794917   7.167910   7.755951   6.128155   6.029171
    39  H    6.459992   6.911439   7.373698   5.620116   5.524205
    40  H    7.272724   7.533809   8.277986   6.555415   6.280665
    41  O    6.524153   6.814600   6.903236   5.040037   4.403325
    42  H    6.360780   6.789719   6.635837   4.872280   4.465550
    43  H    5.863537   6.055709   6.230145   4.442402   3.708208
    44  O    4.313162   4.549848   5.342252   4.084821   4.123419
    45  H    3.956449   4.170710   5.008388   3.460975   3.318517
    46  H    5.198763   5.480852   6.208665   4.815145   4.797775
                   26         27         28         29         30
    26  O    0.000000
    27  P    3.604081   0.000000
    28  O    4.397830   1.471692   0.000000
    29  O    4.815267   1.576350   2.524276   0.000000
    30  H    4.658341   2.158995   3.376190   1.060945   0.000000
    31  O    3.428067   1.592121   2.493412   2.548899   2.963946
    32  H    2.806704   2.212885   3.343158   3.067670   3.134537
    33  O    2.671254   1.586701   2.578164   2.490212   2.438905
    34  H    1.605958   2.223910   3.171988   3.338614   3.218557
    35  O    3.998084   4.498980   5.956143   4.433525   3.634106
    36  H    3.139238   4.006366   5.408572   4.269315   3.642331
    37  H    4.658778   4.882721   6.331091   4.701034   3.967235
    38  O    6.044163   3.903691   2.917938   4.819070   5.768091
    39  H    5.416228   3.014247   1.944545   3.966609   4.915754
    40  H    6.578968   4.124742   3.295625   4.767083   5.742405
    41  O    4.835704   3.592634   4.916886   2.814810   1.756458
    42  H    4.454179   3.588358   4.828748   3.095579   2.139772
    43  H    4.431847   3.763304   5.195393   3.244187   2.244580
    44  O    4.406185   4.053303   3.898147   5.331738   5.918257
    45  H    3.838255   3.305782   3.442847   4.526940   5.042174
    46  H    4.986190   3.954110   3.502342   5.157182   5.887623
                   31         32         33         34         35
    31  O    0.000000
    32  H    1.046645   0.000000
    33  O    2.604289   2.615736   0.000000
    34  H    2.632624   2.320528   1.066896   0.000000
    35  O    4.138479   3.297335   3.986965   3.728322   0.000000
    36  H    3.481748   2.536318   3.504228   3.055462   0.984632
    37  H    4.298690   3.487637   4.642656   4.416748   0.953535
    38  O    3.688865   4.616365   5.189258   5.395279   7.826200
    39  H    3.077903   4.044856   4.294091   4.597583   7.156881
    40  H    3.809976   4.777581   5.565578   5.845408   7.892480
    41  O    4.182994   3.928250   3.138391   3.649494   2.762997
    42  H    4.381806   4.108824   2.748199   3.255517   3.074711
    43  H    3.996816   3.520576   3.272944   3.507433   1.786180
    44  O    3.000605   3.350466   4.857836   4.493948   6.541739
    45  H    2.089035   2.402995   4.126801   3.785701   5.618844
    46  H    3.127894   3.740681   4.972530   4.803706   7.026646
                   36         37         38         39         40
    36  H    0.000000
    37  H    1.524803   0.000000
    38  O    7.138189   7.950418   0.000000
    39  H    6.503434   7.354400   0.975610   0.000000
    40  H    7.274908   7.917913   0.957003   1.522493   0.000000
    41  O    3.166210   3.255930   7.391821   6.539240   7.413386
    42  H    3.343738   3.768616   7.486856   6.589080   7.623661
    43  H    2.282171   2.307031   7.477051   6.681815   7.507163
    44  O    5.666642   6.634446   2.839690   2.976124   3.287028
    45  H    4.770613   5.706118   3.040396   2.920395   3.368741
    46  H    6.207474   7.120581   1.896386   2.191615   2.382868
                   41         42         43         44         45
    41  O    0.000000
    42  H    0.960404   0.000000
    43  H    0.981627   1.523682   0.000000
    44  O    7.119460   7.190236   6.842476   0.000000
    45  H    6.198267   6.311582   5.899569   0.964597   0.000000
    46  H    7.264188   7.350090   7.106585   0.970387   1.504760
                   46
    46  H    0.000000
 Symmetry turned off by external request.
 Stoichiometry    C10H24NO10P
 Framework group  C1[X(C10H24NO10P)]
 Deg. of freedom   132
 Full point group                 C1      NOp   1
 Rotational constants (GHZ):           0.2800925           0.2290078           0.1797987
 Leave Link  202 at Thu Dec 15 13:20:23 2022, MaxMem= 13421772800 cpu:               0.1 elap:               0.0
 (Enter /data0/home/software/g16/l122.exe)
 Counterpoise: doing full-system calculation.
 Leave Link  122 at Thu Dec 15 13:20:23 2022, MaxMem= 13421772800 cpu:               0.1 elap:               0.0
 (Enter /data0/home/software/g16/l301.exe)
 Standard basis: 6-311+G(2d,p) (5D, 7F)
 Ernie: Thresh=  0.10000D-02 Tol=  0.10000D-05 Strict=F.
   746 basis functions,  1130 primitive gaussians,   790 cartesian basis functions
    93 alpha electrons       93 beta electrons
       nuclear repulsion energy      2458.9899798373 Hartrees.
 IExCor= 4336 DFT=T Ex+Corr=M062X ExCW=0 ScaHFX=  0.540000
 ScaDFX=  1.000000  1.000000  1.000000  1.000000 ScalE2=  1.000000  1.000000
 IRadAn=      5 IRanWt=     -1 IRanGd=            0 ICorTp=0 IEmpDi=131
 NAtoms=   46 NActive=   46 NUniq=   46 SFac= 1.00D+00 NAtFMM=   60 NAOKFM=F Big=F
 Integral buffers will be    131072 words long.
 Raffenetti 2 integral format.
 Two-electron integral symmetry is turned off.
 R6Disp:  Grimme-D3 Dispersion energy=       -0.0044456483 Hartrees.
 Nuclear repulsion after empirical dispersion term =     2458.9855341890 Hartrees.
 Leave Link  301 at Thu Dec 15 13:20:23 2022, MaxMem= 13421772800 cpu:               1.1 elap:               0.1
 (Enter /data0/home/software/g16/l302.exe)
 NPDir=0 NMtPBC=     1 NCelOv=     1 NCel=       1 NClECP=     1 NCelD=      1
         NCelK=      1 NCelE2=     1 NClLst=     1 CellRange=     0.0.
 One-electron integrals computed using PRISM.
 NBasis=   746 RedAO= T EigKep=  1.32D-06  NBF=   746
 NBsUse=   746 1.00D-06 EigRej= -1.00D+00 NBFU=   746
 Precomputing XC quadrature grid using
 IXCGrd= 4 IRadAn=           5 IRanWt=          -1 IRanGd=           0 AccXCQ= 0.00D+00.
 Generated NRdTot=       0 NPtTot=           0 NUsed=           0 NTot=          32
 NSgBfM=   786   784   785   786   786 MxSgAt=    46 MxSgA2=    46.
 Leave Link  302 at Thu Dec 15 13:20:24 2022, MaxMem= 13421772800 cpu:              26.1 elap:               1.1
 (Enter /data0/home/software/g16/l303.exe)
 DipDrv:  MaxL=1.
 Leave Link  303 at Thu Dec 15 13:20:24 2022, MaxMem= 13421772800 cpu:               2.1 elap:               0.1
 (Enter /data0/home/software/g16/l401.exe)
 ExpMin= 3.48D-02 ExpMax= 7.75D+04 ExpMxC= 2.65D+03 IAcc=3 IRadAn=         5 AccDes= 0.00D+00
 Harris functional with IExCor= 1009 and IRadAn=       5 diagonalized for initial guess.
 HarFok:  IExCor= 1009 AccDes= 0.00D+00 IRadAn=         5 IDoV= 1 UseB2=F ITyADJ=14
 ICtDFT=  3500011 ScaDFX=  1.000000  1.000000  1.000000  1.000000
 FoFCou: FMM=F IPFlag=           0 FMFlag=      100000 FMFlg1=           0
         NFxFlg=           0 DoJE=T BraDBF=F KetDBF=T FulRan=T
         wScrn=  0.000000 ICntrl=       500 IOpCl=  0 I1Cent=   200000004 NGrid=           0
         NMat0=    1 NMatS0=      1 NMatT0=    0 NMatD0=    1 NMtDS0=    0 NMtDT0=    0
 Symmetry not used in FoFCou.
 Harris En= -1543.38602150660    
 JPrj=0 DoOrth=F DoCkMO=F.
 Leave Link  401 at Thu Dec 15 13:20:28 2022, MaxMem= 13421772800 cpu:              99.0 elap:               4.2
 (Enter /data0/home/software/g16/l502.exe)
 Two-electron integral symmetry not used.
 Closed shell SCF:
 Using DIIS extrapolation, IDIIS=  1040.
 NGot= 13421772800 LenX= 13420500092 LenY= 13419875202
 Requested convergence on RMS density matrix=1.00D-08 within 128 cycles.
 Requested convergence on MAX density matrix=1.00D-06.
 Requested convergence on             energy=1.00D-06.
 No special actions if energy rises.
 Fock matrices will be formed incrementally for  20 cycles.

 Cycle   1  Pass 1  IDiag  1:
 FoFJK:  IHMeth= 1 ICntrl=       0 DoSepK=F KAlg= 0 I1Cent=           0 FoldK=F
 IRaf= 820000000 NMat=       1 IRICut=       1 DoRegI=T DoRafI=F ISym2E= 0 IDoP0=0 IntGTp=1.
 FoFCou: FMM=F IPFlag=           0 FMFlag=      100000 FMFlg1=           0
         NFxFlg=           0 DoJE=F BraDBF=F KetDBF=F FulRan=T
         wScrn=  0.000000 ICntrl=         0 IOpCl=  0 I1Cent=           0 NGrid=           0
         NMat0=    1 NMatS0=      1 NMatT0=    0 NMatD0=    1 NMtDS0=    0 NMtDT0=    0
 Symmetry not used in FoFCou.
 E= -1543.12019677323    
 DIIS: error= 2.13D-02 at cycle   1 NSaved=   1.
 NSaved= 1 IEnMin= 1 EnMin= -1543.12019677323     IErMin= 1 ErrMin= 2.13D-02
 ErrMax= 2.13D-02  0.00D+00 EMaxC= 1.00D-01 BMatC= 1.39D+00 BMatP= 1.39D+00
 IDIUse=3 WtCom= 7.87D-01 WtEn= 2.13D-01
 Coeff-Com:  0.100D+01
 Coeff-En:   0.100D+01
 Coeff:      0.100D+01
 Gap=     0.252 Goal=   None    Shift=    0.000
 GapD=    0.252 DampG=1.000 DampE=0.500 DampFc=0.5000 IDamp=-1.
 Damping current iteration by 5.00D-01
 RMSDP=1.29D-02 MaxDP=3.13D+00              OVMax= 2.22D-01

 Cycle   2  Pass 1  IDiag  1:
 RMSU=  5.52D-03    CP:  1.15D+00
 E= -1543.50713175420     Delta-E=       -0.386934980965 Rises=F Damp=T
 DIIS: error= 5.49D-03 at cycle   2 NSaved=   2.
 NSaved= 2 IEnMin= 2 EnMin= -1543.50713175420     IErMin= 2 ErrMin= 5.49D-03
 ErrMax= 5.49D-03  0.00D+00 EMaxC= 1.00D-01 BMatC= 8.12D-02 BMatP= 1.39D+00
 IDIUse=3 WtCom= 9.45D-01 WtEn= 5.49D-02
 Coeff-Com:  0.194D-01 0.981D+00
 Coeff-En:   0.962D-01 0.904D+00
 Coeff:      0.236D-01 0.976D+00
 Gap=     0.341 Goal=   None    Shift=    0.000
 RMSDP=7.48D-03 MaxDP=2.20D+00 DE=-3.87D-01 OVMax= 1.47D-01

 Cycle   3  Pass 1  IDiag  1:
 RMSU=  3.36D-03    CP:  8.59D-01  6.98D-01
 E= -1543.95314893664     Delta-E=       -0.446017182445 Rises=F Damp=F
 DIIS: error= 4.13D-03 at cycle   3 NSaved=   3.
 NSaved= 3 IEnMin= 3 EnMin= -1543.95314893664     IErMin= 3 ErrMin= 4.13D-03
 ErrMax= 4.13D-03  0.00D+00 EMaxC= 1.00D-01 BMatC= 3.40D-02 BMatP= 8.12D-02
 IDIUse=3 WtCom= 9.59D-01 WtEn= 4.13D-02
 Coeff-Com: -0.458D-01 0.368D+00 0.678D+00
 Coeff-En:   0.000D+00 0.000D+00 0.100D+01
 Coeff:     -0.439D-01 0.353D+00 0.691D+00
 Gap=     0.276 Goal=   None    Shift=    0.000
 RMSDP=1.20D-03 MaxDP=2.74D-01 DE=-4.46D-01 OVMax= 6.37D-02

 Cycle   4  Pass 1  IDiag  1:
 RMSU=  9.27D-04    CP:  8.75D-01  8.08D-01  9.12D-01
 E= -1543.97206503482     Delta-E=       -0.018916098179 Rises=F Damp=F
 DIIS: error= 2.29D-03 at cycle   4 NSaved=   4.
 NSaved= 4 IEnMin= 4 EnMin= -1543.97206503482     IErMin= 4 ErrMin= 2.29D-03
 ErrMax= 2.29D-03  0.00D+00 EMaxC= 1.00D-01 BMatC= 1.16D-02 BMatP= 3.40D-02
 IDIUse=3 WtCom= 9.77D-01 WtEn= 2.29D-02
 Coeff-Com: -0.281D-01 0.790D-01 0.402D+00 0.547D+00
 Coeff-En:   0.000D+00 0.000D+00 0.267D+00 0.733D+00
 Coeff:     -0.274D-01 0.772D-01 0.399D+00 0.552D+00
 Gap=     0.282 Goal=   None    Shift=    0.000
 RMSDP=5.61D-04 MaxDP=1.27D-01 DE=-1.89D-02 OVMax= 2.45D-02

 Cycle   5  Pass 1  IDiag  1:
 RMSU=  2.40D-04    CP:  8.66D-01  7.66D-01  9.42D-01  5.73D-01
 E= -1543.98173279850     Delta-E=       -0.009667763676 Rises=F Damp=F
 DIIS: error= 3.77D-04 at cycle   5 NSaved=   5.
 NSaved= 5 IEnMin= 5 EnMin= -1543.98173279850     IErMin= 5 ErrMin= 3.77D-04
 ErrMax= 3.77D-04  0.00D+00 EMaxC= 1.00D-01 BMatC= 3.00D-04 BMatP= 1.16D-02
 IDIUse=3 WtCom= 9.96D-01 WtEn= 3.77D-03
 Coeff-Com: -0.932D-02 0.177D-01 0.141D+00 0.239D+00 0.612D+00
 Coeff-En:   0.000D+00 0.000D+00 0.000D+00 0.000D+00 0.100D+01
 Coeff:     -0.928D-02 0.176D-01 0.140D+00 0.238D+00 0.613D+00
 Gap=     0.275 Goal=   None    Shift=    0.000
 RMSDP=7.82D-05 MaxDP=1.24D-02 DE=-9.67D-03 OVMax= 4.20D-03

 Cycle   6  Pass 1  IDiag  1:
 RMSU=  5.62D-05    CP:  8.65D-01  7.64D-01  9.42D-01  6.10D-01  8.67D-01
 E= -1543.98198045589     Delta-E=       -0.000247657393 Rises=F Damp=F
 DIIS: error= 8.51D-05 at cycle   6 NSaved=   6.
 NSaved= 6 IEnMin= 6 EnMin= -1543.98198045589     IErMin= 6 ErrMin= 8.51D-05
 ErrMax= 8.51D-05  0.00D+00 EMaxC= 1.00D-01 BMatC= 2.78D-05 BMatP= 3.00D-04
 IDIUse=1 WtCom= 1.00D+00 WtEn= 0.00D+00
 Coeff-Com: -0.183D-02 0.150D-02 0.304D-01 0.608D-01 0.279D+00 0.630D+00
 Coeff:     -0.183D-02 0.150D-02 0.304D-01 0.608D-01 0.279D+00 0.630D+00
 Gap=     0.275 Goal=   None    Shift=    0.000
 RMSDP=3.52D-05 MaxDP=1.08D-02 DE=-2.48D-04 OVMax= 1.11D-03

 Cycle   7  Pass 1  IDiag  1:
 RMSU=  2.84D-05    CP:  8.66D-01  7.66D-01  9.45D-01  6.03D-01  8.59D-01
                    CP:  8.87D-01
 E= -1543.98200095407     Delta-E=       -0.000020498184 Rises=F Damp=F
 DIIS: error= 4.53D-05 at cycle   7 NSaved=   7.
 NSaved= 7 IEnMin= 7 EnMin= -1543.98200095407     IErMin= 7 ErrMin= 4.53D-05
 ErrMax= 4.53D-05  0.00D+00 EMaxC= 1.00D-01 BMatC= 3.78D-06 BMatP= 2.78D-05
 IDIUse=1 WtCom= 1.00D+00 WtEn= 0.00D+00
 Coeff-Com:  0.287D-03-0.132D-02-0.278D-02-0.121D-02 0.640D-01 0.304D+00
 Coeff-Com:  0.637D+00
 Coeff:      0.287D-03-0.132D-02-0.278D-02-0.121D-02 0.640D-01 0.304D+00
 Coeff:      0.637D+00
 Gap=     0.275 Goal=   None    Shift=    0.000
 RMSDP=1.06D-05 MaxDP=1.54D-03 DE=-2.05D-05 OVMax= 5.02D-04

 Cycle   8  Pass 1  IDiag  1:
 RMSU=  8.23D-06    CP:  8.66D-01  7.65D-01  9.46D-01  6.01D-01  8.70D-01
                    CP:  9.41D-01  1.05D+00
 E= -1543.98200368745     Delta-E=       -0.000002733374 Rises=F Damp=F
 DIIS: error= 1.54D-05 at cycle   8 NSaved=   8.
 NSaved= 8 IEnMin= 8 EnMin= -1543.98200368745     IErMin= 8 ErrMin= 1.54D-05
 ErrMax= 1.54D-05  0.00D+00 EMaxC= 1.00D-01 BMatC= 4.52D-07 BMatP= 3.78D-06
 IDIUse=1 WtCom= 1.00D+00 WtEn= 0.00D+00
 Coeff-Com:  0.389D-03-0.792D-03-0.567D-02-0.973D-02-0.107D-01 0.365D-01
 Coeff-Com:  0.288D+00 0.702D+00
 Coeff:      0.389D-03-0.792D-03-0.567D-02-0.973D-02-0.107D-01 0.365D-01
 Coeff:      0.288D+00 0.702D+00
 Gap=     0.275 Goal=   None    Shift=    0.000
 RMSDP=5.55D-06 MaxDP=1.37D-03 DE=-2.73D-06 OVMax= 1.62D-04

 Cycle   9  Pass 1  IDiag  1:
 RMSU=  2.85D-06    CP:  8.66D-01  7.65D-01  9.45D-01  6.01D-01  8.78D-01
                    CP:  9.56D-01  1.03D+00  8.39D-01
 E= -1543.98200406289     Delta-E=       -0.000000375445 Rises=F Damp=F
 DIIS: error= 3.47D-06 at cycle   9 NSaved=   9.
 NSaved= 9 IEnMin= 9 EnMin= -1543.98200406289     IErMin= 9 ErrMin= 3.47D-06
 ErrMax= 3.47D-06  0.00D+00 EMaxC= 1.00D-01 BMatC= 4.25D-08 BMatP= 4.52D-07
 IDIUse=1 WtCom= 1.00D+00 WtEn= 0.00D+00
 Coeff-Com:  0.142D-03-0.251D-03-0.228D-02-0.428D-02-0.918D-02-0.767D-02
 Coeff-Com:  0.788D-01 0.309D+00 0.636D+00
 Coeff:      0.142D-03-0.251D-03-0.228D-02-0.428D-02-0.918D-02-0.767D-02
 Coeff:      0.788D-01 0.309D+00 0.636D+00
 Gap=     0.275 Goal=   None    Shift=    0.000
 RMSDP=1.26D-06 MaxDP=1.67D-04 DE=-3.75D-07 OVMax= 6.49D-05

 Cycle  10  Pass 1  IDiag  1:
 RMSU=  9.45D-07    CP:  8.66D-01  7.65D-01  9.46D-01  6.01D-01  8.77D-01
                    CP:  9.57D-01  1.05D+00  8.47D-01  9.56D-01
 E= -1543.98200409957     Delta-E=       -0.000000036681 Rises=F Damp=F
 DIIS: error= 1.35D-06 at cycle  10 NSaved=  10.
 NSaved=10 IEnMin=10 EnMin= -1543.98200409957     IErMin=10 ErrMin= 1.35D-06
 ErrMax= 1.35D-06  0.00D+00 EMaxC= 1.00D-01 BMatC= 5.79D-09 BMatP= 4.25D-08
 IDIUse=1 WtCom= 1.00D+00 WtEn= 0.00D+00
 Coeff-Com:  0.582D-05 0.572D-05-0.215D-03-0.568D-03-0.247D-02-0.854D-02
 Coeff-Com: -0.434D-02 0.364D-01 0.280D+00 0.700D+00
 Coeff:      0.582D-05 0.572D-05-0.215D-03-0.568D-03-0.247D-02-0.854D-02
 Coeff:     -0.434D-02 0.364D-01 0.280D+00 0.700D+00
 Gap=     0.275 Goal=   None    Shift=    0.000
 RMSDP=4.61D-07 MaxDP=6.25D-05 DE=-3.67D-08 OVMax= 2.08D-05

 Cycle  11  Pass 1  IDiag  1:
 RMSU=  4.33D-07    CP:  8.66D-01  7.65D-01  9.46D-01  6.01D-01  8.78D-01
                    CP:  9.58D-01  1.05D+00  8.54D-01  9.93D-01  9.70D-01
 E= -1543.98200410470     Delta-E=       -0.000000005124 Rises=F Damp=F
 DIIS: error= 5.64D-07 at cycle  11 NSaved=  11.
 NSaved=11 IEnMin=11 EnMin= -1543.98200410470     IErMin=11 ErrMin= 5.64D-07
 ErrMax= 5.64D-07  0.00D+00 EMaxC= 1.00D-01 BMatC= 7.79D-10 BMatP= 5.79D-09
 IDIUse=1 WtCom= 1.00D+00 WtEn= 0.00D+00
 Coeff-Com: -0.181D-04 0.370D-04 0.243D-03 0.372D-03 0.230D-03-0.296D-02
 Coeff-Com: -0.141D-01-0.332D-01 0.265D-01 0.299D+00 0.724D+00
 Coeff:     -0.181D-04 0.370D-04 0.243D-03 0.372D-03 0.230D-03-0.296D-02
 Coeff:     -0.141D-01-0.332D-01 0.265D-01 0.299D+00 0.724D+00
 Gap=     0.275 Goal=   None    Shift=    0.000
 RMSDP=2.53D-07 MaxDP=5.72D-05 DE=-5.12D-09 OVMax= 1.57D-05

 Cycle  12  Pass 1  IDiag  1:
 RMSU=  1.22D-07    CP:  8.66D-01  7.65D-01  9.46D-01  6.01D-01  8.78D-01
                    CP:  9.57D-01  1.05D+00  8.51D-01  1.04D+00  1.05D+00
                    CP:  9.60D-01
 E= -1543.98200410569     Delta-E=       -0.000000000994 Rises=F Damp=F
 DIIS: error= 1.77D-07 at cycle  12 NSaved=  12.
 NSaved=12 IEnMin=12 EnMin= -1543.98200410569     IErMin=12 ErrMin= 1.77D-07
 ErrMax= 1.77D-07  0.00D+00 EMaxC= 1.00D-01 BMatC= 7.11D-11 BMatP= 7.79D-10
 IDIUse=1 WtCom= 1.00D+00 WtEn= 0.00D+00
 Coeff-Com: -0.600D-05 0.114D-04 0.104D-03 0.175D-03 0.330D-03-0.965D-04
 Coeff-Com: -0.383D-02-0.144D-01-0.167D-01 0.244D-01 0.253D+00 0.757D+00
 Coeff:     -0.600D-05 0.114D-04 0.104D-03 0.175D-03 0.330D-03-0.965D-04
 Coeff:     -0.383D-02-0.144D-01-0.167D-01 0.244D-01 0.253D+00 0.757D+00
 Gap=     0.275 Goal=   None    Shift=    0.000
 RMSDP=8.12D-08 MaxDP=1.67D-05 DE=-9.94D-10 OVMax= 4.68D-06

 Cycle  13  Pass 1  IDiag  1:
 RMSU=  3.91D-08    CP:  8.66D-01  7.65D-01  9.46D-01  6.01D-01  8.78D-01
                    CP:  9.57D-01  1.05D+00  8.50D-01  1.04D+00  1.05D+00
                    CP:  1.05D+00  1.03D+00
 E= -1543.98200410579     Delta-E=       -0.000000000094 Rises=F Damp=F
 DIIS: error= 6.82D-08 at cycle  13 NSaved=  13.
 NSaved=13 IEnMin=13 EnMin= -1543.98200410579     IErMin=13 ErrMin= 6.82D-08
 ErrMax= 6.82D-08  0.00D+00 EMaxC= 1.00D-01 BMatC= 1.22D-11 BMatP= 7.11D-11
 IDIUse=1 WtCom= 1.00D+00 WtEn= 0.00D+00
 Coeff-Com:  0.569D-06-0.152D-05 0.606D-05 0.141D-04 0.927D-04 0.386D-03
 Coeff-Com:  0.536D-03-0.889D-03-0.103D-01-0.403D-01-0.933D-02 0.291D+00
 Coeff-Com:  0.769D+00
 Coeff:      0.569D-06-0.152D-05 0.606D-05 0.141D-04 0.927D-04 0.386D-03
 Coeff:      0.536D-03-0.889D-03-0.103D-01-0.403D-01-0.933D-02 0.291D+00
 Coeff:      0.769D+00
 Gap=     0.275 Goal=   None    Shift=    0.000
 RMSDP=3.62D-08 MaxDP=8.13D-06 DE=-9.37D-11 OVMax= 3.25D-06

 Cycle  14  Pass 1  IDiag  1:
 RMSU=  2.11D-08    CP:  8.66D-01  7.65D-01  9.46D-01  6.01D-01  8.78D-01
                    CP:  9.57D-01  1.05D+00  8.49D-01  1.05D+00  1.05D+00
                    CP:  1.08D+00  1.12D+00  1.10D+00
 E= -1543.98200410589     Delta-E=       -0.000000000104 Rises=F Damp=F
 DIIS: error= 2.61D-08 at cycle  14 NSaved=  14.
 NSaved=14 IEnMin=14 EnMin= -1543.98200410589     IErMin=14 ErrMin= 2.61D-08
 ErrMax= 2.61D-08  0.00D+00 EMaxC= 1.00D-01 BMatC= 2.11D-12 BMatP= 1.22D-11
 IDIUse=1 WtCom= 1.00D+00 WtEn= 0.00D+00
 Coeff-Com:  0.124D-05-0.248D-05-0.144D-04-0.231D-04-0.160D-04 0.184D-03
 Coeff-Com:  0.877D-03 0.205D-02-0.101D-02-0.212D-01-0.453D-01-0.199D-01
 Coeff-Com:  0.313D+00 0.772D+00
 Coeff:      0.124D-05-0.248D-05-0.144D-04-0.231D-04-0.160D-04 0.184D-03
 Coeff:      0.877D-03 0.205D-02-0.101D-02-0.212D-01-0.453D-01-0.199D-01
 Coeff:      0.313D+00 0.772D+00
 Gap=     0.275 Goal=   None    Shift=    0.000
 RMSDP=2.02D-08 MaxDP=6.19D-06 DE=-1.04D-10 OVMax= 1.20D-06

 Cycle  15  Pass 1  IDiag  1:
 RMSU=  7.04D-09    CP:  8.66D-01  7.65D-01  9.46D-01  6.01D-01  8.78D-01
                    CP:  9.57D-01  1.05D+00  8.49D-01  1.05D+00  1.05D+00
                    CP:  1.09D+00  1.17D+00  1.27D+00  9.52D-01
 E= -1543.98200410580     Delta-E=        0.000000000089 Rises=F Damp=F
 DIIS: error= 9.64D-09 at cycle  15 NSaved=  15.
 NSaved=15 IEnMin=14 EnMin= -1543.98200410589     IErMin=15 ErrMin= 9.64D-09
 ErrMax= 9.64D-09  0.00D+00 EMaxC= 1.00D-01 BMatC= 1.94D-13 BMatP= 2.11D-12
 IDIUse=1 WtCom= 1.00D+00 WtEn= 0.00D+00
 Coeff-Com:  0.258D-06-0.507D-06-0.477D-05-0.796D-05-0.148D-04 0.810D-05
 Coeff-Com:  0.194D-03 0.687D-03 0.105D-02-0.146D-02-0.110D-01-0.443D-01
 Coeff-Com:  0.518D-02 0.240D+00 0.810D+00
 Coeff:      0.258D-06-0.507D-06-0.477D-05-0.796D-05-0.148D-04 0.810D-05
 Coeff:      0.194D-03 0.687D-03 0.105D-02-0.146D-02-0.110D-01-0.443D-01
 Coeff:      0.518D-02 0.240D+00 0.810D+00
 Gap=     0.275 Goal=   None    Shift=    0.000
 RMSDP=4.78D-09 MaxDP=9.03D-07 DE= 8.87D-11 OVMax= 5.06D-07

 SCF Done:  E(RM062X) =  -1543.98200411     A.U. after   15 cycles
            NFock= 15  Conv=0.48D-08     -V/T= 2.0033
 KE= 1.538895531730D+03 PE=-8.553700727348D+03 EE= 3.011837657324D+03
 Leave Link  502 at Thu Dec 15 13:25:22 2022, MaxMem= 13421772800 cpu:            7030.4 elap:             294.0
 (Enter /data0/home/software/g16/l601.exe)
 Copying SCF densities to generalized density rwf, IOpCl= 0 IROHF=0.

 **********************************************************************

            Population analysis using the SCF density.

 **********************************************************************

 Alpha  occ. eigenvalues --  -78.13789 -19.63862 -19.63302 -19.62157 -19.62042
 Alpha  occ. eigenvalues --  -19.61620 -19.61548 -19.60782 -19.60407 -19.59763
 Alpha  occ. eigenvalues --  -19.56691 -14.88048 -10.66265 -10.64098 -10.63551
 Alpha  occ. eigenvalues --  -10.62882 -10.59719 -10.59341 -10.58553 -10.57542
 Alpha  occ. eigenvalues --  -10.55754 -10.55168  -6.94466  -5.06408  -5.06346
 Alpha  occ. eigenvalues --   -5.06188  -1.20911  -1.19575  -1.15581  -1.13425
 Alpha  occ. eigenvalues --   -1.13358  -1.12825  -1.12004  -1.11261  -1.10930
 Alpha  occ. eigenvalues --   -1.10093  -1.07114  -0.97586  -0.92443  -0.91860
 Alpha  occ. eigenvalues --   -0.84117  -0.82736  -0.76487  -0.74926  -0.71221
 Alpha  occ. eigenvalues --   -0.68621  -0.65016  -0.63844  -0.63302  -0.61887
 Alpha  occ. eigenvalues --   -0.60891  -0.60184  -0.60016  -0.59778  -0.59252
 Alpha  occ. eigenvalues --   -0.58804  -0.58252  -0.56068  -0.55172  -0.54858
 Alpha  occ. eigenvalues --   -0.54298  -0.53676  -0.52452  -0.51926  -0.51380
 Alpha  occ. eigenvalues --   -0.49687  -0.49393  -0.49071  -0.48259  -0.47710
 Alpha  occ. eigenvalues --   -0.47326  -0.47194  -0.46299  -0.45727  -0.45127
 Alpha  occ. eigenvalues --   -0.44437  -0.44235  -0.44155  -0.43397  -0.43271
 Alpha  occ. eigenvalues --   -0.41677  -0.40753  -0.39811  -0.39624  -0.39175
 Alpha  occ. eigenvalues --   -0.39001  -0.38124  -0.36741  -0.36004  -0.35648
 Alpha  occ. eigenvalues --   -0.34955  -0.34727  -0.33060
 Alpha virt. eigenvalues --   -0.05575  -0.02275  -0.00919   0.00583   0.00805
 Alpha virt. eigenvalues --    0.01494   0.02583   0.02727   0.02928   0.03425
 Alpha virt. eigenvalues --    0.04030   0.04811   0.05365   0.05445   0.05854
 Alpha virt. eigenvalues --    0.06060   0.06644   0.06937   0.07513   0.08119
 Alpha virt. eigenvalues --    0.08626   0.08881   0.09285   0.09650   0.09881
 Alpha virt. eigenvalues --    0.10110   0.11025   0.11927   0.12160   0.12528
 Alpha virt. eigenvalues --    0.12774   0.13224   0.13687   0.13910   0.14399
 Alpha virt. eigenvalues --    0.14604   0.14691   0.15203   0.15537   0.15621
 Alpha virt. eigenvalues --    0.15904   0.16539   0.17011   0.17201   0.17387
 Alpha virt. eigenvalues --    0.17812   0.18081   0.18232   0.18512   0.18806
 Alpha virt. eigenvalues --    0.19257   0.19557   0.19936   0.20293   0.20358
 Alpha virt. eigenvalues --    0.20928   0.21191   0.21404   0.21541   0.21582
 Alpha virt. eigenvalues --    0.21957   0.22335   0.22464   0.22752   0.23070
 Alpha virt. eigenvalues --    0.23592   0.23907   0.24010   0.24154   0.24426
 Alpha virt. eigenvalues --    0.25120   0.25749   0.25986   0.26097   0.26510
 Alpha virt. eigenvalues --    0.26742   0.27173   0.27488   0.27713   0.28103
 Alpha virt. eigenvalues --    0.28380   0.28675   0.28788   0.29705   0.29785
 Alpha virt. eigenvalues --    0.30341   0.30629   0.30965   0.31141   0.31286
 Alpha virt. eigenvalues --    0.31642   0.32100   0.32426   0.32615   0.33061
 Alpha virt. eigenvalues --    0.33179   0.33453   0.33843   0.34189   0.34405
 Alpha virt. eigenvalues --    0.34433   0.35163   0.35646   0.35774   0.36128
 Alpha virt. eigenvalues --    0.36514   0.36857   0.37435   0.37801   0.38419
 Alpha virt. eigenvalues --    0.38809   0.39022   0.39896   0.40718   0.41097
 Alpha virt. eigenvalues --    0.41421   0.41641   0.42112   0.42729   0.43186
 Alpha virt. eigenvalues --    0.43762   0.44495   0.44836   0.45763   0.46375
 Alpha virt. eigenvalues --    0.46795   0.47815   0.48234   0.48854   0.49835
 Alpha virt. eigenvalues --    0.50180   0.50328   0.51359   0.51745   0.52138
 Alpha virt. eigenvalues --    0.52980   0.53911   0.54225   0.54479   0.55169
 Alpha virt. eigenvalues --    0.55418   0.56417   0.56534   0.57069   0.57889
 Alpha virt. eigenvalues --    0.57994   0.58247   0.59551   0.60142   0.60605
 Alpha virt. eigenvalues --    0.61174   0.61534   0.62375   0.62877   0.63105
 Alpha virt. eigenvalues --    0.63768   0.63971   0.65038   0.65279   0.65852
 Alpha virt. eigenvalues --    0.66481   0.67116   0.67353   0.67950   0.68158
 Alpha virt. eigenvalues --    0.68630   0.69236   0.69776   0.69880   0.70453
 Alpha virt. eigenvalues --    0.70919   0.70998   0.72132   0.72207   0.72612
 Alpha virt. eigenvalues --    0.73262   0.73319   0.73981   0.74129   0.74576
 Alpha virt. eigenvalues --    0.74921   0.76441   0.77456   0.78227   0.78476
 Alpha virt. eigenvalues --    0.79375   0.79983   0.80423   0.81242   0.81742
 Alpha virt. eigenvalues --    0.82890   0.83162   0.83574   0.83901   0.85238
 Alpha virt. eigenvalues --    0.85689   0.86794   0.87181   0.88288   0.89113
 Alpha virt. eigenvalues --    0.89405   0.90975   0.91069   0.91417   0.92427
 Alpha virt. eigenvalues --    0.93709   0.94411   0.96316   0.96994   0.97529
 Alpha virt. eigenvalues --    0.98066   0.99701   1.01047   1.01498   1.02388
 Alpha virt. eigenvalues --    1.02789   1.04229   1.04788   1.05621   1.06583
 Alpha virt. eigenvalues --    1.07191   1.07779   1.09079   1.09565   1.09823
 Alpha virt. eigenvalues --    1.10441   1.11767   1.12190   1.12801   1.13351
 Alpha virt. eigenvalues --    1.14574   1.14827   1.16260   1.16781   1.16965
 Alpha virt. eigenvalues --    1.17643   1.17947   1.18106   1.19108   1.19310
 Alpha virt. eigenvalues --    1.20146   1.20681   1.20936   1.22084   1.22406
 Alpha virt. eigenvalues --    1.23355   1.23496   1.24002   1.24717   1.25446
 Alpha virt. eigenvalues --    1.25520   1.25559   1.26613   1.27268   1.28095
 Alpha virt. eigenvalues --    1.28121   1.28677   1.29633   1.29811   1.30190
 Alpha virt. eigenvalues --    1.30910   1.31293   1.31716   1.31918   1.32786
 Alpha virt. eigenvalues --    1.33323   1.34152   1.34522   1.35369   1.36042
 Alpha virt. eigenvalues --    1.36409   1.36869   1.37947   1.38162   1.38813
 Alpha virt. eigenvalues --    1.39124   1.39269   1.39760   1.40257   1.40860
 Alpha virt. eigenvalues --    1.41570   1.42301   1.42941   1.43106   1.43762
 Alpha virt. eigenvalues --    1.44405   1.44886   1.45442   1.45596   1.46469
 Alpha virt. eigenvalues --    1.46839   1.47120   1.47528   1.48789   1.49314
 Alpha virt. eigenvalues --    1.50199   1.50741   1.51746   1.53348   1.54300
 Alpha virt. eigenvalues --    1.54393   1.55545   1.56393   1.56825   1.57571
 Alpha virt. eigenvalues --    1.58443   1.58654   1.58954   1.60947   1.61964
 Alpha virt. eigenvalues --    1.63005   1.64390   1.64855   1.65902   1.66749
 Alpha virt. eigenvalues --    1.68260   1.68949   1.69430   1.70839   1.71715
 Alpha virt. eigenvalues --    1.72110   1.73458   1.74578   1.75092   1.75344
 Alpha virt. eigenvalues --    1.76472   1.77324   1.78157   1.78521   1.79179
 Alpha virt. eigenvalues --    1.80110   1.80773   1.81845   1.82440   1.84363
 Alpha virt. eigenvalues --    1.85140   1.85570   1.86326   1.87123   1.87639
 Alpha virt. eigenvalues --    1.87857   1.88938   1.89376   1.90236   1.92139
 Alpha virt. eigenvalues --    1.92917   1.94773   1.95751   1.96223   1.97028
 Alpha virt. eigenvalues --    1.97348   1.99014   1.99474   2.00494   2.01169
 Alpha virt. eigenvalues --    2.02670   2.04052   2.04676   2.05731   2.07489
 Alpha virt. eigenvalues --    2.08264   2.08840   2.08915   2.09833   2.10855
 Alpha virt. eigenvalues --    2.11284   2.11857   2.13085   2.14620   2.14741
 Alpha virt. eigenvalues --    2.15221   2.15822   2.16564   2.17604   2.18516
 Alpha virt. eigenvalues --    2.19785   2.20425   2.22112   2.22443   2.24476
 Alpha virt. eigenvalues --    2.25040   2.25861   2.26070   2.26893   2.28496
 Alpha virt. eigenvalues --    2.30213   2.30275   2.31147   2.32045   2.32884
 Alpha virt. eigenvalues --    2.34050   2.34994   2.36162   2.36677   2.37058
 Alpha virt. eigenvalues --    2.38185   2.38303   2.39757   2.41739   2.43342
 Alpha virt. eigenvalues --    2.43827   2.44630   2.44931   2.45809   2.47480
 Alpha virt. eigenvalues --    2.48290   2.49414   2.49692   2.50815   2.52147
 Alpha virt. eigenvalues --    2.53677   2.55397   2.58658   2.58946   2.60432
 Alpha virt. eigenvalues --    2.61709   2.62723   2.64423   2.65596   2.67093
 Alpha virt. eigenvalues --    2.67280   2.67732   2.69442   2.70357   2.71756
 Alpha virt. eigenvalues --    2.71897   2.73869   2.74314   2.75087   2.78006
 Alpha virt. eigenvalues --    2.79192   2.80143   2.80245   2.81720   2.83902
 Alpha virt. eigenvalues --    2.85796   2.86232   2.87778   2.89650   2.89941
 Alpha virt. eigenvalues --    2.90674   2.92122   2.92649   2.93628   2.94628
 Alpha virt. eigenvalues --    2.95463   2.97774   2.98915   2.99083   3.00511
 Alpha virt. eigenvalues --    3.01268   3.02553   3.03250   3.04426   3.05954
 Alpha virt. eigenvalues --    3.06653   3.07380   3.09148   3.09796   3.13457
 Alpha virt. eigenvalues --    3.14785   3.15755   3.16879   3.17390   3.18382
 Alpha virt. eigenvalues --    3.19309   3.20746   3.22906   3.24096   3.25755
 Alpha virt. eigenvalues --    3.27750   3.29204   3.29913   3.31062   3.33347
 Alpha virt. eigenvalues --    3.34159   3.34620   3.35603   3.39140   3.40343
 Alpha virt. eigenvalues --    3.41110   3.41521   3.43729   3.44346   3.44899
 Alpha virt. eigenvalues --    3.48027   3.48656   3.50195   3.50799   3.51783
 Alpha virt. eigenvalues --    3.52955   3.53318   3.55325   3.56498   3.58853
 Alpha virt. eigenvalues --    3.59686   3.61230   3.61793   3.62378   3.63669
 Alpha virt. eigenvalues --    3.64830   3.65687   3.66261   3.67718   3.69378
 Alpha virt. eigenvalues --    3.69789   3.70974   3.72151   3.73467   3.73765
 Alpha virt. eigenvalues --    3.76397   3.79234   3.80249   3.83236   3.83791
 Alpha virt. eigenvalues --    3.84414   3.86211   3.89341   3.91754   3.94435
 Alpha virt. eigenvalues --    3.97536   4.00831   4.02921   4.04594   4.07642
 Alpha virt. eigenvalues --    4.09332   4.16423   4.17782   4.19297   4.23907
 Alpha virt. eigenvalues --    4.25060   4.26663   4.29248   4.40745   4.41597
 Alpha virt. eigenvalues --    4.51702   4.53475   4.64871   4.72706   4.97824
 Alpha virt. eigenvalues --    5.03600   5.06544   5.12054   5.15016   5.16907
 Alpha virt. eigenvalues --    5.18009   5.19545   5.19862   5.23579   5.25236
 Alpha virt. eigenvalues --    5.29081   5.30755   5.31446   5.34048   5.35138
 Alpha virt. eigenvalues --    5.36253   5.37619   5.39482   5.45752   5.47054
 Alpha virt. eigenvalues --    5.48300   5.53544   5.56566   5.57841   5.58444
 Alpha virt. eigenvalues --    5.61661   5.63031   5.66508   5.68575   5.69945
 Alpha virt. eigenvalues --    5.77507   5.95329   5.95904   5.96639   5.98780
 Alpha virt. eigenvalues --    6.00006   6.23520   6.78250   6.78959   6.80268
 Alpha virt. eigenvalues --    6.80430   6.81419   6.82416   6.82513   6.83330
 Alpha virt. eigenvalues --    6.83572   6.84784   6.85896   6.87606   6.88228
 Alpha virt. eigenvalues --    6.89321   6.89641   6.90495   6.91619   6.92534
 Alpha virt. eigenvalues --    6.93736   6.94437   6.94574   6.94756   6.96342
 Alpha virt. eigenvalues --    6.96926   6.98542   6.99511   7.01336   7.01799
 Alpha virt. eigenvalues --    7.03631   7.04356   7.05894   7.07298   7.09309
 Alpha virt. eigenvalues --    7.11763   7.13412   7.15793   7.16789   7.17776
 Alpha virt. eigenvalues --    7.20297   7.21345   7.22569   7.26060   7.30891
 Alpha virt. eigenvalues --    7.31796   7.35449   7.36961   7.38532   7.41838
 Alpha virt. eigenvalues --    7.42402   7.48104   7.73659  14.33885  14.37457
 Alpha virt. eigenvalues --   14.45792  23.85109  23.97887  23.99900  24.04267
 Alpha virt. eigenvalues --   24.04892  24.09735  24.10904  24.12917  24.24672
 Alpha virt. eigenvalues --   24.26867  35.70314  50.03701  50.04075  50.06320
 Alpha virt. eigenvalues --   50.10477  50.10755  50.12024  50.13066  50.16789
 Alpha virt. eigenvalues --   50.17608  50.20426 164.01915
          Condensed to atoms (all electrons):
               1          2          3          4          5          6
     1  C   11.560921  -3.363333  -0.546960  -0.244331  -0.509366   0.018440
     2  C   -3.363333  12.346516  -4.190981   2.617375  -1.685020  -0.010689
     3  C   -0.546960  -4.190981  15.406743  -6.708421   3.342397   0.351683
     4  C   -0.244331   2.617375  -6.708421  13.986943  -4.537873   0.008534
     5  C   -0.509366  -1.685020   3.342397  -4.537873   9.897211   0.004974
     6  H    0.018440  -0.010689   0.351683   0.008534   0.004974   0.474076
     7  H    0.354101   0.025733   0.005097  -0.004797   0.000158  -0.000120
     8  H   -0.016883   0.015415  -0.009651   0.349238   0.006262  -0.002348
     9  H   -0.005323   0.019119  -0.030663   0.006601   0.388798  -0.000129
    10  C   -0.126719  -0.280266  -0.265224   0.108089  -0.086793  -0.019274
    11  H   -0.053429  -0.174306   0.102170   0.017040   0.015193   0.003229
    12  H    0.214972  -0.151164  -0.101821   0.003808  -0.002875   0.000168
    13  H   -0.093344   0.026550   0.034928  -0.001683  -0.002339   0.000184
    14  N   -0.261092   0.247885  -0.576756   0.407335  -0.197749   0.003868
    15  C   -0.152344  -0.314953  -0.211750  -0.161278   0.058395   0.001192
    16  H    0.022541  -0.013248   0.009745  -0.005511   0.001147  -0.000003
    17  H    0.013638   0.019587  -0.000892  -0.006956  -0.017597  -0.000002
    18  C   -0.063944   0.106110  -0.102930   0.261952  -0.276191  -0.000333
    19  H   -0.016201   0.001447  -0.005016  -0.041612   0.022084   0.000009
    20  H    0.000176   0.000468   0.002000  -0.004559   0.007651   0.000000
    21  C    0.142958  -0.040479  -0.106396   0.059064  -0.029703   0.000494
    22  H   -0.000827   0.000335   0.000495  -0.000177   0.001595  -0.000000
    23  H   -0.005979  -0.000771  -0.000555  -0.000073  -0.002220  -0.000000
    24  C   -0.386240   0.210594   0.046135  -0.043174   0.067787  -0.000796
    25  O    0.001411   0.000882  -0.022328   0.021677  -0.020107   0.000034
    26  O    0.088581  -0.055735   0.054968  -0.065271   0.042617  -0.000009
    27  P    0.002292   0.041916  -0.147680   0.051845  -0.009609   0.004706
    28  O    0.033342  -0.161683   0.149620   0.014392  -0.050320  -0.021273
    29  O    0.020597  -0.005980  -0.044074   0.024532  -0.006270   0.000438
    30  H   -0.001339  -0.003761   0.009019  -0.003362   0.001074  -0.000022
    31  O   -0.015355  -0.008635   0.111538  -0.067692   0.041698  -0.000515
    32  H    0.015181  -0.011282   0.007924  -0.007368   0.002516  -0.000017
    33  O   -0.056693  -0.120618   0.193105  -0.104795   0.069006  -0.000643
    34  H    0.075525   0.036515  -0.105343   0.073480  -0.055666   0.000289
    35  O   -0.001260  -0.000217  -0.000946   0.000110  -0.000048  -0.000000
    36  H    0.003208  -0.000437   0.001556  -0.000728   0.000411   0.000000
    37  H    0.000246  -0.000107   0.000049  -0.000007   0.000000   0.000000
    38  O   -0.016231  -0.006198  -0.017176  -0.000414   0.026135  -0.000895
    39  H    0.012066   0.010226  -0.012831   0.030301  -0.025260   0.001831
    40  H    0.000336   0.000055   0.003265  -0.009466   0.004877   0.000069
    41  O   -0.001616   0.010576  -0.006199   0.001038  -0.001217   0.000005
    42  H    0.000605  -0.001850   0.001233  -0.000281   0.000258  -0.000001
    43  H   -0.000211  -0.000937   0.000927  -0.000106   0.000281  -0.000000
    44  O    0.024929   0.082804  -0.250172   0.382802  -0.328291   0.000383
    45  H   -0.010741  -0.024467   0.059060  -0.119871   0.109362  -0.000024
    46  H    0.005574  -0.005597   0.028593   0.009113  -0.002778  -0.000240
               7          8          9         10         11         12
     1  C    0.354101  -0.016883  -0.005323  -0.126719  -0.053429   0.214972
     2  C    0.025733   0.015415   0.019119  -0.280266  -0.174306  -0.151164
     3  C    0.005097  -0.009651  -0.030663  -0.265224   0.102170  -0.101821
     4  C   -0.004797   0.349238   0.006601   0.108089   0.017040   0.003808
     5  C    0.000158   0.006262   0.388798  -0.086793   0.015193  -0.002875
     6  H   -0.000120  -0.002348  -0.000129  -0.019274   0.003229   0.000168
     7  H    0.462371   0.000039  -0.000096   0.006314   0.000027   0.000184
     8  H    0.000039   0.453362  -0.002338   0.001967  -0.000029  -0.000000
     9  H   -0.000096  -0.002338   0.470871   0.000651  -0.000003   0.000003
    10  C    0.006314   0.001967   0.000651   6.358962   0.455329   0.398567
    11  H    0.000027  -0.000029  -0.000003   0.455329   0.479355  -0.021106
    12  H    0.000184  -0.000000   0.000003   0.398567  -0.021106   0.489027
    13  H    0.000796   0.000011   0.000001   0.394825  -0.022752  -0.028239
    14  N   -0.045500   0.005114  -0.048921  -0.082239   0.001094  -0.000147
    15  C    0.000319   0.000338   0.029456  -0.040042   0.001415   0.003039
    16  H    0.000150   0.000006   0.000030  -0.001339  -0.000000   0.000001
    17  H    0.005102   0.000019   0.000174   0.003792  -0.000002   0.000004
    18  C    0.011752   0.000302  -0.012212  -0.001234  -0.000322  -0.000454
    19  H    0.000182   0.000089   0.001817  -0.000135   0.000000   0.000004
    20  H   -0.000083   0.000002  -0.000331  -0.000098   0.000000   0.000000
    21  C   -0.012253  -0.001236   0.001554   0.029072   0.000586   0.000776
    22  H    0.000015   0.000000   0.000021  -0.000049  -0.000000  -0.000000
    23  H   -0.000010   0.000000  -0.000014  -0.000011  -0.000000  -0.000001
    24  C    0.016094   0.001472   0.000495  -0.054728  -0.000983  -0.001208
    25  O    0.000237  -0.000030   0.000027   0.003415   0.000033   0.000219
    26  O   -0.033614   0.000046   0.000096   0.010087   0.000156   0.000404
    27  P   -0.000169   0.001501   0.001876  -0.005422  -0.001725  -0.000903
    28  O    0.000053  -0.001779  -0.000177  -0.013946   0.003184   0.000450
    29  O   -0.000040  -0.000063   0.000003  -0.002322   0.000312  -0.000065
    30  H   -0.000008   0.000002  -0.000000  -0.000088   0.000000   0.000051
    31  O    0.000273  -0.000081  -0.000118   0.002960  -0.000182  -0.000285
    32  H   -0.000192   0.000012  -0.000030  -0.000920  -0.000013   0.000024
    33  O   -0.001447   0.000281  -0.000106  -0.035606  -0.000230  -0.005706
    34  H    0.001867  -0.000096   0.000065  -0.020431  -0.000145   0.002435
    35  O    0.000015   0.000000   0.000000   0.000109  -0.000002  -0.000007
    36  H   -0.000038  -0.000000  -0.000000  -0.000008   0.000000  -0.000003
    37  H    0.000000  -0.000000   0.000000  -0.000000   0.000000   0.000000
    38  O    0.000021  -0.009786  -0.000280  -0.001289   0.000005   0.000002
    39  H   -0.000016   0.000810  -0.000001  -0.000182   0.000014   0.000000
    40  H   -0.000000   0.000857  -0.000038  -0.000123  -0.000001  -0.000000
    41  O    0.000009  -0.000000   0.000000  -0.000345  -0.000068  -0.000334
    42  H    0.000000   0.000000  -0.000000  -0.000475   0.000025   0.000143
    43  H   -0.000001  -0.000000  -0.000000  -0.000044   0.000006   0.000035
    44  O   -0.000092  -0.010456  -0.027311   0.005697  -0.000004  -0.000006
    45  H    0.000028   0.001414   0.001622  -0.001687   0.000001  -0.000001
    46  H   -0.000010   0.001177   0.002250   0.000894   0.000001  -0.000002
              13         14         15         16         17         18
     1  C   -0.093344  -0.261092  -0.152344   0.022541   0.013638  -0.063944
     2  C    0.026550   0.247885  -0.314953  -0.013248   0.019587   0.106110
     3  C    0.034928  -0.576756  -0.211750   0.009745  -0.000892  -0.102930
     4  C   -0.001683   0.407335  -0.161278  -0.005511  -0.006956   0.261952
     5  C   -0.002339  -0.197749   0.058395   0.001147  -0.017597  -0.276191
     6  H    0.000184   0.003868   0.001192  -0.000003  -0.000002  -0.000333
     7  H    0.000796  -0.045500   0.000319   0.000150   0.005102   0.011752
     8  H    0.000011   0.005114   0.000338   0.000006   0.000019   0.000302
     9  H    0.000001  -0.048921   0.029456   0.000030   0.000174  -0.012212
    10  C    0.394825  -0.082239  -0.040042  -0.001339   0.003792  -0.001234
    11  H   -0.022752   0.001094   0.001415  -0.000000  -0.000002  -0.000322
    12  H   -0.028239  -0.000147   0.003039   0.000001   0.000004  -0.000454
    13  H    0.499239   0.001516  -0.000804  -0.000003  -0.000004   0.000162
    14  N    0.001516   6.689541   0.227492  -0.051710  -0.072035   0.006594
    15  C   -0.000804   0.227492   6.551612   0.433449   0.484882  -0.340413
    16  H   -0.000003  -0.051710   0.433449   0.499570  -0.025839  -0.064964
    17  H   -0.000004  -0.072035   0.484882  -0.025839   0.469194  -0.042606
    18  C    0.000162   0.006594  -0.340413  -0.064964  -0.042606   6.303183
    19  H    0.000000   0.005495   0.018576  -0.000197   0.002659   0.414591
    20  H   -0.000000  -0.002645  -0.023666  -0.008861   0.002420   0.403040
    21  C   -0.000128   0.130425   0.036070   0.016406  -0.041812  -1.131150
    22  H    0.000000  -0.001562   0.015924  -0.000117   0.000296  -0.043778
    23  H    0.000000   0.001976  -0.009979  -0.000328   0.000772   0.016826
    24  C    0.000125  -0.059049  -0.142624   0.001646   0.022489   0.817869
    25  O    0.000000   0.002222   0.027583  -0.000072  -0.000857  -0.077758
    26  O   -0.000004  -0.066627  -0.064930   0.001943  -0.004563  -0.012680
    27  P    0.002109   0.024355   0.011585  -0.000093   0.000481  -0.020455
    28  O    0.000058   0.001948  -0.004456   0.000024  -0.000011   0.000123
    29  O    0.000013  -0.000386   0.000095  -0.000000  -0.000001   0.000930
    30  H    0.000000   0.000004  -0.000217   0.000000   0.000000  -0.000057
    31  O   -0.000025  -0.008666   0.001775  -0.000037  -0.000111   0.000767
    32  H    0.000001  -0.003167  -0.002101   0.000011   0.000054   0.013395
    33  O    0.000485  -0.006688   0.004566   0.000019   0.000045  -0.008912
    34  H    0.000015   0.020752   0.012154  -0.000025   0.000002   0.006033
    35  O   -0.000000   0.000007  -0.002992   0.000001   0.000009   0.006740
    36  H    0.000000  -0.000078   0.001407  -0.000000  -0.000005  -0.000400
    37  H   -0.000000  -0.000024  -0.000053  -0.000000   0.000000   0.000786
    38  O    0.000001  -0.000671   0.002572  -0.000000   0.000001   0.000388
    39  H   -0.000003   0.000084   0.000185  -0.000002  -0.000001   0.000335
    40  H   -0.000000   0.000203  -0.000048  -0.000000   0.000000  -0.000202
    41  O   -0.000002  -0.000306  -0.000067  -0.000000   0.000000   0.000937
    42  H    0.000000   0.000035  -0.000009   0.000000   0.000000  -0.000073
    43  H    0.000000   0.000029   0.000192  -0.000000  -0.000000  -0.000583
    44  O    0.000006   0.035886   0.008872  -0.000461  -0.000577   0.011401
    45  H    0.000000  -0.008763   0.003300   0.000081   0.000101  -0.003495
    46  H   -0.000000  -0.005563  -0.004235   0.000022   0.000014  -0.003837
              19         20         21         22         23         24
     1  C   -0.016201   0.000176   0.142958  -0.000827  -0.005979  -0.386240
     2  C    0.001447   0.000468  -0.040479   0.000335  -0.000771   0.210594
     3  C   -0.005016   0.002000  -0.106396   0.000495  -0.000555   0.046135
     4  C   -0.041612  -0.004559   0.059064  -0.000177  -0.000073  -0.043174
     5  C    0.022084   0.007651  -0.029703   0.001595  -0.002220   0.067787
     6  H    0.000009   0.000000   0.000494  -0.000000  -0.000000  -0.000796
     7  H    0.000182  -0.000083  -0.012253   0.000015  -0.000010   0.016094
     8  H    0.000089   0.000002  -0.001236   0.000000   0.000000   0.001472
     9  H    0.001817  -0.000331   0.001554   0.000021  -0.000014   0.000495
    10  C   -0.000135  -0.000098   0.029072  -0.000049  -0.000011  -0.054728
    11  H    0.000000   0.000000   0.000586  -0.000000  -0.000000  -0.000983
    12  H    0.000004   0.000000   0.000776  -0.000000  -0.000001  -0.001208
    13  H    0.000000  -0.000000  -0.000128   0.000000   0.000000   0.000125
    14  N    0.005495  -0.002645   0.130425  -0.001562   0.001976  -0.059049
    15  C    0.018576  -0.023666   0.036070   0.015924  -0.009979  -0.142624
    16  H   -0.000197  -0.008861   0.016406  -0.000117  -0.000328   0.001646
    17  H    0.002659   0.002420  -0.041812   0.000296   0.000772   0.022489
    18  C    0.414591   0.403040  -1.131150  -0.043778   0.016826   0.817869
    19  H    0.460992  -0.029062  -0.006301  -0.003512   0.004286  -0.040833
    20  H   -0.029062   0.516689  -0.035665  -0.004871  -0.004672   0.016823
    21  C   -0.006301  -0.035665   9.439181   0.403436   0.403745  -2.936885
    22  H   -0.003512  -0.004871   0.403436   0.486914  -0.028324  -0.016170
    23  H    0.004286  -0.004672   0.403745  -0.028324   0.496134  -0.051904
    24  C   -0.040833   0.016823  -2.936885  -0.016170  -0.051904   7.774211
    25  O    0.000486  -0.000972   0.279710  -0.006621  -0.001298  -0.075600
    26  O    0.001492  -0.000299  -0.110883   0.007655  -0.001027   0.251285
    27  P    0.001808   0.000253   0.014536   0.000235  -0.000387  -0.095700
    28  O   -0.000112   0.000000   0.006331   0.000005  -0.000006  -0.008213
    29  O    0.000014  -0.000000  -0.001162  -0.000006   0.000002   0.000896
    30  H   -0.000000   0.000000  -0.000270  -0.000000   0.000000  -0.001793
    31  O   -0.002907  -0.000024  -0.019706   0.000296  -0.000069   0.037476
    32  H    0.000633   0.000007  -0.056331   0.000101   0.000141   0.076824
    33  O   -0.000234  -0.000004   0.007576   0.000058  -0.000016  -0.029493
    34  H    0.000287  -0.000010   0.032965  -0.000076  -0.000189   0.007707
    35  O   -0.000080  -0.000005  -0.041925   0.000188   0.000147   0.033354
    36  H    0.000095   0.000004   0.000685   0.000033   0.000070   0.011701
    37  H    0.000000   0.000000  -0.004052   0.000000  -0.000003  -0.000282
    38  O    0.000253   0.000000  -0.002615   0.000000   0.000000   0.004850
    39  H   -0.000044   0.000000  -0.000016   0.000000  -0.000000  -0.001828
    40  H    0.000001   0.000000   0.000194  -0.000000  -0.000000  -0.000252
    41  O   -0.000001  -0.000000  -0.007765   0.000004   0.000004   0.002830
    42  H   -0.000000   0.000000   0.000898  -0.000000  -0.000001  -0.001909
    43  H    0.000001   0.000000   0.007725  -0.000003  -0.000002   0.003620
    44  O   -0.010735   0.000249   0.005872   0.000049  -0.000187  -0.012463
    45  H    0.005954   0.000074  -0.022361   0.000128   0.000045   0.028029
    46  H    0.000758   0.000026   0.005726   0.000001  -0.000002  -0.007391
              25         26         27         28         29         30
     1  C    0.001411   0.088581   0.002292   0.033342   0.020597  -0.001339
     2  C    0.000882  -0.055735   0.041916  -0.161683  -0.005980  -0.003761
     3  C   -0.022328   0.054968  -0.147680   0.149620  -0.044074   0.009019
     4  C    0.021677  -0.065271   0.051845   0.014392   0.024532  -0.003362
     5  C   -0.020107   0.042617  -0.009609  -0.050320  -0.006270   0.001074
     6  H    0.000034  -0.000009   0.004706  -0.021273   0.000438  -0.000022
     7  H    0.000237  -0.033614  -0.000169   0.000053  -0.000040  -0.000008
     8  H   -0.000030   0.000046   0.001501  -0.001779  -0.000063   0.000002
     9  H    0.000027   0.000096   0.001876  -0.000177   0.000003  -0.000000
    10  C    0.003415   0.010087  -0.005422  -0.013946  -0.002322  -0.000088
    11  H    0.000033   0.000156  -0.001725   0.003184   0.000312   0.000000
    12  H    0.000219   0.000404  -0.000903   0.000450  -0.000065   0.000051
    13  H    0.000000  -0.000004   0.002109   0.000058   0.000013   0.000000
    14  N    0.002222  -0.066627   0.024355   0.001948  -0.000386   0.000004
    15  C    0.027583  -0.064930   0.011585  -0.004456   0.000095  -0.000217
    16  H   -0.000072   0.001943  -0.000093   0.000024  -0.000000   0.000000
    17  H   -0.000857  -0.004563   0.000481  -0.000011  -0.000001   0.000000
    18  C   -0.077758  -0.012680  -0.020455   0.000123   0.000930  -0.000057
    19  H    0.000486   0.001492   0.001808  -0.000112   0.000014  -0.000000
    20  H   -0.000972  -0.000299   0.000253   0.000000  -0.000000   0.000000
    21  C    0.279710  -0.110883   0.014536   0.006331  -0.001162  -0.000270
    22  H   -0.006621   0.007655   0.000235   0.000005  -0.000006  -0.000000
    23  H   -0.001298  -0.001027  -0.000387  -0.000006   0.000002   0.000000
    24  C   -0.075600   0.251285  -0.095700  -0.008213   0.000896  -0.001793
    25  O    8.663843  -0.044994   0.018073   0.002317  -0.018889   0.002786
    26  O   -0.044994   8.543965   0.033172  -0.011558   0.001605   0.000416
    27  P    0.018073   0.033172  12.773947   0.399730   0.260270   0.018047
    28  O    0.002317  -0.011558   0.399730   8.492451  -0.062407  -0.002489
    29  O   -0.018889   0.001605   0.260270  -0.062407   8.091783   0.212472
    30  H    0.002786   0.000416   0.018047  -0.002489   0.212472   0.342789
    31  O    0.026601   0.009940   0.127475  -0.098027  -0.053868   0.016380
    32  H   -0.052437  -0.003793   0.044912   0.013001   0.015913  -0.002748
    33  O    0.032417   0.014799   0.245090  -0.041608  -0.001859  -0.009251
    34  H   -0.004130   0.024577  -0.004859   0.009846   0.014584   0.001034
    35  O    0.006162  -0.000817   0.018422   0.000466  -0.009250   0.002337
    36  H   -0.011072   0.006098  -0.005211  -0.000027   0.005160  -0.001656
    37  H    0.004857   0.000611  -0.000365  -0.000019   0.000630  -0.000364
    38  O   -0.000249  -0.000064  -0.015395  -0.022229   0.001071   0.000017
    39  H   -0.000006   0.000184   0.030413   0.059680   0.000460  -0.000167
    40  H    0.000005  -0.000006   0.003475   0.000450  -0.000294  -0.000008
    41  O   -0.017505   0.002061   0.034835   0.005036   0.031841  -0.030792
    42  H    0.002141   0.000075   0.001097  -0.000700  -0.013801   0.013031
    43  H    0.005543  -0.001680  -0.006125  -0.000499  -0.012074   0.011276
    44  O    0.003750  -0.009710  -0.015362   0.002966   0.001865  -0.000072
    45  H   -0.003809   0.000718  -0.000487  -0.001394  -0.000288   0.000011
    46  H    0.000183   0.000855  -0.003413   0.001996  -0.000694   0.000027
              31         32         33         34         35         36
     1  C   -0.015355   0.015181  -0.056693   0.075525  -0.001260   0.003208
     2  C   -0.008635  -0.011282  -0.120618   0.036515  -0.000217  -0.000437
     3  C    0.111538   0.007924   0.193105  -0.105343  -0.000946   0.001556
     4  C   -0.067692  -0.007368  -0.104795   0.073480   0.000110  -0.000728
     5  C    0.041698   0.002516   0.069006  -0.055666  -0.000048   0.000411
     6  H   -0.000515  -0.000017  -0.000643   0.000289  -0.000000   0.000000
     7  H    0.000273  -0.000192  -0.001447   0.001867   0.000015  -0.000038
     8  H   -0.000081   0.000012   0.000281  -0.000096   0.000000  -0.000000
     9  H   -0.000118  -0.000030  -0.000106   0.000065   0.000000  -0.000000
    10  C    0.002960  -0.000920  -0.035606  -0.020431   0.000109  -0.000008
    11  H   -0.000182  -0.000013  -0.000230  -0.000145  -0.000002   0.000000
    12  H   -0.000285   0.000024  -0.005706   0.002435  -0.000007  -0.000003
    13  H   -0.000025   0.000001   0.000485   0.000015  -0.000000   0.000000
[...]
 Quadrupole moment (field-independent basis, Debye-Ang):
   XX=             37.3577   YY=            -11.4055   ZZ=            -21.7328
   XY=             -0.7587   XZ=              8.2090   YZ=             -9.3093
 Traceless Quadrupole moment (field-independent basis, Debye-Ang):
   XX=             35.9512   YY=            -12.8119   ZZ=            -23.1393
   XY=             -0.7587   XZ=              8.2090   YZ=             -9.3093
 Octapole moment (field-independent basis, Debye-Ang**2):
  XXX=            548.0856  YYY=            -99.9042  ZZZ=           -386.8568  XYY=           -114.7492
  XXY=             38.0918  XXZ=            252.3948  XZZ=            -70.8495  YZZ=           -143.9022
  YYZ=           -126.3688  XYZ=            -50.4385
 Hexadecapole moment (field-independent basis, Debye-Ang**3):
 XXXX=           6875.2834 YYYY=           -665.5211 ZZZZ=          -5940.3189 XXXY=            737.7552
 XXXZ=           4093.6474 YYYX=          -1109.9872 YYYZ=          -1032.8350 ZZZX=          -2696.9757
 ZZZY=          -2084.8545 XXYY=          -1205.9907 XXZZ=            741.9978 YYZZ=          -1441.0809
 XXYZ=           -119.9481 YYXZ=          -1293.9358 ZZXY=          -1103.0133
 N-N= 9.067910499468D+00 E-N=-1.989804590591D+02  KE= 7.618297056907D+01
 No NMR shielding tensors so no spin-rotation constants.
 Leave Link  601 at Thu Dec 15 13:47:29 2022, MaxMem= 13421772800 cpu:               1.8 elap:               0.1
 (Enter /data0/home/software/g16/l122.exe)
 CPIOFr:  IOpCl= 0 IRwI=-1 IRwCP=  731 ICalc= 11 LCPTot=      853034 Len1MO=     2241588 IndFrg=    27752090
 Counterpoise: doing calculation for fragment   6 using the basis set of the fragment.
 Leave Link  122 at Thu Dec 15 13:47:29 2022, MaxMem= 13421772800 cpu:               0.4 elap:               0.0
 (Enter /data0/home/software/g16/l301.exe)
 Basis read from rwf:  (5D, 7F)
 No pseudopotential information found on rwf file.
    39 basis functions,    58 primitive gaussians,    41 cartesian basis functions
     5 alpha electrons        5 beta electrons
       nuclear repulsion energy         9.1030688941 Hartrees.
 IExCor= 4336 DFT=T Ex+Corr=M062X ExCW=0 ScaHFX=  0.540000
 ScaDFX=  1.000000  1.000000  1.000000  1.000000 ScalE2=  1.000000  1.000000
 IRadAn=      5 IRanWt=     -1 IRanGd=            0 ICorTp=0 IEmpDi=131
 NAtoms=   46 NActive=    3 NUniq=    3 SFac= 1.00D+00 NAtFMM=   60 NAOKFM=F Big=F
 Integral buffers will be    131072 words long.
 Raffenetti 2 integral format.
 Two-electron integral symmetry is turned off.
 R6Disp:  Grimme-D3 Dispersion energy=       -0.0000000070 Hartrees.
 Nuclear repulsion after empirical dispersion term =        9.1030688871 Hartrees.
 No density basis found on file   718.
 Leave Link  301 at Thu Dec 15 13:47:29 2022, MaxMem= 13421772800 cpu:               1.3 elap:               0.1
 (Enter /data0/home/software/g16/l302.exe)
 NPDir=0 NMtPBC=     1 NCelOv=     1 NCel=       1 NClECP=     1 NCelD=      1
         NCelK=      1 NCelE2=     1 NClLst=     1 CellRange=     0.0.
 One-electron integrals computed using PRISM.
 NBasis=    39 RedAO= T EigKep=  2.95D-03  NBF=    39
 NBsUse=    39 1.00D-06 EigRej= -1.00D+00 NBFU=    39
 Precomputing XC quadrature grid using
 IXCGrd= 4 IRadAn=           5 IRanWt=          -1 IRanGd=           0 AccXCQ= 0.00D+00.
 Generated NRdTot=       0 NPtTot=           0 NUsed=           0 NTot=          32
 NSgBfM=    41    41    41    41    41 MxSgAt=     3 MxSgA2=     3.
 Leave Link  302 at Thu Dec 15 13:47:29 2022, MaxMem= 13421772800 cpu:               2.2 elap:               0.1
 (Enter /data0/home/software/g16/l303.exe)
 DipDrv:  MaxL=1.
 Leave Link  303 at Thu Dec 15 13:47:29 2022, MaxMem= 13421772800 cpu:               0.4 elap:               0.0
 (Enter /data0/home/software/g16/l401.exe)
 ExpMin= 8.45D-02 ExpMax= 8.59D+03 ExpMxC= 1.30D+03 IAcc=3 IRadAn=         5 AccDes= 0.00D+00
 Harris functional with IExCor= 1009 and IRadAn=       5 diagonalized for initial guess.
 HarFok:  IExCor= 1009 AccDes= 0.00D+00 IRadAn=         5 IDoV= 1 UseB2=F ITyADJ=14
 ICtDFT=  3500011 ScaDFX=  1.000000  1.000000  1.000000  1.000000
 FoFCou: FMM=F IPFlag=           0 FMFlag=      100000 FMFlg1=           0
         NFxFlg=           0 DoJE=T BraDBF=F KetDBF=T FulRan=T
         wScrn=  0.000000 ICntrl=       500 IOpCl=  0 I1Cent=   200000004 NGrid=           0
         NMat0=    1 NMatS0=      1 NMatT0=    0 NMatD0=    1 NMtDS0=    0 NMtDT0=    0
 Symmetry not used in FoFCou.
 Harris En= -76.4162434558068    
 JPrj=0 DoOrth=F DoCkMO=F.
 Leave Link  401 at Thu Dec 15 13:47:29 2022, MaxMem= 13421772800 cpu:               2.9 elap:               0.1
 (Enter /data0/home/software/g16/l502.exe)
 Keep R1 ints in memory in canonical form, NReq=21052011.
 FoFCou: FMM=F IPFlag=           0 FMFlag=           0 FMFlg1=           0
         NFxFlg=           0 DoJE=F BraDBF=F KetDBF=F FulRan=T
         wScrn=  0.000000 ICntrl=       600 IOpCl=  0 I1Cent=           0 NGrid=           0
         NMat0=    1 NMatS0=    780 NMatT0=    0 NMatD0=    1 NMtDS0=    0 NMtDT0=    0
 Symmetry not used in FoFCou.
 Two-electron integral symmetry not used.
 Closed shell SCF:
 Using DIIS extrapolation, IDIIS=  1040.
 NGot= 13421772800 LenX= 13421462061 LenY= 13421459939
 Requested convergence on RMS density matrix=1.00D-08 within 128 cycles.
 Requested convergence on MAX density matrix=1.00D-06.
 Requested convergence on             energy=1.00D-06.
 No special actions if energy rises.
 Integral accuracy reduced to 1.0D-05 until final iterations.

 Cycle   1  Pass 0  IDiag  1:
 E= -76.3466220062026    
 DIIS: error= 6.98D-02 at cycle   1 NSaved=   1.
 NSaved= 1 IEnMin= 1 EnMin= -76.3466220062026     IErMin= 1 ErrMin= 6.98D-02
 ErrMax= 6.98D-02  0.00D+00 EMaxC= 1.00D-01 BMatC= 1.20D-01 BMatP= 1.20D-01
 IDIUse=3 WtCom= 3.02D-01 WtEn= 6.98D-01
 Coeff-Com:  0.100D+01
 Coeff-En:   0.100D+01
 Coeff:      0.100D+01
 Gap=     0.325 Goal=   None    Shift=    0.000
 GapD=    0.325 DampG=1.000 DampE=0.500 DampFc=0.5000 IDamp=-1.
 Damping current iteration by 5.00D-01
 RMSDP=8.02D-03 MaxDP=1.01D-01              OVMax= 1.67D-01

 Cycle   2  Pass 0  IDiag  1:
 E= -76.3778970667871     Delta-E=       -0.031275060585 Rises=F Damp=T
 DIIS: error= 1.13D-02 at cycle   2 NSaved=   2.
 NSaved= 2 IEnMin= 2 EnMin= -76.3778970667871     IErMin= 2 ErrMin= 1.13D-02
 ErrMax= 1.13D-02  0.00D+00 EMaxC= 1.00D-01 BMatC= 4.83D-03 BMatP= 1.20D-01
 IDIUse=3 WtCom= 8.87D-01 WtEn= 1.13D-01
 Coeff-Com:  0.829D-01 0.917D+00
 Coeff-En:   0.188D+00 0.812D+00
 Coeff:      0.948D-01 0.905D+00
 Gap=     0.457 Goal=   None    Shift=    0.000
 RMSDP=9.51D-04 MaxDP=1.41D-02 DE=-3.13D-02 OVMax= 1.00D-01

 Cycle   3  Pass 0  IDiag  1:
 E= -76.4216545270464     Delta-E=       -0.043757460259 Rises=F Damp=F
 DIIS: error= 2.14D-03 at cycle   3 NSaved=   3.
 NSaved= 3 IEnMin= 3 EnMin= -76.4216545270464     IErMin= 3 ErrMin= 2.14D-03
 ErrMax= 2.14D-03  0.00D+00 EMaxC= 1.00D-01 BMatC= 8.92D-05 BMatP= 4.83D-03
 IDIUse=3 WtCom= 9.79D-01 WtEn= 2.14D-02
 Coeff-Com: -0.199D-01 0.385D-01 0.981D+00
 Coeff-En:   0.000D+00 0.000D+00 0.100D+01
 Coeff:     -0.195D-01 0.377D-01 0.982D+00
 Gap=     0.462 Goal=   None    Shift=    0.000
 RMSDP=1.14D-04 MaxDP=9.41D-04 DE=-4.38D-02 OVMax= 3.31D-03

 Cycle   4  Pass 0  IDiag  1:
 E= -76.4217308919698     Delta-E=       -0.000076364923 Rises=F Damp=F
 DIIS: error= 4.11D-04 at cycle   4 NSaved=   4.
 NSaved= 4 IEnMin= 4 EnMin= -76.4217308919698     IErMin= 4 ErrMin= 4.11D-04
 ErrMax= 4.11D-04  0.00D+00 EMaxC= 1.00D-01 BMatC= 3.20D-06 BMatP= 8.92D-05
 IDIUse=3 WtCom= 9.96D-01 WtEn= 4.11D-03
 Coeff-Com: -0.181D-02-0.237D-02 0.159D+00 0.845D+00
 Coeff-En:   0.000D+00 0.000D+00 0.000D+00 0.100D+01
 Coeff:     -0.180D-02-0.236D-02 0.158D+00 0.846D+00
 Gap=     0.462 Goal=   None    Shift=    0.000
 RMSDP=2.21D-05 MaxDP=3.55D-04 DE=-7.64D-05 OVMax= 5.37D-04

 Cycle   5  Pass 0  IDiag  1:
 E= -76.4217328818789     Delta-E=       -0.000001989909 Rises=F Damp=F
 DIIS: error= 8.73D-05 at cycle   5 NSaved=   5.
 NSaved= 5 IEnMin= 5 EnMin= -76.4217328818789     IErMin= 5 ErrMin= 8.73D-05
 ErrMax= 8.73D-05  0.00D+00 EMaxC= 1.00D-01 BMatC= 8.06D-08 BMatP= 3.20D-06
 IDIUse=1 WtCom= 1.00D+00 WtEn= 0.00D+00
 Coeff-Com:  0.117D-02-0.179D-02-0.368D-01-0.590D-01 0.110D+01
 Coeff:      0.117D-02-0.179D-02-0.368D-01-0.590D-01 0.110D+01
 Gap=     0.463 Goal=   None    Shift=    0.000
 RMSDP=8.92D-06 MaxDP=1.00D-04 DE=-1.99D-06 OVMax= 2.01D-04

 Initial convergence to 1.0D-05 achieved.  Increase integral accuracy.
 Cycle   6  Pass 1  IDiag  1:
 E= -76.4217261186256     Delta-E=        0.000006763253 Rises=F Damp=F
 DIIS: error= 2.17D-05 at cycle   1 NSaved=   1.
 NSaved= 1 IEnMin= 1 EnMin= -76.4217261186256     IErMin= 1 ErrMin= 2.17D-05
 ErrMax= 2.17D-05  0.00D+00 EMaxC= 1.00D-01 BMatC= 2.00D-08 BMatP= 2.00D-08
 IDIUse=1 WtCom= 1.00D+00 WtEn= 0.00D+00
 Coeff-Com:  0.100D+01
 Coeff:      0.100D+01
 Gap=     0.463 Goal=   None    Shift=    0.000
 RMSDP=8.92D-06 MaxDP=1.00D-04 DE= 6.76D-06 OVMax= 4.18D-05

 Cycle   7  Pass 1  IDiag  1:
 E= -76.4217261339523     Delta-E=       -0.000000015327 Rises=F Damp=F
 DIIS: error= 6.38D-06 at cycle   2 NSaved=   2.
 NSaved= 2 IEnMin= 2 EnMin= -76.4217261339523     IErMin= 2 ErrMin= 6.38D-06
 ErrMax= 6.38D-06  0.00D+00 EMaxC= 1.00D-01 BMatC= 7.36D-10 BMatP= 2.00D-08
 IDIUse=1 WtCom= 1.00D+00 WtEn= 0.00D+00
 Coeff-Com: -0.226D-01 0.102D+01
 Coeff:     -0.226D-01 0.102D+01
 Gap=     0.463 Goal=   None    Shift=    0.000
 RMSDP=7.47D-07 MaxDP=8.54D-06 DE=-1.53D-08 OVMax= 1.72D-05

 Cycle   8  Pass 1  IDiag  1:
 E= -76.4217261341346     Delta-E=       -0.000000000182 Rises=F Damp=F
 DIIS: error= 5.49D-06 at cycle   3 NSaved=   3.
 NSaved= 3 IEnMin= 3 EnMin= -76.4217261341346     IErMin= 3 ErrMin= 5.49D-06
 ErrMax= 5.49D-06  0.00D+00 EMaxC= 1.00D-01 BMatC= 7.69D-10 BMatP= 7.36D-10
 IDIUse=1 WtCom= 1.00D+00 WtEn= 0.00D+00
 Coeff-Com: -0.424D-01 0.537D+00 0.505D+00
 Coeff:     -0.424D-01 0.537D+00 0.505D+00
 Gap=     0.463 Goal=   None    Shift=    0.000
 RMSDP=3.20D-07 MaxDP=4.43D-06 DE=-1.82D-10 OVMax= 7.16D-06

 Cycle   9  Pass 1  IDiag  1:
 E= -76.4217261346381     Delta-E=       -0.000000000504 Rises=F Damp=F
 DIIS: error= 6.75D-07 at cycle   4 NSaved=   4.
 NSaved= 4 IEnMin= 4 EnMin= -76.4217261346381     IErMin= 4 ErrMin= 6.75D-07
 ErrMax= 6.75D-07  0.00D+00 EMaxC= 1.00D-01 BMatC= 5.70D-12 BMatP= 7.36D-10
 IDIUse=1 WtCom= 1.00D+00 WtEn= 0.00D+00
 Coeff-Com: -0.210D-02-0.188D-01 0.373D-01 0.984D+00
 Coeff:     -0.210D-02-0.188D-01 0.373D-01 0.984D+00
 Gap=     0.463 Goal=   None    Shift=    0.000
 RMSDP=8.14D-08 MaxDP=4.94D-07 DE=-5.04D-10 OVMax= 1.56D-06

 Cycle  10  Pass 1  IDiag  1:
 E= -76.4217261346462     Delta-E=       -0.000000000008 Rises=F Damp=F
 DIIS: error= 7.41D-08 at cycle   5 NSaved=   5.
 NSaved= 5 IEnMin= 5 EnMin= -76.4217261346462     IErMin= 5 ErrMin= 7.41D-08
 ErrMax= 7.41D-08  0.00D+00 EMaxC= 1.00D-01 BMatC= 2.23D-13 BMatP= 5.70D-12
 IDIUse=1 WtCom= 1.00D+00 WtEn= 0.00D+00
 Coeff-Com:  0.230D-02-0.324D-01-0.274D-01 0.356D-01 0.102D+01
 Coeff:      0.230D-02-0.324D-01-0.274D-01 0.356D-01 0.102D+01
 Gap=     0.463 Goal=   None    Shift=    0.000
 RMSDP=3.06D-08 MaxDP=2.09D-07 DE=-8.13D-12 OVMax= 4.84D-07

 Cycle  11  Pass 1  IDiag  1:
 E= -76.4217261346468     Delta-E=       -0.000000000001 Rises=F Damp=F
 DIIS: error= 1.47D-08 at cycle   6 NSaved=   6.
 NSaved= 6 IEnMin= 6 EnMin= -76.4217261346468     IErMin= 6 ErrMin= 1.47D-08
 ErrMax= 1.47D-08  0.00D+00 EMaxC= 1.00D-01 BMatC= 6.52D-15 BMatP= 2.23D-13
 IDIUse=1 WtCom= 1.00D+00 WtEn= 0.00D+00
 Coeff-Com: -0.669D-04 0.246D-02 0.468D-03-0.411D-01-0.403D-01 0.108D+01
 Coeff:     -0.669D-04 0.246D-02 0.468D-03-0.411D-01-0.403D-01 0.108D+01
 Gap=     0.463 Goal=   None    Shift=    0.000
 RMSDP=5.15D-09 MaxDP=4.01D-08 DE=-5.40D-13 OVMax= 1.01D-07

 SCF Done:  E(RM062X) =  -76.4217261346     A.U. after   11 cycles
            NFock= 11  Conv=0.52D-08     -V/T= 2.0029
 KE= 7.619722503512D+01 PE=-1.990541001002D+02 EE= 3.733208004330D+01
 Leave Link  502 at Thu Dec 15 13:47:30 2022, MaxMem= 13421772800 cpu:               8.9 elap:               0.4
 (Enter /data0/home/software/g16/l601.exe)
 Copying SCF densities to generalized density rwf, IOpCl= 0 IROHF=0.

 **********************************************************************

            Population analysis using the SCF density.

 **********************************************************************

 Alpha  occ. eigenvalues --  -19.62697  -1.13468  -0.60347  -0.47894  -0.40030
 Alpha virt. eigenvalues --    0.06222   0.13331   0.17429   0.17936   0.18884
 Alpha virt. eigenvalues --    0.23471   0.50931   0.53529   0.98210   1.00229
 Alpha virt. eigenvalues --    1.05992   1.16836   1.20382   1.31647   1.33975
 Alpha virt. eigenvalues --    1.71156   1.74542   1.75124   2.07257   2.09995
 Alpha virt. eigenvalues --    2.35987   2.39312   2.55311   2.87712   3.01603
 Alpha virt. eigenvalues --    5.05611   5.49756   5.90418   6.78615   6.79880
 Alpha virt. eigenvalues --    6.87279   6.91947   7.09270  49.95574
          Condensed to atoms (all electrons):
              44         45         46
    44  O    7.917831   0.316513   0.315563
    45  H    0.316513   0.432457  -0.023506
    46  H    0.315563  -0.023506   0.432573
 Mulliken charges:
               1
     1  C    0.000000
     2  C    0.000000
     3  C    0.000000
     4  C    0.000000
     5  C    0.000000
     6  H    0.000000
     7  H    0.000000
     8  H    0.000000
     9  H    0.000000
    10  C    0.000000
    11  H    0.000000
    12  H    0.000000
    13  H    0.000000
    14  N    0.000000
    15  C    0.000000
    16  H    0.000000
    17  H    0.000000
    18  C    0.000000
    19  H    0.000000
    20  H    0.000000
    21  C    0.000000
    22  H    0.000000
    23  H    0.000000
    24  C    0.000000
    25  O    0.000000
    26  O    0.000000
    27  P    0.000000
    28  O    0.000000
    29  O    0.000000
    30  H    0.000000
    31  O    0.000000
    32  H    0.000000
    33  O    0.000000
    34  H    0.000000
    35  O    0.000000
    36  H    0.000000
    37  H    0.000000
    38  O    0.000000
    39  H    0.000000
    40  H    0.000000
    41  O    0.000000
    42  H    0.000000
    43  H    0.000000
    44  O   -0.549907
    45  H    0.274537
    46  H    0.275371
 Sum of Mulliken charges =   0.00000
 Mulliken charges with hydrogens summed into heavy atoms:
               1
     1  C    0.000000
     2  C    0.000000
     3  C    0.000000
     4  C    0.000000
     5  C    0.000000
    10  C    0.000000
    14  N    0.000000
    15  C    0.000000
    18  C    0.000000
    21  C    0.000000
    24  C    0.000000
    25  O    0.000000
    26  O    0.000000
    27  P    0.000000
    28  O    0.000000
    29  O    0.000000
    31  O    0.000000
    33  O    0.000000
    35  O    0.000000
    38  O    0.000000
    41  O    0.000000
    44  O    0.000000
         Mulliken charges condensed to fragments:
      1      0.000000
      2      0.000000
      3      0.000000
      4      0.000000
      5      0.000000
      6      0.000000
 Electronic spatial extent (au):  <R**2>=          14156.4935
 Charge=              0.0000 electrons
 Dipole moment (field-independent basis, Debye):
    X=             -1.6963    Y=             -0.5349    Z=              1.2061  Tot=              2.1490
 Quadrupole moment (field-independent basis, Debye-Ang):
   XX=            -58.0302   YY=            -15.7633   ZZ=             14.6310
   XY=            -23.6891   XZ=              3.1747   YZ=              8.2379
 Traceless Quadrupole moment (field-independent basis, Debye-Ang):
   XX=            -38.3094   YY=              3.9575   ZZ=             34.3518
   XY=            -23.6891   XZ=              3.1747   YZ=              8.2379
 Octapole moment (field-independent basis, Debye-Ang**2):
  XXX=          -1469.7272  YYY=           -306.7249  ZZZ=            110.1926  XYY=           -382.4047
  XXY=           -658.9972  XXZ=           -237.7675  XZZ=             87.1080  YZZ=            123.0721
  YYZ=             -0.1568  XYZ=            -14.4229
 Hexadecapole moment (field-independent basis, Debye-Ang**3):
 XXXX=         -32751.4953 YYYY=          -4961.7106 ZZZZ=            359.5579 XXXY=         -15502.4284
 XXXZ=          -8800.8880 YYYX=          -5973.7405 YYYZ=          -1220.3394 ZZZX=            468.6668
 ZZZY=           1010.6227 XXYY=          -8588.3902 XXZZ=          -1213.4115 YYZZ=            607.2620
 XXYZ=          -2878.9865 YYXZ=          -1290.0622 ZZXY=            619.0835
 N-N= 9.103068887105D+00 E-N=-1.990541002214D+02  KE= 7.619722503512D+01
 No NMR shielding tensors so no spin-rotation constants.
 Leave Link  601 at Thu Dec 15 13:47:30 2022, MaxMem= 13421772800 cpu:               1.8 elap:               0.1
 (Enter /data0/home/software/g16/l122.exe)
 CPIOFr:  IOpCl= 0 IRwI=-1 IRwCP=  731 ICalc= 12 LCPTot=      853034 Len1MO=     2241588 IndFrg=    29993678
 Restoring MOs from calculation   1 to rwf.
 CPIOFr:  IOpCl= 0 IRwI=-2 IRwCP=  731 ICalc=  0 LCPTot=      853034 Len1MO=     2241588 IndFrg=     3094622
 Counterpoise corrected energy =   -1543.970704629109
                   BSSE energy =       0.011299476692
              sum of fragments =   -1543.790996160194
           complexation energy =    -119.86 kcal/mole (raw)
           complexation energy =    -112.77 kcal/mole (corrected)
 Leave Link  122 at Thu Dec 15 13:47:30 2022, MaxMem= 13421772800 cpu:               0.8 elap:               0.0
 (Enter /data0/home/software/g16/l9999.exe)
 1\1\GINC-LOCALHOST\SP\RM062X\6-311+G(2d,p)\C10H24N1O10P1\WUHANYU\15-De
 c-2022\0\\#p M062X/6-311+G(2d,p) nosymm em=GD3 counterpoise=6\\Title C
 ard Required\\0,1\C,0,17.29936,6.373064,10.489098\C,0,16.677871,6.6735
 49,11.706801\C,0,16.328951,8.000664,11.981306\C,0,16.645667,8.993219,1
 1.055639\C,0,17.285505,8.659954,9.86531\H,0,15.792322,8.252482,12.9024
 49\H,0,17.523803,5.328829,10.207012\H,0,16.365865,10.037571,11.238366\
 H,0,17.536307,9.420515,9.110803\C,0,16.367481,5.574951,12.654545\H,0,1
 5.540368,5.839847,13.338115\H,0,16.015146,4.665714,12.129952\H,0,17.23
 3748,5.295682,13.267047\N,0,17.599114,7.359768,9.599631\C,0,18.278816,
 7.018757,8.326198\H,0,19.250933,7.560704,8.29803\H,0,18.511536,5.92388
 ,8.320388\C,0,17.431812,7.36096,7.087109\H,0,16.685425,8.156558,7.3148
 8\H,0,18.085102,7.796073,6.305161\C,0,16.706309,6.138698,6.528134\H,0,
 16.229206,6.381238,5.55698\H,0,17.393345,5.297793,6.333882\C,0,15.6349
 56,5.698971,7.52223\O,0,14.440169,5.815293,7.187827\O,0,16.023154,5.29
 1065,8.638416\P,0,13.293946,6.643324,10.565128\O,0,13.726683,7.614477,
 11.582713\O,0,11.814584,6.157975,10.811709\H,0,11.702019,5.197208,10.3
 75979\O,0,13.324663,7.345708,9.136645\H,0,13.601026,6.684258,8.374036\
 O,0,14.134153,5.297877,10.527126\H,0,14.856018,5.291503,9.741545\O,0,1
 2.630554,3.774847,7.16328\H,0,13.355265,4.438959,7.220284\H,0,12.00927
 ,4.168882,6.556673\O,0,13.972038,10.463029,10.999691\H,0,13.868988,9.5
 2369,11.242255\H,0,13.078289,10.754501,10.820493\O,0,11.64174,3.563158
 ,9.734581\H,0,12.409237,3.187881,10.173319\H,0,11.921955,3.618708,8.79
 544\O,0,15.202429,9.619788,8.583305\H,0,14.615438,8.8591,8.4982\H,0,14
 .829477,10.07934,9.352311\\Version=ES64L-G16RevA.03\HF=-76.4217261\RMS
 D=5.151e-09\Dipole=3.4165689,0.3562535,-0.3907146\Quadrupole=135.42150
 86,-61.2225112,-74.1989974,48.6903744,54.0508599,0.2351164\PG=C01 [X(C
 10H24N1O10P1)]\\@


 IT IS BY EATING THE LIGHT OF A STAR THAT WE EXIST, 
 IN THE FINAL ANALYSIS, 
 JUST AS IT IS BY PERCEIVING THE LIGHT OF STARS
 THAT WE DEFINE THE WORLD AROUND US.

                                    -- GILBERT GROSVENOR
 Job cpu time:       0 days 10 hours 47 minutes 21.7 seconds.
 Elapsed time:       0 days  0 hours 27 minutes  6.9 seconds.
 File lengths (MBytes):  RWF=    576 Int=      0 D2E=      0 Chk=    260 Scr=      1
 Normal termination of Gaussian 16 at Thu Dec 15 13:47:30 2022.
