          41
 G =       -0.625823 Gcorr = 0.219612 a.u. Nimag =   1 Frame:     1 Step:     1 Geom:     1
C          13.05288300      3.87593700      8.11938100
C          12.78726500      2.59662500      7.64507200
C          12.66430500      4.02957300      5.89607300
N          12.97780400      4.75235600      7.02684500
H          13.24089900      4.22202400      9.13520500
H          12.75077800      1.66355700      8.18278800
H          12.48566800      4.44737300      4.88418700
C          13.15585000      6.20560000      7.09293000
H          14.22119000      6.48135000      7.02013600
H          12.60951400      6.71348100      6.25488400
H          12.74426300      6.60193700      8.04993700
N          12.55734400      2.70137000      6.26196800
C          12.14463800      1.59945600      5.36451700
H          12.67621900      0.66989800      5.65999100
H          12.48287300      1.85046700      4.31601500
C          10.61681500      1.40795600      5.39654700
H          10.37307800      0.39287000      5.76652000
H          10.14367800      2.10903000      6.12081200
C           9.98263300      1.61723600      4.02124900
H           8.88455800      1.46693800      4.07885600
H          10.35571500      0.87682400      3.28696900
C          10.26844100      3.02395600      3.50484900
O          11.42239700      3.25502800      3.05170400
O           9.35334700      3.88248200      3.61391200
P          11.20721600      6.49771600      3.21352900
O          11.54128000      6.23159400      4.65076700
O          11.54072900      8.03210300      2.76152700
H          11.29152300      8.27447600      1.82551900
O          12.03917200      5.59513900      2.16599300
H          11.87872700      4.52545700      2.25766900
O           9.65401500      6.31621900      2.81542900
H           9.25863200      5.32209300      2.96041300
O           9.79717800      4.68852600      6.18073400
H          10.34025100      5.40188400      5.76169100
H           9.21195100      4.37310600      5.46160600
O          11.84173900      5.75599500      9.77695400
H          11.61472000      6.14767500     10.60989800
H          10.98944600      5.40444600      9.39496500
O           9.72623200      4.60817300      8.58711300
H          10.12550800      3.95514800      7.98982200
H           9.24955200      5.20693000      7.97503300
          41
 G =       -0.628981 Gcorr = 0.217890 a.u. Nimag =   0 Frame:     2 Step:     2 Geom:     2
C          13.17535900      5.13624700      7.79344700
C          12.84661100      3.78490700      7.83438700
C          12.80702900      4.44920400      5.67164000
N          13.15169100      5.53208900      6.44659700
H          13.40875600      5.80512600      8.60650300
H          12.72215800      3.11830200      8.69203500
H          12.66296400      4.44623600      4.56742300
C          13.38884000      6.89010200      5.95221800
H          14.04839600      7.46026600      6.62362900
H          13.83189300      6.87888900      4.93709000
H          12.40648700      7.43859700      5.85675600
N          12.62901700      3.36664500      6.51541200
C          12.18991200      2.01209000      6.10186100
H          12.72326600      1.26316700      6.73120200
H          12.50200400      1.84726700      5.03650800
C          10.66724000      1.85104200      6.24923400
H          10.45105000      0.95075600      6.86180900
H          10.23643100      2.69355000      6.83869000
C           9.95772700      1.74976900      4.89910000
H           8.87245000      1.57084100      5.05012100
H          10.33065900      0.88913100      4.30937800
C          10.14978500      3.03306800      4.10964000
O          11.25224800      3.17946700      3.49166400
O           9.25065900      3.90960100      4.14872900
P          10.76251300      6.63183200      3.39448500
O          10.73296700      7.01551600      4.83378100
O          11.09957400      7.90678100      2.42131200
H          10.90071600      7.78207500      1.45371600
O          11.91434000      5.54647000      3.07931900
H          11.56626200      4.47500000      2.92514800
O           9.42099100      6.04380500      2.70612900
H           9.03915000      5.13839300      3.11828400
O           9.74856800      5.14816100      6.60036600
H           9.99561400      6.02029700      6.20618900
H           9.27216400      4.68321500      5.88424900
O          11.03805400      2.10398300      9.25235100
H          10.87335900      1.75517200     10.11941300
H          10.39193500      2.85273100      9.13237700
O           9.82855400      4.45011600      8.91266000
H          10.51201900      4.89013600      8.37610200
H           9.02061300      4.55996000      8.37905600
          41
 G =       -0.625991 Gcorr = 0.237723 a.u. Nimag =   0 Frame:     3 Step:     3 Geom:     3
C          13.04276500      4.85854600      7.45849600
C          12.52640100      3.57081500      7.53230300
C          13.08645800      3.97522200      5.38746700
N          13.39409900      5.08267400      6.12836500
H          13.16533900      5.60033200      8.23343300
H          12.13992800      3.02798900      8.38254700
H          13.19313500      3.86532100      4.30306800
C          13.97762700      6.31246800      5.62613500
H          14.08515100      6.29110800      4.51981200
H          13.31429000      7.18029100      5.85843100
H          14.96790900      6.49001600      6.07834900
N          12.56843700      3.03740900      6.24428000
C          12.11063500      1.69696400      5.87321400
H          12.61005600      0.95980100      6.54318300
H          12.44423300      1.47594900      4.82592200
C          10.57873600      1.56898900      5.97363300
H          10.31844300      0.61406400      6.46963700
H          10.15977400      2.36061400      6.63575500
C           9.90751700      1.64320600      4.60484700
H           8.81781300      1.46662000      4.69347300
H          10.29318200      0.87442500      3.91319800
C          10.15251100      3.02989900      4.00844200
O          11.30025500      3.26365000      3.57488600
O           9.20612500      3.84063500      4.03713600
P          10.89257900      6.78530200      3.61756600
O          10.91401800      7.02708700      5.06511400
O          11.23508900      8.12889200      2.83173900
H          11.19721400      7.91043900      1.82328400
O          12.03056800      5.78498500      3.12599200
H          11.66724100      4.78138500      3.18021000
O           9.54153100      6.28631500      2.97235600
H           9.34296700      5.29529600      3.35332700
O           9.04389000      5.03399700      6.54800600
H           9.56119200      5.80922700      6.29674700
H           8.95249200      4.54669200      5.70243800
O          11.84059600      4.88068700     10.10141000
H          11.48309100      5.20510800     10.92051300
H          11.09218100      4.46961900      9.63783400
O           9.77042300      3.62684500      8.69616700
H           9.56102400      4.16922400      7.89120700
H           8.92310800      3.49189700      9.11007800
          41
 G =       -0.630295 Gcorr = 0.219726 a.u. Nimag =   0 Frame:     4 Step:     4 Geom:     4
C          12.96796300      3.96903800      7.91560900
C          12.78531900      2.67714100      7.43465300
C          12.90828500      4.07390500      5.65664600
N          13.05301200      4.81987800      6.80560300
H          13.00218500      4.34106400      8.94243200
H          12.65995800      1.75705500      7.98176700
H          12.86849600      4.47425100      4.61953300
C          13.18800300      6.27775500      6.86600900
H          13.54864900      6.60059100      7.86572600
H          13.85833600      6.66126200      6.07958900
H          12.18084200      6.75568900      6.72686100
N          12.75916500      2.75149200      6.03201400
C          12.48642500      1.62015200      5.11641600
H          13.14770600      0.76939700      5.39329200
H          12.77084500      1.93022200      4.07326000
C          11.00414400      1.21001700      5.16842400
H          10.91536100      0.14535600      5.45640300
H          10.46589900      1.78155900      5.97182300
C          10.28739200      1.44325200      3.83544100
H           9.24345100      1.06676200      3.89210900
H          10.77260100      0.88463800      3.00974600
C          10.26994300      2.92385900      3.52247000
O          11.39525200      3.37249100      3.02360200
O           9.30133500      3.65009000      3.76208500
P          10.61423200      6.52390700      4.24896600
O          10.45166600      6.24058400      5.72127800
O          10.85134400      8.13243500      4.01893500
H          10.67591000      8.47411800      3.10271200
O          11.78556900      5.73935900      3.58253100
H          11.49496900      4.58459500      2.98754100
O           9.27563800      6.29392900      3.33527200
H           8.89788900      5.34161700      3.30506900
O           9.70397100      3.72440600      6.50688700
H          10.18418600      4.55407700      6.25749000
H           8.98092800      3.66835900      5.86429000
O          12.09306800      6.12964600      9.51368200
H          11.88056400      6.48052400     10.36813900
H          11.23540300      6.17218500      8.98556900
O           9.82445800      6.29738300      8.12246200
H           9.65321400      5.44204200      7.67814300
H           9.91645400      6.93392300      7.37952500
          41
 G =       -0.636684 Gcorr = 0.224087 a.u. Nimag =   0 Frame:     5 Step:     5 Geom:     5
C          13.59510200      4.40398300      7.59377500
C          13.22971600      3.06120200      7.55948500
C          13.22093300      3.84520600      5.43744100
N          13.58213700      4.87551300      6.27239700
H          13.80742000      5.03884300      8.44374200
H          13.08495600      2.37381700      8.37834600
H          13.08629500      3.90415400      4.34143100
C          13.79448200      6.26749200      5.86823000
H          13.06793900      6.92395300      6.42813900
H          14.81881700      6.60363100      6.09324400
H          13.59263900      6.41280700      4.78533700
N          13.00632500      2.72050200      6.21610200
C          12.44253600      1.44010900      5.72243800
H          12.94561700      0.60274000      6.25422300
H          12.69026100      1.33924500      4.63198100
C          10.91943700      1.39132600      5.93268100
H          10.63735400      0.41447200      6.37179800
H          10.60564800      2.15397100      6.69863000
C          10.12061500      1.61516100      4.64628300
H           9.03390400      1.61576700      4.87657700
H          10.28112300      0.78593700      3.92749900
C          10.50744300      2.92509800      3.99395300
O          11.56725100      2.98606200      3.30693100
O           9.79234000      3.95833100      4.18011200
P          10.51644800      6.09563700      4.10693100
O          10.27469100      5.92265800      5.57246900
O          10.85502900      7.69361900      3.86377600
H          10.79495900      8.02350300      2.93350800
O          11.87696600      5.47879500      3.46914700
H          11.80992900      4.50729400      2.99186400
O           9.30810700      5.98096400      3.00618900
H           8.80003200      5.10864300      2.98527100
O           8.30489500      4.48466300      6.50863100
H           8.52132400      5.42880800      6.39687000
H           8.59578500      4.07229100      5.66834700
O          11.49393500      6.70761000      7.70021100
H          10.88787100      7.07150500      7.03012300
H          11.17453600      5.79066500      7.83164100
O          10.52281400      4.00211800      7.52261100
H          10.52602400      4.42894300      6.62600600
H           9.56639200      4.01295800      7.76563300
          41
 G =       -0.628054 Gcorr = 0.239187 a.u. Nimag =   0 Frame:     6 Step:     6 Geom:     6
C          13.30002100      4.42279400      7.52762700
C          12.85197300      3.11171300      7.41352600
C          13.18842600      3.91682300      5.33686500
N          13.50041200      4.90084000      6.23393100
H          13.46124900      5.02741000      8.40743700
H          12.54207000      2.42105100      8.17862400
H          13.22078100      3.99487600      4.24469600
C          13.89577800      6.25797700      5.90472900
H          14.85592300      6.51582700      6.38221200
H          13.98253800      6.40387000      4.80788700
H          13.12109400      6.98065500      6.26327800
N          12.79999400      2.81319200      6.05227800
C          12.35306700      1.53864600      5.48803600
H          12.88747200      0.71500400      6.01377600
H          12.65514900      1.49285700      4.40928300
C          10.82662200      1.36700400      5.61669400
H          10.59926700      0.36728400      6.03412800
H          10.41079900      2.09018000      6.35516500
C          10.11633300      1.54205700      4.27699800
H           9.04091300      1.29109100      4.37052200
H          10.52449700      0.87013700      3.50204200
C          10.26248600      2.99080600      3.81181100
O          11.40542700      3.37037400      3.47982700
O           9.24113400      3.70521200      3.82720500
P          10.61403600      6.83414800      3.89923600
O          10.35264600      6.95895800      5.33846200
O          10.93899200      8.26492000      3.28160000
H          11.08649200      8.13194500      2.26775200
O          11.91165200      5.98422600      3.54564200
H          11.63953400      4.96044500      3.39920200
O           9.44614300      6.26458400      3.00377700
H           9.30207100      5.22928700      3.27396400
O           8.67146000      4.54249500      6.39747400
H           8.94887900      5.45077200      6.21509500
H           8.73574500      4.12299800      5.51020100
O          11.50538400      6.38679000      8.08015100
H          11.11787300      6.71756300      7.26579800
H          11.11109100      5.51360200      8.19508300
O          10.39739800      3.71418400      8.24728100
H           9.76509000      3.96083600      7.52066500
H           9.84211000      3.64457300      9.02005000
          41
 G =       -0.627096 Gcorr = 0.235437 a.u. Nimag =   0 Frame:     7 Step:     7 Geom:     7
C          13.01856100      4.29939900      7.19547200
C          12.61939700      2.98221700      6.99052500
C          13.18731100      3.85948800      4.99539900
N          13.37853100      4.81534600      5.95474200
H          13.03984800      4.89021900      8.10706000
H          12.22574300      2.26818700      7.69222300
H          13.29104700      3.99049700      3.91706800
C          13.88425800      6.15718900      5.73140000
H          13.30264200      6.89720400      6.33302900
H          14.94562800      6.22771000      6.02680100
H          13.78014600      6.46116100      4.66799300
N          12.75092900      2.72172500      5.62821300
C          12.50372700      1.43246700      4.97998800
H          13.18903800      0.67883800      5.43297300
H          12.77137100      1.51617000      3.89423900
C          11.03826200      0.98002100      5.11654600
H          11.00375800     -0.11406600      5.28336000
H          10.56829300      1.43210100      6.01863500
C          10.21874700      1.34002300      3.87916200
H           9.17625600      0.98066900      3.97936000
H          10.62538700      0.87458400      2.96468900
C          10.22206300      2.86118600      3.72543300
O          11.24239000      3.37469000      3.21905000
O           9.23533900      3.47845100      4.17502400
P          10.51333700      6.62441600      4.28816600
O          10.87558100      6.42676900      5.70327400
O          10.53215900      8.17940300      3.94622300
H          10.26862800      8.27072900      2.94989600
O          11.58210600      6.00401500      3.29249400
H          11.37539000      4.95318400      3.17272300
O           9.09055800      6.12180400      3.84151600
H           9.08120600      5.03899600      3.94873000
O          10.10457700      3.75140300      6.82898700
H          10.45288500      4.61843200      6.56563400
H           9.55876900      3.51874400      6.05051700
O          11.87852100      6.64514900      8.50689800
H          11.52849100      6.84805100      7.63580600
H          11.14343600      6.18326800      8.94001400
O           9.62321700      5.06805800      9.26195900
H           9.71580500      4.48275400      8.49054000
H           8.78668300      5.50935100      9.12824200
          41
 G =       -0.623004 Gcorr = 0.243202 a.u. Nimag =   0 Frame:     8 Step:     8 Geom:     8
C          13.34509200      4.46091000      7.42280500
C          12.99333100      3.13356100      7.20519100
C          13.27561400      4.11677700      5.19936600
N          13.50863900      5.05066700      6.17182500
H          13.46763800      5.00289500      8.34884500
H          12.73922000      2.36370900      7.91426300
H          13.34599700      4.28354600      4.12462600
C          13.78394000      6.45781000      5.94706900
H          14.74692000      6.74934900      6.39851700
H          13.79637900      6.70381500      4.86445400
H          12.97669400      7.08257000      6.40530600
N          12.96123700      2.93724600      5.82501300
C          12.58075000      1.68301100      5.17202200
H          13.22741300      0.86901300      5.57202600
H          12.79433900      1.75980400      4.07406000
C          11.09085500      1.35930900      5.40527000
H          10.99188500      0.33195900      5.80514700
H          10.66290200      2.01931700      6.19513700
C          10.26356900      1.49938400      4.12969300
H           9.22685000      1.14607500      4.29669600
H          10.67067900      0.88999800      3.30428500
C          10.23980400      2.96854200      3.70709200
O          11.29674200      3.44316000      3.24476300
O           9.18016600      3.60407400      3.88250300
P          10.39846800      6.79168500      4.07530700
O          10.18813900      6.83458700      5.52765100
O          10.62544400      8.26700900      3.52047900
H          10.72438400      8.19494600      2.49498900
O          11.72527700      6.03027200      3.64001500
H          11.48809000      5.02139400      3.36294300
O           9.22683900      6.20639600      3.19640900
H           9.14385000      5.14966100      3.41655000
O           8.69489100      4.25363600      6.50911100
H           8.89246100      5.18906800      6.36554400
H           8.74942900      3.88613300      5.59702100
O          11.42939800      6.26375600      8.20964600
H          11.00163900      6.59971200      7.41801400
H          11.11575100      5.35378900      8.28005400
O          10.56873600      3.49421000      8.22989100
H           9.88440000      3.72235900      7.54402400
H          10.05617000      3.32488500      9.01638200
          41
 G =       -0.628137 Gcorr = 0.239105 a.u. Nimag =   0 Frame:     9 Step:     9 Geom:     9
C          13.32882900      4.27847000      7.51964200
C          12.92125900      2.96770900      7.29985000
C          13.19906400      3.95696800      5.29529700
N          13.49347800      4.87106300      6.26896300
H          13.48365700      4.81162000      8.44563100
H          12.64616000      2.20424300      8.00684500
H          13.21179300      4.12844800      4.21342800
C          13.84074800      6.26345300      6.05175800
H          14.79861800      6.51158000      6.53888300
H          13.90768400      6.50426300      4.97040600
H          13.04845200      6.92730900      6.47896800
N          12.85748800      2.78426400      5.91883100
C          12.44214900      1.54849300      5.25336900
H          13.01007800      0.70085700      5.69984400
H          12.72896800      1.60453200      4.17089700
C          10.92398500      1.31694700      5.38593300
H          10.73447800      0.27879600      5.72021600
H          10.49685900      1.96149500      6.18807300
C          10.18838100      1.58085500      4.07480100
H           9.12313700      1.28705600      4.15975100
H          10.60631000      0.99098600      3.24050800
C          10.28057100      3.06785800      3.73261800
O          11.40538400      3.51221600      3.41977100
O           9.23681400      3.74356600      3.82138400
P          10.50838100      6.89784000      4.14773600
O          10.26267000      6.88872800      5.59520700
O          10.77772600      8.38672600      3.65313100
H          10.91322800      8.34705800      2.62957200
O          11.82860500      6.12597800      3.70893500
H          11.58799100      5.11072300      3.47527700
O           9.34836700      6.36773100      3.21870500
H           9.24121100      5.30852400      3.40130800
O           8.68306800      4.33898200      6.46331100
H           8.92655500      5.26879700      6.35551700
H           8.74600900      3.99934000      5.54273200
O          11.48082500      6.12871700      8.25829600
H          11.06878200      6.51382800      7.48060900
H          11.11633600      5.23676100      8.30528800
O          10.46250800      3.41458200      8.21492100
H           9.81332500      3.70311600      7.51948400
H           9.92009600      3.25952200      8.98431200
          41
 G =       -0.628227 Gcorr = 0.239014 a.u. Nimag =   0 Frame:    10 Step:    10 Geom:    10
C          13.44003300      4.38113600      7.39966300
C          13.05153000      3.06021400      7.20790100
C          13.21691800      4.03895100      5.18583600
N          13.53508600      4.96698000      6.13864200
H          13.62515900      4.92477500      8.31390400
H          12.82521000      2.29691600      7.93215500
H          13.17683500      4.20201100      4.10335900
C          13.84236900      6.36456900      5.89603100
H          14.81664300      6.63621600      6.33571000
H          13.85314700      6.59851800      4.81113600
H          13.05713800      7.01510600      6.35566500
N          12.92933900      2.86429500      5.83253600
C          12.51131000      1.61438100      5.19572400
H          13.11787200      0.78303800      5.62154800
H          12.74664200      1.66785600      4.10078600
C          11.00639100      1.35081500      5.40007800
H          10.85554100      0.31125100      5.74920100
H          10.60265300      1.99173000      6.21709500
C          10.20532300      1.58917500      4.12282200
H           9.15176500      1.27342400      4.25902800
H          10.59689500      1.00215900      3.27387400
C          10.24949600      3.07520900      3.76731400
O          11.34882100      3.54092800      3.39970400
O           9.19679800      3.72946200      3.90007900
P          10.41502900      6.91389800      4.14133900
O          10.23886900      6.91516500      5.59886400
O          10.62909100      8.40284600      3.62039000
H          10.71875700      8.35521200      2.59224300
O          11.72866000      6.16508100      3.64656000
H          11.49902300      5.14264100      3.43382500
O           9.22292400      6.35094500      3.27424900
H           9.14851800      5.29123400      3.46881100
O           8.74820900      4.33634100      6.55799900
H           8.96590800      5.27023500      6.43301700
H           8.77652600      3.99092800      5.63764200
O          11.58940700      6.20029600      8.21079000
H          11.13435800      6.57101400      7.45038500
H          11.24752500      5.30075700      8.27900900
O          10.62928100      3.46523100      8.22854200
H           9.94165600      3.73392500      7.56259600
H          10.12736800      3.30513800      9.02395300
          41
 G =       -0.628771 Gcorr = 0.240848 a.u. Nimag =   0 Frame:    11 Step:    11 Geom:    11
C          12.91052600      5.00955300      6.78933400
C          12.28896000      3.82868800      7.18774000
C          13.32358500      3.44744300      5.22649200
N          13.54142000      4.75142200      5.57623300
H          12.92450700      5.97797500      7.26951100
H          11.67773100      3.63518000      8.06024400
H          13.65490600      2.96687900      4.31224700
C          14.24194200      5.71651500      4.75001000
H          15.33024600      5.54313200      4.76921400
H          13.87947000      5.66391500      3.69534000
H          14.03312700      6.75534300      5.09200900
N          12.56764200      2.86982400      6.21644400
C          12.09443200      1.48596500      6.19589100
H          11.97250300      1.13590200      7.25809100
H          12.87242200      0.84387000      5.72519700
C          10.75141300      1.32508700      5.46229900
H          10.45220700      0.25839300      5.52924800
H           9.94644500      1.86983900      6.00724300
C          10.77302900      1.77518400      4.00627700
H           9.90557300      1.35151900      3.46012800
H          11.67139500      1.42244300      3.47423600
C          10.66593200      3.29985100      3.92706300
O          11.63427800      3.90631900      3.41761500
O           9.64797600      3.83329400      4.40641800
P          10.76575500      7.15056100      4.38343300
O          11.51561100      7.15725200      5.65295300
O          10.48304300      8.65548200      3.94146100
H           9.97008200      8.61479800      3.04425400
O          11.55780000      6.53806700      3.16131800
H          11.53508100      5.45633700      3.23168900
O           9.33226400      6.49167000      4.43015700
H           9.44177000      5.42060900      4.42090800
O           9.07669900      3.79861400      7.19040400
H           9.52231200      4.60280800      7.49478600
H           9.16966500      3.81468500      6.21997500
O          10.50017700      6.04532200      8.07386200
H          10.80209000      6.44527100      7.23251400
H           9.84631800      6.66202100      8.40276300
O          10.24610700      1.71228800      8.49703800
H           9.78623200      2.43967100      8.02039900
H           9.66734600      1.49101100      9.21757100
          41
 G =       -0.630747 Gcorr = 0.235601 a.u. Nimag =   0 Frame:    12 Step:    12 Geom:    12
C          13.56196600      3.89408200      7.72081500
C          13.24004000      2.59685600      7.33828900
C          12.84653100      3.96139600      5.58897200
N          13.32474100      4.71763400      6.61975100
H          13.90575100      4.26483600      8.66762400
H          13.25349700      1.68376700      7.91193700
H          12.53270200      4.32227600      4.59664400
C          13.46629800      6.16079900      6.61255100
H          12.57013700      6.63888800      7.07187300
H          14.36006800      6.47844800      7.17387800
H          13.54181500      6.55858000      5.57425100
N          12.81356200      2.65539500      6.01207300
C          12.32342700      1.51863300      5.23025800
H          12.91051300      0.61538000      5.51057600
H          12.52052000      1.71496200      4.14253700
C          10.81863800      1.28331700      5.46655100
H          10.63921600      0.21589000      5.69814700
H          10.47487100      1.82978300      6.37514400
C           9.97542200      1.70423600      4.26488100
H           8.90419600      1.49176600      4.44826100
H          10.25625800      1.14745900      3.35317300
C          10.15950700      3.20141000      4.02937300
O          11.14105400      3.55577900      3.34406100
O           9.36331400      3.97902500      4.59730200
P          10.74572500      7.04545400      3.63439500
O          11.51389500      7.24170000      4.87559400
O          10.59278200      8.44109400      2.88238900
H          10.07238000      8.26007600      2.00807700
O          11.43285800      6.11013500      2.56212000
H          11.27223800      5.08476000      2.83311000
O           9.25616500      6.55631900      3.83800200
H           9.26680000      5.51991800      4.12172300
O          10.62153900      4.37445500      7.03533100
H          10.43962600      5.29506700      7.27496800
H          10.10312200      4.22405800      6.22060000
O          10.16319300      7.10707500      7.42892700
H          10.60728600      7.29178600      6.57768600
H           9.24643100      7.32925500      7.26007800
O          11.02189000      2.25199800      8.78709400
H          10.87398300      3.02159300      8.20750500
H          10.30606400      2.27466000      9.41348900
          41
 G =       -0.630859 Gcorr = 0.238303 a.u. Nimag =   0 Frame:    13 Step:    13 Geom:    13
C          12.86360300      5.20497300      6.74971300
C          12.31918800      3.99656400      7.17657700
C          13.34330500      3.64414300      5.20422100
N          13.49403000      4.96289200      5.53260900
H          12.82141000      6.18155200      7.21041200
H          11.73071800      3.78117600      8.05931900
H          13.66196100      3.17594700      4.27689200
C          14.15114100      5.94813600      4.69437500
H          13.87037800      6.98046600      5.00257200
H          15.24760900      5.84425300      4.74406000
H          13.82064000      5.84505700      3.63373200
N          12.64076800      3.03921900      6.21662600
C          12.27054700      1.62402000      6.24022400
H          12.19455600      1.29508900      7.31313700
H          13.08571700      1.02822800      5.77090600
C          10.93121200      1.34535600      5.53769300
H          10.68876900      0.27129500      5.67693000
H          10.10304100      1.88244600      6.05735200
C          10.91720100      1.70103600      4.05551500
H          10.06948000      1.19793100      3.54718400
H          11.82946800      1.36426500      3.53677900
C          10.72896500      3.20976200      3.88793500
O          11.67899400      3.84433000      3.37659700
O           9.66823700      3.70826200      4.30911200
P          10.60366200      7.06622600      4.21807600
O          11.33812400      7.14929600      5.49407200
O          10.25445500      8.54202400      3.72800200
H           9.75453200      8.45073200      2.82746200