 Entering Gaussian System, Link 0=g16
 Initial command:
 /data0/home/software/g16/l1.exe "/data0/home/software/g16/scratch/Gau-3825548.inp" -scrdir="/data0/home/software/g16/scratch/"
 Default is to use a total of  22 processors:
                               22 via shared-memory
                                1 via Linda
 Entering Link 1 = /data0/home/software/g16/l1.exe PID=   3825549.
  
 Copyright (c) 1988,1990,1992,1993,1995,1998,2003,2009,2016,
            Gaussian, Inc.  All Rights Reserved.
  
 This is part of the Gaussian(R) 16 program.  It is based on
 the Gaussian(R) 09 system (copyright 2009, Gaussian, Inc.),
 the Gaussian(R) 03 system (copyright 2003, Gaussian, Inc.),
 the Gaussian(R) 98 system (copyright 1998, Gaussian, Inc.),
 the Gaussian(R) 94 system (copyright 1995, Gaussian, Inc.),
 the Gaussian 92(TM) system (copyright 1992, Gaussian, Inc.),
 the Gaussian 90(TM) system (copyright 1990, Gaussian, Inc.),
 the Gaussian 88(TM) system (copyright 1988, Gaussian, Inc.),
 the Gaussian 86(TM) system (copyright 1986, Carnegie Mellon
 University), and the Gaussian 82(TM) system (copyright 1983,
 Carnegie Mellon University). Gaussian is a federally registered
 trademark of Gaussian, Inc.
  
 This software contains proprietary and confidential information,
 including trade secrets, belonging to Gaussian, Inc.
  
 This software is provided under written license and may be
 used, copied, transmitted, or stored only in accord with that
 written license.
  
 The following legend is applicable only to US Government
 contracts under FAR:
  
                    RESTRICTED RIGHTS LEGEND
  
 Use, reproduction and disclosure by the US Government is
 subject to restrictions as set forth in subparagraphs (a)
 and (c) of the Commercial Computer Software - Restricted
 Rights clause in FAR 52.227-19.
  
 Gaussian, Inc.
 340 Quinnipiac St., Bldg. 40, Wallingford CT 06492
  
  
 ---------------------------------------------------------------
 Warning -- This program may not be used in any manner that
 competes with the business of Gaussian, Inc. or will provide
 assistance to any competitor of Gaussian, Inc.  The licensee
 of this program is prohibited from giving any competitor of
 Gaussian, Inc. access to this program.  By using this program,
 the user acknowledges that Gaussian, Inc. is engaged in the
 business of creating and licensing software in the field of
 computational chemistry and represents and warrants to the
 licensee that it is not a competitor of Gaussian, Inc. and that
 it will not use this program in any manner prohibited above.
 ---------------------------------------------------------------
  

 Cite this work as:
 Gaussian 16, Revision A.03,
 M. J. Frisch, G. W. Trucks, H. B. Schlegel, G. E. Scuseria, 
 M. A. Robb, J. R. Cheeseman, G. Scalmani, V. Barone, 
 G. A. Petersson, H. Nakatsuji, X. Li, M. Caricato, A. V. Marenich, 
 J. Bloino, B. G. Janesko, R. Gomperts, B. Mennucci, H. P. Hratchian, 
 J. V. Ortiz, A. F. Izmaylov, J. L. Sonnenberg, D. Williams-Young, 
 F. Ding, F. Lipparini, F. Egidi, J. Goings, B. Peng, A. Petrone, 
 T. Henderson, D. Ranasinghe, V. G. Zakrzewski, J. Gao, N. Rega, 
 G. Zheng, W. Liang, M. Hada, M. Ehara, K. Toyota, R. Fukuda, 
 J. Hasegawa, M. Ishida, T. Nakajima, Y. Honda, O. Kitao, H. Nakai, 
 T. Vreven, K. Throssell, J. A. Montgomery, Jr., J. E. Peralta, 
 F. Ogliaro, M. J. Bearpark, J. J. Heyd, E. N. Brothers, K. N. Kudin, 
 V. N. Staroverov, T. A. Keith, R. Kobayashi, J. Normand, 
 K. Raghavachari, A. P. Rendell, J. C. Burant, S. S. Iyengar, 
 J. Tomasi, M. Cossi, J. M. Millam, M. Klene, C. Adamo, R. Cammi, 
 J. W. Ochterski, R. L. Martin, K. Morokuma, O. Farkas, 
 J. B. Foresman, and D. J. Fox, Gaussian, Inc., Wallingford CT, 2016.
 
 ******************************************
 Gaussian 16:  ES64L-G16RevA.03 25-Dec-2016
                17-Dec-2022 
 ******************************************
 %nproc=24
 Will use up to   24 processors via shared memory.
 %mem=50GB
 ---------------------------------------------------
 #p M062X/6-311+G(2d,p) nosymm em=GD3 counterpoise=4
 ---------------------------------------------------
 1/38=1,62=4,172=1/1;
 2/12=2,15=1,17=6,18=5,40=1/2;
 1/38=1,53=2,62=4,63=1/22;
 3/5=4,6=6,7=112,11=2,25=1,30=1,74=-55,124=31/1,2,3;
 4//1;
 5/5=2,38=5/2;
 6/7=2,8=2,9=2,10=2,28=1/1;
 1/53=2,62=4,63=1/22;
 3/5=7,6=11,7=112,11=2,25=1,30=1,74=-55,82=7,124=31/1,2,3;
 4//1;
 5/5=2,38=5/2;
 6/7=2,8=2,9=2,10=2,28=1/1;
 1/53=2,62=4,63=1/22(-4);
 99/5=1,9=1/99;
 Leave Link    1 at Sat Dec 17 23:20:24 2022, MaxMem=  6710886400 cpu:               0.7 elap:               0.0
 (Enter /data0/home/software/g16/l101.exe)
 -------------------
 Title Card Required
 -------------------
 Symbolic Z-matrix:
 Charge =  0 Multiplicity = 1 in supermolecule
 Charge =  0 Multiplicity = 1 in fragment      1.
 Charge =  0 Multiplicity = 1 in fragment      2.
 Charge =  0 Multiplicity = 1 in fragment      3.
 Charge =  0 Multiplicity = 1 in fragment      4.
 C                     9.5491    11.94159   11.40796    
 C                     9.94576   10.571    11.5716    
 C                     11.25804   10.26036   11.94457    
 C                     12.13146   11.31325   12.14935    
 C                     11.73071   12.65918   11.98991    
 C                     10.44275   12.99571   11.61505    
 H                     11.56274   9.22187   12.05753    
 H                     13.16078   11.1103   12.44315    
 H                     12.46331   13.44571   12.16968    
 H                     10.12339   14.0271   11.47978    
 H                     7.66446   12.73158   10.76456    
 C                     7.83993   10.56747   10.9412    
 H                     6.85648   10.24462   10.62578    
 N                     8.20657   11.91168   11.02454    
 N                     8.85118   9.7521    11.27836    
 O                     11.80004   11.64312   8.70156    
 H                     11.77757   11.74232   9.65857    
 H                     11.05076   12.16127   8.37783    
 O                     9.37141   12.77951   7.69817    
 H                     9.41235   12.89963   6.74985    
 H                     9.05899   11.85917   7.81793    
 O                     8.03245   14.18575   9.75806    
 H                     8.53969   13.7788   9.03609    
 H                     7.47397   14.83997   9.34887    
 
 ITRead=  0  0  0  0  0  0  0  0  0  0  0  0  0  0  0  0  0  0  0  0
 ITRead=  0  0  0  0
 MicOpt= -1 -1 -1 -1 -1 -1 -1 -1 -1 -1 -1 -1 -1 -1 -1 -1 -1 -1 -1 -1
 MicOpt= -1 -1 -1 -1
 NAtoms=     24 NQM=       24 NQMF=       0 NMMI=      0 NMMIF=      0
                NMic=       0 NMicF=      0.
                    Isotopes and Nuclear Properties:
 (Nuclear quadrupole moments (NQMom) in fm**2, nuclear magnetic moments (NMagM)
  in nuclear magnetons)

  Atom         1           2           3           4           5           6           7           8           9          10
 IAtWgt=          12          12          12          12          12          12           1           1           1           1
 AtmWgt=  12.0000000  12.0000000  12.0000000  12.0000000  12.0000000  12.0000000   1.0078250   1.0078250   1.0078250   1.0078250
 NucSpn=           0           0           0           0           0           0           1           1           1           1
 AtZEff=  -0.0000000  -0.0000000  -0.0000000  -0.0000000  -0.0000000  -0.0000000  -0.0000000  -0.0000000  -0.0000000  -0.0000000
 NQMom=    0.0000000   0.0000000   0.0000000   0.0000000   0.0000000   0.0000000   0.0000000   0.0000000   0.0000000   0.0000000
 NMagM=    0.0000000   0.0000000   0.0000000   0.0000000   0.0000000   0.0000000   2.7928460   2.7928460   2.7928460   2.7928460
 AtZNuc=   6.0000000   6.0000000   6.0000000   6.0000000   6.0000000   6.0000000   1.0000000   1.0000000   1.0000000   1.0000000

  Atom        11          12          13          14          15          16          17          18          19          20
 IAtWgt=           1          12           1          14          14          16           1           1          16           1
 AtmWgt=   1.0078250  12.0000000   1.0078250  14.0030740  14.0030740  15.9949146   1.0078250   1.0078250  15.9949146   1.0078250
 NucSpn=           1           0           1           2           2           0           1           1           0           1
 AtZEff=  -0.0000000  -0.0000000  -0.0000000  -0.0000000  -0.0000000  -0.0000000  -0.0000000  -0.0000000  -0.0000000  -0.0000000
 NQMom=    0.0000000   0.0000000   0.0000000   2.0440000   2.0440000   0.0000000   0.0000000   0.0000000   0.0000000   0.0000000
 NMagM=    2.7928460   0.0000000   2.7928460   0.4037610   0.4037610   0.0000000   2.7928460   2.7928460   0.0000000   2.7928460
 AtZNuc=   1.0000000   6.0000000   1.0000000   7.0000000   7.0000000   8.0000000   1.0000000   1.0000000   8.0000000   1.0000000

  Atom        21          22          23          24
 IAtWgt=           1          16           1           1
 AtmWgt=   1.0078250  15.9949146   1.0078250   1.0078250
 NucSpn=           1           0           1           1
 AtZEff=  -0.0000000  -0.0000000  -0.0000000  -0.0000000
 NQMom=    0.0000000   0.0000000   0.0000000   0.0000000
 NMagM=    2.7928460   0.0000000   2.7928460   2.7928460
 AtZNuc=   1.0000000   8.0000000   1.0000000   1.0000000
 Leave Link  101 at Sat Dec 17 23:20:24 2022, MaxMem=  6710886400 cpu:               2.1 elap:               0.1
 (Enter /data0/home/software/g16/l202.exe)
                          Input orientation:                          
 ---------------------------------------------------------------------
 Center     Atomic      Atomic             Coordinates (Angstroms)
 Number     Number       Type             X           Y           Z
 ---------------------------------------------------------------------
      1          6           0        9.549098   11.941592   11.407958
      2          6           0        9.945762   10.570998   11.571605
      3          6           0       11.258038   10.260358   11.944571
      4          6           0       12.131459   11.313252   12.149349
      5          6           0       11.730713   12.659179   11.989909
      6          6           0       10.442750   12.995708   11.615049
      7          1           0       11.562743    9.221868   12.057530
      8          1           0       13.160784   11.110297   12.443149
      9          1           0       12.463315   13.445708   12.169676
     10          1           0       10.123394   14.027101   11.479776
     11          1           0        7.664455   12.731579   10.764559
     12          6           0        7.839934   10.567471   10.941198
     13          1           0        6.856480   10.244616   10.625775
     14          7           0        8.206568   11.911678   11.024535
     15          7           0        8.851178    9.752102   11.278363
     16          8           0       11.800036   11.643124    8.701560
     17          1           0       11.777571   11.742316    9.658569
     18          1           0       11.050758   12.161268    8.377826
     19          8           0        9.371413   12.779511    7.698174
     20          1           0        9.412348   12.899635    6.749854
     21          1           0        9.058995   11.859174    7.817931
     22          8           0        8.032453   14.185749    9.758060
     23          1           0        8.539685   13.778797    9.036095
     24          1           0        7.473968   14.839972    9.348873
 ---------------------------------------------------------------------
                    Distance matrix (angstroms):
                    1          2          3          4          5
     1  C    0.000000
     2  C    1.436193   0.000000
     3  C    2.456619   1.399167   0.000000
     4  C    2.759177   2.379496   1.383251   0.000000
     5  C    2.369186   2.778764   2.445367   1.413343   0.000000
     6  C    1.397377   2.475501   2.873224   2.442923   1.382975
     7  H    3.445810   2.161227   1.088148   2.169275   3.442077
     8  H    3.847980   3.374433   2.142760   1.089504   2.156285
     9  H    3.366785   3.867780   3.413183   2.158219   1.089793
    10  H    2.164329   3.461883   3.961288   3.441748   2.171387
    11  H    2.142410   3.244040   4.518097   4.887067   4.247491
    12  C    2.242167   2.198167   3.575543   4.520288   4.540176
    13  H    3.277458   3.247273   4.594908   5.593627   5.607952
    14  N    1.396530   2.263074   3.589539   4.126511   3.729652
    15  N    2.301685   1.398104   2.548555   3.735780   4.153206
    16  O    3.532760   3.581193   3.566921   3.479354   3.442443
    17  H    2.840099   2.896069   2.773431   2.552120   2.505590
    18  H    3.388944   3.734997   4.046986   4.013905   3.709097
    19  O    3.807385   4.495651   5.285582   5.438817   4.898956
    20  H    4.757571   5.381112   6.112073   6.250178   5.735051
    21  H    3.624264   4.066426   4.941777   5.338469   5.018315
    22  O    3.171532   4.473938   5.531177   5.547193   4.581342
    23  H    3.165434   4.323868   5.313011   5.354634   4.490125
    24  H    4.116625   5.410586   6.483032   6.478630   5.463589
                    6          7          8          9         10
     6  C    0.000000
     7  H    3.961318   0.000000
     8  H    3.410020   2.503717   0.000000
     9  H    2.143080   4.320235   2.452630   0.000000
    10  H    1.088145   5.049336   4.319904   2.507830   0.000000
    11  H    2.917537   5.402453   5.971252   5.051078   2.869894
    12  C    3.622853   4.112925   5.555354   5.582926   4.180107
    13  H    4.626932   5.024425   6.617892   6.638314   5.070428
    14  N    2.554278   4.423355   5.215260   4.667386   2.890758
    15  N    3.628697   2.870685   4.666275   5.242585   4.464831
    16  O    3.487137   4.145036   4.016843   3.964477   4.026532
    17  H    2.679655   3.486233   3.172792   3.110860   3.357579
    18  H    3.397878   4.737343   4.699319   4.245377   3.736767
    19  O    4.066499   6.038438   6.297650   5.477044   4.052465
    20  H    4.974041   6.805997   7.047419   6.243482   4.914156
    21  H    4.198165   5.585547   6.227209   5.748406   4.386566
    22  O    3.267130   6.510808   6.554989   5.098636   2.713210
    23  H    3.299377   6.247684   6.331150   5.032410   2.922562
    24  H    4.165397   7.457747   7.471606   5.898685   3.495850
                   11         12         13         14         15
    11  H    0.000000
    12  C    2.178384   0.000000
    13  H    2.618601   1.082085   0.000000
    14  N    1.016716   1.395800   2.181936   0.000000
    15  N    3.248013   1.342059   2.155751   2.267977   0.000000
    16  O    4.748024   4.674978   5.486089   4.287347   4.348752
    17  H    4.372594   4.304693   5.234093   3.827089   3.892102
    18  H    4.181961   4.406865   5.130185   3.893171   4.365243
    19  O    3.509803   4.213758   4.617513   3.629694   4.717372
    20  H    4.381921   5.047657   5.348304   4.550040   5.543399
    21  H    3.374678   3.592966   3.916868   3.318388   4.056788
    22  O    1.806398   3.811668   4.203376   2.608769   4.758031
    23  H    2.202335   3.798906   4.225009   2.747907   4.619423
    24  H    2.546718   4.574243   4.809269   3.452456   5.613026
                   16         17         18         19         20
    16  O    0.000000
    17  H    0.962398   0.000000
    18  H    0.966796   1.531039   0.000000
    19  O    2.862930   3.272387   1.914249   0.000000
    20  H    3.330020   3.923556   2.424843   0.956774   0.000000
    21  H    2.888041   3.285157   2.090900   0.979269   1.532386
    22  O    4.666456   4.472826   3.887639   2.830804   3.550705
    23  H    3.911892   3.875388   3.058628   1.865577   2.600262
    24  H    5.417907   5.311533   4.572944   3.251247   3.778508
                   21         22         23         24
    21  H    0.000000
    22  O    3.198568   0.000000
    23  H    2.332072   0.971662   0.000000
    24  H    3.706919   0.952548   1.536123   0.000000
 Symmetry turned off by external request.
 Stoichiometry    C7H12N2O3
 Framework group  C1[X(C7H12N2O3)]
 Deg. of freedom    66
 Full point group                 C1      NOp   1
 Rotational constants (GHZ):           0.9591539           0.7021203           0.5887452
 Leave Link  202 at Sat Dec 17 23:20:24 2022, MaxMem=  6710886400 cpu:               0.1 elap:               0.0
 (Enter /data0/home/software/g16/l122.exe)
 Counterpoise: doing full-system calculation.
 Leave Link  122 at Sat Dec 17 23:20:24 2022, MaxMem=  6710886400 cpu:               0.0 elap:               0.0
 (Enter /data0/home/software/g16/l301.exe)
 Standard basis: 6-311+G(2d,p) (5D, 7F)
 Ernie: Thresh=  0.10000D-02 Tol=  0.10000D-05 Strict=F.
   396 basis functions,   600 primitive gaussians,   420 cartesian basis functions
    46 alpha electrons       46 beta electrons
       nuclear repulsion energy       721.2563587722 Hartrees.
 IExCor= 4336 DFT=T Ex+Corr=M062X ExCW=0 ScaHFX=  0.540000
 ScaDFX=  1.000000  1.000000  1.000000  1.000000 ScalE2=  1.000000  1.000000
 IRadAn=      5 IRanWt=     -1 IRanGd=            0 ICorTp=0 IEmpDi=131
 NAtoms=   24 NActive=   24 NUniq=   24 SFac= 1.00D+00 NAtFMM=   60 NAOKFM=F Big=F
 Integral buffers will be    131072 words long.
 Raffenetti 2 integral format.
 Two-electron integral symmetry is turned off.
 R6Disp:  Grimme-D3 Dispersion energy=       -0.0012620502 Hartrees.
 Nuclear repulsion after empirical dispersion term =      721.2550967221 Hartrees.
 Leave Link  301 at Sat Dec 17 23:20:24 2022, MaxMem=  6710886400 cpu:               1.1 elap:               0.1
 (Enter /data0/home/software/g16/l302.exe)
 NPDir=0 NMtPBC=     1 NCelOv=     1 NCel=       1 NClECP=     1 NCelD=      1
         NCelK=      1 NCelE2=     1 NClLst=     1 CellRange=     0.0.
 One-electron integrals computed using PRISM.
 NBasis=   396 RedAO= T EigKep=  1.23D-06  NBF=   396
 NBsUse=   396 1.00D-06 EigRej= -1.00D+00 NBFU=   396
 Precomputing XC quadrature grid using
 IXCGrd= 4 IRadAn=           5 IRanWt=          -1 IRanGd=           0 AccXCQ= 0.00D+00.
 Generated NRdTot=       0 NPtTot=           0 NUsed=           0 NTot=          32
 NSgBfM=   420   420   420   420   420 MxSgAt=    24 MxSgA2=    24.
 Leave Link  302 at Sat Dec 17 23:20:25 2022, MaxMem=  6710886400 cpu:               7.0 elap:               0.3
 (Enter /data0/home/software/g16/l303.exe)
 DipDrv:  MaxL=1.
 Leave Link  303 at Sat Dec 17 23:20:25 2022, MaxMem=  6710886400 cpu:               0.9 elap:               0.1
 (Enter /data0/home/software/g16/l401.exe)
 ExpMin= 4.38D-02 ExpMax= 8.59D+03 ExpMxC= 1.30D+03 IAcc=3 IRadAn=         5 AccDes= 0.00D+00
 Harris functional with IExCor= 1009 and IRadAn=       5 diagonalized for initial guess.
 HarFok:  IExCor= 1009 AccDes= 0.00D+00 IRadAn=         5 IDoV= 1 UseB2=F ITyADJ=14
 ICtDFT=  3500011 ScaDFX=  1.000000  1.000000  1.000000  1.000000
 FoFCou: FMM=F IPFlag=           0 FMFlag=      100000 FMFlg1=           0
         NFxFlg=           0 DoJE=T BraDBF=F KetDBF=T FulRan=T
         wScrn=  0.000000 ICntrl=       500 IOpCl=  0 I1Cent=   200000004 NGrid=           0
         NMat0=    1 NMatS0=      1 NMatT0=    0 NMatD0=    1 NMtDS0=    0 NMtDT0=    0
 Symmetry not used in FoFCou.
 Harris En= -608.862093893319    
 JPrj=0 DoOrth=F DoCkMO=F.
 Leave Link  401 at Sat Dec 17 23:20:26 2022, MaxMem=  6710886400 cpu:              28.0 elap:               1.2
 (Enter /data0/home/software/g16/l502.exe)
 Two-electron integral symmetry not used.
 Closed shell SCF:
 Using DIIS extrapolation, IDIIS=  1040.
 NGot=  6710886400 LenX=  6710520552 LenY=  6710343711
 Requested convergence on RMS density matrix=1.00D-08 within 128 cycles.
 Requested convergence on MAX density matrix=1.00D-06.
 Requested convergence on             energy=1.00D-06.
 No special actions if energy rises.
 Fock matrices will be formed incrementally for  20 cycles.

 Cycle   1  Pass 1  IDiag  1:
 FoFJK:  IHMeth= 1 ICntrl=       0 DoSepK=F KAlg= 0 I1Cent=           0 FoldK=F
 IRaf= 910000000 NMat=       1 IRICut=       1 DoRegI=T DoRafI=F ISym2E= 0 IDoP0=0 IntGTp=1.
 FoFCou: FMM=F IPFlag=           0 FMFlag=      100000 FMFlg1=           0
         NFxFlg=           0 DoJE=F BraDBF=F KetDBF=F FulRan=T
         wScrn=  0.000000 ICntrl=         0 IOpCl=  0 I1Cent=           0 NGrid=           0
         NMat0=    1 NMatS0=      1 NMatT0=    0 NMatD0=    1 NMtDS0=    0 NMtDT0=    0
 Symmetry not used in FoFCou.
 E= -608.728459625933    
 DIIS: error= 2.82D-02 at cycle   1 NSaved=   1.
 NSaved= 1 IEnMin= 1 EnMin= -608.728459625933     IErMin= 1 ErrMin= 2.82D-02
 ErrMax= 2.82D-02  0.00D+00 EMaxC= 1.00D-01 BMatC= 5.63D-01 BMatP= 5.63D-01
 IDIUse=3 WtCom= 7.18D-01 WtEn= 2.82D-01
 Coeff-Com:  0.100D+01
 Coeff-En:   0.100D+01
 Coeff:      0.100D+01
 Gap=     0.306 Goal=   None    Shift=    0.000
 GapD=    0.306 DampG=1.000 DampE=0.500 DampFc=0.5000 IDamp=-1.
 Damping current iteration by 5.00D-01
 RMSDP=8.07D-02 MaxDP=1.29D+01              OVMax= 1.97D-01

 Cycle   2  Pass 1  IDiag  1:
 RMSU=  3.18D-02    CP:  1.87D+00
 E= -608.907230225839     Delta-E=       -0.178770599906 Rises=F Damp=T
 DIIS: error= 6.11D-03 at cycle   2 NSaved=   2.
 NSaved= 2 IEnMin= 2 EnMin= -608.907230225839     IErMin= 2 ErrMin= 6.11D-03
 ErrMax= 6.11D-03  0.00D+00 EMaxC= 1.00D-01 BMatC= 3.80D-02 BMatP= 5.63D-01
 IDIUse=3 WtCom= 9.39D-01 WtEn= 6.11D-02
 Coeff-Com: -0.773D-02 0.101D+01
 Coeff-En:   0.422D-01 0.958D+00
 Coeff:     -0.468D-02 0.100D+01
 Gap=     0.283 Goal=   None    Shift=    0.000
 RMSDP=1.80D-02 MaxDP=2.81D+00 DE=-1.79D-01 OVMax= 1.57D-01

 Cycle   3  Pass 1  IDiag  1:
 RMSU=  8.25D-03    CP:  1.46D+00  6.58D-01
 E= -609.105108147640     Delta-E=       -0.197877921800 Rises=F Damp=F
 DIIS: error= 4.75D-03 at cycle   3 NSaved=   3.
 NSaved= 3 IEnMin= 3 EnMin= -609.105108147640     IErMin= 3 ErrMin= 4.75D-03
 ErrMax= 4.75D-03  0.00D+00 EMaxC= 1.00D-01 BMatC= 1.27D-02 BMatP= 3.80D-02
 IDIUse=3 WtCom= 9.53D-01 WtEn= 4.75D-02
 Coeff-Com: -0.671D-01 0.348D+00 0.720D+00
 Coeff-En:   0.000D+00 0.000D+00 0.100D+01
 Coeff:     -0.639D-01 0.331D+00 0.733D+00
 Gap=     0.272 Goal=   None    Shift=    0.000
 RMSDP=3.52D-03 MaxDP=4.93D-01 DE=-1.98D-01 OVMax= 5.06D-02

 Cycle   4  Pass 1  IDiag  1:
 RMSU=  1.12D-03    CP:  1.51D+00  7.52D-01  9.53D-01
 E= -609.112556995301     Delta-E=       -0.007448847661 Rises=F Damp=F
 DIIS: error= 2.78D-03 at cycle   4 NSaved=   4.
 NSaved= 4 IEnMin= 4 EnMin= -609.112556995301     IErMin= 4 ErrMin= 2.78D-03
 ErrMax= 2.78D-03  0.00D+00 EMaxC= 1.00D-01 BMatC= 3.84D-03 BMatP= 1.27D-02
 IDIUse=3 WtCom= 9.72D-01 WtEn= 2.78D-02
 Coeff-Com: -0.356D-01 0.101D+00 0.412D+00 0.522D+00
 Coeff-En:   0.000D+00 0.000D+00 0.229D+00 0.771D+00
 Coeff:     -0.346D-01 0.987D-01 0.407D+00 0.529D+00
 Gap=     0.271 Goal=   None    Shift=    0.000
 RMSDP=1.21D-03 MaxDP=2.39D-01 DE=-7.45D-03 OVMax= 2.04D-02

 Cycle   5  Pass 1  IDiag  1:
 RMSU=  4.30D-04    CP:  1.48D+00  7.26D-01  9.34D-01  7.48D-01
 E= -609.115796163614     Delta-E=       -0.003239168313 Rises=F Damp=F
 DIIS: error= 4.93D-04 at cycle   5 NSaved=   5.
 NSaved= 5 IEnMin= 5 EnMin= -609.115796163614     IErMin= 5 ErrMin= 4.93D-04
 ErrMax= 4.93D-04  0.00D+00 EMaxC= 1.00D-01 BMatC= 1.92D-04 BMatP= 3.84D-03
 IDIUse=3 WtCom= 9.95D-01 WtEn= 4.93D-03
 Coeff-Com: -0.122D-01 0.252D-01 0.150D+00 0.261D+00 0.576D+00
 Coeff-En:   0.000D+00 0.000D+00 0.000D+00 0.000D+00 0.100D+01
 Coeff:     -0.122D-01 0.251D-01 0.150D+00 0.260D+00 0.578D+00
 Gap=     0.269 Goal=   None    Shift=    0.000
 RMSDP=1.58D-04 MaxDP=2.44D-02 DE=-3.24D-03 OVMax= 4.51D-03

 Cycle   6  Pass 1  IDiag  1:
 RMSU=  1.20D-04    CP:  1.48D+00  7.25D-01  9.43D-01  7.28D-01  8.79D-01
 E= -609.115963242033     Delta-E=       -0.000167078420 Rises=F Damp=F
 DIIS: error= 1.36D-04 at cycle   6 NSaved=   6.
 NSaved= 6 IEnMin= 6 EnMin= -609.115963242033     IErMin= 6 ErrMin= 1.36D-04
 ErrMax= 1.36D-04  0.00D+00 EMaxC= 1.00D-01 BMatC= 1.06D-05 BMatP= 1.92D-04
 IDIUse=3 WtCom= 9.99D-01 WtEn= 1.36D-03
 Coeff-Com: -0.191D-02 0.196D-02 0.275D-01 0.575D-01 0.236D+00 0.678D+00
 Coeff-En:   0.000D+00 0.000D+00 0.000D+00 0.000D+00 0.000D+00 0.100D+01
 Coeff:     -0.190D-02 0.196D-02 0.275D-01 0.575D-01 0.236D+00 0.679D+00
 Gap=     0.269 Goal=   None    Shift=    0.000
 RMSDP=8.57D-05 MaxDP=1.62D-02 DE=-1.67D-04 OVMax= 1.45D-03

 Cycle   7  Pass 1  IDiag  1:
 RMSU=  3.10D-05    CP:  1.48D+00  7.23D-01  9.41D-01  7.33D-01  8.97D-01
                    CP:  9.08D-01
 E= -609.115973508928     Delta-E=       -0.000010266895 Rises=F Damp=F
 DIIS: error= 4.09D-05 at cycle   7 NSaved=   7.
 NSaved= 7 IEnMin= 7 EnMin= -609.115973508928     IErMin= 7 ErrMin= 4.09D-05
 ErrMax= 4.09D-05  0.00D+00 EMaxC= 1.00D-01 BMatC= 9.44D-07 BMatP= 1.06D-05
 IDIUse=1 WtCom= 1.00D+00 WtEn= 0.00D+00
 Coeff-Com:  0.476D-03-0.165D-02-0.304D-02-0.446D-02 0.343D-01 0.236D+00
 Coeff-Com:  0.739D+00
 Coeff:      0.476D-03-0.165D-02-0.304D-02-0.446D-02 0.343D-01 0.236D+00
 Coeff:      0.739D+00
 Gap=     0.270 Goal=   None    Shift=    0.000
 RMSDP=8.90D-05 MaxDP=1.57D-02 DE=-1.03D-05 OVMax= 5.92D-04

 Cycle   8  Pass 1  IDiag  1:
 RMSU=  1.40D-05    CP:  1.48D+00  7.21D-01  9.40D-01  7.33D-01  9.06D-01
                    CP:  9.10D-01  1.14D+00
 E= -609.115974627911     Delta-E=       -0.000001118983 Rises=F Damp=F
 DIIS: error= 2.20D-05 at cycle   8 NSaved=   8.
 NSaved= 8 IEnMin= 8 EnMin= -609.115974627911     IErMin= 8 ErrMin= 2.20D-05
 ErrMax= 2.20D-05  0.00D+00 EMaxC= 1.00D-01 BMatC= 2.37D-07 BMatP= 9.44D-07
 IDIUse=1 WtCom= 1.00D+00 WtEn= 0.00D+00
 Coeff-Com:  0.610D-03-0.122D-02-0.638D-02-0.134D-01-0.259D-01-0.165D-01
 Coeff-Com:  0.358D+00 0.704D+00
 Coeff:      0.610D-03-0.122D-02-0.638D-02-0.134D-01-0.259D-01-0.165D-01
 Coeff:      0.358D+00 0.704D+00
 Gap=     0.270 Goal=   None    Shift=    0.000
 RMSDP=3.08D-05 MaxDP=5.51D-03 DE=-1.12D-06 OVMax= 3.33D-04

 Cycle   9  Pass 1  IDiag  1:
 RMSU=  4.18D-06    CP:  1.48D+00  7.20D-01  9.40D-01  7.31D-01  9.11D-01
                    CP:  9.29D-01  1.21D+00  9.39D-01
 E= -609.115974958906     Delta-E=       -0.000000330995 Rises=F Damp=F
 DIIS: error= 7.11D-06 at cycle   9 NSaved=   9.
 NSaved= 9 IEnMin= 9 EnMin= -609.115974958906     IErMin= 9 ErrMin= 7.11D-06
 ErrMax= 7.11D-06  0.00D+00 EMaxC= 1.00D-01 BMatC= 1.03D-08 BMatP= 2.37D-07
 IDIUse=1 WtCom= 1.00D+00 WtEn= 0.00D+00
 Coeff-Com:  0.694D-04-0.106D-03-0.831D-03-0.221D-02-0.585D-02-0.191D-01
 Coeff-Com:  0.634D-02 0.137D+00 0.885D+00
 Coeff:      0.694D-04-0.106D-03-0.831D-03-0.221D-02-0.585D-02-0.191D-01
 Coeff:      0.634D-02 0.137D+00 0.885D+00
 Gap=     0.270 Goal=   None    Shift=    0.000
 RMSDP=2.50D-06 MaxDP=2.30D-04 DE=-3.31D-07 OVMax= 9.82D-05

 Cycle  10  Pass 1  IDiag  1:
 RMSU=  1.78D-06    CP:  1.48D+00  7.20D-01  9.40D-01  7.30D-01  9.13D-01
                    CP:  9.32D-01  1.21D+00  9.68D-01  1.14D+00
 E= -609.115974980326     Delta-E=       -0.000000021420 Rises=F Damp=F
 DIIS: error= 2.75D-06 at cycle  10 NSaved=  10.
 NSaved=10 IEnMin=10 EnMin= -609.115974980326     IErMin=10 ErrMin= 2.75D-06
 ErrMax= 2.75D-06  0.00D+00 EMaxC= 1.00D-01 BMatC= 4.34D-09 BMatP= 1.03D-08
 IDIUse=1 WtCom= 1.00D+00 WtEn= 0.00D+00
 Coeff-Com: -0.718D-04 0.160D-03 0.718D-03 0.115D-02 0.176D-02-0.668D-02
 Coeff-Com: -0.604D-01-0.466D-01 0.463D+00 0.647D+00
 Coeff:     -0.718D-04 0.160D-03 0.718D-03 0.115D-02 0.176D-02-0.668D-02
 Coeff:     -0.604D-01-0.466D-01 0.463D+00 0.647D+00
 Gap=     0.270 Goal=   None    Shift=    0.000
 RMSDP=2.84D-06 MaxDP=3.93D-04 DE=-2.14D-08 OVMax= 4.87D-05

 Cycle  11  Pass 1  IDiag  1:
 RMSU=  5.79D-07    CP:  1.48D+00  7.20D-01  9.40D-01  7.30D-01  9.13D-01
                    CP:  9.29D-01  1.21D+00  9.99D-01  1.25D+00  1.18D+00
 E= -609.115974986716     Delta-E=       -0.000000006390 Rises=F Damp=F
 DIIS: error= 1.18D-06 at cycle  11 NSaved=  11.
 NSaved=11 IEnMin=11 EnMin= -609.115974986716     IErMin=11 ErrMin= 1.18D-06
 ErrMax= 1.18D-06  0.00D+00 EMaxC= 1.00D-01 BMatC= 2.27D-10 BMatP= 4.34D-09
 IDIUse=1 WtCom= 1.00D+00 WtEn= 0.00D+00
 Coeff-Com: -0.230D-04 0.466D-04 0.269D-03 0.518D-03 0.109D-02 0.488D-03
 Coeff-Com: -0.176D-01-0.284D-01-0.854D-02 0.153D+00 0.899D+00
 Coeff:     -0.230D-04 0.466D-04 0.269D-03 0.518D-03 0.109D-02 0.488D-03
 Coeff:     -0.176D-01-0.284D-01-0.854D-02 0.153D+00 0.899D+00
 Gap=     0.270 Goal=   None    Shift=    0.000
 RMSDP=6.66D-07 MaxDP=1.18D-04 DE=-6.39D-09 OVMax= 2.03D-05

 Cycle  12  Pass 1  IDiag  1:
 RMSU=  2.27D-07    CP:  1.48D+00  7.20D-01  9.40D-01  7.30D-01  9.13D-01
                    CP:  9.29D-01  1.21D+00  1.01D+00  1.28D+00  1.26D+00
                    CP:  1.11D+00
 E= -609.115974987384     Delta-E=       -0.000000000668 Rises=F Damp=F
 DIIS: error= 3.21D-07 at cycle  12 NSaved=  12.
 NSaved=12 IEnMin=12 EnMin= -609.115974987384     IErMin=12 ErrMin= 3.21D-07
 ErrMax= 3.21D-07  0.00D+00 EMaxC= 1.00D-01 BMatC= 3.08D-11 BMatP= 2.27D-10
 IDIUse=1 WtCom= 1.00D+00 WtEn= 0.00D+00
 Coeff-Com:  0.183D-05-0.427D-05 0.154D-05 0.270D-04 0.102D-03 0.927D-03
 Coeff-Com:  0.149D-02-0.321D-02-0.515D-01-0.273D-01 0.268D+00 0.811D+00
 Coeff:      0.183D-05-0.427D-05 0.154D-05 0.270D-04 0.102D-03 0.927D-03
 Coeff:      0.149D-02-0.321D-02-0.515D-01-0.273D-01 0.268D+00 0.811D+00
 Gap=     0.270 Goal=   None    Shift=    0.000
 RMSDP=4.98D-07 MaxDP=6.53D-05 DE=-6.68D-10 OVMax= 6.10D-06

 Cycle  13  Pass 1  IDiag  1:
 RMSU=  8.49D-08    CP:  1.48D+00  7.20D-01  9.40D-01  7.30D-01  9.13D-01
                    CP:  9.29D-01  1.21D+00  1.01D+00  1.27D+00  1.32D+00
                    CP:  1.20D+00  1.16D+00
 E= -609.115974987481     Delta-E=       -0.000000000097 Rises=F Damp=F
 DIIS: error= 1.41D-07 at cycle  13 NSaved=  13.
 NSaved=13 IEnMin=13 EnMin= -609.115974987481     IErMin=13 ErrMin= 1.41D-07
 ErrMax= 1.41D-07  0.00D+00 EMaxC= 1.00D-01 BMatC= 9.42D-12 BMatP= 3.08D-11
 IDIUse=1 WtCom= 1.00D+00 WtEn= 0.00D+00
 Coeff-Com:  0.470D-05-0.986D-05-0.423D-04-0.663D-04-0.134D-03 0.423D-03
 Coeff-Com:  0.366D-02 0.298D-02-0.233D-01-0.400D-01-0.149D-01 0.407D+00
 Coeff-Com:  0.664D+00
 Coeff:      0.470D-05-0.986D-05-0.423D-04-0.663D-04-0.134D-03 0.423D-03
 Coeff:      0.366D-02 0.298D-02-0.233D-01-0.400D-01-0.149D-01 0.407D+00
 Coeff:      0.664D+00
 Gap=     0.270 Goal=   None    Shift=    0.000
 RMSDP=7.20D-08 MaxDP=1.11D-05 DE=-9.66D-11 OVMax= 2.43D-06

 Cycle  14  Pass 1  IDiag  1:
 RMSU=  3.30D-08    CP:  1.48D+00  7.20D-01  9.40D-01  7.30D-01  9.13D-01
                    CP:  9.29D-01  1.21D+00  1.01D+00  1.27D+00  1.33D+00
                    CP:  1.24D+00  1.33D+00  9.91D-01
 E= -609.115974987441     Delta-E=        0.000000000040 Rises=F Damp=F
 DIIS: error= 3.85D-08 at cycle  14 NSaved=  14.
 NSaved=14 IEnMin=13 EnMin= -609.115974987481     IErMin=14 ErrMin= 3.85D-08
 ErrMax= 3.85D-08  0.00D+00 EMaxC= 1.00D-01 BMatC= 4.82D-13 BMatP= 9.42D-12
 IDIUse=1 WtCom= 1.00D+00 WtEn= 0.00D+00
 Coeff-Com:  0.624D-06-0.140D-05-0.844D-05-0.132D-04-0.430D-04 0.204D-05
 Coeff-Com:  0.534D-03 0.887D-03 0.177D-02-0.505D-02-0.349D-01-0.226D-01
 Coeff-Com:  0.128D+00 0.932D+00
 Coeff:      0.624D-06-0.140D-05-0.844D-05-0.132D-04-0.430D-04 0.204D-05
 Coeff:      0.534D-03 0.887D-03 0.177D-02-0.505D-02-0.349D-01-0.226D-01
 Coeff:      0.128D+00 0.932D+00
 Gap=     0.270 Goal=   None    Shift=    0.000
 RMSDP=4.16D-08 MaxDP=4.72D-06 DE= 4.00D-11 OVMax= 7.98D-07

 Cycle  15  Pass 1  IDiag  1:
 RMSU=  8.85D-09    CP:  1.48D+00  7.20D-01  9.40D-01  7.30D-01  9.13D-01
                    CP:  9.29D-01  1.21D+00  1.01D+00  1.27D+00  1.33D+00
                    CP:  1.24D+00  1.39D+00  1.11D+00  1.09D+00
 E= -609.115974987479     Delta-E=       -0.000000000038 Rises=F Damp=F
 DIIS: error= 1.46D-08 at cycle  15 NSaved=  15.
 NSaved=15 IEnMin=13 EnMin= -609.115974987481     IErMin=15 ErrMin= 1.46D-08
 ErrMax= 1.46D-08  0.00D+00 EMaxC= 1.00D-01 BMatC= 1.00D-13 BMatP= 4.82D-13
 IDIUse=1 WtCom= 1.00D+00 WtEn= 0.00D+00
 Coeff-Com: -0.199D-06 0.361D-06 0.173D-06 0.932D-06-0.719D-05-0.372D-04
 Coeff-Com: -0.119D-03 0.936D-04 0.286D-02 0.152D-02-0.118D-01-0.482D-01
 Coeff-Com: -0.925D-02 0.391D+00 0.674D+00
 Coeff:     -0.199D-06 0.361D-06 0.173D-06 0.932D-06-0.719D-05-0.372D-04
 Coeff:     -0.119D-03 0.936D-04 0.286D-02 0.152D-02-0.118D-01-0.482D-01
 Coeff:     -0.925D-02 0.391D+00 0.674D+00
 Gap=     0.270 Goal=   None    Shift=    0.000
 RMSDP=1.30D-08 MaxDP=1.99D-06 DE=-3.82D-11 OVMax= 2.12D-07

 Cycle  16  Pass 1  IDiag  1:
 RMSU=  2.80D-09    CP:  1.48D+00  7.20D-01  9.40D-01  7.30D-01  9.13D-01
                    CP:  9.29D-01  1.21D+00  1.01D+00  1.27D+00  1.33D+00
                    CP:  1.25D+00  1.39D+00  1.12D+00  1.12D+00  1.09D+00
 E= -609.115974987504     Delta-E=       -0.000000000025 Rises=F Damp=F
 DIIS: error= 4.67D-09 at cycle  16 NSaved=  16.
 NSaved=16 IEnMin=16 EnMin= -609.115974987504     IErMin=16 ErrMin= 4.67D-09
 ErrMax= 4.67D-09  0.00D+00 EMaxC= 1.00D-01 BMatC= 1.09D-14 BMatP= 1.00D-13
 IDIUse=1 WtCom= 1.00D+00 WtEn= 0.00D+00
 Coeff-Com: -0.149D-06 0.300D-06 0.834D-06 0.184D-05 0.115D-05-0.152D-04
 Coeff-Com: -0.104D-03-0.563D-04 0.853D-03 0.107D-02-0.261D-03-0.169D-01
 Coeff-Com: -0.194D-01 0.335D-01 0.243D+00 0.758D+00
 Coeff:     -0.149D-06 0.300D-06 0.834D-06 0.184D-05 0.115D-05-0.152D-04
 Coeff:     -0.104D-03-0.563D-04 0.853D-03 0.107D-02-0.261D-03-0.169D-01
 Coeff:     -0.194D-01 0.335D-01 0.243D+00 0.758D+00
 Gap=     0.270 Goal=   None    Shift=    0.000
 RMSDP=2.31D-09 MaxDP=1.77D-07 DE=-2.50D-11 OVMax= 7.53D-08

 SCF Done:  E(RM062X) =  -609.115974988     A.U. after   16 cycles
            NFock= 16  Conv=0.23D-08     -V/T= 2.0041
 KE= 6.066567278897D+02 PE=-2.867852831501D+03 EE= 9.308250319016D+02
 Leave Link  502 at Sat Dec 17 23:21:22 2022, MaxMem=  6710886400 cpu:            1354.4 elap:              56.6
 (Enter /data0/home/software/g16/l601.exe)
 Copying SCF densities to generalized density rwf, IOpCl= 0 IROHF=0.

 **********************************************************************

            Population analysis using the SCF density.

 **********************************************************************

 Alpha  occ. eigenvalues --  -19.68492 -19.64290 -19.58576 -14.79398 -14.73541
 Alpha  occ. eigenvalues --  -10.61413 -10.58019 -10.56484 -10.54622 -10.54181
 Alpha  occ. eigenvalues --  -10.54140 -10.53827  -1.19470  -1.15808  -1.11140
 Alpha  occ. eigenvalues --   -1.09639  -0.97050  -0.94683  -0.83957  -0.82771
 Alpha  occ. eigenvalues --   -0.71287  -0.69888  -0.67569  -0.66719  -0.63788
 Alpha  occ. eigenvalues --   -0.61877  -0.58135  -0.56614  -0.55421  -0.54323
 Alpha  occ. eigenvalues --   -0.51605  -0.50890  -0.50253  -0.49202  -0.47874
 Alpha  occ. eigenvalues --   -0.46497  -0.43340  -0.42752  -0.42484  -0.41311
 Alpha  occ. eigenvalues --   -0.40618  -0.36859  -0.36220  -0.33733  -0.28210
 Alpha  occ. eigenvalues --   -0.27643
 Alpha virt. eigenvalues --   -0.00679   0.00480   0.02266   0.02792   0.03375
 Alpha virt. eigenvalues --    0.04017   0.04412   0.04997   0.05813   0.05940
 Alpha virt. eigenvalues --    0.07262   0.07996   0.08261   0.08879   0.09706
 Alpha virt. eigenvalues --    0.10142   0.11318   0.12220   0.13036   0.13446
 Alpha virt. eigenvalues --    0.13735   0.14807   0.15183   0.15871   0.16039
 Alpha virt. eigenvalues --    0.16554   0.17575   0.17703   0.18117   0.18536
 Alpha virt. eigenvalues --    0.19255   0.19560   0.20170   0.20724   0.20999
 Alpha virt. eigenvalues --    0.21606   0.21821   0.22062   0.23274   0.23667
 Alpha virt. eigenvalues --    0.23837   0.24315   0.25031   0.25490   0.25621
 Alpha virt. eigenvalues --    0.26160   0.26428   0.26767   0.27074   0.27534
 Alpha virt. eigenvalues --    0.27862   0.28224   0.29277   0.30133   0.30430
 Alpha virt. eigenvalues --    0.30691   0.31293   0.32090   0.32443   0.32865
 Alpha virt. eigenvalues --    0.34432   0.35923   0.36617   0.37733   0.38679
 Alpha virt. eigenvalues --    0.39620   0.41391   0.42248   0.44541   0.45683
 Alpha virt. eigenvalues --    0.46984   0.48779   0.50056   0.51225   0.53646
 Alpha virt. eigenvalues --    0.54262   0.55514   0.56450   0.57034   0.57274
 Alpha virt. eigenvalues --    0.57681   0.58809   0.59221   0.60420   0.61373
 Alpha virt. eigenvalues --    0.62710   0.64772   0.65815   0.66470   0.66833
 Alpha virt. eigenvalues --    0.67587   0.68514   0.68834   0.69989   0.70877
 Alpha virt. eigenvalues --    0.71905   0.72548   0.73890   0.74335   0.74496
 Alpha virt. eigenvalues --    0.75638   0.76573   0.78221   0.79616   0.79804
 Alpha virt. eigenvalues --    0.82108   0.83806   0.84330   0.85137   0.85802
 Alpha virt. eigenvalues --    0.86174   0.86915   0.87453   0.88241   0.89237
 Alpha virt. eigenvalues --    0.89701   0.90452   0.92206   0.93415   0.94323
 Alpha virt. eigenvalues --    0.95219   0.96633   0.97680   0.99181   0.99550
 Alpha virt. eigenvalues --    1.01137   1.02695   1.06176   1.07400   1.08669
 Alpha virt. eigenvalues --    1.10962   1.11173   1.12215   1.12574   1.12963
 Alpha virt. eigenvalues --    1.14998   1.15928   1.17137   1.18524   1.18934
 Alpha virt. eigenvalues --    1.20062   1.21156   1.21727   1.23610   1.23866
 Alpha virt. eigenvalues --    1.24786   1.26678   1.27668   1.29134   1.30907
 Alpha virt. eigenvalues --    1.32216   1.33879   1.35472   1.36182   1.36370
 Alpha virt. eigenvalues --    1.37475   1.39610   1.39924   1.40824   1.42537
 Alpha virt. eigenvalues --    1.43789   1.45263   1.45987   1.47225   1.48410
 Alpha virt. eigenvalues --    1.49221   1.51874   1.52794   1.55370   1.58151
 Alpha virt. eigenvalues --    1.59383   1.60016   1.61243   1.63297   1.63942
 Alpha virt. eigenvalues --    1.64577   1.68929   1.69031   1.70291   1.71094
 Alpha virt. eigenvalues --    1.72039   1.74357   1.75162   1.76828   1.77128
 Alpha virt. eigenvalues --    1.78778   1.80419   1.83463   1.88149   1.89589
 Alpha virt. eigenvalues --    1.90863   1.92663   1.93584   1.97554   1.98486
 Alpha virt. eigenvalues --    1.99812   2.00456   2.01853   2.03037   2.06477
 Alpha virt. eigenvalues --    2.06891   2.10048   2.11324   2.14518   2.18404
 Alpha virt. eigenvalues --    2.20390   2.20717   2.26692   2.30580   2.32079
 Alpha virt. eigenvalues --    2.34367   2.36992   2.37820   2.40803   2.46576
 Alpha virt. eigenvalues --    2.48191   2.51563   2.52937   2.54917   2.60125
 Alpha virt. eigenvalues --    2.61555   2.63315   2.64529   2.65981   2.66871
 Alpha virt. eigenvalues --    2.68705   2.72295   2.73366   2.78785   2.79658
 Alpha virt. eigenvalues --    2.80659   2.83239   2.84588   2.86254   2.88775
 Alpha virt. eigenvalues --    2.91317   2.91795   2.92949   2.94563   2.96194
 Alpha virt. eigenvalues --    2.97450   2.99195   3.00838   3.05027   3.09953
 Alpha virt. eigenvalues --    3.11982   3.13802   3.15723   3.17129   3.18246
 Alpha virt. eigenvalues --    3.20789   3.24448   3.27064   3.30177   3.30534
 Alpha virt. eigenvalues --    3.31393   3.31640   3.34907   3.36855   3.39083
 Alpha virt. eigenvalues --    3.40067   3.41211   3.42478   3.44427   3.47394
 Alpha virt. eigenvalues --    3.49355   3.50269   3.51710   3.54655   3.57457
 Alpha virt. eigenvalues --    3.59583   3.59833   3.61219   3.62609   3.63985
 Alpha virt. eigenvalues --    3.65883   3.67990   3.73384   3.74898   3.75441
 Alpha virt. eigenvalues --    3.78628   3.79807   3.84570   3.88343   3.93592
 Alpha virt. eigenvalues --    3.95138   3.96862   3.97146   4.01073   4.02916
 Alpha virt. eigenvalues --    4.04006   4.05296   4.09997   4.11189   4.26209
 Alpha virt. eigenvalues --    4.44822   4.58565   4.66842   4.72447   4.75980
 Alpha virt. eigenvalues --    4.92837   5.00139   5.02855   5.04648   5.06150
 Alpha virt. eigenvalues --    5.11604   5.13233   5.15085   5.15859   5.20827
 Alpha virt. eigenvalues --    5.24246   5.29971   5.34182   5.43824   5.46802
 Alpha virt. eigenvalues --    5.51567   5.57208   5.60281   5.63004   5.67184
 Alpha virt. eigenvalues --    5.88225   5.97441   6.02637   6.75628   6.78741
 Alpha virt. eigenvalues --    6.81174   6.83883   6.84594   6.85872   6.87035
 Alpha virt. eigenvalues --    6.88562   6.93158   6.96701   6.96804   6.99374
 Alpha virt. eigenvalues --    7.06566   7.15970   7.19747  23.81256  24.04079
 Alpha virt. eigenvalues --   24.07735  24.12920  24.14093  24.26124  24.28803
 Alpha virt. eigenvalues --   35.75645  35.82764  49.98005  50.03171  50.06382
          Condensed to atoms (all electrons):
               1          2          3          4          5          6
     1  C   24.725885  -8.915574   1.624871  -3.031847   2.239286 -10.063586
     2  C   -8.915574  16.002401  -4.679769   1.958751  -2.065137   2.507081
     3  C    1.624871  -4.679769  13.791066  -1.333153   1.910297  -4.169849
     4  C   -3.031847   1.958751  -1.333153   6.399514  -0.480571   2.256422
     5  C    2.239286  -2.065137   1.910297  -0.480571   6.316696  -1.962893
     6  C  -10.063586   2.507081  -4.169849   2.256422  -1.962893  17.026850
     7  H    0.017461  -0.008194   0.364271  -0.024160   0.011277  -0.013729
     8  H   -0.002272   0.034347  -0.051734   0.397142  -0.043433   0.013754
     9  H    0.052695  -0.002447   0.010416  -0.039885   0.397038  -0.068571
    10  H    0.063090  -0.030312  -0.002615   0.005684   0.008797   0.314181
    11  H    0.070622   0.062428   0.014831  -0.005935   0.000640  -0.146079
    12  C   -0.519552   0.143477  -0.058116  -0.013737  -0.004827  -0.135985
    13  H   -0.013413   0.035622   0.033661  -0.001062   0.002227  -0.007719
    14  N   -1.213384   0.607195  -0.231375   0.119778  -0.121740   0.616608
    15  N    0.940604   0.063680  -0.890907  -0.064477  -0.010450   0.085097
    16  O    0.052542  -0.025742   0.059803   0.034231  -0.004781  -0.060179
    17  H    0.065622  -0.069154   0.055611  -0.040074   0.018114  -0.052539
    18  H    0.063760  -0.039425   0.016120  -0.018475   0.012227  -0.025902
    19  O   -0.050502  -0.027087   0.007898   0.001327   0.003067   0.073090
    20  H    0.010860   0.000053   0.001686  -0.000688   0.000104  -0.011212
    21  H   -0.014874   0.004455  -0.007552   0.001949  -0.002228   0.009837
    22  O   -0.204671   0.001750  -0.011480   0.012605  -0.030331   0.239976
    23  H   -0.008092  -0.002622  -0.004700   0.001662   0.001047   0.011380
    24  H   -0.003357   0.006717   0.000272  -0.000484   0.002926  -0.007421
               7          8          9         10         11         12
     1  C    0.017461  -0.002272   0.052695   0.063090   0.070622  -0.519552
     2  C   -0.008194   0.034347  -0.002447  -0.030312   0.062428   0.143477
     3  C    0.364271  -0.051734   0.010416  -0.002615   0.014831  -0.058116
     4  C   -0.024160   0.397142  -0.039885   0.005684  -0.005935  -0.013737
     5  C    0.011277  -0.043433   0.397038   0.008797   0.000640  -0.004827
     6  C   -0.013729   0.013754  -0.068571   0.314181  -0.146079  -0.135985
     7  H    0.516357  -0.005090  -0.000221   0.000075   0.000021   0.000043
     8  H   -0.005090   0.538055  -0.005330  -0.000237  -0.000001   0.000829
     9  H   -0.000221  -0.005330   0.537390  -0.004542   0.000013   0.000480
    10  H    0.000075  -0.000237  -0.004542   0.502094   0.001346  -0.000171
    11  H    0.000021  -0.000001   0.000013   0.001346   0.379088  -0.001770
    12  C    0.000043   0.000829   0.000480  -0.000171  -0.001770   5.290232
    13  H   -0.000034  -0.000000  -0.000000  -0.000011  -0.001289   0.422775
    14  N   -0.000857   0.000433  -0.000860  -0.010629   0.326783   0.361729
    15  N    0.005168  -0.000151   0.000212   0.000305  -0.005518   0.388268
    16  O    0.000046  -0.000058  -0.000442  -0.000152   0.000683  -0.005178
    17  H   -0.000133   0.000119  -0.000017  -0.000192  -0.000100  -0.000159
    18  H   -0.000002   0.000005  -0.000002  -0.000080  -0.000229   0.002262
    19  O   -0.000006   0.000002  -0.000022  -0.000043  -0.002851  -0.007969
    20  H   -0.000000   0.000000   0.000001  -0.000005   0.000265   0.002126
    21  H    0.000001  -0.000000   0.000001  -0.000037   0.000451   0.008180
    22  O   -0.000005  -0.000002   0.000060  -0.005506  -0.054964  -0.016048
    23  H    0.000001  -0.000001   0.000001  -0.000281   0.005154  -0.000579
    24  H    0.000000  -0.000000  -0.000001   0.000483   0.000937   0.000350
              13         14         15         16         17         18
     1  C   -0.013413  -1.213384   0.940604   0.052542   0.065622   0.063760
     2  C    0.035622   0.607195   0.063680  -0.025742  -0.069154  -0.039425
     3  C    0.033661  -0.231375  -0.890907   0.059803   0.055611   0.016120
     4  C   -0.001062   0.119778  -0.064477   0.034231  -0.040074  -0.018475
     5  C    0.002227  -0.121740  -0.010450  -0.004781   0.018114   0.012227
     6  C   -0.007719   0.616608   0.085097  -0.060179  -0.052539  -0.025902
     7  H   -0.000034  -0.000857   0.005168   0.000046  -0.000133  -0.000002
     8  H   -0.000000   0.000433  -0.000151  -0.000058   0.000119   0.000005
     9  H   -0.000000  -0.000860   0.000212  -0.000442  -0.000017  -0.000002
    10  H   -0.000011  -0.010629   0.000305  -0.000152  -0.000192  -0.000080
    11  H   -0.001289   0.326783  -0.005518   0.000683  -0.000100  -0.000229
    12  C    0.422775   0.361729   0.388268  -0.005178  -0.000159   0.002262
    13  H    0.505890  -0.058025  -0.063185   0.000010   0.000000  -0.000003
    14  N   -0.058025   6.940333  -0.031402  -0.015158   0.001114  -0.001148
    15  N   -0.063185  -0.031402   6.912317  -0.006311   0.000396   0.001592
    16  O    0.000010  -0.015158  -0.006311   7.954096   0.314446   0.301915
    17  H    0.000000   0.001114   0.000396   0.314446   0.395482  -0.027882
    18  H   -0.000003  -0.001148   0.001592   0.301915  -0.027882   0.394099
    19  O   -0.000077   0.019904  -0.001701   0.001691   0.001637   0.002498
    20  H   -0.000001  -0.001987   0.000014  -0.000250   0.000228  -0.000272
    21  H   -0.000026   0.001059   0.000055  -0.003535  -0.000089  -0.006924
    22  O    0.000033   0.003814  -0.000412   0.000166   0.000024  -0.000872
    23  H    0.000011   0.001575   0.000508  -0.001951  -0.000251  -0.000599
    24  H    0.000019   0.006758  -0.000038  -0.000132   0.000002   0.000240
              19         20         21         22         23         24
     1  C   -0.050502   0.010860  -0.014874  -0.204671  -0.008092  -0.003357
     2  C   -0.027087   0.000053   0.004455   0.001750  -0.002622   0.006717
     3  C    0.007898   0.001686  -0.007552  -0.011480  -0.004700   0.000272
     4  C    0.001327  -0.000688   0.001949   0.012605   0.001662  -0.000484
     5  C    0.003067   0.000104  -0.002228  -0.030331   0.001047   0.002926
     6  C    0.073090  -0.011212   0.009837   0.239976   0.011380  -0.007421
     7  H   -0.000006  -0.000000   0.000001  -0.000005   0.000001   0.000000
     8  H    0.000002   0.000000  -0.000000  -0.000002  -0.000001  -0.000000
     9  H   -0.000022   0.000001   0.000001   0.000060   0.000001  -0.000001
    10  H   -0.000043  -0.000005  -0.000037  -0.005506  -0.000281   0.000483
    11  H   -0.002851   0.000265   0.000451  -0.054964   0.005154   0.000937
    12  C   -0.007969   0.002126   0.008180  -0.016048  -0.000579   0.000350
    13  H   -0.000077  -0.000001  -0.000026   0.000033   0.000011   0.000019
    14  N    0.019904  -0.001987   0.001059   0.003814   0.001575   0.006758
    15  N   -0.001701   0.000014   0.000055  -0.000412   0.000508  -0.000038
    16  O    0.001691  -0.000250  -0.003535   0.000166  -0.001951  -0.000132
    17  H    0.001637   0.000228  -0.000089   0.000024  -0.000251   0.000002
    18  H    0.002498  -0.000272  -0.006924  -0.000872  -0.000599   0.000240
    19  O    7.985823   0.288880   0.350938  -0.003361  -0.006654   0.002767
    20  H    0.288880   0.386097  -0.021339   0.000565  -0.001531  -0.000569
    21  H    0.350938  -0.021339   0.357324  -0.003781   0.002703   0.000611
    22  O   -0.003361   0.000565  -0.003781   8.195054   0.284982   0.270439
    23  H   -0.006654  -0.001531   0.002703   0.284982   0.362015  -0.013352
    24  H    0.002767  -0.000569   0.000611   0.270439  -0.013352   0.408708
 Mulliken charges:
               1
     1  C    0.113826
     2  C    0.437506
     3  C   -0.449553
     4  C   -0.134518
     5  C   -0.197352
     6  C   -0.428610
     7  H    0.137711
     8  H    0.123623
     9  H    0.124034
    10  H    0.158757
    11  H    0.355472
    12  C    0.143342
    13  H    0.144598
    14  N   -0.320518
    15  N   -0.323663
    16  O   -0.595761
    17  H    0.337796
    18  H    0.327097
    19  O   -0.639248
    20  H    0.346976
    21  H    0.322821
    22  O   -0.678034
    23  H    0.369575
    24  H    0.324126
 Sum of Mulliken charges =  -0.00000
 Mulliken charges with hydrogens summed into heavy atoms:
               1
     1  C    0.113826
     2  C    0.437506
     3  C   -0.311843
     4  C   -0.010894
     5  C   -0.073319
     6  C   -0.269853
    12  C    0.287940
    14  N    0.034954
    15  N   -0.323663
    16  O    0.069132
    19  O    0.030548
    22  O    0.015666
         Mulliken charges condensed to fragments:
      1     -0.115346
      2      0.069132
      3      0.030548
      4      0.015666
 Electronic spatial extent (au):  <R**2>=         117505.1258
 Charge=              0.0000 electrons
 Dipole moment (field-independent basis, Debye):
    X=             -4.0651    Y=              3.9030    Z=             -3.5189  Tot=              6.6439
 Quadrupole moment (field-independent basis, Debye-Ang):
   XX=           -146.8031   YY=             18.5444   ZZ=           -136.8472
   XY=            -14.0784   XZ=            -62.6548   YZ=             -4.9445
 Traceless Quadrupole moment (field-independent basis, Debye-Ang):
   XX=            -58.4344   YY=            106.9130   ZZ=            -48.4786
   XY=            -14.0784   XZ=            -62.6548   YZ=             -4.9445
 Octapole moment (field-independent basis, Debye-Ang**2):
  XXX=          -3207.5076  YYY=           -930.0136  ZZZ=          -3277.6272  XYY=           -501.5363
  XXY=          -1432.7583  XXZ=          -1595.0557  XZZ=          -1516.3307  YZZ=          -1254.0018
  YYZ=           -430.9149  XYZ=           -426.2296
 Hexadecapole moment (field-independent basis, Debye-Ang**3):
 XXXX=         -57477.9040 YYYY=         -34538.4628 ZZZZ=         -64169.4113 XXXY=         -35102.3941
 XXXZ=         -32846.2507 YYYX=         -18164.1617 YYYZ=         -18388.7641 ZZZX=         -33096.8574
 ZZZY=         -34808.4662 XXYY=         -20977.1878 XXZZ=         -24349.4958 YYZZ=         -19588.3408
 XXYZ=         -16063.9300 YYXZ=          -9354.3649 ZZXY=         -14828.2962
 N-N= 7.212550967221D+02 E-N=-2.867852831710D+03  KE= 6.066567278897D+02
 No NMR shielding tensors so no spin-rotation constants.
 Leave Link  601 at Sat Dec 17 23:21:23 2022, MaxMem=  6710886400 cpu:               2.8 elap:               0.2
 (Enter /data0/home/software/g16/l122.exe)
 CPIOFr:  IOpCl= 0 IRwI=-1 IRwCP=  731 ICalc= -1 LCPTot=      242422 Len1MO=      635446 IndFrg=      242422
 CPIOFr:  IOpCl= 0 IRwI=-1 IRwCP=  731 ICalc=  0 LCPTot=      242422 Len1MO=      635446 IndFrg=      877868
 Counterpoise: doing calculation for fragment   1 using the basis set of the full-system, NewBq=T
 Leave Link  122 at Sat Dec 17 23:21:23 2022, MaxMem=  6710886400 cpu:               0.3 elap:               0.0
 (Enter /data0/home/software/g16/l301.exe)
 Basis read from rwf:  (5D, 7F)
 No pseudopotential information found on rwf file.
   396 basis functions,   600 primitive gaussians,   420 cartesian basis functions
    31 alpha electrons       31 beta electrons
       nuclear repulsion energy       401.5231121484 Hartrees.
 IExCor= 4336 DFT=T Ex+Corr=M062X ExCW=0 ScaHFX=  0.540000
 ScaDFX=  1.000000  1.000000  1.000000  1.000000 ScalE2=  1.000000  1.000000
 IRadAn=      5 IRanWt=     -1 IRanGd=            0 ICorTp=0 IEmpDi=131
 NAtoms=   24 NActive=   24 NUniq=   24 SFac= 1.00D+00 NAtFMM=   60 NAOKFM=F Big=F
 Integral buffers will be    131072 words long.
 Raffenetti 2 integral format.
 Two-electron integral symmetry is turned off.
 R6Disp:  Grimme-D3 Dispersion energy=       -0.0002902515 Hartrees.
 Nuclear repulsion after empirical dispersion term =      401.5228218969 Hartrees.
 No density basis found on file   718.
 Leave Link  301 at Sat Dec 17 23:21:23 2022, MaxMem=  6710886400 cpu:               1.3 elap:               0.1
 (Enter /data0/home/software/g16/l302.exe)
 NPDir=0 NMtPBC=     1 NCelOv=     1 NCel=       1 NClECP=     1 NCelD=      1
         NCelK=      1 NCelE2=     1 NClLst=     1 CellRange=     0.0.
 One-electron integrals computed using PRISM.
 NBasis=   396 RedAO= T EigKep=  1.23D-06  NBF=   396
 NBsUse=   396 1.00D-06 EigRej= -1.00D+00 NBFU=   396
 Precomputing XC quadrature grid using
 IXCGrd= 4 IRadAn=           5 IRanWt=          -1 IRanGd=           0 AccXCQ= 0.00D+00.
 Generated NRdTot=       0 NPtTot=           0 NUsed=           0 NTot=          32
 NSgBfM=   420   420   420   420   420 MxSgAt=    24 MxSgA2=    24.
 Leave Link  302 at Sat Dec 17 23:21:23 2022, MaxMem=  6710886400 cpu:               7.0 elap:               0.3
 (Enter /data0/home/software/g16/l303.exe)
 DipDrv:  MaxL=1.
 Leave Link  303 at Sat Dec 17 23:21:23 2022, MaxMem=  6710886400 cpu:               0.9 elap:               0.1
 (Enter /data0/home/software/g16/l401.exe)
 ExpMin= 4.38D-02 ExpMax= 8.59D+03 ExpMxC= 1.30D+03 IAcc=3 IRadAn=         5 AccDes= 0.00D+00
 Harris functional with IExCor= 1009 and IRadAn=       5 diagonalized for initial guess.
 HarFok:  IExCor= 1009 AccDes= 0.00D+00 IRadAn=         5 IDoV= 1 UseB2=F ITyADJ=14
 ICtDFT=  3500011 ScaDFX=  1.000000  1.000000  1.000000  1.000000
 FoFCou: FMM=F IPFlag=           0 FMFlag=      100000 FMFlg1=           0
         NFxFlg=           0 DoJE=T BraDBF=F KetDBF=T FulRan=T
         wScrn=  0.000000 ICntrl=       500 IOpCl=  0 I1Cent=   200000004 NGrid=           0
         NMat0=    1 NMatS0=      1 NMatT0=    0 NMatD0=    1 NMtDS0=    0 NMtDT0=    0
 Symmetry not used in FoFCou.
 Harris En= -379.614109644293    
 JPrj=0 DoOrth=F DoCkMO=F.
 Leave Link  401 at Sat Dec 17 23:21:24 2022, MaxMem=  6710886400 cpu:              27.7 elap:               1.2
 (Enter /data0/home/software/g16/l502.exe)
 Two-electron integral symmetry not used.
 Closed shell SCF:
 Using DIIS extrapolation, IDIIS=  1040.
 NGot=  6710886400 LenX=  6710520552 LenY=  6710343711
 Requested convergence on RMS density matrix=1.00D-08 within 128 cycles.
 Requested convergence on MAX density matrix=1.00D-06.
 Requested convergence on             energy=1.00D-06.
 No special actions if energy rises.
 Fock matrices will be formed incrementally for  20 cycles.

 Cycle   1  Pass 1  IDiag  1:
 FoFJK:  IHMeth= 1 ICntrl=       0 DoSepK=F KAlg= 0 I1Cent=           0 FoldK=F
 IRaf= 910000000 NMat=       1 IRICut=       1 DoRegI=T DoRafI=F ISym2E= 0 IDoP0=0 IntGTp=1.
 FoFCou: FMM=F IPFlag=           0 FMFlag=      100000 FMFlg1=           0
         NFxFlg=           0 DoJE=F BraDBF=F KetDBF=F FulRan=T
         wScrn=  0.000000 ICntrl=         0 IOpCl=  0 I1Cent=           0 NGrid=           0
         NMat0=    1 NMatS0=      1 NMatT0=    0 NMatD0=    1 NMtDS0=    0 NMtDT0=    0
 Symmetry not used in FoFCou.
 E= -379.611137707948    
 DIIS: error= 1.54D-02 at cycle   1 NSaved=   1.
 NSaved= 1 IEnMin= 1 EnMin= -379.611137707948     IErMin= 1 ErrMin= 1.54D-02
 ErrMax= 1.54D-02  0.00D+00 EMaxC= 1.00D-01 BMatC= 2.49D-01 BMatP= 2.49D-01
 IDIUse=3 WtCom= 8.46D-01 WtEn= 1.54D-01
 Coeff-Com:  0.100D+01
 Coeff-En:   0.100D+01
 Coeff:      0.100D+01
 Gap=     0.306 Goal=   None    Shift=    0.000
 GapD=    0.306 DampG=1.000 DampE=0.500 DampFc=0.5000 IDamp=-1.
 Damping current iteration by 5.00D-01
 RMSDP=1.17D-02 MaxDP=2.23D+00              OVMax= 2.13D-01

 Cycle   2  Pass 1  IDiag  1:
 RMSU=  5.58D-03    CP:  1.09D+00
 E= -379.707819682870     Delta-E=       -0.096681974922 Rises=F Damp=T
 DIIS: error= 6.14D-03 at cycle   2 NSaved=   2.
 NSaved= 2 IEnMin= 2 EnMin= -379.707819682870     IErMin= 2 ErrMin= 6.14D-03
 ErrMax= 6.14D-03  0.00D+00 EMaxC= 1.00D-01 BMatC= 2.63D-02 BMatP= 2.49D-01
 IDIUse=3 WtCom= 9.39D-01 WtEn= 6.14D-02
 Coeff-Com: -0.896D-01 0.109D+01
 Coeff-En:   0.000D+00 0.100D+01
 Coeff:     -0.841D-01 0.108D+01
 Gap=     0.299 Goal=   None    Shift=    0.000
 RMSDP=3.98D-03 MaxDP=4.24D-01 DE=-9.67D-02 OVMax= 1.77D-01

 Cycle   3  Pass 1  IDiag  1:
 RMSU=  3.31D-03    CP:  9.85D-01  1.11D+00
 E= -379.800124214312     Delta-E=       -0.092304531443 Rises=F Damp=F
 DIIS: error= 6.87D-03 at cycle   3 NSaved=   3.
 NSaved= 3 IEnMin= 3 EnMin= -379.800124214312     IErMin= 2 ErrMin= 6.14D-03
 ErrMax= 6.87D-03  0.00D+00 EMaxC= 1.00D-01 BMatC= 1.79D-02 BMatP= 2.63D-02
 IDIUse=3 WtCom= 9.31D-01 WtEn= 6.87D-02
 Coeff-Com: -0.137D+00 0.538D+00 0.599D+00
 Coeff-En:   0.000D+00 0.000D+00 0.100D+01
 Coeff:     -0.128D+00 0.501D+00 0.627D+00
 Gap=     0.280 Goal=   None    Shift=    0.000
 RMSDP=1.30D-03 MaxDP=1.88D-01 DE=-9.23D-02 OVMax= 6.12D-02

 Cycle   4  Pass 1  IDiag  1:
 RMSU=  1.13D-03    CP:  9.54D-01  1.10D+00  9.27D-01
 E= -379.814931642750     Delta-E=       -0.014807428438 Rises=F Damp=F
 DIIS: error= 2.14D-03 at cycle   4 NSaved=   4.
 NSaved= 4 IEnMin= 4 EnMin= -379.814931642750     IErMin= 4 ErrMin= 2.14D-03
 ErrMax= 2.14D-03  0.00D+00 EMaxC= 1.00D-01 BMatC= 2.68D-03 BMatP= 1.79D-02
 IDIUse=3 WtCom= 9.79D-01 WtEn= 2.14D-02
 Coeff-Com: -0.566D-01 0.146D+00 0.336D+00 0.575D+00
 Coeff-En:   0.000D+00 0.000D+00 0.850D-01 0.915D+00
 Coeff:     -0.554D-01 0.143D+00 0.330D+00 0.582D+00
 Gap=     0.278 Goal=   None    Shift=    0.000
 RMSDP=3.89D-04 MaxDP=3.67D-02 DE=-1.48D-02 OVMax= 1.37D-02

 Cycle   5  Pass 1  IDiag  1:
 RMSU=  2.54D-04    CP:  9.52D-01  1.08D+00  9.23D-01  7.69D-01
 E= -379.817228031921     Delta-E=       -0.002296389171 Rises=F Damp=F
 DIIS: error= 4.45D-04 at cycle   5 NSaved=   5.
 NSaved= 5 IEnMin= 5 EnMin= -379.817228031921     IErMin= 5 ErrMin= 4.45D-04
 ErrMax= 4.45D-04  0.00D+00 EMaxC= 1.00D-01 BMatC= 9.80D-05 BMatP= 2.68D-03
 IDIUse=3 WtCom= 9.96D-01 WtEn= 4.45D-03
 Coeff-Com: -0.192D-01 0.409D-01 0.120D+00 0.263D+00 0.595D+00
 Coeff-En:   0.000D+00 0.000D+00 0.000D+00 0.000D+00 0.100D+01
 Coeff:     -0.191D-01 0.407D-01 0.120D+00 0.262D+00 0.596D+00
 Gap=     0.277 Goal=   None    Shift=    0.000
 RMSDP=8.03D-05 MaxDP=6.20D-03 DE=-2.30D-03 OVMax= 4.02D-03

 Cycle   6  Pass 1  IDiag  1:
 RMSU=  7.12D-05    CP:  9.53D-01  1.08D+00  9.20D-01  7.72D-01  8.72D-01
 E= -379.817317924230     Delta-E=       -0.000089892309 Rises=F Damp=F
 DIIS: error= 1.60D-04 at cycle   6 NSaved=   6.
 NSaved= 6 IEnMin= 6 EnMin= -379.817317924230     IErMin= 6 ErrMin= 1.60D-04
 ErrMax= 1.60D-04  0.00D+00 EMaxC= 1.00D-01 BMatC= 1.17D-05 BMatP= 9.80D-05
 IDIUse=3 WtCom= 9.98D-01 WtEn= 1.60D-03
 Coeff-Com: -0.261D-02 0.303D-02 0.192D-01 0.538D-01 0.287D+00 0.639D+00
 Coeff-En:   0.000D+00 0.000D+00 0.000D+00 0.000D+00 0.261D-01 0.974D+00
 Coeff:     -0.260D-02 0.303D-02 0.191D-01 0.537D-01 0.287D+00 0.640D+00
 Gap=     0.277 Goal=   None    Shift=    0.000
 RMSDP=3.85D-05 MaxDP=3.90D-03 DE=-8.99D-05 OVMax= 1.47D-03

 Cycle   7  Pass 1  IDiag  1:
 RMSU=  2.97D-05    CP:  9.52D-01  1.08D+00  9.21D-01  7.80D-01  8.82D-01
                    CP:  9.76D-01
 E= -379.817330789716     Delta-E=       -0.000012865485 Rises=F Damp=F
 DIIS: error= 4.05D-05 at cycle   7 NSaved=   7.
 NSaved= 7 IEnMin= 7 EnMin= -379.817330789716     IErMin= 7 ErrMin= 4.05D-05
 ErrMax= 4.05D-05  0.00D+00 EMaxC= 1.00D-01 BMatC= 4.13D-07 BMatP= 1.17D-05
 IDIUse=1 WtCom= 1.00D+00 WtEn= 0.00D+00
 Coeff-Com:  0.142D-02-0.351D-02-0.673D-02-0.163D-01-0.349D-02 0.971D-01
 Coeff-Com:  0.932D+00
 Coeff:      0.142D-02-0.351D-02-0.673D-02-0.163D-01-0.349D-02 0.971D-01
 Coeff:      0.932D+00
 Gap=     0.277 Goal=   None    Shift=    0.000
 RMSDP=1.31D-05 MaxDP=1.41D-03 DE=-1.29D-05 OVMax= 4.65D-04

 Cycle   8  Pass 1  IDiag  1:
 RMSU=  5.23D-06    CP:  9.52D-01  1.08D+00  9.21D-01  7.80D-01  9.00D-01
                    CP:  1.05D+00  1.19D+00
 E= -379.817331452782     Delta-E=       -0.000000663066 Rises=F Damp=F
 DIIS: error= 2.10D-05 at cycle   8 NSaved=   8.
 NSaved= 8 IEnMin= 8 EnMin= -379.817331452782     IErMin= 8 ErrMin= 2.10D-05
 ErrMax= 2.10D-05  0.00D+00 EMaxC= 1.00D-01 BMatC= 1.78D-07 BMatP= 4.13D-07
 IDIUse=1 WtCom= 1.00D+00 WtEn= 0.00D+00
 Coeff-Com:  0.103D-02-0.212D-02-0.528D-02-0.146D-01-0.326D-01-0.203D-01
 Coeff-Com:  0.494D+00 0.580D+00
 Coeff:      0.103D-02-0.212D-02-0.528D-02-0.146D-01-0.326D-01-0.203D-01
 Coeff:      0.494D+00 0.580D+00
 Gap=     0.277 Goal=   None    Shift=    0.000
 RMSDP=4.05D-06 MaxDP=4.09D-04 DE=-6.63D-07 OVMax= 2.17D-04

 Cycle   9  Pass 1  IDiag  1:
 RMSU=  2.73D-06    CP:  9.52D-01  1.08D+00  9.22D-01  7.79D-01  9.00D-01
                    CP:  1.07D+00  1.23D+00  1.13D+00
 E= -379.817331672148     Delta-E=       -0.000000219366 Rises=F Damp=F
 DIIS: error= 7.24D-06 at cycle   9 NSaved=   9.
 NSaved= 9 IEnMin= 9 EnMin= -379.817331672148     IErMin= 9 ErrMin= 7.24D-06
 ErrMax= 7.24D-06  0.00D+00 EMaxC= 1.00D-01 BMatC= 8.96D-09 BMatP= 1.78D-07
 IDIUse=1 WtCom= 1.00D+00 WtEn= 0.00D+00
 Coeff-Com: -0.560D-04 0.175D-03 0.443D-03 0.377D-03-0.268D-02-0.151D-01
 Coeff-Com: -0.685D-01 0.110D+00 0.976D+00
 Coeff:     -0.560D-04 0.175D-03 0.443D-03 0.377D-03-0.268D-02-0.151D-01
 Coeff:     -0.685D-01 0.110D+00 0.976D+00
 Gap=     0.277 Goal=   None    Shift=    0.000
 RMSDP=2.09D-06 MaxDP=2.49D-04 DE=-2.19D-07 OVMax= 9.49D-05

 Cycle  10  Pass 1  IDiag  1:
 RMSU=  7.93D-07    CP:  9.52D-01  1.08D+00  9.22D-01  7.78D-01  9.02D-01
                    CP:  1.07D+00  1.23D+00  1.30D+00  1.17D+00
 E= -379.817331694513     Delta-E=       -0.000000022364 Rises=F Damp=F
 DIIS: error= 2.07D-06 at cycle  10 NSaved=  10.
 NSaved=10 IEnMin=10 EnMin= -379.817331694513     IErMin=10 ErrMin= 2.07D-06
 ErrMax= 2.07D-06  0.00D+00 EMaxC= 1.00D-01 BMatC= 9.55D-10 BMatP= 8.96D-09
 IDIUse=1 WtCom= 1.00D+00 WtEn= 0.00D+00
 Coeff-Com: -0.949D-04 0.214D-03 0.593D-03 0.125D-02 0.161D-02-0.267D-02
 Coeff-Com: -0.620D-01-0.207D-01 0.273D+00 0.809D+00
 Coeff:     -0.949D-04 0.214D-03 0.593D-03 0.125D-02 0.161D-02-0.267D-02
 Coeff:     -0.620D-01-0.207D-01 0.273D+00 0.809D+00
 Gap=     0.277 Goal=   None    Shift=    0.000
 RMSDP=5.78D-07 MaxDP=5.32D-05 DE=-2.24D-08 OVMax= 3.56D-05

 Cycle  11  Pass 1  IDiag  1:
 RMSU=  2.15D-07    CP:  9.52D-01  1.08D+00  9.22D-01  7.77D-01  9.01D-01
                    CP:  1.07D+00  1.23D+00  1.35D+00  1.24D+00  1.04D+00
 E= -379.817331696629     Delta-E=       -0.000000002116 Rises=F Damp=F
 DIIS: error= 1.02D-06 at cycle  11 NSaved=  11.
 NSaved=11 IEnMin=11 EnMin= -379.817331696629     IErMin=11 ErrMin= 1.02D-06
 ErrMax= 1.02D-06  0.00D+00 EMaxC= 1.00D-01 BMatC= 2.71D-10 BMatP= 9.55D-10
 IDIUse=1 WtCom= 1.00D+00 WtEn= 0.00D+00
 Coeff-Com: -0.317D-04 0.672D-04 0.209D-03 0.504D-03 0.985D-03 0.851D-03
 Coeff-Com: -0.195D-01-0.274D-01-0.100D-01 0.393D+00 0.662D+00
 Coeff:     -0.317D-04 0.672D-04 0.209D-03 0.504D-03 0.985D-03 0.851D-03
 Coeff:     -0.195D-01-0.274D-01-0.100D-01 0.393D+00 0.662D+00
 Gap=     0.277 Goal=   None    Shift=    0.000
 RMSDP=1.68D-07 MaxDP=1.46D-05 DE=-2.12D-09 OVMax= 1.43D-05

 Cycle  12  Pass 1  IDiag  1:
 RMSU=  1.16D-07    CP:  9.52D-01  1.08D+00  9.22D-01  7.77D-01  9.01D-01
                    CP:  1.07D+00  1.23D+00  1.35D+00  1.25D+00  1.11D+00
                    CP:  1.03D+00
 E= -379.817331697054     Delta-E=       -0.000000000426 Rises=F Damp=F
 DIIS: error= 2.42D-07 at cycle  12 NSaved=  12.
 NSaved=12 IEnMin=12 EnMin= -379.817331697054     IErMin=12 ErrMin= 2.42D-07
 ErrMax= 2.42D-07  0.00D+00 EMaxC= 1.00D-01 BMatC= 1.47D-11 BMatP= 2.71D-10
 IDIUse=1 WtCom= 1.00D+00 WtEn= 0.00D+00
 Coeff-Com:  0.872D-05-0.198D-04-0.503D-04-0.874D-04-0.851D-04 0.711D-03
 Coeff-Com:  0.602D-02-0.447D-02-0.452D-01-0.360D-01 0.126D+00 0.953D+00
 Coeff:      0.872D-05-0.198D-04-0.503D-04-0.874D-04-0.851D-04 0.711D-03
 Coeff:      0.602D-02-0.447D-02-0.452D-01-0.360D-01 0.126D+00 0.953D+00
 Gap=     0.277 Goal=   None    Shift=    0.000
 RMSDP=1.36D-07 MaxDP=1.49D-05 DE=-4.26D-10 OVMax= 6.29D-06

 Cycle  13  Pass 1  IDiag  1:
 RMSU=  5.04D-08    CP:  9.52D-01  1.08D+00  9.22D-01  7.77D-01  9.01D-01
                    CP:  1.07D+00  1.23D+00  1.34D+00  1.25D+00  1.15D+00
                    CP:  1.10D+00  1.44D+00
 E= -379.817331697101     Delta-E=       -0.000000000047 Rises=F Damp=F
 DIIS: error= 1.07D-07 at cycle  13 NSaved=  13.
 NSaved=13 IEnMin=13 EnMin= -379.817331697101     IErMin=13 ErrMin= 1.07D-07
 ErrMax= 1.07D-07  0.00D+00 EMaxC= 1.00D-01 BMatC= 2.74D-12 BMatP= 1.47D-11
 IDIUse=1 WtCom= 1.00D+00 WtEn= 0.00D+00
 Coeff-Com:  0.492D-05-0.110D-04-0.318D-04-0.618D-04-0.109D-03 0.202D-03
 Coeff-Com:  0.340D-02 0.356D-03-0.121D-01-0.376D-01-0.237D-01 0.303D+00
 Coeff-Com:  0.766D+00
 Coeff:      0.492D-05-0.110D-04-0.318D-04-0.618D-04-0.109D-03 0.202D-03
 Coeff:      0.340D-02 0.356D-03-0.121D-01-0.376D-01-0.237D-01 0.303D+00
 Coeff:      0.766D+00
 Gap=     0.277 Goal=   None    Shift=    0.000
 RMSDP=3.24D-08 MaxDP=3.19D-06 DE=-4.66D-11 OVMax= 1.85D-06

 Cycle  14  Pass 1  IDiag  1:
 RMSU=  1.14D-08    CP:  9.52D-01  1.08D+00  9.22D-01  7.77D-01  9.01D-01
                    CP:  1.07D+00  1.23D+00  1.34D+00  1.25D+00  1.16D+00
                    CP:  1.10D+00  1.56D+00  1.17D+00
 E= -379.817331697093     Delta-E=        0.000000000008 Rises=F Damp=F
 DIIS: error= 3.48D-08 at cycle  14 NSaved=  14.
 NSaved=14 IEnMin=13 EnMin= -379.817331697101     IErMin=14 ErrMin= 3.48D-08
 ErrMax= 3.48D-08  0.00D+00 EMaxC= 1.00D-01 BMatC= 8.55D-13 BMatP= 2.74D-12
 IDIUse=1 WtCom= 1.00D+00 WtEn= 0.00D+00
 Coeff-Com:  0.200D-06-0.487D-06-0.378D-05-0.687D-05-0.353D-04-0.506D-04
 Coeff-Com:  0.189D-03 0.101D-02 0.511D-02-0.845D-02-0.486D-01-0.840D-01
 Coeff-Com:  0.388D+00 0.747D+00
 Coeff:      0.200D-06-0.487D-06-0.378D-05-0.687D-05-0.353D-04-0.506D-04
 Coeff:      0.189D-03 0.101D-02 0.511D-02-0.845D-02-0.486D-01-0.840D-01
 Coeff:      0.388D+00 0.747D+00
 Gap=     0.277 Goal=   None    Shift=    0.000
 RMSDP=1.93D-08 MaxDP=1.74D-06 DE= 8.30D-12 OVMax= 7.73D-07

 Cycle  15  Pass 1  IDiag  1:
 RMSU=  5.76D-09    CP:  9.52D-01  1.08D+00  9.22D-01  7.77D-01  9.01D-01
                    CP:  1.07D+00  1.23D+00  1.34D+00  1.25D+00  1.16D+00
                    CP:  1.09D+00  1.62D+00  1.28D+00  1.20D+00
 E= -379.817331697118     Delta-E=       -0.000000000025 Rises=F Damp=F
 DIIS: error= 7.50D-09 at cycle  15 NSaved=  15.
 NSaved=15 IEnMin=15 EnMin= -379.817331697118     IErMin=15 ErrMin= 7.50D-09
 ErrMax= 7.50D-09  0.00D+00 EMaxC= 1.00D-01 BMatC= 3.35D-14 BMatP= 8.55D-13
 IDIUse=1 WtCom= 1.00D+00 WtEn= 0.00D+00
 Coeff-Com: -0.248D-06 0.524D-06 0.547D-06 0.160D-05-0.739D-05-0.269D-04
 Coeff-Com: -0.133D-03 0.247D-03 0.242D-02-0.440D-04-0.157D-01-0.443D-01
 Coeff-Com:  0.850D-01 0.242D+00 0.730D+00
 Coeff:     -0.248D-06 0.524D-06 0.547D-06 0.160D-05-0.739D-05-0.269D-04
 Coeff:     -0.133D-03 0.247D-03 0.242D-02-0.440D-04-0.157D-01-0.443D-01
 Coeff:      0.850D-01 0.242D+00 0.730D+00
 Gap=     0.277 Goal=   None    Shift=    0.000
 RMSDP=2.18D-09 MaxDP=1.60D-07 DE=-2.55D-11 OVMax= 1.30D-07

 SCF Done:  E(RM062X) =  -379.817331697     A.U. after   15 cycles
            NFock= 15  Conv=0.22D-08     -V/T= 2.0050
 KE= 3.779365167980D+02 PE=-1.685769168268D+03 EE= 5.264924978762D+02
 Leave Link  502 at Sat Dec 17 23:22:17 2022, MaxMem=  6710886400 cpu:            1250.2 elap:              52.3
 (Enter /data0/home/software/g16/l601.exe)
 Copying SCF densities to generalized density rwf, IOpCl= 0 IROHF=0.

 **********************************************************************

            Population analysis using the SCF density.

 **********************************************************************

 Alpha  occ. eigenvalues --  -14.81355 -14.74277 -10.62255 -10.58716 -10.57005
 Alpha  occ. eigenvalues --  -10.55287 -10.54591 -10.54473 -10.54135  -1.12225
 Alpha  occ. eigenvalues --   -0.98082  -0.95029  -0.84458  -0.83271  -0.71869
 Alpha  occ. eigenvalues --   -0.70761  -0.68130  -0.62597  -0.57373  -0.55919
 Alpha  occ. eigenvalues --   -0.51813  -0.51281  -0.50704  -0.48583  -0.43164
 Alpha  occ. eigenvalues --   -0.42170  -0.41461  -0.37299  -0.34435  -0.28696
 Alpha  occ. eigenvalues --   -0.28033
 Alpha virt. eigenvalues --   -0.00308  -0.00118   0.01714   0.02690   0.03452
 Alpha virt. eigenvalues --    0.03800   0.04099   0.04570   0.05393   0.05916
 Alpha virt. eigenvalues --    0.06772   0.07283   0.07952   0.08776   0.09853
 Alpha virt. eigenvalues --    0.10371   0.11825   0.12139   0.12255   0.13246
 Alpha virt. eigenvalues --    0.14066   0.14954   0.15956   0.16138   0.16881
 Alpha virt. eigenvalues --    0.17322   0.17639   0.17746   0.18285   0.19198
 Alpha virt. eigenvalues --    0.19592   0.19965   0.20508   0.20872   0.21228
 Alpha virt. eigenvalues --    0.22252   0.22909   0.23598   0.23668   0.24013
 Alpha virt. eigenvalues --    0.24545   0.24971   0.25212   0.25410   0.26193
 Alpha virt. eigenvalues --    0.26675   0.26859   0.27098   0.27556   0.28301
 Alpha virt. eigenvalues --    0.28525   0.29048   0.29831   0.30789   0.31174
 Alpha virt. eigenvalues --    0.31779   0.32786   0.33330   0.34526   0.35258
 Alpha virt. eigenvalues --    0.36391   0.36683   0.37335   0.37527   0.39015
 Alpha virt. eigenvalues --    0.41707   0.42053   0.42742   0.44788   0.46270
 Alpha virt. eigenvalues --    0.47065   0.48004   0.51077   0.53362   0.55152
 Alpha virt. eigenvalues --    0.55388   0.56576   0.56948   0.58319   0.58830
 Alpha virt. eigenvalues --    0.59695   0.59999   0.61869   0.63884   0.64827
 Alpha virt. eigenvalues --    0.65830   0.66539   0.67396   0.68266   0.68922
 Alpha virt. eigenvalues --    0.69910   0.70198   0.70525   0.71762   0.72779
 Alpha virt. eigenvalues --    0.73443   0.73783   0.75474   0.75740   0.77233
 Alpha virt. eigenvalues --    0.77389   0.77704   0.78962   0.79744   0.80764
 Alpha virt. eigenvalues --    0.81287   0.81905   0.82870   0.83685   0.84363
 Alpha virt. eigenvalues --    0.85174   0.85703   0.86489   0.86831   0.87657
 Alpha virt. eigenvalues --    0.88112   0.88444   0.88902   0.89777   0.90340
 Alpha virt. eigenvalues --    0.92277   0.92939   0.94062   0.94626   0.96369
 Alpha virt. eigenvalues --    0.97567   0.98797   0.99751   1.01193   1.02239
 Alpha virt. eigenvalues --    1.03177   1.03494   1.07259   1.08258   1.09155
 Alpha virt. eigenvalues --    1.11366   1.13375   1.14959   1.15979   1.17680
 Alpha virt. eigenvalues --    1.18938   1.20618   1.21721   1.23038   1.24551
 Alpha virt. eigenvalues --    1.25586   1.29367   1.30213   1.34929   1.35544
 Alpha virt. eigenvalues --    1.36046   1.37458   1.38320   1.39396   1.42700
 Alpha virt. eigenvalues --    1.43549   1.45018   1.46523   1.48402   1.49853
 Alpha virt. eigenvalues --    1.53008   1.55245   1.57213   1.59282   1.62053
 Alpha virt. eigenvalues --    1.63150   1.64349   1.65395   1.69694   1.69968
 Alpha virt. eigenvalues --    1.74999   1.75939   1.76485   1.78112   1.79949
 Alpha virt. eigenvalues --    1.80936   1.84240   1.86020   1.88094   1.89296
 Alpha virt. eigenvalues --    1.90698   1.91711   1.92970   1.95948   1.97130
 Alpha virt. eigenvalues --    1.99092   2.00622   2.01170   2.05515   2.07134
 Alpha virt. eigenvalues --    2.09861   2.13018   2.15052   2.18528   2.19853
 Alpha virt. eigenvalues --    2.24680   2.26285   2.29470   2.29934   2.31945
 Alpha virt. eigenvalues --    2.33535   2.35581   2.37183   2.42651   2.44283
 Alpha virt. eigenvalues --    2.46180   2.50276   2.51019   2.52524   2.54010
 Alpha virt. eigenvalues --    2.55609   2.57646   2.60147   2.61110   2.61493
 Alpha virt. eigenvalues --    2.64964   2.65232   2.65703   2.66952   2.68805
 Alpha virt. eigenvalues --    2.69750   2.72156   2.73800   2.74413   2.74768
 Alpha virt. eigenvalues --    2.75210   2.78461   2.79287   2.80834   2.83540
 Alpha virt. eigenvalues --    2.84298   2.85818   2.87359   2.91194   2.91885
 Alpha virt. eigenvalues --    2.93241   2.94521   2.94743   2.96576   2.97958
 Alpha virt. eigenvalues --    2.98699   3.00615   3.02626   3.05095   3.10665
 Alpha virt. eigenvalues --    3.11620   3.13550   3.16729   3.17656   3.18444
 Alpha virt. eigenvalues --    3.19524   3.22629   3.24589   3.29821   3.30218
 Alpha virt. eigenvalues --    3.30893   3.31366   3.34384   3.36399   3.38558
 Alpha virt. eigenvalues --    3.39293   3.40701   3.42113   3.43988   3.45448
 Alpha virt. eigenvalues --    3.48417   3.48942   3.49815   3.51236   3.53958
 Alpha virt. eigenvalues --    3.56234   3.58957   3.59459   3.59510   3.60966
 Alpha virt. eigenvalues --    3.62394   3.63667   3.64483   3.67328   3.67651
 Alpha virt. eigenvalues --    3.68655   3.69577   3.73395   3.74541   3.75098
 Alpha virt. eigenvalues --    3.75938   3.78635   3.80222   3.85941   3.88261
 Alpha virt. eigenvalues --    3.93111   3.94885   3.96581   3.96859   4.00618
 Alpha virt. eigenvalues --    4.02693   4.03588   4.04777   4.09625   4.10669
 Alpha virt. eigenvalues --    4.25778   4.44221   4.58267   4.59873   4.64709
 Alpha virt. eigenvalues --    4.66480   4.68370   4.72099   4.75577   4.92175
 Alpha virt. eigenvalues --    4.99524   5.02232   5.03945   5.05700   5.10682
 Alpha virt. eigenvalues --    5.12691   5.18618   5.21087   5.23708   5.26092
 Alpha virt. eigenvalues --    5.29224   5.33609   5.42898   5.46168   5.60573
 Alpha virt. eigenvalues --    5.66245   9.75263   9.83071   9.84224   9.93873
 Alpha virt. eigenvalues --   10.03947  10.04586  10.06457  10.10523  10.12731
 Alpha virt. eigenvalues --   10.16503  10.19455  10.23753  10.27622  10.39495
 Alpha virt. eigenvalues --   10.43163  12.82731  13.18567  13.26767  13.31245
 Alpha virt. eigenvalues --   13.58934  13.64665  13.70793  14.08307  14.12890
 Alpha virt. eigenvalues --   17.63801  18.18532  18.23426  23.80766  24.03416
 Alpha virt. eigenvalues --   24.07318  24.12426  24.13569  24.25535  24.28307
 Alpha virt. eigenvalues --   35.74116  35.81635 134.69652 138.02467 138.67347
          Condensed to atoms (all electrons):
               1          2          3          4          5          6
     1  C   10.578294  -3.563932  -1.755755  -0.490811   0.124325   0.438920
     2  C   -3.563932  11.219507  -1.721164   0.501640  -0.939998  -0.487846
     3  C   -1.755755  -1.721164  10.359243   0.075883   0.679579  -0.755742
     4  C   -0.490811   0.501640   0.075883   5.135354   0.396916   0.163949
     5  C    0.124325  -0.939998   0.679579   0.396916   5.265627   0.312429
     6  C    0.438920  -0.487846  -0.755742   0.163949   0.312429   6.795911
     7  H    0.021585  -0.011136   0.365529  -0.029611   0.012657  -0.014151
     8  H   -0.006291   0.039451  -0.057317   0.393466  -0.044959   0.019808
     9  H    0.041324   0.000872   0.009411  -0.033433   0.380465  -0.054168
    10  H   -0.027745  -0.021761  -0.017520   0.015763   0.003931   0.387632
    11  H   -0.102326   0.112025   0.012901   0.000226  -0.009767  -0.040910
    12  C   -0.591363   0.185648   0.061361   0.021382   0.009417  -0.114645
    13  H   -0.019696   0.038662   0.033081  -0.001013   0.002060  -0.005392
    14  N    0.229814   0.100188  -0.036217   0.020062  -0.019821  -0.240130
    15  N    0.714544   0.297291  -0.912310  -0.017723  -0.017574   0.095251
    16  O    0.004830  -0.000588  -0.002078   0.015421   0.011302  -0.005195
    17  H   -0.022901  -0.004365   0.016710  -0.025391  -0.024010   0.007702
    18  H    0.002138   0.003172  -0.001909  -0.000455  -0.000132  -0.001288
    19  O   -0.008951   0.007515   0.001114   0.000206  -0.000722  -0.001062
    20  H   -0.003186   0.002403   0.000400   0.000065  -0.000128  -0.000635
    21  H   -0.003316   0.004888   0.000491   0.000108  -0.000442  -0.001323
    22  O   -0.020682   0.039050   0.003453  -0.000239  -0.003782  -0.024216
    23  H    0.010755  -0.016311  -0.002230   0.000147   0.000947   0.010387
    24  H    0.001333  -0.001892  -0.000065  -0.000044   0.000192   0.002115
               7          8          9         10         11         12
     1  C    0.021585  -0.006291   0.041324  -0.027745  -0.102326  -0.591363
     2  C   -0.011136   0.039451   0.000872  -0.021761   0.112025   0.185648
     3  C    0.365529  -0.057317   0.009411  -0.017520   0.012901   0.061361
     4  C   -0.029611   0.393466  -0.033433   0.015763   0.000226   0.021382
     5  C    0.012657  -0.044959   0.380465   0.003931  -0.009767   0.009417
     6  C   -0.014151   0.019808  -0.054168   0.387632  -0.040910  -0.114645
     7  H    0.515923  -0.004792  -0.000250   0.000083   0.000019   0.000244
     8  H   -0.004792   0.542641  -0.004949  -0.000289  -0.000001   0.000621
     9  H   -0.000250  -0.004949   0.542973  -0.004649  -0.000010   0.000350
    10  H    0.000083  -0.000289  -0.004649   0.534658   0.001576   0.002022
    11  H    0.000019  -0.000001  -0.000010   0.001576   0.395058  -0.022740
    12  C    0.000244   0.000621   0.000350   0.002022  -0.022740   5.124743
    13  H   -0.000033  -0.000000  -0.000001  -0.000018  -0.001343   0.421155
    14  N   -0.001007   0.000394  -0.000422  -0.002458   0.379826   0.388543
    15  N    0.006115  -0.000349   0.000236   0.000496  -0.006487   0.373123
    16  O    0.000069  -0.000022  -0.000163   0.000130  -0.000023   0.003845
    17  H   -0.000125  -0.000035   0.000015  -0.000139   0.000046  -0.005007
    18  H   -0.000006  -0.000013   0.000043   0.000041   0.000000  -0.000050
    19  O    0.000000   0.000001  -0.000008  -0.000138  -0.000044   0.002229
    20  H   -0.000000   0.000000  -0.000000  -0.000009   0.000035   0.000659
    21  H   -0.000001  -0.000000   0.000001   0.000017   0.000102   0.000060
    22  O   -0.000002  -0.000002  -0.000002   0.001867   0.001797   0.004220
    23  H    0.000001   0.000000   0.000002  -0.000418  -0.000379  -0.002628
    24  H    0.000000  -0.000000  -0.000000   0.000141  -0.000042  -0.000560
              13         14         15         16         17         18
     1  C   -0.019696   0.229814   0.714544   0.004830  -0.022901   0.002138
     2  C    0.038662   0.100188   0.297291  -0.000588  -0.004365   0.003172
     3  C    0.033081  -0.036217  -0.912310  -0.002078   0.016710  -0.001909
     4  C   -0.001013   0.020062  -0.017723   0.015421  -0.025391  -0.000455
     5  C    0.002060  -0.019821  -0.017574   0.011302  -0.024010  -0.000132
     6  C   -0.005392  -0.240130   0.095251  -0.005195   0.007702  -0.001288
     7  H   -0.000033  -0.001007   0.006115   0.000069  -0.000125  -0.000006
     8  H   -0.000000   0.000394  -0.000349  -0.000022  -0.000035  -0.000013
     9  H   -0.000001  -0.000422   0.000236  -0.000163   0.000015   0.000043
    10  H   -0.000018  -0.002458   0.000496   0.000130  -0.000139   0.000041
    11  H   -0.001343   0.379826  -0.006487  -0.000023   0.000046   0.000000
    12  C    0.421155   0.388543   0.373123   0.003845  -0.005007  -0.000050
    13  H    0.502452  -0.056010  -0.061024  -0.000023   0.000009   0.000003
    14  N   -0.056010   6.511351  -0.003118   0.002166  -0.000304   0.000135
    15  N   -0.061024  -0.003118   6.859735   0.000592  -0.001913  -0.000056
    16  O   -0.000023   0.002166   0.000592   0.012967  -0.013386  -0.000749
    17  H    0.000009  -0.000304  -0.001913  -0.013386   0.017594  -0.000140
    18  H    0.000003   0.000135  -0.000056  -0.000749  -0.000140   0.000685
    19  O   -0.000024   0.002178  -0.000482  -0.000306   0.000452  -0.000088
    20  H    0.000001   0.000074  -0.000121   0.000212  -0.000012  -0.000129
    21  H    0.000017   0.000968  -0.000211   0.000232  -0.000184   0.000068
    22  O    0.000028   0.022258  -0.002048  -0.000004   0.000045   0.000124
    23  H   -0.000018  -0.006915   0.000903  -0.000014  -0.000054  -0.000050
    24  H    0.000018  -0.000871   0.000088  -0.000017   0.000003   0.000003
              19         20         21         22         23         24
[...]
    19  O    7.916768   0.322674   0.318874
    20  H    0.322674   0.424300  -0.024424
    21  H    0.318874  -0.024424   0.424684
 Mulliken charges:
               1
     1  C    0.000000
     2  C    0.000000
     3  C    0.000000
     4  C    0.000000
     5  C    0.000000
     6  C    0.000000
     7  H    0.000000
     8  H    0.000000
     9  H    0.000000
    10  H    0.000000
    11  H    0.000000
    12  C    0.000000
    13  H    0.000000
    14  N    0.000000
    15  N    0.000000
    16  O    0.000000
    17  H    0.000000
    18  H    0.000000
    19  O   -0.558316
    20  H    0.277450
    21  H    0.280865
    22  O    0.000000
    23  H    0.000000
    24  H    0.000000
 Sum of Mulliken charges =   0.00000
 Mulliken charges with hydrogens summed into heavy atoms:
               1
     1  C    0.000000
     2  C    0.000000
     3  C    0.000000
     4  C    0.000000
     5  C    0.000000
     6  C    0.000000
    12  C    0.000000
    14  N    0.000000
    15  N    0.000000
    16  O    0.000000
    19  O    0.000000
    22  O    0.000000
         Mulliken charges condensed to fragments:
      1      0.000000
      2      0.000000
      3      0.000000
      4      0.000000
 Electronic spatial extent (au):  <R**2>=          11018.6094
 Charge=              0.0000 electrons
 Dipole moment (field-independent basis, Debye):
    X=             -0.4811    Y=             -1.4182    Z=             -1.4872  Tot=              2.1105
 Quadrupole moment (field-independent basis, Debye-Ang):
   XX=            -16.4862   YY=            -41.6008   ZZ=            -28.0666
   XY=            -18.6276   XZ=            -17.8865   YZ=            -30.6452
 Traceless Quadrupole moment (field-independent basis, Debye-Ang):
   XX=             12.2317   YY=            -12.8829   ZZ=              0.6512
   XY=            -18.6276   XZ=            -17.8865   YZ=            -30.6452
 Octapole moment (field-independent basis, Debye-Ang**2):
  XXX=           -336.4264  YYY=           -900.5995  ZZZ=           -384.4697  XYY=           -448.1172
  XXY=           -319.8495  XXZ=           -261.7527  XZZ=           -295.1289  YZZ=           -453.2843
  YYZ=           -581.0541  XYZ=           -331.3515
 Hexadecapole moment (field-independent basis, Debye-Ang**3):
 XXXX=          -5515.2041 YYYY=         -17118.2289 ZZZZ=          -4579.0509 XXXY=          -5247.9076
 XXXZ=          -3868.0718 YYYX=          -9062.1663 YYYZ=         -10370.3096 ZZZX=          -3861.8921
 ZZZY=          -5676.0919 XXYY=          -5963.0106 XXZZ=          -3506.0230 YYZZ=          -7313.3140
 XXYZ=          -4247.7073 YYXZ=          -5932.3488 ZZXY=          -4609.1448
 N-N= 9.093048844791D+00 E-N=-1.990365092392D+02  KE= 7.619139583328D+01
 No NMR shielding tensors so no spin-rotation constants.
 Leave Link  601 at Sat Dec 17 23:24:22 2022, MaxMem=  6710886400 cpu:               1.8 elap:               0.1
 (Enter /data0/home/software/g16/l122.exe)
 CPIOFr:  IOpCl= 0 IRwI=-1 IRwCP=  731 ICalc=  7 LCPTot=      242422 Len1MO=      635446 IndFrg=     5325990
 Counterpoise: doing calculation for fragment   4 using the basis set of the fragment.
 Leave Link  122 at Sat Dec 17 23:24:22 2022, MaxMem=  6710886400 cpu:               0.1 elap:               0.0
 (Enter /data0/home/software/g16/l301.exe)
 Basis read from rwf:  (5D, 7F)
 No pseudopotential information found on rwf file.
    39 basis functions,    58 primitive gaussians,    41 cartesian basis functions
     5 alpha electrons        5 beta electrons
       nuclear repulsion energy         9.1456804406 Hartrees.
 IExCor= 4336 DFT=T Ex+Corr=M062X ExCW=0 ScaHFX=  0.540000
 ScaDFX=  1.000000  1.000000  1.000000  1.000000 ScalE2=  1.000000  1.000000
 IRadAn=      5 IRanWt=     -1 IRanGd=            0 ICorTp=0 IEmpDi=131
 NAtoms=   24 NActive=    3 NUniq=    3 SFac= 1.00D+00 NAtFMM=   60 NAOKFM=F Big=F
 Integral buffers will be    131072 words long.
 Raffenetti 2 integral format.
 Two-electron integral symmetry is turned off.
 R6Disp:  Grimme-D3 Dispersion energy=       -0.0000000081 Hartrees.
 Nuclear repulsion after empirical dispersion term =        9.1456804325 Hartrees.
 No density basis found on file   718.
 Leave Link  301 at Sat Dec 17 23:24:22 2022, MaxMem=  6710886400 cpu:               1.3 elap:               0.1
 (Enter /data0/home/software/g16/l302.exe)
 NPDir=0 NMtPBC=     1 NCelOv=     1 NCel=       1 NClECP=     1 NCelD=      1
         NCelK=      1 NCelE2=     1 NClLst=     1 CellRange=     0.0.
 One-electron integrals computed using PRISM.
 NBasis=    39 RedAO= T EigKep=  3.07D-03  NBF=    39
 NBsUse=    39 1.00D-06 EigRej= -1.00D+00 NBFU=    39
 Precomputing XC quadrature grid using
 IXCGrd= 4 IRadAn=           5 IRanWt=          -1 IRanGd=           0 AccXCQ= 0.00D+00.
 Generated NRdTot=       0 NPtTot=           0 NUsed=           0 NTot=          32
 NSgBfM=    41    41    41    41    41 MxSgAt=     3 MxSgA2=     3.
 Leave Link  302 at Sat Dec 17 23:24:22 2022, MaxMem=  6710886400 cpu:               2.2 elap:               0.1
 (Enter /data0/home/software/g16/l303.exe)
 DipDrv:  MaxL=1.
 Leave Link  303 at Sat Dec 17 23:24:22 2022, MaxMem=  6710886400 cpu:               0.4 elap:               0.0
 (Enter /data0/home/software/g16/l401.exe)
 ExpMin= 8.45D-02 ExpMax= 8.59D+03 ExpMxC= 1.30D+03 IAcc=3 IRadAn=         5 AccDes= 0.00D+00
 Harris functional with IExCor= 1009 and IRadAn=       5 diagonalized for initial guess.
 HarFok:  IExCor= 1009 AccDes= 0.00D+00 IRadAn=         5 IDoV= 1 UseB2=F ITyADJ=14
 ICtDFT=  3500011 ScaDFX=  1.000000  1.000000  1.000000  1.000000
 FoFCou: FMM=F IPFlag=           0 FMFlag=      100000 FMFlg1=           0
         NFxFlg=           0 DoJE=T BraDBF=F KetDBF=T FulRan=T
         wScrn=  0.000000 ICntrl=       500 IOpCl=  0 I1Cent=   200000004 NGrid=           0
         NMat0=    1 NMatS0=      1 NMatT0=    0 NMatD0=    1 NMtDS0=    0 NMtDT0=    0
 Symmetry not used in FoFCou.
 Harris En= -76.4171037288971    
 JPrj=0 DoOrth=F DoCkMO=F.
 Leave Link  401 at Sat Dec 17 23:24:22 2022, MaxMem=  6710886400 cpu:               2.8 elap:               0.1
 (Enter /data0/home/software/g16/l502.exe)
 Keep R1 ints in memory in canonical form, NReq=21040233.
 FoFCou: FMM=F IPFlag=           0 FMFlag=           0 FMFlg1=           0
         NFxFlg=           0 DoJE=F BraDBF=F KetDBF=F FulRan=T
         wScrn=  0.000000 ICntrl=       600 IOpCl=  0 I1Cent=           0 NGrid=           0
         NMat0=    1 NMatS0=    780 NMatT0=    0 NMatD0=    1 NMtDS0=    0 NMtDT0=    0
 Symmetry not used in FoFCou.
 Two-electron integral symmetry not used.
 Closed shell SCF:
 Using DIIS extrapolation, IDIIS=  1040.
 NGot=  6710886400 LenX=  6710576391 LenY=  6710574269
 Requested convergence on RMS density matrix=1.00D-08 within 128 cycles.
 Requested convergence on MAX density matrix=1.00D-06.
 Requested convergence on             energy=1.00D-06.
 No special actions if energy rises.
 Integral accuracy reduced to 1.0D-05 until final iterations.

 Cycle   1  Pass 0  IDiag  1:
 E= -76.3456609678024    
 DIIS: error= 7.09D-02 at cycle   1 NSaved=   1.
 NSaved= 1 IEnMin= 1 EnMin= -76.3456609678024     IErMin= 1 ErrMin= 7.09D-02
 ErrMax= 7.09D-02  0.00D+00 EMaxC= 1.00D-01 BMatC= 1.22D-01 BMatP= 1.22D-01
 IDIUse=3 WtCom= 2.91D-01 WtEn= 7.09D-01
 Coeff-Com:  0.100D+01
 Coeff-En:   0.100D+01
 Coeff:      0.100D+01
 Gap=     0.326 Goal=   None    Shift=    0.000
 GapD=    0.326 DampG=1.000 DampE=0.500 DampFc=0.5000 IDamp=-1.
 Damping current iteration by 5.00D-01
 RMSDP=7.84D-03 MaxDP=1.02D-01              OVMax= 1.69D-01

 Cycle   2  Pass 0  IDiag  1:
 E= -76.3775723643442     Delta-E=       -0.031911396542 Rises=F Damp=T
 DIIS: error= 1.16D-02 at cycle   2 NSaved=   2.
 NSaved= 2 IEnMin= 2 EnMin= -76.3775723643442     IErMin= 2 ErrMin= 1.16D-02
 ErrMax= 1.16D-02  0.00D+00 EMaxC= 1.00D-01 BMatC= 4.77D-03 BMatP= 1.22D-01
 IDIUse=3 WtCom= 8.84D-01 WtEn= 1.16D-01
 Coeff-Com:  0.796D-01 0.920D+00
 Coeff-En:   0.183D+00 0.817D+00
 Coeff:      0.917D-01 0.908D+00
 Gap=     0.459 Goal=   None    Shift=    0.000
 RMSDP=9.26D-04 MaxDP=1.37D-02 DE=-3.19D-02 OVMax= 1.01D-01

 Cycle   3  Pass 0  IDiag  1:
 E= -76.4217683708837     Delta-E=       -0.044196006540 Rises=F Damp=F
 DIIS: error= 2.19D-03 at cycle   3 NSaved=   3.
 NSaved= 3 IEnMin= 3 EnMin= -76.4217683708837     IErMin= 3 ErrMin= 2.19D-03
 ErrMax= 2.19D-03  0.00D+00 EMaxC= 1.00D-01 BMatC= 9.13D-05 BMatP= 4.77D-03
 IDIUse=3 WtCom= 9.78D-01 WtEn= 2.19D-02
 Coeff-Com: -0.200D-01 0.398D-01 0.980D+00
 Coeff-En:   0.000D+00 0.000D+00 0.100D+01
 Coeff:     -0.195D-01 0.389D-01 0.981D+00
 Gap=     0.463 Goal=   None    Shift=    0.000
 RMSDP=1.15D-04 MaxDP=9.88D-04 DE=-4.42D-02 OVMax= 3.28D-03

 Cycle   4  Pass 0  IDiag  1:
 E= -76.4218458243225     Delta-E=       -0.000077453439 Rises=F Damp=F
 DIIS: error= 4.07D-04 at cycle   4 NSaved=   4.
 NSaved= 4 IEnMin= 4 EnMin= -76.4218458243225     IErMin= 4 ErrMin= 4.07D-04
 ErrMax= 4.07D-04  0.00D+00 EMaxC= 1.00D-01 BMatC= 3.27D-06 BMatP= 9.13D-05
 IDIUse=3 WtCom= 9.96D-01 WtEn= 4.07D-03
 Coeff-Com: -0.190D-02-0.209D-02 0.164D+00 0.840D+00
 Coeff-En:   0.000D+00 0.000D+00 0.000D+00 0.100D+01
 Coeff:     -0.189D-02-0.208D-02 0.163D+00 0.841D+00
 Gap=     0.464 Goal=   None    Shift=    0.000
 RMSDP=2.19D-05 MaxDP=3.49D-04 DE=-7.75D-05 OVMax= 5.23D-04

 Cycle   5  Pass 0  IDiag  1:
 E= -76.4218478254517     Delta-E=       -0.000002001129 Rises=F Damp=F
 DIIS: error= 8.78D-05 at cycle   5 NSaved=   5.
 NSaved= 5 IEnMin= 5 EnMin= -76.4218478254517     IErMin= 5 ErrMin= 8.78D-05
 ErrMax= 8.78D-05  0.00D+00 EMaxC= 1.00D-01 BMatC= 8.14D-08 BMatP= 3.27D-06
 IDIUse=1 WtCom= 1.00D+00 WtEn= 0.00D+00
 Coeff-Com:  0.115D-02-0.176D-02-0.358D-01-0.674D-01 0.110D+01
 Coeff:      0.115D-02-0.176D-02-0.358D-01-0.674D-01 0.110D+01
 Gap=     0.464 Goal=   None    Shift=    0.000
 RMSDP=8.89D-06 MaxDP=1.03D-04 DE=-2.00D-06 OVMax= 1.97D-04

 Initial convergence to 1.0D-05 achieved.  Increase integral accuracy.
 Cycle   6  Pass 1  IDiag  1:
 E= -76.4218475805230     Delta-E=        0.000000244929 Rises=F Damp=F
 DIIS: error= 1.63D-05 at cycle   1 NSaved=   1.
 NSaved= 1 IEnMin= 1 EnMin= -76.4218475805230     IErMin= 1 ErrMin= 1.63D-05
 ErrMax= 1.63D-05  0.00D+00 EMaxC= 1.00D-01 BMatC= 8.95D-09 BMatP= 8.95D-09
 IDIUse=1 WtCom= 1.00D+00 WtEn= 0.00D+00
 Coeff-Com:  0.100D+01
 Coeff:      0.100D+01
 Gap=     0.464 Goal=   None    Shift=    0.000
 RMSDP=8.89D-06 MaxDP=1.03D-04 DE= 2.45D-07 OVMax= 4.10D-05

 Cycle   7  Pass 1  IDiag  1:
 E= -76.4218475881172     Delta-E=       -0.000000007594 Rises=F Damp=F
 DIIS: error= 6.24D-06 at cycle   2 NSaved=   2.
 NSaved= 2 IEnMin= 2 EnMin= -76.4218475881172     IErMin= 2 ErrMin= 6.24D-06
 ErrMax= 6.24D-06  0.00D+00 EMaxC= 1.00D-01 BMatC= 6.07D-10 BMatP= 8.95D-09
 IDIUse=1 WtCom= 1.00D+00 WtEn= 0.00D+00
 Coeff-Com:  0.301D-01 0.970D+00
 Coeff:      0.301D-01 0.970D+00
 Gap=     0.464 Goal=   None    Shift=    0.000
 RMSDP=5.99D-07 MaxDP=9.30D-06 DE=-7.59D-09 OVMax= 1.49D-05

 Cycle   8  Pass 1  IDiag  1:
 E= -76.4218475883401     Delta-E=       -0.000000000223 Rises=F Damp=F
 DIIS: error= 4.63D-06 at cycle   3 NSaved=   3.
 NSaved= 3 IEnMin= 3 EnMin= -76.4218475883401     IErMin= 3 ErrMin= 4.63D-06
 ErrMax= 4.63D-06  0.00D+00 EMaxC= 1.00D-01 BMatC= 5.71D-10 BMatP= 6.07D-10
 IDIUse=1 WtCom= 1.00D+00 WtEn= 0.00D+00
 Coeff-Com: -0.487D-01 0.511D+00 0.538D+00
 Coeff:     -0.487D-01 0.511D+00 0.538D+00
 Gap=     0.464 Goal=   None    Shift=    0.000
 RMSDP=2.89D-07 MaxDP=3.55D-06 DE=-2.23D-10 OVMax= 7.13D-06

 Cycle   9  Pass 1  IDiag  1:
 E= -76.4218475887253     Delta-E=       -0.000000000385 Rises=F Damp=F
 DIIS: error= 6.21D-07 at cycle   4 NSaved=   4.
 NSaved= 4 IEnMin= 4 EnMin= -76.4218475887253     IErMin= 4 ErrMin= 6.21D-07
 ErrMax= 6.21D-07  0.00D+00 EMaxC= 1.00D-01 BMatC= 4.72D-12 BMatP= 5.71D-10
 IDIUse=1 WtCom= 1.00D+00 WtEn= 0.00D+00
 Coeff-Com: -0.114D-02-0.619D-01 0.253D-02 0.106D+01
 Coeff:     -0.114D-02-0.619D-01 0.253D-02 0.106D+01
 Gap=     0.464 Goal=   None    Shift=    0.000
 RMSDP=8.68D-08 MaxDP=6.30D-07 DE=-3.85D-10 OVMax= 1.66D-06

 Cycle  10  Pass 1  IDiag  1:
 E= -76.4218475887339     Delta-E=       -0.000000000009 Rises=F Damp=F
 DIIS: error= 8.19D-08 at cycle   5 NSaved=   5.
 NSaved= 5 IEnMin= 5 EnMin= -76.4218475887339     IErMin= 5 ErrMin= 8.19D-08
 ErrMax= 8.19D-08  0.00D+00 EMaxC= 1.00D-01 BMatC= 2.24D-13 BMatP= 4.72D-12
 IDIUse=1 WtCom= 1.00D+00 WtEn= 0.00D+00
 Coeff-Com:  0.342D-02-0.452D-01-0.367D-01 0.120D+00 0.959D+00
 Coeff:      0.342D-02-0.452D-01-0.367D-01 0.120D+00 0.959D+00
 Gap=     0.464 Goal=   None    Shift=    0.000
 RMSDP=2.18D-08 MaxDP=1.62D-07 DE=-8.63D-12 OVMax= 4.46D-07

 Cycle  11  Pass 1  IDiag  1:
 E= -76.4218475887345     Delta-E=       -0.000000000001 Rises=F Damp=F
 DIIS: error= 6.27D-09 at cycle   6 NSaved=   6.
 NSaved= 6 IEnMin= 6 EnMin= -76.4218475887345     IErMin= 6 ErrMin= 6.27D-09
 ErrMax= 6.27D-09  0.00D+00 EMaxC= 1.00D-01 BMatC= 1.49D-15 BMatP= 2.24D-13
 IDIUse=1 WtCom= 1.00D+00 WtEn= 0.00D+00
 Coeff-Com: -0.122D-03 0.268D-02 0.143D-02-0.193D-01-0.509D-01 0.107D+01
 Coeff:     -0.122D-03 0.268D-02 0.143D-02-0.193D-01-0.509D-01 0.107D+01
 Gap=     0.464 Goal=   None    Shift=    0.000
 RMSDP=2.42D-09 MaxDP=2.56D-08 DE=-5.68D-13 OVMax= 4.75D-08

 SCF Done:  E(RM062X) =  -76.4218475887     A.U. after   11 cycles
            NFock= 11  Conv=0.24D-08     -V/T= 2.0028
 KE= 7.621027840354D+01 PE=-1.991515563297D+02 EE= 3.737374990498D+01
 Leave Link  502 at Sat Dec 17 23:24:23 2022, MaxMem=  6710886400 cpu:               8.6 elap:               0.4
 (Enter /data0/home/software/g16/l601.exe)
 Copying SCF densities to generalized density rwf, IOpCl= 0 IROHF=0.

 **********************************************************************

            Population analysis using the SCF density.

 **********************************************************************

 Alpha  occ. eigenvalues --  -19.62454  -1.13446  -0.61278  -0.47244  -0.39984
 Alpha virt. eigenvalues --    0.06396   0.13387   0.17356   0.17950   0.18984
 Alpha virt. eigenvalues --    0.23106   0.51628   0.53647   0.97620   1.00139
 Alpha virt. eigenvalues --    1.06073   1.19696   1.19738   1.33045   1.33610
 Alpha virt. eigenvalues --    1.68901   1.74037   1.76414   2.07748   2.09787
 Alpha virt. eigenvalues --    2.34123   2.45103   2.54061   2.89561   3.01452
 Alpha virt. eigenvalues --    5.05764   5.47232   5.95681   6.78029   6.80489
 Alpha virt. eigenvalues --    6.86518   6.91706   7.09367  49.96494
          Condensed to atoms (all electrons):
              22         23         24
    22  O    7.910848   0.323213   0.326495
    23  H    0.323213   0.420193  -0.025186
    24  H    0.326495  -0.025186   0.419914
 Mulliken charges:
               1
     1  C    0.000000
     2  C    0.000000
     3  C    0.000000
     4  C    0.000000
     5  C    0.000000
     6  C    0.000000
     7  H    0.000000
     8  H    0.000000
     9  H    0.000000
    10  H    0.000000
    11  H    0.000000
    12  C    0.000000
    13  H    0.000000
    14  N    0.000000
    15  N    0.000000
    16  O    0.000000
    17  H    0.000000
    18  H    0.000000
    19  O    0.000000
    20  H    0.000000
    21  H    0.000000
    22  O   -0.560556
    23  H    0.281780
    24  H    0.278776
 Sum of Mulliken charges =   0.00000
 Mulliken charges with hydrogens summed into heavy atoms:
               1
     1  C    0.000000
     2  C    0.000000
     3  C    0.000000
     4  C    0.000000
     5  C    0.000000
     6  C    0.000000
    12  C    0.000000
    14  N    0.000000
    15  N    0.000000
    16  O    0.000000
    19  O    0.000000
    22  O    0.000000
         Mulliken charges condensed to fragments:
      1      0.000000
      2      0.000000
      3      0.000000
      4      0.000000
 Electronic spatial extent (au):  <R**2>=          12875.0814
 Charge=              0.0000 electrons
 Dipole moment (field-independent basis, Debye):
    X=             -0.0999    Y=              0.4526    Z=             -2.0332  Tot=              2.0854
 Quadrupole moment (field-independent basis, Debye-Ang):
   XX=             -7.6885   YY=              6.8267   ZZ=            -45.5709
   XY=              0.5605   XZ=            -17.7007   YZ=            -24.3298
 Traceless Quadrupole moment (field-independent basis, Debye-Ang):
   XX=              7.7891   YY=             22.3042   ZZ=            -30.0933
   XY=              0.5605   XZ=            -17.7007   YZ=            -24.3298
 Octapole moment (field-independent basis, Debye-Ang**2):
  XXX=           -165.9781  YYY=             17.4160  ZZZ=           -752.6687  XYY=            -12.6087
  XXY=           -106.3875  XXZ=           -212.6938  XZZ=           -382.8773  YZZ=           -601.7909
  YYZ=           -339.9269  XYZ=           -230.4033
 Hexadecapole moment (field-independent basis, Debye-Ang**3):
 XXXX=          -2570.8317 YYYY=          -2093.1042 ZZZZ=         -10906.9914 XXXY=          -2438.4848
 XXXZ=          -2753.3963 YYYX=          -1159.3565 YYYZ=          -5581.2853 ZZZX=          -6240.6315
 ZZZY=         -10238.0076 XXYY=          -1866.2434 XXZZ=          -3795.1306 YYZZ=          -8480.5341
 XXYZ=          -2974.9334 YYXZ=          -3450.1646 ZZXY=          -5218.7498
 N-N= 9.145680432479D+00 E-N=-1.991515563323D+02  KE= 7.621027840354D+01
 No NMR shielding tensors so no spin-rotation constants.
 Leave Link  601 at Sat Dec 17 23:24:23 2022, MaxMem=  6710886400 cpu:               1.8 elap:               0.1
 (Enter /data0/home/software/g16/l122.exe)
 CPIOFr:  IOpCl= 0 IRwI=-1 IRwCP=  731 ICalc=  8 LCPTot=      242422 Len1MO=      635446 IndFrg=     5961436
 Restoring MOs from calculation   1 to rwf.
 CPIOFr:  IOpCl= 0 IRwI=-2 IRwCP=  731 ICalc=  0 LCPTot=      242422 Len1MO=      635446 IndFrg=      877868
 Counterpoise corrected energy =    -609.111753996878
                   BSSE energy =       0.004220990626
              sum of fragments =    -609.082375574054
           complexation energy =     -21.08 kcal/mole (raw)
           complexation energy =     -18.44 kcal/mole (corrected)
 Leave Link  122 at Sat Dec 17 23:24:23 2022, MaxMem=  6710886400 cpu:               0.3 elap:               0.0
 (Enter /data0/home/software/g16/l9999.exe)
 1\1\GINC-LOCALHOST\SP\RM062X\6-311+G(2d,p)\C7H12N2O3\WUHANYU\17-Dec-20
 22\0\\#p M062X/6-311+G(2d,p) nosymm em=GD3 counterpoise=4\\Title Card 
 Required\\0,1\C,0,9.549098,11.941592,11.407958\C,0,9.945762,10.570998,
 11.571605\C,0,11.258038,10.260358,11.944571\C,0,12.131459,11.313252,12
 .149349\C,0,11.730713,12.659179,11.989909\C,0,10.44275,12.995708,11.61
 5049\H,0,11.562743,9.221868,12.05753\H,0,13.160784,11.110297,12.443149
 \H,0,12.463315,13.445708,12.169676\H,0,10.123394,14.027101,11.479776\H
 ,0,7.664455,12.731579,10.764559\C,0,7.839934,10.567471,10.941198\H,0,6
 .85648,10.244616,10.625775\N,0,8.206568,11.911678,11.024535\N,0,8.8511
 78,9.752102,11.278363\O,0,11.800036,11.643124,8.70156\H,0,11.777571,11
 .742316,9.658569\H,0,11.050758,12.161268,8.377826\O,0,9.371413,12.7795
 11,7.698174\H,0,9.412348,12.899635,6.749854\H,0,9.058995,11.859174,7.8
 17931\O,0,8.032453,14.185749,9.75806\H,0,8.539685,13.778797,9.036095\H
 ,0,7.473968,14.839972,9.348873\\Version=ES64L-G16RevA.03\HF=-76.421847
 6\RMSD=2.424e-09\Dipole=-1.6373158,1.5488809,-1.432961\Quadrupole=-44.
 1364045,80.960059,-36.8236545,-11.0512177,-47.779827,-4.6738961\PG=C01
  [X(C7H12N2O3)]\\@


 Where a calculator on the ENIAC is equipped with 18,000
 vacuum tubes and weighs 30 tons, computers inthe future
 may  have only 1,000 vacuum tubes and weigh only 1 1/2 tons.
              ---Popular Mechanics, March 1949
 Job cpu time:       0 days  1 hours 34 minutes 39.5 seconds.
 Elapsed time:       0 days  0 hours  3 minutes 58.8 seconds.
 File lengths (MBytes):  RWF=    146 Int=      0 D2E=      0 Chk=     55 Scr=      1
 Normal termination of Gaussian 16 at Sat Dec 17 23:24:23 2022.
