 Entering Gaussian System, Link 0=g16
 Initial command:
 /data0/hywu0/study/g16/l1.exe "/data0/hywu0/study/g16/scratch/Gau-485437.inp" -scrdir="/data0/hywu0/study/g16/scratch/"
 Default is to use a total of   8 processors:
                                8 via shared-memory
                                1 via Linda
 Entering Link 1 = /data0/hywu0/study/g16/l1.exe PID=    485438.
  
 Copyright (c) 1988,1990,1992,1993,1995,1998,2003,2009,2016,
            Gaussian, Inc.  All Rights Reserved.
  
 This is part of the Gaussian(R) 16 program.  It is based on
 the Gaussian(R) 09 system (copyright 2009, Gaussian, Inc.),
 the Gaussian(R) 03 system (copyright 2003, Gaussian, Inc.),
 the Gaussian(R) 98 system (copyright 1998, Gaussian, Inc.),
 the Gaussian(R) 94 system (copyright 1995, Gaussian, Inc.),
 the Gaussian 92(TM) system (copyright 1992, Gaussian, Inc.),
 the Gaussian 90(TM) system (copyright 1990, Gaussian, Inc.),
 the Gaussian 88(TM) system (copyright 1988, Gaussian, Inc.),
 the Gaussian 86(TM) system (copyright 1986, Carnegie Mellon
 University), and the Gaussian 82(TM) system (copyright 1983,
 Carnegie Mellon University). Gaussian is a federally registered
 trademark of Gaussian, Inc.
  
 This software contains proprietary and confidential information,
 including trade secrets, belonging to Gaussian, Inc.
  
 This software is provided under written license and may be
 used, copied, transmitted, or stored only in accord with that
 written license.
  
 The following legend is applicable only to US Government
 contracts under FAR:
  
                    RESTRICTED RIGHTS LEGEND
  
 Use, reproduction and disclosure by the US Government is
 subject to restrictions as set forth in subparagraphs (a)
 and (c) of the Commercial Computer Software - Restricted
 Rights clause in FAR 52.227-19.
  
 Gaussian, Inc.
 340 Quinnipiac St., Bldg. 40, Wallingford CT 06492
  
  
 ---------------------------------------------------------------
 Warning -- This program may not be used in any manner that
 competes with the business of Gaussian, Inc. or will provide
 assistance to any competitor of Gaussian, Inc.  The licensee
 of this program is prohibited from giving any competitor of
 Gaussian, Inc. access to this program.  By using this program,
 the user acknowledges that Gaussian, Inc. is engaged in the
 business of creating and licensing software in the field of
 computational chemistry and represents and warrants to the
 licensee that it is not a competitor of Gaussian, Inc. and that
 it will not use this program in any manner prohibited above.
 ---------------------------------------------------------------
  

 Cite this work as:
 Gaussian 16, Revision A.03,
 M. J. Frisch, G. W. Trucks, H. B. Schlegel, G. E. Scuseria, 
 M. A. Robb, J. R. Cheeseman, G. Scalmani, V. Barone, 
 G. A. Petersson, H. Nakatsuji, X. Li, M. Caricato, A. V. Marenich, 
 J. Bloino, B. G. Janesko, R. Gomperts, B. Mennucci, H. P. Hratchian, 
 J. V. Ortiz, A. F. Izmaylov, J. L. Sonnenberg, D. Williams-Young, 
 F. Ding, F. Lipparini, F. Egidi, J. Goings, B. Peng, A. Petrone, 
 T. Henderson, D. Ranasinghe, V. G. Zakrzewski, J. Gao, N. Rega, 
 G. Zheng, W. Liang, M. Hada, M. Ehara, K. Toyota, R. Fukuda, 
 J. Hasegawa, M. Ishida, T. Nakajima, Y. Honda, O. Kitao, H. Nakai, 
 T. Vreven, K. Throssell, J. A. Montgomery, Jr., J. E. Peralta, 
 F. Ogliaro, M. J. Bearpark, J. J. Heyd, E. N. Brothers, K. N. Kudin, 
 V. N. Staroverov, T. A. Keith, R. Kobayashi, J. Normand, 
 K. Raghavachari, A. P. Rendell, J. C. Burant, S. S. Iyengar, 
 J. Tomasi, M. Cossi, J. M. Millam, M. Klene, C. Adamo, R. Cammi, 
 J. W. Ochterski, R. L. Martin, K. Morokuma, O. Farkas, 
 J. B. Foresman, and D. J. Fox, Gaussian, Inc., Wallingford CT, 2016.
 
 ******************************************
 Gaussian 16:  ES64L-G16RevA.03 25-Dec-2016
                20-Feb-2023 
 ******************************************
 %nproc=24
 Will use up to   24 processors via shared memory.
 %mem=50GB
 ---------------------------------------------------
 #p M062X/6-311+G(2d,p) nosymm em=GD3 counterpoise=2
 ---------------------------------------------------
 1/38=1,62=2,172=1/1;
 2/12=2,15=1,17=6,18=5,40=1/2;
 1/38=1,53=2,62=2,63=1/22;
 3/5=4,6=6,7=112,11=2,25=1,30=1,74=-55,124=31/1,2,3;
 4//1;
 5/5=2,38=5/2;
 6/7=2,8=2,9=2,10=2,28=1/1;
 1/53=2,62=2,63=1/22;
 3/5=7,6=11,7=112,11=2,25=1,30=1,74=-55,82=7,124=31/1,2,3;
 4//1;
 5/5=2,38=5/2;
 6/7=2,8=2,9=2,10=2,28=1/1;
 1/53=2,62=2,63=1/22(-4);
 99/5=1,9=1/99;
 Leave Link    1 at Mon Feb 20 01:42:50 2023, MaxMem=  6710886400 cpu:               0.8 elap:               0.0
 (Enter /data0/hywu0/study/g16/l101.exe)
 -------------------
 Title Card Required
 -------------------
 Symbolic Z-matrix:
 Charge =  0 Multiplicity = 1 in supermolecule
 Charge =  0 Multiplicity = 1 in fragment      1.
 Charge =  0 Multiplicity = 1 in fragment      2.
 C                     8.88921   8.45695   9.84496    
 C                     8.05744   9.24734   9.05393    
 C                     7.88438   10.60139   9.38389    
 C                     8.55709   11.12065   10.48538    
 C                     9.38745   10.30142   11.25177    
 H                     7.2473    11.24268   8.76278    
 H                     9.06967   7.39917   9.60168    
 H                     8.49554   12.18851   10.72003    
 H                     9.95345   10.69812   12.10793    
 C                     7.39923   8.66343   7.85865    
 H                     7.91259   7.75855   7.49096    
 H                     6.35092   8.3994    8.05027    
 H                     7.40757   9.37414   7.00781    
 N                     9.52683   8.98455   10.93405    
 C                     10.37487   8.09467   11.76298    
 H                     9.83965   7.90991   12.724     
 H                     10.47454   7.10597   11.25132    
 C                     11.78054   8.65137   12.04484    
 H                     11.7272   9.65835   12.51241    
 H                     12.26304   8.00116   12.80434    
 C                     12.65335   8.71687   10.79782    
 H                     13.71749   8.86453   11.06953    
 H                     12.62264   7.7741    10.22079    
 C                     12.26214   9.88082   9.87895    
 O                     11.62841   10.82775   10.38618    
 O                     12.58938   9.76751   8.68268    
 P                     10.3185   11.99564   7.36       
 O                     9.31058   10.93132   7.23832    
 O                     9.91719   13.23394   6.43817    
 H                     10.65411   13.94907   6.55396    
 O                     10.41644   12.63718   8.81062    
 H                     10.96795   11.96904   9.43951    
 O                     11.79161   11.64012   6.91351    
 H                     12.17407   10.90198   7.60103    
 
 ITRead=  0  0  0  0  0  0  0  0  0  0  0  0  0  0  0  0  0  0  0  0
 ITRead=  0  0  0  0  0  0  0  0  0  0  0  0  0  0
 MicOpt= -1 -1 -1 -1 -1 -1 -1 -1 -1 -1 -1 -1 -1 -1 -1 -1 -1 -1 -1 -1
 MicOpt= -1 -1 -1 -1 -1 -1 -1 -1 -1 -1 -1 -1 -1 -1
 NAtoms=     34 NQM=       34 NQMF=       0 NMMI=      0 NMMIF=      0
                NMic=       0 NMicF=      0.
                    Isotopes and Nuclear Properties:
 (Nuclear quadrupole moments (NQMom) in fm**2, nuclear magnetic moments (NMagM)
  in nuclear magnetons)

  Atom         1           2           3           4           5           6           7           8           9          10
 IAtWgt=          12          12          12          12          12           1           1           1           1          12
 AtmWgt=  12.0000000  12.0000000  12.0000000  12.0000000  12.0000000   1.0078250   1.0078250   1.0078250   1.0078250  12.0000000
 NucSpn=           0           0           0           0           0           1           1           1           1           0
 AtZEff=  -0.0000000  -0.0000000  -0.0000000  -0.0000000  -0.0000000  -0.0000000  -0.0000000  -0.0000000  -0.0000000  -0.0000000
 NQMom=    0.0000000   0.0000000   0.0000000   0.0000000   0.0000000   0.0000000   0.0000000   0.0000000   0.0000000   0.0000000
 NMagM=    0.0000000   0.0000000   0.0000000   0.0000000   0.0000000   2.7928460   2.7928460   2.7928460   2.7928460   0.0000000
 AtZNuc=   6.0000000   6.0000000   6.0000000   6.0000000   6.0000000   1.0000000   1.0000000   1.0000000   1.0000000   6.0000000

  Atom        11          12          13          14          15          16          17          18          19          20
 IAtWgt=           1           1           1          14          12           1           1          12           1           1
 AtmWgt=   1.0078250   1.0078250   1.0078250  14.0030740  12.0000000   1.0078250   1.0078250  12.0000000   1.0078250   1.0078250
 NucSpn=           1           1           1           2           0           1           1           0           1           1
 AtZEff=  -0.0000000  -0.0000000  -0.0000000  -0.0000000  -0.0000000  -0.0000000  -0.0000000  -0.0000000  -0.0000000  -0.0000000
 NQMom=    0.0000000   0.0000000   0.0000000   2.0440000   0.0000000   0.0000000   0.0000000   0.0000000   0.0000000   0.0000000
 NMagM=    2.7928460   2.7928460   2.7928460   0.4037610   0.0000000   2.7928460   2.7928460   0.0000000   2.7928460   2.7928460
 AtZNuc=   1.0000000   1.0000000   1.0000000   7.0000000   6.0000000   1.0000000   1.0000000   6.0000000   1.0000000   1.0000000

  Atom        21          22          23          24          25          26          27          28          29          30
 IAtWgt=          12           1           1          12          16          16          31          16          16           1
 AtmWgt=  12.0000000   1.0078250   1.0078250  12.0000000  15.9949146  15.9949146  30.9737634  15.9949146  15.9949146   1.0078250
 NucSpn=           0           1           1           0           0           0           1           0           0           1
 AtZEff=  -0.0000000  -0.0000000  -0.0000000  -0.0000000  -0.0000000  -0.0000000  -0.0000000  -0.0000000  -0.0000000  -0.0000000
 NQMom=    0.0000000   0.0000000   0.0000000   0.0000000   0.0000000   0.0000000   0.0000000   0.0000000   0.0000000   0.0000000
 NMagM=    0.0000000   2.7928460   2.7928460   0.0000000   0.0000000   0.0000000   1.1316000   0.0000000   0.0000000   2.7928460
 AtZNuc=   6.0000000   1.0000000   1.0000000   6.0000000   8.0000000   8.0000000  15.0000000   8.0000000   8.0000000   1.0000000

  Atom        31          32          33          34
 IAtWgt=          16           1          16           1
 AtmWgt=  15.9949146   1.0078250  15.9949146   1.0078250
 NucSpn=           0           1           0           1
 AtZEff=  -0.0000000  -0.0000000  -0.0000000  -0.0000000
 NQMom=    0.0000000   0.0000000   0.0000000   0.0000000
 NMagM=    0.0000000   2.7928460   0.0000000   2.7928460
 AtZNuc=   8.0000000   1.0000000   8.0000000   1.0000000
 Leave Link  101 at Mon Feb 20 01:42:50 2023, MaxMem=  6710886400 cpu:               3.3 elap:               0.2
 (Enter /data0/hywu0/study/g16/l202.exe)
                          Input orientation:                          
 ---------------------------------------------------------------------
 Center     Atomic      Atomic             Coordinates (Angstroms)
 Number     Number       Type             X           Y           Z
 ---------------------------------------------------------------------
      1          6           0        8.889206    8.456952    9.844959
      2          6           0        8.057443    9.247340    9.053931
      3          6           0        7.884379   10.601387    9.383892
      4          6           0        8.557090   11.120654   10.485378
      5          6           0        9.387453   10.301424   11.251765
      6          1           0        7.247305   11.242681    8.762780
      7          1           0        9.069671    7.399166    9.601678
      8          1           0        8.495539   12.188513   10.720027
      9          1           0        9.953448   10.698119   12.107926
     10          6           0        7.399234    8.663431    7.858645
     11          1           0        7.912587    7.758549    7.490959
     12          1           0        6.350917    8.399405    8.050268
     13          1           0        7.407571    9.374135    7.007814
     14          7           0        9.526829    8.984549   10.934053
     15          6           0       10.374871    8.094665   11.762979
     16          1           0        9.839646    7.909910   12.724004
     17          1           0       10.474542    7.105972   11.251318
     18          6           0       11.780538    8.651373   12.044836
     19          1           0       11.727197    9.658348   12.512409
     20          1           0       12.263036    8.001163   12.804335
     21          6           0       12.653351    8.716866   10.797823
     22          1           0       13.717491    8.864534   11.069533
     23          1           0       12.622642    7.774101   10.220789
     24          6           0       12.262141    9.880825    9.878947
     25          8           0       11.628407   10.827752   10.386177
     26          8           0       12.589380    9.767514    8.682678
     27         15           0       10.318500   11.995640    7.360002
     28          8           0        9.310576   10.931324    7.238323
     29          8           0        9.917193   13.233943    6.438171
     30          1           0       10.654106   13.949066    6.553961
     31          8           0       10.416437   12.637184    8.810619
     32          1           0       10.967946   11.969039    9.439509
     33          8           0       11.791612   11.640117    6.913512
     34          1           0       12.174073   10.901976    7.601031
 ---------------------------------------------------------------------
                    Distance matrix (angstroms):
                    1          2          3          4          5
     1  C    0.000000
     2  C    1.393653   0.000000
     3  C    2.412646   1.404375   0.000000
     4  C    2.759664   2.409978   1.391204   0.000000
     5  C    2.372642   2.776778   2.416228   1.395704   0.000000
     6  H    3.409873   2.173126   1.096769   2.167434   3.414856
     7  H    1.100302   2.177241   3.421486   3.859163   3.353636
     8  H    3.852955   3.408563   2.162809   1.095067   2.153918
     9  H    3.358044   3.876400   3.422099   2.181975   1.100331
    10  C    2.491605   1.484216   2.513447   3.778664   4.260199
    11  H    2.642512   2.163415   3.415512   4.548151   4.773375
    12  H    3.109202   2.153733   2.996462   4.266398   4.804978
    13  H    3.329543   2.150583   2.716476   4.057730   4.773983
    14  N    1.367862   2.400628   2.777554   2.388440   1.361810
    15  C    2.453009   3.746742   4.259843   3.754091   2.471056
    16  H    3.080826   4.293530   4.714177   4.118892   2.844522
    17  H    2.513222   3.905936   4.734358   4.514527   3.375304
    18  C    3.638277   4.812705   5.105216   4.349698   3.013053
    19  H    4.075885   5.059357   5.044224   4.036926   2.734442
    20  H    4.510918   5.771092   6.134593   5.370551   3.996330
    21  C    3.891567   4.944182   5.319184   4.759745   3.658275
    22  H    4.997804   6.020410   6.315318   5.662248   4.565861
    23  H    3.813932   4.936905   5.580778   5.272394   4.232815
    24  C    3.661319   4.331448   4.464201   3.953775   3.213310
    25  O    3.662899   4.126059   3.882469   3.086846   2.459296
    26  O    4.093868   4.576774   4.829501   4.619532   4.139759
    27  P    4.554142   3.941437   3.459049   3.692715   4.345461
    28  O    3.618649   2.775352   2.597376   3.338705   4.063299
    29  O    5.956728   5.117995   4.442967   4.764006   5.661358
    30  H    6.641450   5.924419   5.185253   5.277635   6.081041
    31  O    4.569095   4.137039   3.299156   2.926064   3.531823
    32  H    4.101256   4.003416   3.373715   2.761490   2.926289
    33  O    5.210555   4.924509   4.737954   4.846669   5.137365
    34  H    4.669444   4.668552   4.655150   4.631398   4.631822
                    6          7          8          9         10
     6  H    0.000000
     7  H    4.335594   0.000000
     8  H    2.506691   4.951583   0.000000
     9  H    4.337022   4.236205   2.504603   0.000000
    10  C    2.737348   2.725232   4.670717   5.359137   0.000000
    11  H    3.768196   2.433749   5.512830   5.841453   1.103420
    12  H    3.065192   3.286179   5.107285   5.892954   1.097906
    13  H    2.568473   3.659400   4.783819   5.851971   1.108640
    14  N    3.874250   2.120768   3.372648   2.120449   3.753387
    15  C    5.356572   2.618871   4.623768   2.659804   4.941835
    16  H    5.789550   3.256170   4.912127   2.857729   5.495009
    17  H    5.806913   2.186535   5.480050   3.729455   4.836675
    18  C    6.167412   3.858218   5.005766   2.744341   6.059717
    19  H    6.053037   4.542984   4.478614   2.095451   6.432623
    20  H    7.211045   4.562564   6.006020   3.618391   6.968143
    21  C    6.304481   4.001232   5.417175   3.595999   6.020579
    22  H    7.269113   5.089610   6.199982   4.313735   7.090177
    23  H    6.561333   3.625945   6.063765   4.385860   5.801260
    24  C    5.314985   4.053070   4.496680   3.311553   5.404769
    25  O    4.690590   4.349456   3.431907   2.405559   5.381320
    26  O    5.542590   4.340736   5.174124   4.421141   5.369883
    27  P    3.459331   5.264243   3.827552   4.935545   4.458069
    28  O    2.584183   4.256715   3.790392   4.917388   3.030077
    29  O    4.061679   6.691091   4.631233   6.211106   5.408091
    30  H    4.879518   7.395959   5.011493   6.473493   6.343054
    31  O    3.462705   5.465930   2.745359   3.853124   5.079417
    32  H    3.850809   4.951110   2.792972   3.124883   5.114869
    33  O    4.922243   5.711468   5.065016   5.590004   5.389519
    34  H    5.073340   5.090145   4.991485   5.028403   5.279823
                   11         12         13         14         15
    11  H    0.000000
    12  H    1.778296   0.000000
    13  H    1.760281   1.775761   0.000000
    14  N    3.995466   4.329553   4.478659   0.000000
    15  C    4.942264   5.483548   5.749218   1.482628   0.000000
    16  H    5.578640   5.852747   6.382301   2.111073   1.115423
    17  H    4.596713   5.378101   5.705979   2.127879   1.117696
    18  C    6.041190   6.745431   6.709457   2.534571   1.537942
    19  H    6.586004   7.099298   7.002893   2.790490   2.198985
    20  H    6.871480   7.596901   7.685067   3.457142   2.158317
    21  C    5.859058   6.882624   6.504950   3.140916   2.551496
    22  H    6.908423   7.974880   7.521459   4.194569   3.499525
    23  H    5.443972   6.666086   6.330899   3.399704   2.744738
    24  C    5.396773   6.362487   5.662772   3.065696   3.209631
    25  O    5.622243   6.261409   5.598374   2.848543   3.307068
    26  O    5.227669   6.417950   5.459951   3.880843   4.146170
    27  P    4.874270   5.399175   3.933171   4.739963   5.882771
    28  O    3.476305   3.978624   2.469696   4.182717   5.445353
    29  O    5.925095   6.220124   4.639053   6.198604   7.414528
    30  H    6.834939   7.180189   5.628141   6.715831   7.841291
    31  O    5.640199   5.921601   4.790707   4.317652   5.417807
    32  H    5.555204   5.999103   5.032190   3.635610   4.556427
    33  O    5.517866   6.433941   4.935928   5.324099   6.172092
    34  H    5.296557   6.354040   5.040411   4.668347   5.332910
                   16         17         18         19         20
    16  H    0.000000
    17  H    1.793938   0.000000
    18  C    2.185886   2.173375   0.000000
    19  H    2.581600   3.110324   1.111516   0.000000
    20  H    2.426438   2.532181   1.110142   1.765958   0.000000
    21  C    3.504039   2.747334   1.523527   2.164245   2.165795
    22  H    4.322761   3.693549   2.179092   2.583274   2.422888
    23  H    3.745610   2.474413   2.192235   3.098989   2.618317
    24  C    4.224611   3.574734   2.536645   2.696439   3.477215
    25  O    4.144744   3.991431   2.740606   2.428606   3.773572
    26  O    5.229153   4.260781   3.633745   3.927100   4.496060
    27  P    6.759808   6.251043   5.938800   5.830494   7.026936
    28  O    6.285026   5.665003   5.865275   5.939403   6.948622
    29  O    8.237902   7.812109   7.477078   7.277181   8.568139
    30  H    8.672034   8.302129   7.712594   7.420572   8.776866
    31  O    6.163959   6.046048   5.311085   4.928976   6.391587
    32  H    5.342050   5.213014   4.295922   3.918988   5.361283
    33  O    7.175405   6.411685   5.938283   5.939630   6.940175
    34  H    6.375489   5.533773   4.996748   5.086054   5.957936
                   21         22         23         24         25
    21  C    0.000000
    22  H    1.108163   0.000000
    23  H    1.105765   1.762982   0.000000
    24  C    1.533681   2.137378   2.164510   0.000000
    25  O    2.382394   2.947113   3.215687   1.247226   0.000000
    26  O    2.362582   2.790176   2.518052   1.245385   2.224743
    27  P    5.293439   5.926009   5.595942   3.820375   3.498222
    28  O    5.361717   6.194408   5.461954   4.097338   3.910505
    29  O    6.848147   7.415087   7.171996   5.346131   4.929986
    30  H    7.027323   7.458363   7.446540   5.494715   5.037633
    31  O    4.931699   5.498412   5.523178   3.485034   2.687992
    32  H    3.906691   4.455887   4.576672   2.495733   1.623245
    33  O    4.937192   5.355874   5.155072   3.479987   3.570151
    34  H    3.901781   4.308575   4.104625   2.497880   2.839067
                   26         27         28         29         30
    26  O    0.000000
    27  P    3.445419   0.000000
    28  O    3.767117   1.470879   0.000000
    29  O    4.918793   1.595059   2.512027   0.000000
    30  H    5.075638   2.139674   3.373454   1.033368   0.000000
    31  O    3.601813   1.589170   2.570020   2.496773   2.621073
    32  H    2.836997   2.178724   2.944308   3.422294   3.513601
    33  O    2.696854   1.579813   2.600659   2.505928   2.598931
    34  H    1.621556   2.167336   2.886526   3.447292   3.562501
                   31         32         33         34
    31  O    0.000000
    32  H    1.070552   0.000000
    33  O    2.546422   2.677177   0.000000
    34  H    2.750152   2.444047   1.078801   0.000000
 Symmetry turned off by external request.
 Stoichiometry    C10H16NO6P
 Framework group  C1[X(C10H16NO6P)]
 Deg. of freedom    96
 Full point group                 C1      NOp   1
 Rotational constants (GHZ):           0.5419626           0.3394863           0.2599095
 Leave Link  202 at Mon Feb 20 01:42:50 2023, MaxMem=  6710886400 cpu:               0.1 elap:               0.0
 (Enter /data0/hywu0/study/g16/l122.exe)
 Counterpoise: doing full-system calculation.
 Leave Link  122 at Mon Feb 20 01:42:50 2023, MaxMem=  6710886400 cpu:               0.0 elap:               0.0
 (Enter /data0/hywu0/study/g16/l301.exe)
 Standard basis: 6-311+G(2d,p) (5D, 7F)
 Ernie: Thresh=  0.10000D-02 Tol=  0.10000D-05 Strict=F.
   590 basis functions,   898 primitive gaussians,   626 cartesian basis functions
    73 alpha electrons       73 beta electrons
       nuclear repulsion energy      1672.2950992348 Hartrees.
 IExCor= 4336 DFT=T Ex+Corr=M062X ExCW=0 ScaHFX=  0.540000
 ScaDFX=  1.000000  1.000000  1.000000  1.000000 ScalE2=  1.000000  1.000000
 IRadAn=      5 IRanWt=     -1 IRanGd=            0 ICorTp=0 IEmpDi=131
 NAtoms=   34 NActive=   34 NUniq=   34 SFac= 1.00D+00 NAtFMM=   60 NAOKFM=F Big=F
 Integral buffers will be    131072 words long.
 Raffenetti 2 integral format.
 Two-electron integral symmetry is turned off.
 R6Disp:  Grimme-D3 Dispersion energy=       -0.0024375856 Hartrees.
 Nuclear repulsion after empirical dispersion term =     1672.2926616491 Hartrees.
 Leave Link  301 at Mon Feb 20 01:42:50 2023, MaxMem=  6710886400 cpu:               1.1 elap:               0.0
 (Enter /data0/hywu0/study/g16/l302.exe)
 NPDir=0 NMtPBC=     1 NCelOv=     1 NCel=       1 NClECP=     1 NCelD=      1
         NCelK=      1 NCelE2=     1 NClLst=     1 CellRange=     0.0.
 One-electron integrals computed using PRISM.
 NBasis=   590 RedAO= T EigKep=  1.70D-06  NBF=   590
 NBsUse=   590 1.00D-06 EigRej= -1.00D+00 NBFU=   590
 Precomputing XC quadrature grid using
 IXCGrd= 4 IRadAn=           5 IRanWt=          -1 IRanGd=           0 AccXCQ= 0.00D+00.
 Generated NRdTot=       0 NPtTot=           0 NUsed=           0 NTot=          32
 NSgBfM=   625   624   625   625   625 MxSgAt=    34 MxSgA2=    34.
 Leave Link  302 at Mon Feb 20 01:42:50 2023, MaxMem=  6710886400 cpu:              16.1 elap:               0.7
 (Enter /data0/hywu0/study/g16/l303.exe)
 DipDrv:  MaxL=1.
 Leave Link  303 at Mon Feb 20 01:42:51 2023, MaxMem=  6710886400 cpu:               2.0 elap:               0.1
 (Enter /data0/hywu0/study/g16/l401.exe)
 ExpMin= 3.48D-02 ExpMax= 7.75D+04 ExpMxC= 2.65D+03 IAcc=3 IRadAn=         5 AccDes= 0.00D+00
 Harris functional with IExCor= 1009 and IRadAn=       5 diagonalized for initial guess.
 HarFok:  IExCor= 1009 AccDes= 0.00D+00 IRadAn=         5 IDoV= 1 UseB2=F ITyADJ=14
 ICtDFT=  3500011 ScaDFX=  1.000000  1.000000  1.000000  1.000000
 FoFCou: FMM=F IPFlag=           0 FMFlag=      100000 FMFlg1=           0
         NFxFlg=           0 DoJE=T BraDBF=F KetDBF=T FulRan=T
         wScrn=  0.000000 ICntrl=       500 IOpCl=  0 I1Cent=   200000004 NGrid=           0
         NMat0=    1 NMatS0=      1 NMatT0=    0 NMatD0=    1 NMtDS0=    0 NMtDT0=    0
 Symmetry not used in FoFCou.
 Harris En= -1237.72008178041    
 JPrj=0 DoOrth=F DoCkMO=F.
 Leave Link  401 at Mon Feb 20 01:42:53 2023, MaxMem=  6710886400 cpu:              62.3 elap:               2.6
 (Enter /data0/hywu0/study/g16/l502.exe)
 Two-electron integral symmetry not used.
 Closed shell SCF:
 Using DIIS extrapolation, IDIIS=  1040.
 NGot=  6710886400 LenX=  6710083268 LenY=  6709690766
 Requested convergence on RMS density matrix=1.00D-08 within 128 cycles.
 Requested convergence on MAX density matrix=1.00D-06.
 Requested convergence on             energy=1.00D-06.
 No special actions if energy rises.
 Fock matrices will be formed incrementally for  20 cycles.

 Cycle   1  Pass 1  IDiag  1:
 FoFJK:  IHMeth= 1 ICntrl=       0 DoSepK=F KAlg= 0 I1Cent=           0 FoldK=F
 IRaf= 860000000 NMat=       1 IRICut=       1 DoRegI=T DoRafI=F ISym2E= 0 IDoP0=0 IntGTp=1.
 FoFCou: FMM=F IPFlag=           0 FMFlag=      100000 FMFlg1=           0
         NFxFlg=           0 DoJE=F BraDBF=F KetDBF=F FulRan=T
         wScrn=  0.000000 ICntrl=         0 IOpCl=  0 I1Cent=           0 NGrid=           0
         NMat0=    1 NMatS0=      1 NMatT0=    0 NMatD0=    1 NMtDS0=    0 NMtDT0=    0
 Symmetry not used in FoFCou.
 E= -1237.56391725125    
 DIIS: error= 2.82D-02 at cycle   1 NSaved=   1.
 NSaved= 1 IEnMin= 1 EnMin= -1237.56391725125     IErMin= 1 ErrMin= 2.82D-02
 ErrMax= 2.82D-02  0.00D+00 EMaxC= 1.00D-01 BMatC= 9.95D-01 BMatP= 9.95D-01
 IDIUse=3 WtCom= 7.18D-01 WtEn= 2.82D-01
 Coeff-Com:  0.100D+01
 Coeff-En:   0.100D+01
 Coeff:      0.100D+01
 Gap=     0.245 Goal=   None    Shift=    0.000
 GapD=    0.245 DampG=1.000 DampE=0.500 DampFc=0.5000 IDamp=-1.
 Damping current iteration by 5.00D-01
 RMSDP=1.00D-02 MaxDP=1.96D+00              OVMax= 2.61D-01

 Cycle   2  Pass 1  IDiag  1:
 RMSU=  4.62D-03    CP:  1.08D+00
 E= -1237.84115181899     Delta-E=       -0.277234567738 Rises=F Damp=T
 DIIS: error= 4.79D-03 at cycle   2 NSaved=   2.
 NSaved= 2 IEnMin= 2 EnMin= -1237.84115181899     IErMin= 2 ErrMin= 4.79D-03
 ErrMax= 4.79D-03  0.00D+00 EMaxC= 1.00D-01 BMatC= 7.22D-02 BMatP= 9.95D-01
 IDIUse=3 WtCom= 9.52D-01 WtEn= 4.79D-02
 Coeff-Com:  0.329D-01 0.967D+00
 Coeff-En:   0.129D+00 0.871D+00
 Coeff:      0.375D-01 0.963D+00
 Gap=     0.317 Goal=   None    Shift=    0.000
 RMSDP=5.11D-03 MaxDP=1.22D+00 DE=-2.77D-01 OVMax= 1.94D-01

 Cycle   3  Pass 1  IDiag  1:
 RMSU=  3.26D-03    CP:  9.27D-01  7.17D-01
 E= -1238.17329502593     Delta-E=       -0.332143206942 Rises=F Damp=F
 DIIS: error= 5.30D-03 at cycle   3 NSaved=   3.
 NSaved= 3 IEnMin= 3 EnMin= -1238.17329502593     IErMin= 2 ErrMin= 4.79D-03
 ErrMax= 5.30D-03  0.00D+00 EMaxC= 1.00D-01 BMatC= 4.45D-02 BMatP= 7.22D-02
 IDIUse=3 WtCom= 9.47D-01 WtEn= 5.30D-02
 Coeff-Com: -0.499D-01 0.436D+00 0.614D+00
 Coeff-En:   0.000D+00 0.000D+00 0.100D+01
 Coeff:     -0.472D-01 0.413D+00 0.634D+00
 Gap=     0.261 Goal=   None    Shift=    0.000
 RMSDP=1.20D-03 MaxDP=2.13D-01 DE=-3.32D-01 OVMax= 6.27D-02

 Cycle   4  Pass 1  IDiag  1:
 RMSU=  9.35D-04    CP:  9.06D-01  7.99D-01  8.73D-01
 E= -1238.20292689321     Delta-E=       -0.029631867277 Rises=F Damp=F
 DIIS: error= 2.52D-03 at cycle   4 NSaved=   4.
 NSaved= 4 IEnMin= 4 EnMin= -1238.20292689321     IErMin= 4 ErrMin= 2.52D-03
 ErrMax= 2.52D-03  0.00D+00 EMaxC= 1.00D-01 BMatC= 9.58D-03 BMatP= 4.45D-02
 IDIUse=3 WtCom= 9.75D-01 WtEn= 2.52D-02
 Coeff-Com: -0.313D-01 0.909D-01 0.350D+00 0.591D+00
 Coeff-En:   0.000D+00 0.000D+00 0.172D+00 0.828D+00
 Coeff:     -0.305D-01 0.886D-01 0.345D+00 0.597D+00
 Gap=     0.262 Goal=   None    Shift=    0.000
 RMSDP=4.47D-04 MaxDP=6.92D-02 DE=-2.96D-02 OVMax= 2.09D-02

 Cycle   5  Pass 1  IDiag  1:
 RMSU=  2.28D-04    CP:  9.11D-01  7.84D-01  9.28D-01  6.71D-01
 E= -1238.21062346641     Delta-E=       -0.007696573200 Rises=F Damp=F
 DIIS: error= 5.24D-04 at cycle   5 NSaved=   5.
 NSaved= 5 IEnMin= 5 EnMin= -1238.21062346641     IErMin= 5 ErrMin= 5.24D-04
 ErrMax= 5.24D-04  0.00D+00 EMaxC= 1.00D-01 BMatC= 2.98D-04 BMatP= 9.58D-03
 IDIUse=3 WtCom= 9.95D-01 WtEn= 5.24D-03
 Coeff-Com: -0.104D-01 0.202D-01 0.117D+00 0.257D+00 0.617D+00
 Coeff-En:   0.000D+00 0.000D+00 0.000D+00 0.000D+00 0.100D+01
 Coeff:     -0.103D-01 0.201D-01 0.117D+00 0.255D+00 0.619D+00
 Gap=     0.258 Goal=   None    Shift=    0.000
 RMSDP=8.30D-05 MaxDP=1.11D-02 DE=-7.70D-03 OVMax= 4.13D-03

 Cycle   6  Pass 1  IDiag  1:
 RMSU=  6.94D-05    CP:  9.10D-01  7.79D-01  9.24D-01  7.00D-01  9.66D-01
 E= -1238.21086361513     Delta-E=       -0.000240148720 Rises=F Damp=F
 DIIS: error= 1.43D-04 at cycle   6 NSaved=   6.
 NSaved= 6 IEnMin= 6 EnMin= -1238.21086361513     IErMin= 6 ErrMin= 1.43D-04
 ErrMax= 1.43D-04  0.00D+00 EMaxC= 1.00D-01 BMatC= 3.35D-05 BMatP= 2.98D-04
 IDIUse=3 WtCom= 9.99D-01 WtEn= 1.43D-03
 Coeff-Com: -0.197D-02 0.103D-02 0.231D-01 0.652D-01 0.296D+00 0.617D+00
 Coeff-En:   0.000D+00 0.000D+00 0.000D+00 0.000D+00 0.000D+00 0.100D+01
 Coeff:     -0.197D-02 0.103D-02 0.230D-01 0.651D-01 0.295D+00 0.617D+00
 Gap=     0.258 Goal=   None    Shift=    0.000
 RMSDP=3.25D-05 MaxDP=4.68D-03 DE=-2.40D-04 OVMax= 1.47D-03

 Cycle   7  Pass 1  IDiag  1:
 RMSU=  2.92D-05    CP:  9.11D-01  7.79D-01  9.27D-01  7.03D-01  9.94D-01
                    CP:  8.66D-01
 E= -1238.21088921884     Delta-E=       -0.000025603712 Rises=F Damp=F
 DIIS: error= 4.79D-05 at cycle   7 NSaved=   7.
 NSaved= 7 IEnMin= 7 EnMin= -1238.21088921884     IErMin= 7 ErrMin= 4.79D-05
 ErrMax= 4.79D-05  0.00D+00 EMaxC= 1.00D-01 BMatC= 4.04D-06 BMatP= 3.35D-05
 IDIUse=1 WtCom= 1.00D+00 WtEn= 0.00D+00
 Coeff-Com:  0.384D-03-0.180D-02-0.376D-02-0.238D-02 0.678D-01 0.294D+00
 Coeff-Com:  0.646D+00
 Coeff:      0.384D-03-0.180D-02-0.376D-02-0.238D-02 0.678D-01 0.294D+00
 Coeff:      0.646D+00
 Gap=     0.258 Goal=   None    Shift=    0.000
 RMSDP=1.28D-05 MaxDP=1.70D-03 DE=-2.56D-05 OVMax= 5.54D-04

 Cycle   8  Pass 1  IDiag  1:
 RMSU=  9.00D-06    CP:  9.11D-01  7.78D-01  9.27D-01  7.02D-01  1.01D+00
                    CP:  9.28D-01  1.00D+00
 E= -1238.21089243987     Delta-E=       -0.000003221027 Rises=F Damp=F
 DIIS: error= 1.45D-05 at cycle   8 NSaved=   8.
 NSaved= 8 IEnMin= 8 EnMin= -1238.21089243987     IErMin= 8 ErrMin= 1.45D-05
 ErrMax= 1.45D-05  0.00D+00 EMaxC= 1.00D-01 BMatC= 5.23D-07 BMatP= 4.04D-06
 IDIUse=1 WtCom= 1.00D+00 WtEn= 0.00D+00
 Coeff-Com:  0.467D-03-0.962D-03-0.505D-02-0.109D-01-0.114D-01 0.351D-01
 Coeff-Com:  0.297D+00 0.696D+00
 Coeff:      0.467D-03-0.962D-03-0.505D-02-0.109D-01-0.114D-01 0.351D-01
 Coeff:      0.297D+00 0.696D+00
 Gap=     0.258 Goal=   None    Shift=    0.000
 RMSDP=6.82D-06 MaxDP=1.59D-03 DE=-3.22D-06 OVMax= 2.24D-04

 Cycle   9  Pass 1  IDiag  1:
 RMSU=  3.58D-06    CP:  9.11D-01  7.78D-01  9.27D-01  7.03D-01  1.02D+00
                    CP:  9.48D-01  1.00D+00  8.79D-01
 E= -1238.21089290834     Delta-E=       -0.000000468470 Rises=F Damp=F
 DIIS: error= 4.86D-06 at cycle   9 NSaved=   9.
 NSaved= 9 IEnMin= 9 EnMin= -1238.21089290834     IErMin= 9 ErrMin= 4.86D-06
 ErrMax= 4.86D-06  0.00D+00 EMaxC= 1.00D-01 BMatC= 5.11D-08 BMatP= 5.23D-07
 IDIUse=1 WtCom= 1.00D+00 WtEn= 0.00D+00
 Coeff-Com:  0.174D-03-0.306D-03-0.199D-02-0.480D-02-0.104D-01-0.891D-02
 Coeff-Com:  0.838D-01 0.308D+00 0.634D+00
 Coeff:      0.174D-03-0.306D-03-0.199D-02-0.480D-02-0.104D-01-0.891D-02
 Coeff:      0.838D-01 0.308D+00 0.634D+00
 Gap=     0.258 Goal=   None    Shift=    0.000
 RMSDP=1.81D-06 MaxDP=2.84D-04 DE=-4.68D-07 OVMax= 8.28D-05

 Cycle  10  Pass 1  IDiag  1:
 RMSU=  1.26D-06    CP:  9.11D-01  7.78D-01  9.27D-01  7.04D-01  1.02D+00
                    CP:  9.49D-01  1.02D+00  8.69D-01  1.06D+00
 E= -1238.21089295795     Delta-E=       -0.000000049614 Rises=F Damp=F
 DIIS: error= 2.17D-06 at cycle  10 NSaved=  10.
 NSaved=10 IEnMin=10 EnMin= -1238.21089295795     IErMin=10 ErrMin= 2.17D-06
 ErrMax= 2.17D-06  0.00D+00 EMaxC= 1.00D-01 BMatC= 8.11D-09 BMatP= 5.11D-08
 IDIUse=1 WtCom= 1.00D+00 WtEn= 0.00D+00
 Coeff-Com:  0.846D-06 0.259D-04-0.871D-04-0.443D-03-0.284D-02-0.938D-02
 Coeff-Com: -0.715D-02 0.250D-01 0.289D+00 0.706D+00
 Coeff:      0.846D-06 0.259D-04-0.871D-04-0.443D-03-0.284D-02-0.938D-02
 Coeff:     -0.715D-02 0.250D-01 0.289D+00 0.706D+00
 Gap=     0.258 Goal=   None    Shift=    0.000
 RMSDP=7.55D-07 MaxDP=8.54D-05 DE=-4.96D-08 OVMax= 3.31D-05

 Cycle  11  Pass 1  IDiag  1:
 RMSU=  5.64D-07    CP:  9.11D-01  7.78D-01  9.27D-01  7.04D-01  1.02D+00
                    CP:  9.52D-01  1.01D+00  8.92D-01  1.15D+00  1.09D+00
 E= -1238.21089296704     Delta-E=       -0.000000009084 Rises=F Damp=F
 DIIS: error= 8.03D-07 at cycle  11 NSaved=  11.
 NSaved=11 IEnMin=11 EnMin= -1238.21089296704     IErMin=11 ErrMin= 8.03D-07
 ErrMax= 8.03D-07  0.00D+00 EMaxC= 1.00D-01 BMatC= 1.06D-09 BMatP= 8.11D-09
 IDIUse=1 WtCom= 1.00D+00 WtEn= 0.00D+00
 Coeff-Com: -0.274D-04 0.564D-04 0.289D-03 0.602D-03 0.424D-03-0.267D-02
 Coeff-Com: -0.175D-01-0.447D-01 0.180D-01 0.292D+00 0.753D+00
 Coeff:     -0.274D-04 0.564D-04 0.289D-03 0.602D-03 0.424D-03-0.267D-02
 Coeff:     -0.175D-01-0.447D-01 0.180D-01 0.292D+00 0.753D+00
 Gap=     0.258 Goal=   None    Shift=    0.000
 RMSDP=4.53D-07 MaxDP=9.10D-05 DE=-9.08D-09 OVMax= 1.77D-05

 Cycle  12  Pass 1  IDiag  1:
 RMSU=  1.77D-07    CP:  9.10D-01  7.78D-01  9.27D-01  7.04D-01  1.02D+00
                    CP:  9.52D-01  1.01D+00  8.88D-01  1.21D+00  1.18D+00
                    CP:  9.73D-01
 E= -1238.21089296863     Delta-E=       -0.000000001598 Rises=F Damp=F
 DIIS: error= 2.64D-07 at cycle  12 NSaved=  12.
 NSaved=12 IEnMin=12 EnMin= -1238.21089296863     IErMin=12 ErrMin= 2.64D-07
 ErrMax= 2.64D-07  0.00D+00 EMaxC= 1.00D-01 BMatC= 9.20D-11 BMatP= 1.06D-09
 IDIUse=1 WtCom= 1.00D+00 WtEn= 0.00D+00
 Coeff-Com: -0.702D-05 0.135D-04 0.918D-04 0.204D-03 0.369D-03 0.314D-03
 Coeff-Com: -0.383D-02-0.146D-01-0.201D-01 0.431D-02 0.224D+00 0.810D+00
 Coeff:     -0.702D-05 0.135D-04 0.918D-04 0.204D-03 0.369D-03 0.314D-03
 Coeff:     -0.383D-02-0.146D-01-0.201D-01 0.431D-02 0.224D+00 0.810D+00
 Gap=     0.258 Goal=   None    Shift=    0.000
 RMSDP=9.55D-08 MaxDP=1.64D-05 DE=-1.60D-09 OVMax= 6.96D-06

 Cycle  13  Pass 1  IDiag  1:
 RMSU=  5.48D-08    CP:  9.10D-01  7.78D-01  9.27D-01  7.04D-01  1.02D+00
                    CP:  9.53D-01  1.01D+00  8.87D-01  1.22D+00  1.19D+00
                    CP:  1.04D+00  1.06D+00
 E= -1238.21089296882     Delta-E=       -0.000000000183 Rises=F Damp=F
 DIIS: error= 2.08D-07 at cycle  13 NSaved=  13.
 NSaved=13 IEnMin=13 EnMin= -1238.21089296882     IErMin=13 ErrMin= 2.08D-07
 ErrMax= 2.08D-07  0.00D+00 EMaxC= 1.00D-01 BMatC= 2.69D-11 BMatP= 9.20D-11
 IDIUse=1 WtCom= 1.00D+00 WtEn= 0.00D+00
 Coeff-Com:  0.969D-06-0.289D-05 0.267D-05 0.118D-04 0.120D-03 0.602D-03
 Coeff-Com:  0.689D-03-0.538D-03-0.132D-01-0.500D-01-0.163D-01 0.380D+00
 Coeff-Com:  0.698D+00
 Coeff:      0.969D-06-0.289D-05 0.267D-05 0.118D-04 0.120D-03 0.602D-03
 Coeff:      0.689D-03-0.538D-03-0.132D-01-0.500D-01-0.163D-01 0.380D+00
 Coeff:      0.698D+00
 Gap=     0.258 Goal=   None    Shift=    0.000
 RMSDP=4.33D-08 MaxDP=4.44D-06 DE=-1.83D-10 OVMax= 2.79D-06

 Cycle  14  Pass 1  IDiag  1:
 RMSU=  2.89D-08    CP:  9.10D-01  7.78D-01  9.27D-01  7.04D-01  1.02D+00
                    CP:  9.53D-01  1.01D+00  8.87D-01  1.22D+00  1.20D+00
                    CP:  1.06D+00  1.17D+00  9.74D-01
 E= -1238.21089296891     Delta-E=       -0.000000000089 Rises=F Damp=F
 DIIS: error= 5.34D-08 at cycle  14 NSaved=  14.
 NSaved=14 IEnMin=14 EnMin= -1238.21089296891     IErMin=14 ErrMin= 5.34D-08
 ErrMax= 5.34D-08  0.00D+00 EMaxC= 1.00D-01 BMatC= 3.03D-12 BMatP= 2.69D-11
 IDIUse=1 WtCom= 1.00D+00 WtEn= 0.00D+00
 Coeff-Com:  0.156D-05-0.327D-05-0.133D-04-0.285D-04-0.122D-04 0.219D-03
 Coeff-Com:  0.928D-03 0.217D-02-0.132D-02-0.201D-01-0.410D-01 0.202D-01
 Coeff-Com:  0.279D+00 0.760D+00
 Coeff:      0.156D-05-0.327D-05-0.133D-04-0.285D-04-0.122D-04 0.219D-03
 Coeff:      0.928D-03 0.217D-02-0.132D-02-0.201D-01-0.410D-01 0.202D-01
 Coeff:      0.279D+00 0.760D+00
 Gap=     0.258 Goal=   None    Shift=    0.000
 RMSDP=1.43D-08 MaxDP=1.39D-06 DE=-8.91D-11 OVMax= 1.39D-06

 Cycle  15  Pass 1  IDiag  1:
 RMSU=  8.63D-09    CP:  9.10D-01  7.78D-01  9.27D-01  7.04D-01  1.02D+00
                    CP:  9.53D-01  1.01D+00  8.87D-01  1.22D+00  1.20D+00
                    CP:  1.07D+00  1.20D+00  1.09D+00  1.13D+00
 E= -1238.21089296891     Delta-E=       -0.000000000006 Rises=F Damp=F
 DIIS: error= 2.72D-08 at cycle  15 NSaved=  15.
 NSaved=15 IEnMin=15 EnMin= -1238.21089296891     IErMin=15 ErrMin= 2.72D-08
 ErrMax= 2.72D-08  0.00D+00 EMaxC= 1.00D-01 BMatC= 3.55D-13 BMatP= 3.03D-12
 IDIUse=1 WtCom= 1.00D+00 WtEn= 0.00D+00
 Coeff-Com:  0.310D-06-0.621D-06-0.417D-05-0.953D-05-0.174D-04-0.272D-05
 Coeff-Com:  0.180D-03 0.702D-03 0.107D-02-0.205D-03-0.116D-01-0.421D-01
 Coeff-Com: -0.637D-02 0.257D+00 0.802D+00
 Coeff:      0.310D-06-0.621D-06-0.417D-05-0.953D-05-0.174D-04-0.272D-05
 Coeff:      0.180D-03 0.702D-03 0.107D-02-0.205D-03-0.116D-01-0.421D-01
 Coeff:     -0.637D-02 0.257D+00 0.802D+00
 Gap=     0.258 Goal=   None    Shift=    0.000
 RMSDP=6.64D-09 MaxDP=5.84D-07 DE=-5.91D-12 OVMax= 3.95D-07

 SCF Done:  E(RM062X) =  -1238.21089297     A.U. after   15 cycles
            NFock= 15  Conv=0.66D-08     -V/T= 2.0035
 KE= 1.233907825775D+03 PE=-6.257940822752D+03 EE= 2.113529442359D+03
 Leave Link  502 at Mon Feb 20 01:45:39 2023, MaxMem=  6710886400 cpu:            3973.5 elap:             166.3
 (Enter /data0/hywu0/study/g16/l601.exe)
 Copying SCF densities to generalized density rwf, IOpCl= 0 IROHF=0.

 **********************************************************************

            Population analysis using the SCF density.

 **********************************************************************

 Alpha  occ. eigenvalues --  -78.11687 -19.63420 -19.60717 -19.60151 -19.58274
 Alpha  occ. eigenvalues --  -19.57403 -19.54812 -14.88263 -10.64446 -10.63937
 Alpha  occ. eigenvalues --  -10.63649 -10.63287 -10.59960 -10.59662 -10.58813
 Alpha  occ. eigenvalues --  -10.57136 -10.55003 -10.54693  -6.92399  -5.04346
 Alpha  occ. eigenvalues --   -5.04262  -5.04111  -1.18430  -1.17420  -1.15643
 Alpha  occ. eigenvalues --   -1.10888  -1.09401  -1.07332  -1.05130  -0.97671
 Alpha  occ. eigenvalues --   -0.92647  -0.91419  -0.83605  -0.82814  -0.76569
 Alpha  occ. eigenvalues --   -0.74918  -0.70552  -0.66847  -0.64959  -0.62437
 Alpha  occ. eigenvalues --   -0.60949  -0.59850  -0.59405  -0.59108  -0.57778
 Alpha  occ. eigenvalues --   -0.55679  -0.55194  -0.53092  -0.52578  -0.52094
 Alpha  occ. eigenvalues --   -0.51548  -0.50615  -0.49033  -0.48745  -0.47965
 Alpha  occ. eigenvalues --   -0.47501  -0.46421  -0.45554  -0.45456  -0.44564
 Alpha  occ. eigenvalues --   -0.44161  -0.42994  -0.41992  -0.41191  -0.40966
 Alpha  occ. eigenvalues --   -0.38768  -0.36522  -0.36098  -0.34587  -0.33489
 Alpha  occ. eigenvalues --   -0.32730  -0.32288  -0.31884
 Alpha virt. eigenvalues --   -0.06097  -0.02300  -0.01172   0.00369   0.00780
 Alpha virt. eigenvalues --    0.01615   0.02521   0.02545   0.03236   0.03447
 Alpha virt. eigenvalues --    0.04791   0.04955   0.05522   0.05777   0.06530
 Alpha virt. eigenvalues --    0.06962   0.07552   0.07825   0.08223   0.08547
 Alpha virt. eigenvalues --    0.09037   0.09331   0.09740   0.10354   0.10975
 Alpha virt. eigenvalues --    0.11493   0.11801   0.11994   0.12747   0.13117
 Alpha virt. eigenvalues --    0.13443   0.14167   0.14457   0.14692   0.15247
 Alpha virt. eigenvalues --    0.15466   0.16098   0.16496   0.16939   0.17323
 Alpha virt. eigenvalues --    0.17402   0.17983   0.18484   0.18626   0.18696
 Alpha virt. eigenvalues --    0.19541   0.20031   0.20332   0.20747   0.21086
 Alpha virt. eigenvalues --    0.21499   0.21988   0.22287   0.22687   0.22920
 Alpha virt. eigenvalues --    0.23219   0.23470   0.23813   0.24572   0.24966
 Alpha virt. eigenvalues --    0.25477   0.25568   0.26059   0.26428   0.26537
 Alpha virt. eigenvalues --    0.26950   0.27182   0.27679   0.27911   0.28217
 Alpha virt. eigenvalues --    0.28663   0.29390   0.29512   0.30307   0.30882
 Alpha virt. eigenvalues --    0.30952   0.31206   0.31656   0.32261   0.32380
 Alpha virt. eigenvalues --    0.32904   0.33536   0.33638   0.34177   0.34335
 Alpha virt. eigenvalues --    0.35090   0.35177   0.35495   0.36351   0.36837
 Alpha virt. eigenvalues --    0.37052   0.37716   0.37947   0.38680   0.39412
 Alpha virt. eigenvalues --    0.39955   0.40302   0.41170   0.41850   0.42789
 Alpha virt. eigenvalues --    0.43137   0.44098   0.44599   0.45819   0.46410
 Alpha virt. eigenvalues --    0.47241   0.48346   0.48597   0.49073   0.49539
 Alpha virt. eigenvalues --    0.50223   0.51653   0.51894   0.52466   0.52943
 Alpha virt. eigenvalues --    0.53314   0.53837   0.55868   0.56382   0.57085
 Alpha virt. eigenvalues --    0.57955   0.58549   0.58896   0.59278   0.60040
 Alpha virt. eigenvalues --    0.60372   0.61436   0.61902   0.62124   0.63492
 Alpha virt. eigenvalues --    0.64336   0.64596   0.65155   0.65740   0.65901
 Alpha virt. eigenvalues --    0.66591   0.67839   0.68247   0.68632   0.68963
 Alpha virt. eigenvalues --    0.69545   0.70013   0.70603   0.71362   0.72346
 Alpha virt. eigenvalues --    0.72827   0.73082   0.73839   0.74041   0.74547
 Alpha virt. eigenvalues --    0.75191   0.75859   0.76560   0.77231   0.78023
 Alpha virt. eigenvalues --    0.78478   0.78904   0.79634   0.81261   0.82118
 Alpha virt. eigenvalues --    0.82746   0.83291   0.84468   0.84848   0.85498
 Alpha virt. eigenvalues --    0.86762   0.87495   0.87782   0.88451   0.89148
 Alpha virt. eigenvalues --    0.89591   0.90897   0.92183   0.92826   0.95234
 Alpha virt. eigenvalues --    0.95677   0.96479   0.96672   0.97753   0.98632
 Alpha virt. eigenvalues --    0.99553   1.00685   1.02728   1.03365   1.05203
 Alpha virt. eigenvalues --    1.06112   1.07636   1.08927   1.09358   1.11434
 Alpha virt. eigenvalues --    1.12323   1.13054   1.13890   1.14735   1.15689
 Alpha virt. eigenvalues --    1.16495   1.17161   1.18661   1.19147   1.19414
 Alpha virt. eigenvalues --    1.21129   1.21706   1.22738   1.23302   1.24129
 Alpha virt. eigenvalues --    1.24743   1.25799   1.26770   1.27830   1.28744
 Alpha virt. eigenvalues --    1.28900   1.29871   1.31200   1.31721   1.32449
 Alpha virt. eigenvalues --    1.32551   1.33454   1.34203   1.34596   1.35053
 Alpha virt. eigenvalues --    1.35323   1.36781   1.37376   1.37443   1.38560
 Alpha virt. eigenvalues --    1.38915   1.39564   1.40000   1.40912   1.41783
 Alpha virt. eigenvalues --    1.42410   1.42811   1.43577   1.43705   1.44596
 Alpha virt. eigenvalues --    1.45753   1.47219   1.47557   1.48167   1.49137
 Alpha virt. eigenvalues --    1.49845   1.52312   1.52686   1.54065   1.54814
 Alpha virt. eigenvalues --    1.55835   1.57196   1.57641   1.59581   1.60763
 Alpha virt. eigenvalues --    1.61704   1.62667   1.64734   1.64971   1.65702
 Alpha virt. eigenvalues --    1.67020   1.68168   1.70305   1.71125   1.72694
 Alpha virt. eigenvalues --    1.73362   1.74523   1.74774   1.75324   1.77357
 Alpha virt. eigenvalues --    1.77683   1.78446   1.79943   1.80974   1.81727
 Alpha virt. eigenvalues --    1.82810   1.82979   1.84631   1.86072   1.86471
 Alpha virt. eigenvalues --    1.88064   1.89650   1.90774   1.92946   1.94075
 Alpha virt. eigenvalues --    1.94580   1.94891   1.95830   1.97657   1.98943
 Alpha virt. eigenvalues --    2.00162   2.01115   2.02373   2.03529   2.04827
 Alpha virt. eigenvalues --    2.06826   2.07789   2.09186   2.11343   2.12562
 Alpha virt. eigenvalues --    2.14222   2.15516   2.16551   2.17396   2.18454
 Alpha virt. eigenvalues --    2.19229   2.20750   2.21225   2.24216   2.25202
 Alpha virt. eigenvalues --    2.26423   2.27411   2.28985   2.30784   2.32322
 Alpha virt. eigenvalues --    2.32616   2.33279   2.33874   2.34714   2.35694
 Alpha virt. eigenvalues --    2.36011   2.36871   2.39642   2.40342   2.41540
 Alpha virt. eigenvalues --    2.43053   2.45442   2.47404   2.48461   2.49643
 Alpha virt. eigenvalues --    2.50704   2.53674   2.56125   2.58029   2.60278
 Alpha virt. eigenvalues --    2.62440   2.63814   2.65916   2.67718   2.69064
 Alpha virt. eigenvalues --    2.72121   2.72234   2.73509   2.74729   2.77718
 Alpha virt. eigenvalues --    2.78213   2.80127   2.82111   2.83359   2.84809
 Alpha virt. eigenvalues --    2.85825   2.86537   2.88121   2.89729   2.90788
 Alpha virt. eigenvalues --    2.91517   2.92041   2.93215   2.93398   2.95916
 Alpha virt. eigenvalues --    2.96495   2.98358   3.01075   3.02829   3.04054
 Alpha virt. eigenvalues --    3.04626   3.09032   3.09780   3.11564   3.13273
 Alpha virt. eigenvalues --    3.13967   3.15703   3.18545   3.19902   3.21503
 Alpha virt. eigenvalues --    3.23706   3.25115   3.27593   3.30103   3.32282
 Alpha virt. eigenvalues --    3.33206   3.34100   3.34985   3.36850   3.37648
 Alpha virt. eigenvalues --    3.39704   3.40860   3.41491   3.43167   3.43962
 Alpha virt. eigenvalues --    3.45942   3.48060   3.48252   3.49783   3.50746
 Alpha virt. eigenvalues --    3.51604   3.52601   3.54241   3.55544   3.57045
 Alpha virt. eigenvalues --    3.57602   3.59327   3.60566   3.61720   3.62600
 Alpha virt. eigenvalues --    3.64205   3.65048   3.65958   3.66819   3.68843
 Alpha virt. eigenvalues --    3.69794   3.70414   3.71826   3.72625   3.73316
 Alpha virt. eigenvalues --    3.75244   3.77835   3.78902   3.81707   3.82976
 Alpha virt. eigenvalues --    3.84010   3.85503   3.88724   3.91586   3.93121
 Alpha virt. eigenvalues --    3.96262   3.99444   4.02159   4.04472   4.06809
 Alpha virt. eigenvalues --    4.10109   4.15037   4.16719   4.18839   4.19974
 Alpha virt. eigenvalues --    4.23505   4.24055   4.28444   4.38309   4.39706
 Alpha virt. eigenvalues --    4.52444   4.55650   4.64380   4.71817   4.97199
 Alpha virt. eigenvalues --    5.04200   5.06990   5.12278   5.13255   5.14733
 Alpha virt. eigenvalues --    5.17666   5.21509   5.23908   5.28257   5.30082
 Alpha virt. eigenvalues --    5.32777   5.34108   5.38956   5.40772   5.45259
 Alpha virt. eigenvalues --    5.48583   5.50375   5.52710   5.57658   5.59530
 Alpha virt. eigenvalues --    5.65888   5.68566   5.77240   5.98021   6.25572
 Alpha virt. eigenvalues --    6.79217   6.81057   6.83218   6.83959   6.86313
 Alpha virt. eigenvalues --    6.86782   6.88180   6.91415   6.92362   6.93874
 Alpha virt. eigenvalues --    6.97899   6.98763   7.02931   7.04579   7.05971
 Alpha virt. eigenvalues --    7.07159   7.08795   7.09504   7.11759   7.15110
 Alpha virt. eigenvalues --    7.24237   7.26070   7.31431   7.33602   7.34055
 Alpha virt. eigenvalues --    7.34751   7.41162   7.41658   7.45461   7.49204
 Alpha virt. eigenvalues --    7.76715  14.32126  14.37452  14.44773  23.83523
 Alpha virt. eigenvalues --   23.94010  23.99242  24.03716  24.07315  24.09216
 Alpha virt. eigenvalues --   24.10532  24.11663  24.25397  24.26676  35.69407
 Alpha virt. eigenvalues --   50.06957  50.12643  50.13195  50.17741  50.18354
 Alpha virt. eigenvalues --   50.21361 164.02956
          Condensed to atoms (all electrons):
               1          2          3          4          5          6
     1  C    8.776428  -2.486986  -0.029341  -0.893709  -0.070028   0.022173
     2  C   -2.486986  11.630728  -3.952712   2.297001  -1.631805   0.030403
     3  C   -0.029341  -3.952712  13.337080  -5.570556   3.309995   0.319276
     4  C   -0.893709   2.297001  -5.570556  14.919108  -5.346355   0.000474
     5  C   -0.070028  -1.631805   3.309995  -5.346355  10.058527  -0.001656
     6  H    0.022173   0.030403   0.319276   0.000474  -0.001656   0.479586
     7  H    0.388943   0.009318  -0.000096  -0.000327   0.000373  -0.000140
     8  H    0.002009   0.004680   0.026907   0.288678   0.028858  -0.003778
     9  H    0.007558   0.012584  -0.037599   0.055148   0.345660  -0.000134
    10  C    0.479267  -0.072306  -0.972174   0.073546  -0.145201  -0.015585
    11  H    0.242633  -0.286186  -0.043819  -0.010312   0.005357  -0.000049
    12  H   -0.040971   0.022451  -0.022616   0.009128  -0.005757   0.000768
    13  H   -0.080995  -0.090965   0.133028  -0.006952   0.012854   0.000317
    14  N    0.187963  -0.024958  -0.232882   0.423819  -0.187849   0.000947
    15  C    0.050893  -0.232363  -0.036416  -0.111376  -0.103265  -0.000145
    16  H   -0.018619   0.005379   0.001506  -0.005601  -0.001265  -0.000002
    17  H    0.022319   0.029532  -0.008742   0.006801  -0.019591  -0.000004
    18  C   -0.027925   0.045509   0.011151   0.040570  -0.030756  -0.000101
    19  H   -0.001135   0.005883  -0.007825   0.021237  -0.033038  -0.000000
    20  H    0.003255  -0.000502   0.001520  -0.003817   0.008359   0.000000
    21  C   -0.099342   0.012427  -0.011200   0.007119   0.244110   0.000315
    22  H    0.005253  -0.002001   0.000491   0.001316   0.001663   0.000000
    23  H   -0.014486   0.005822  -0.001627  -0.003868  -0.002546  -0.000000
    24  C   -0.021568   0.064981  -0.148005   0.192886  -0.424974  -0.000329
    25  O    0.073489  -0.056514   0.100157  -0.236903   0.228014  -0.000143
    26  O   -0.002966  -0.011376  -0.004124   0.000450   0.013248   0.000066
    27  P    0.043312   0.005408  -0.059993   0.026504  -0.018605   0.001031
    28  O   -0.106009  -0.098447   0.281157  -0.132203   0.062758  -0.014251
    29  O   -0.002971   0.049013  -0.026645  -0.004368  -0.017216   0.000539
    30  H    0.000265  -0.002642  -0.004266   0.005555   0.000965   0.000070
    31  O    0.035717   0.003492  -0.067170   0.027670  -0.013491  -0.000102
    32  H   -0.027191   0.013946  -0.039045   0.100450  -0.030601  -0.000002
    33  O    0.001816  -0.046103  -0.006045   0.054808  -0.008885  -0.000107
    34  H   -0.002891   0.002086   0.008484  -0.016899   0.011232  -0.000040
               7          8          9         10         11         12
     1  C    0.388943   0.002009   0.007558   0.479267   0.242633  -0.040971
     2  C    0.009318   0.004680   0.012584  -0.072306  -0.286186   0.022451
     3  C   -0.000096   0.026907  -0.037599  -0.972174  -0.043819  -0.022616
     4  C   -0.000327   0.288678   0.055148   0.073546  -0.010312   0.009128
     5  C    0.000373   0.028858   0.345660  -0.145201   0.005357  -0.005757
     6  H   -0.000140  -0.003778  -0.000134  -0.015585  -0.000049   0.000768
     7  H    0.488880   0.000025  -0.000161   0.005691   0.004163   0.000260
     8  H    0.000025   0.483084  -0.004150   0.000335   0.000016   0.000000
     9  H   -0.000161  -0.004150   0.486382   0.002004  -0.000000   0.000000
    10  C    0.005691   0.000335   0.002004   6.303776   0.438771   0.398084
    11  H    0.004163   0.000016  -0.000000   0.438771   0.518263  -0.023615
    12  H    0.000260   0.000000   0.000000   0.398084  -0.023615   0.507697
    13  H   -0.000074   0.000006   0.000000   0.404719  -0.016142  -0.029873
    14  N   -0.057369   0.003503  -0.042406  -0.080288   0.001910  -0.002062
    15  C   -0.005552   0.000764   0.024050   0.011754   0.006826  -0.001800
    16  H    0.000649  -0.000008   0.000497  -0.001053   0.000001  -0.000004
    17  H    0.006589   0.000015  -0.000024   0.006025  -0.000001   0.000001
    18  C    0.003010   0.000940  -0.013622  -0.006628  -0.000206   0.000121
    19  H    0.000027   0.000007   0.005277   0.000625  -0.000000  -0.000000
    20  H   -0.000061  -0.000000  -0.000414  -0.000165   0.000000  -0.000000
    21  C   -0.005208  -0.000424   0.000663   0.003653   0.000450  -0.000174
    22  H   -0.000006  -0.000000  -0.000017   0.000024  -0.000000   0.000000
    23  H    0.000017   0.000002   0.000009   0.000668  -0.000005   0.000000
    24  C    0.004958   0.000070   0.008980   0.020769   0.000563  -0.000138
    25  O   -0.000384  -0.000059  -0.030563  -0.002890  -0.000063   0.000040
    26  O    0.000117  -0.000183  -0.000192  -0.000183  -0.000007  -0.000001
    27  P    0.000025  -0.001429   0.000529  -0.002046  -0.000132   0.000400
    28  O    0.000055   0.000883  -0.000099  -0.030612  -0.001095   0.001216
    29  O   -0.000001  -0.000247   0.000026   0.000966  -0.000028  -0.000008
    30  H    0.000000  -0.000023   0.000001   0.000926   0.000000   0.000000
    31  O   -0.000043  -0.011449  -0.000838   0.011940  -0.000042  -0.000015
    32  H    0.000044  -0.000452   0.001022   0.000613   0.000004  -0.000006
    33  O    0.000005   0.000002  -0.000012  -0.001079   0.000075   0.000014
    34  H    0.000004   0.000056  -0.000009  -0.000313   0.000017  -0.000001
              13         14         15         16         17         18
     1  C   -0.080995   0.187963   0.050893  -0.018619   0.022319  -0.027925
     2  C   -0.090965  -0.024958  -0.232363   0.005379   0.029532   0.045509
     3  C    0.133028  -0.232882  -0.036416   0.001506  -0.008742   0.011151
     4  C   -0.006952   0.423819  -0.111376  -0.005601   0.006801   0.040570
     5  C    0.012854  -0.187849  -0.103265  -0.001265  -0.019591  -0.030756
     6  H    0.000317   0.000947  -0.000145  -0.000002  -0.000004  -0.000101
     7  H   -0.000074  -0.057369  -0.005552   0.000649   0.006589   0.003010
     8  H    0.000006   0.003503   0.000764  -0.000008   0.000015   0.000940
     9  H    0.000000  -0.042406   0.024050   0.000497  -0.000024  -0.013622
    10  C    0.404719  -0.080288   0.011754  -0.001053   0.006025  -0.006628
    11  H   -0.016142   0.001910   0.006826   0.000001  -0.000001  -0.000206
    12  H   -0.029873  -0.002062  -0.001800  -0.000004   0.000001   0.000121
    13  H    0.451530   0.001753   0.000710   0.000001  -0.000005  -0.000178
    14  N    0.001753   6.547372   0.153692  -0.052393  -0.076801  -0.067608
    15  C    0.000710   0.153692   5.937603   0.451883   0.436215  -0.051683
    16  H    0.000001  -0.052393   0.451883   0.494280  -0.024672  -0.038329
    17  H   -0.000005  -0.076801   0.436215  -0.024672   0.492735  -0.029811
    18  C   -0.000178  -0.067608  -0.051683  -0.038329  -0.029811   5.688346
    19  H   -0.000000  -0.000453  -0.057066  -0.003339   0.004818   0.477958
    20  H    0.000000   0.006596  -0.037936  -0.005274  -0.003680   0.431274
    21  C   -0.000189  -0.020807  -0.240343   0.004722  -0.019672  -0.125588
    22  H    0.000000   0.000733   0.016900  -0.000193   0.000030  -0.072855
    23  H   -0.000000  -0.000088   0.008628  -0.000187   0.001035  -0.024450
    24  C    0.000455   0.107114   0.121636   0.002017  -0.000407   0.066332
    25  O   -0.000129  -0.079944  -0.025517  -0.000183   0.000347  -0.040714
    26  O    0.000024  -0.000779   0.016149   0.000014  -0.000380  -0.006871
    27  P   -0.003236  -0.001875   0.003466  -0.000005  -0.000053  -0.005510
    28  O    0.001030  -0.003059  -0.003682   0.000013  -0.000039   0.000974
    29  O   -0.000184  -0.000107   0.000102  -0.000000  -0.000000  -0.000075
    30  H   -0.000010  -0.000043   0.000033  -0.000000  -0.000000  -0.000034
    31  O   -0.000345  -0.009935  -0.002471   0.000003   0.000006  -0.002883
    32  H    0.000019   0.003767   0.001132   0.000002  -0.000024  -0.001262
    33  O    0.000143  -0.000428   0.000074  -0.000000  -0.000011   0.001411
    34  H    0.000017  -0.001345  -0.000215   0.000001   0.000012   0.000489
              19         20         21         22         23         24
     1  C   -0.001135   0.003255  -0.099342   0.005253  -0.014486  -0.021568
     2  C    0.005883  -0.000502   0.012427  -0.002001   0.005822   0.064981
     3  C   -0.007825   0.001520  -0.011200   0.000491  -0.001627  -0.148005
     4  C    0.021237  -0.003817   0.007119   0.001316  -0.003868   0.192886
     5  C   -0.033038   0.008359   0.244110   0.001663  -0.002546  -0.424974
     6  H   -0.000000   0.000000   0.000315   0.000000  -0.000000  -0.000329
     7  H    0.000027  -0.000061  -0.005208  -0.000006   0.000017   0.004958
     8  H    0.000007  -0.000000  -0.000424  -0.000000   0.000002   0.000070
     9  H    0.005277  -0.000414   0.000663  -0.000017   0.000009   0.008980
    10  C    0.000625  -0.000165   0.003653   0.000024   0.000668   0.020769
    11  H   -0.000000   0.000000   0.000450  -0.000000  -0.000005   0.000563
    12  H   -0.000000  -0.000000  -0.000174   0.000000   0.000000  -0.000138
    13  H   -0.000000   0.000000  -0.000189   0.000000  -0.000000   0.000455
    14  N   -0.000453   0.006596  -0.020807   0.000733  -0.000088   0.107114
    15  C   -0.057066  -0.037936  -0.240343   0.016900   0.008628   0.121636
    16  H   -0.003339  -0.005274   0.004722  -0.000193  -0.000187   0.002017
    17  H    0.004818  -0.003680  -0.019672   0.000030   0.001035  -0.000407
    18  C    0.477958   0.431274  -0.125588  -0.072855  -0.024450   0.066332
    19  H    0.495662  -0.030787  -0.044118  -0.002266   0.004419  -0.003461
    20  H   -0.030787   0.508242  -0.052147  -0.004824  -0.003798   0.012251
    21  C   -0.044118  -0.052147   6.622329   0.451413   0.458381  -0.563837
    22  H   -0.002266  -0.004824   0.451413   0.494961  -0.025186  -0.056593
    23  H    0.004419  -0.003798   0.458381  -0.025186   0.484615  -0.067280
    24  C   -0.003461   0.012251  -0.563837  -0.056593  -0.067280   5.645249
    25  O   -0.005393   0.000354  -0.025662   0.003633   0.007667   0.068613
    26  O   -0.000648  -0.000430  -0.179230   0.001801  -0.012860   0.522269
    27  P    0.000121   0.000107  -0.011175  -0.000014  -0.000256  -0.017467
    28  O   -0.000018   0.000002  -0.004752   0.000010   0.000032  -0.005760
    29  O    0.000001  -0.000000  -0.001455   0.000001   0.000000  -0.002625
    30  H    0.000000   0.000000  -0.000130  -0.000000  -0.000000  -0.000376
    31  O    0.000177  -0.000009  -0.013108   0.000085  -0.000021  -0.027955
    32  H   -0.000327   0.000023   0.038045  -0.000366   0.000099   0.018595
    33  O    0.000007  -0.000002   0.017110  -0.000033   0.000130   0.011319
    34  H   -0.000032  -0.000000  -0.002651   0.000034  -0.000290   0.001773
              25         26         27         28         29         30
     1  C    0.073489  -0.002966   0.043312  -0.106009  -0.002971   0.000265
     2  C   -0.056514  -0.011376   0.005408  -0.098447   0.049013  -0.002642
     3  C    0.100157  -0.004124  -0.059993   0.281157  -0.026645  -0.004266
     4  C   -0.236903   0.000450   0.026504  -0.132203  -0.004368   0.005555
     5  C    0.228014   0.013248  -0.018605   0.062758  -0.017216   0.000965
     6  H   -0.000143   0.000066   0.001031  -0.014251   0.000539   0.000070
     7  H   -0.000384   0.000117   0.000025   0.000055  -0.000001   0.000000
     8  H   -0.000059  -0.000183  -0.001429   0.000883  -0.000247  -0.000023
     9  H   -0.030563  -0.000192   0.000529  -0.000099   0.000026   0.000001
    10  C   -0.002890  -0.000183  -0.002046  -0.030612   0.000966   0.000926
    11  H   -0.000063  -0.000007  -0.000132  -0.001095  -0.000028   0.000000
    12  H    0.000040  -0.000001   0.000400   0.001216  -0.000008   0.000000
    13  H   -0.000129   0.000024  -0.003236   0.001030  -0.000184  -0.000010
    14  N   -0.079944  -0.000779  -0.001875  -0.003059  -0.000107  -0.000043
    15  C   -0.025517   0.016149   0.003466  -0.003682   0.000102   0.000033
    16  H   -0.000183   0.000014  -0.000005   0.000013  -0.000000  -0.000000
    17  H    0.000347  -0.000380  -0.000053  -0.000039  -0.000000  -0.000000
    18  C   -0.040714  -0.006871  -0.005510   0.000974  -0.000075  -0.000034
    19  H   -0.005393  -0.000648   0.000121  -0.000018   0.000001   0.000000
    20  H    0.000354  -0.000430   0.000107   0.000002  -0.000000   0.000000
    21  C   -0.025662  -0.179230  -0.011175  -0.004752  -0.001455  -0.000130
    22  H    0.003633   0.001801  -0.000014   0.000010   0.000001  -0.000000
    23  H    0.007667  -0.012860  -0.000256   0.000032   0.000000  -0.000000
    24  C    0.068613   0.522269  -0.017467  -0.005760  -0.002625  -0.000376
    25  O    8.651524  -0.027379   0.054096  -0.006851   0.004947  -0.000064
    26  O   -0.027379   8.159195   0.024702  -0.005946   0.001845   0.000172
    27  P    0.054096   0.024702  12.528078   0.448703   0.164988   0.011606
    28  O   -0.006851  -0.005946   0.448703   8.354645  -0.011004  -0.012540
    29  O    0.004947   0.001845   0.164988  -0.011004   8.083557   0.224579
    30  H   -0.000064   0.000172   0.011606  -0.012540   0.224579   0.474048
    31  O    0.007026  -0.010932   0.309038  -0.041616   0.032097  -0.003982
    32  H    0.018639  -0.001243  -0.006370  -0.010504  -0.007278   0.001562
    33  O   -0.026009  -0.034953   0.261165   0.002946  -0.013977  -0.002748
    34  H    0.012913   0.085518   0.001429   0.002612  -0.000069  -0.000216
              31         32         33         34
     1  C    0.035717  -0.027191   0.001816  -0.002891
     2  C    0.003492   0.013946  -0.046103   0.002086
     3  C   -0.067170  -0.039045  -0.006045   0.008484
     4  C    0.027670   0.100450   0.054808  -0.016899
     5  C   -0.013491  -0.030601  -0.008885   0.011232
     6  H   -0.000102  -0.000002  -0.000107  -0.000040
     7  H   -0.000043   0.000044   0.000005   0.000004
     8  H   -0.011449  -0.000452   0.000002   0.000056
     9  H   -0.000838   0.001022  -0.000012  -0.000009
    10  C    0.011940   0.000613  -0.001079  -0.000313
    11  H   -0.000042   0.000004   0.000075   0.000017
    12  H   -0.000015  -0.000006   0.000014  -0.000001
    13  H   -0.000345   0.000019   0.000143   0.000017
    14  N   -0.009935   0.003767  -0.000428  -0.001345
    15  C   -0.002471   0.001132   0.000074  -0.000215
    16  H    0.000003   0.000002  -0.000000   0.000001
    17  H    0.000006  -0.000024  -0.000011   0.000012
    18  C   -0.002883  -0.001262   0.001411   0.000489
    19  H    0.000177  -0.000327   0.000007  -0.000032
    20  H   -0.000009   0.000023  -0.000002  -0.000000
    21  C   -0.013108   0.038045   0.017110  -0.002651
    22  H    0.000085  -0.000366  -0.000033   0.000034
    23  H   -0.000021   0.000099   0.000130  -0.000290
    24  C   -0.027955   0.018595   0.011319   0.001773
    25  O    0.007026   0.018639  -0.026009   0.012913
    26  O   -0.010932  -0.001243  -0.034953   0.085518
    27  P    0.309038  -0.006370   0.261165   0.001429
    28  O   -0.041616  -0.010504   0.002946   0.002612
    29  O    0.032097  -0.007278  -0.013977  -0.000069
    30  H   -0.003982   0.001562  -0.002748  -0.000216
    31  O    8.245460   0.178350  -0.012861  -0.010957
    32  H    0.178350   0.305422   0.007145   0.003759
    33  O   -0.012861   0.007145   8.176784   0.229522
    34  H   -0.010957   0.003759   0.229522   0.228127
 Mulliken charges:
               1
     1  C   -0.416158
     2  C    0.745222
     3  C   -0.247856
     4  C   -0.209022
     5  C   -0.239087
     6  H    0.180603
     7  H    0.156269
     8  H    0.181361
     9  H    0.179851
    10  C   -0.833633
    11  H    0.162652
    12  H    0.186860
    13  H    0.222671
    14  N    0.504311
    15  C   -0.332680
    16  H    0.190157
    17  H    0.177436
    18  C   -0.220995
    19  H    0.173689
    20  H    0.171864
    21  C   -0.439526
    22  H    0.186008
    23  H    0.185422
    24  C    0.469946
    25  O   -0.666097
    26  O   -0.524887
    27  P    1.243457
    28  O   -0.668547
    29  O   -0.474403
    30  H    0.307291
    31  O   -0.620833
    32  H    0.432034
    33  O   -0.611224
    34  H    0.447845
 Sum of Mulliken charges =  -0.00000
 Mulliken charges with hydrogens summed into heavy atoms:
               1
     1  C   -0.259889
     2  C    0.745222
     3  C   -0.067253
     4  C   -0.027662
     5  C   -0.059236
    10  C   -0.261450
    14  N    0.504311
    15  C    0.034913
    18  C    0.124557
    21  C   -0.068095
    24  C    0.469946
    25  O   -0.666097
    26  O   -0.524887
    27  P    1.243457
    28  O   -0.668547
    29  O   -0.167111
    31  O   -0.188799
    33  O   -0.163379
         Mulliken charges condensed to fragments:
      1     -0.055620
      2      0.055620
 Electronic spatial extent (au):  <R**2>=         159109.2970
 Charge=             -0.0000 electrons
 Dipole moment (field-independent basis, Debye):
    X=             -4.0450    Y=             -4.7571    Z=              7.8514  Tot=             10.0318
 Quadrupole moment (field-independent basis, Debye-Ang):
   XX=           -195.7587   YY=           -197.1294   ZZ=             31.9197
   XY=            -87.8457   XZ=             46.1511   YZ=             31.8520
 Traceless Quadrupole moment (field-independent basis, Debye-Ang):
   XX=            -75.4359   YY=            -76.8066   ZZ=            152.2425
   XY=            -87.8457   XZ=             46.1511   YZ=             31.8520
 Octapole moment (field-independent basis, Debye-Ang**2):
  XXX=          -4744.8128  YYY=          -4578.3488  ZZZ=          -1079.0445  XYY=          -2383.8366
  XXY=          -2465.1841  XXZ=           -918.2843  XZZ=             54.6940  YZZ=           -188.3070
  YYZ=          -1096.1274  XYZ=            -26.8395
 Hexadecapole moment (field-independent basis, Debye-Ang**3):
 XXXX=         -90434.2852 YYYY=         -85511.1200 ZZZZ=         -33640.2006 XXXY=         -53279.2825
 XXXZ=         -34404.1138 YYYX=         -50104.7916 YYYZ=         -34971.8053 ZZZX=         -13175.0832
 ZZZY=         -16073.6406 XXYY=         -40774.6414 XXZZ=         -12506.3201 YYZZ=         -16378.2139
 XXYZ=         -14424.0414 YYXZ=         -14837.4695 ZZXY=          -4946.7129
 N-N= 1.672292661649D+03 E-N=-6.257940821634D+03  KE= 1.233907825775D+03
 No NMR shielding tensors so no spin-rotation constants.
 Leave Link  601 at Mon Feb 20 01:45:40 2023, MaxMem=  6710886400 cpu:               4.9 elap:               0.3
 (Enter /data0/hywu0/study/g16/l122.exe)
 CPIOFr:  IOpCl= 0 IRwI=-1 IRwCP=  731 ICalc= -1 LCPTot=      533842 Len1MO=     1404424 IndFrg=      533842
 CPIOFr:  IOpCl= 0 IRwI=-1 IRwCP=  731 ICalc=  0 LCPTot=      533842 Len1MO=     1404424 IndFrg=     1938266
 Counterpoise: doing calculation for fragment   1 using the basis set of the full-system, NewBq=T
 Leave Link  122 at Mon Feb 20 01:45:40 2023, MaxMem=  6710886400 cpu:               0.6 elap:               0.0
 (Enter /data0/hywu0/study/g16/l301.exe)
 Basis read from rwf:  (5D, 7F)
 No pseudopotential information found on rwf file.
   590 basis functions,   898 primitive gaussians,   626 cartesian basis functions
    48 alpha electrons       48 beta electrons
       nuclear repulsion energy       809.4203504216 Hartrees.
 IExCor= 4336 DFT=T Ex+Corr=M062X ExCW=0 ScaHFX=  0.540000
 ScaDFX=  1.000000  1.000000  1.000000  1.000000 ScalE2=  1.000000  1.000000
 IRadAn=      5 IRanWt=     -1 IRanGd=            0 ICorTp=0 IEmpDi=131
 NAtoms=   34 NActive=   34 NUniq=   34 SFac= 1.00D+00 NAtFMM=   60 NAOKFM=F Big=F
 Integral buffers will be    131072 words long.
 Raffenetti 2 integral format.
 Two-electron integral symmetry is turned off.
 R6Disp:  Grimme-D3 Dispersion energy=       -0.0012184268 Hartrees.
 Nuclear repulsion after empirical dispersion term =      809.4191319948 Hartrees.
 No density basis found on file   718.
 Leave Link  301 at Mon Feb 20 01:45:40 2023, MaxMem=  6710886400 cpu:               1.4 elap:               0.1
 (Enter /data0/hywu0/study/g16/l302.exe)
 NPDir=0 NMtPBC=     1 NCelOv=     1 NCel=       1 NClECP=     1 NCelD=      1
         NCelK=      1 NCelE2=     1 NClLst=     1 CellRange=     0.0.
 One-electron integrals computed using PRISM.
 NBasis=   590 RedAO= T EigKep=  1.70D-06  NBF=   590
 NBsUse=   590 1.00D-06 EigRej= -1.00D+00 NBFU=   590
 Precomputing XC quadrature grid using
 IXCGrd= 4 IRadAn=           5 IRanWt=          -1 IRanGd=           0 AccXCQ= 0.00D+00.
 Generated NRdTot=       0 NPtTot=           0 NUsed=           0 NTot=          32
 NSgBfM=   625   624   625   625   625 MxSgAt=    34 MxSgA2=    34.
 Leave Link  302 at Mon Feb 20 01:45:41 2023, MaxMem=  6710886400 cpu:              17.9 elap:               0.8
 (Enter /data0/hywu0/study/g16/l303.exe)
 DipDrv:  MaxL=1.
 Leave Link  303 at Mon Feb 20 01:45:41 2023, MaxMem=  6710886400 cpu:               2.1 elap:               0.1
 (Enter /data0/hywu0/study/g16/l401.exe)
 ExpMin= 3.48D-02 ExpMax= 7.75D+04 ExpMxC= 2.65D+03 IAcc=3 IRadAn=         5 AccDes= 0.00D+00
 Harris functional with IExCor= 1009 and IRadAn=       5 diagonalized for initial guess.
 HarFok:  IExCor= 1009 AccDes= 0.00D+00 IRadAn=         5 IDoV= 1 UseB2=F ITyADJ=14
 ICtDFT=  3500011 ScaDFX=  1.000000  1.000000  1.000000  1.000000
 FoFCou: FMM=F IPFlag=           0 FMFlag=      100000 FMFlg1=           0
         NFxFlg=           0 DoJE=T BraDBF=F KetDBF=T FulRan=T
         wScrn=  0.000000 ICntrl=       500 IOpCl=  0 I1Cent=   200000004 NGrid=           0
         NMat0=    1 NMatS0=      1 NMatT0=    0 NMatD0=    1 NMtDS0=    0 NMtDT0=    0
 Symmetry not used in FoFCou.
 Harris En= -593.771937751452    
 JPrj=0 DoOrth=F DoCkMO=F.
 Leave Link  401 at Mon Feb 20 01:45:43 2023, MaxMem=  6710886400 cpu:              62.9 elap:               2.6
 (Enter /data0/hywu0/study/g16/l502.exe)
 Two-electron integral symmetry not used.
 Closed shell SCF:
 Using DIIS extrapolation, IDIIS=  1040.
 NGot=  6710886400 LenX=  6710083268 LenY=  6709690766
 Requested convergence on RMS density matrix=1.00D-08 within 128 cycles.
 Requested convergence on MAX density matrix=1.00D-06.
 Requested convergence on             energy=1.00D-06.
 No special actions if energy rises.
 Fock matrices will be formed incrementally for  20 cycles.

 Cycle   1  Pass 1  IDiag  1:
 FoFJK:  IHMeth= 1 ICntrl=       0 DoSepK=F KAlg= 0 I1Cent=           0 FoldK=F
 IRaf= 860000000 NMat=       1 IRICut=       1 DoRegI=T DoRafI=F ISym2E= 0 IDoP0=0 IntGTp=1.
 FoFCou: FMM=F IPFlag=           0 FMFlag=      100000 FMFlg1=           0
         NFxFlg=           0 DoJE=F BraDBF=F KetDBF=F FulRan=T
         wScrn=  0.000000 ICntrl=         0 IOpCl=  0 I1Cent=           0 NGrid=           0
         NMat0=    1 NMatS0=      1 NMatT0=    0 NMatD0=    1 NMtDS0=    0 NMtDT0=    0
 Symmetry not used in FoFCou.
 E= -593.571316037457    
 DIIS: error= 1.48D-02 at cycle   1 NSaved=   1.
 NSaved= 1 IEnMin= 1 EnMin= -593.571316037457     IErMin= 1 ErrMin= 1.48D-02
 ErrMax= 1.48D-02  0.00D+00 EMaxC= 1.00D-01 BMatC= 5.33D-01 BMatP= 5.33D-01
 IDIUse=3 WtCom= 8.52D-01 WtEn= 1.48D-01
 Coeff-Com:  0.100D+01
 Coeff-En:   0.100D+01
 Coeff:      0.100D+01
 Gap=     0.218 Goal=   None    Shift=    0.000
 GapD=    0.218 DampG=1.000 DampE=0.500 DampFc=0.5000 IDamp=-1.
 Damping current iteration by 5.00D-01
 RMSDP=2.86D-02 MaxDP=4.21D+00              OVMax= 7.85D-01

 Cycle   2  Pass 1  IDiag  1:
 RMSU=  1.41D-02    CP:  1.20D+00
 E= -593.554368639515     Delta-E=        0.016947397942 Rises=F Damp=T
 DIIS: error= 6.90D-03 at cycle   2 NSaved=   2.
 NSaved= 2 IEnMin= 1 EnMin= -593.571316037457     IErMin= 2 ErrMin= 6.90D-03
 ErrMax= 6.90D-03  0.00D+00 EMaxC= 1.00D-01 BMatC= 1.15D-01 BMatP= 5.33D-01
 IDIUse=3 WtCom= 9.31D-01 WtEn= 6.90D-02
 Coeff-Com:  0.195D+00 0.805D+00
 Coeff-En:   0.521D+00 0.479D+00
 Coeff:      0.217D+00 0.783D+00
 Gap=    -0.052 Goal=   None    Shift=    0.000
 RMSDP=1.50D-02 MaxDP=2.49D+00 DE= 1.69D-02 OVMax= 6.51D-01

 Cycle   3  Pass 1  IDiag  1:
 RMSU=  3.49D-03    CP:  7.81D-01  3.27D-02
 E= -593.856327371545     Delta-E=       -0.301958732030 Rises=F Damp=F
 DIIS: error= 8.72D-03 at cycle   3 NSaved=   3.
 NSaved= 3 IEnMin= 3 EnMin= -593.856327371545     IErMin= 2 ErrMin= 6.90D-03
 ErrMax= 8.72D-03  0.00D+00 EMaxC= 1.00D-01 BMatC= 1.35D-01 BMatP= 1.15D-01
 IDIUse=3 WtCom= 9.67D-02 WtEn= 9.03D-01
 Coeff-Com: -0.696D-02 0.525D+00 0.482D+00
 Coeff-En:   0.000D+00 0.302D-01 0.970D+00
 Coeff:     -0.673D-03 0.781D-01 0.923D+00
 Gap=     0.270 Goal=   None    Shift=    0.000
 RMSDP=6.67D-03 MaxDP=9.76D-01 DE=-3.02D-01 OVMax= 9.49D-01

 Cycle   4  Pass 1  IDiag  1:
 RMSU=  6.39D-03    CP:  9.00D-01  9.90D-02  1.19D+00
 E= -592.217970579300     Delta-E=        1.638356792246 Rises=F Damp=F
 DIIS: error= 2.60D-02 at cycle   4 NSaved=   4.
 NSaved= 4 IEnMin= 3 EnMin= -593.856327371545     IErMin= 2 ErrMin= 6.90D-03
 ErrMax= 2.60D-02  0.00D+00 EMaxC= 1.00D-01 BMatC= 1.19D+00 BMatP= 1.15D-01
 IDIUse=2 WtCom= 0.00D+00 WtEn= 1.00D+00
 Coeff-En:   0.000D+00 0.000D+00 0.899D+00 0.101D+00
 Coeff:      0.000D+00 0.000D+00 0.899D+00 0.101D+00
 Gap=    -0.039 Goal=   None    Shift=    0.000
 RMSDP=6.30D-03 MaxDP=1.04D+00 DE= 1.64D+00 OVMax= 9.64D-01

 Cycle   5  Pass 1  IDiag  1:
 RMSU=  2.65D-03    CP:  8.85D-01  9.13D-02  8.38D-01  1.28D-01
 E= -593.934080819056     Delta-E=       -1.716110239756 Rises=F Damp=F
 DIIS: error= 5.09D-03 at cycle   5 NSaved=   5.
 NSaved= 5 IEnMin= 5 EnMin= -593.934080819056     IErMin= 5 ErrMin= 5.09D-03
 ErrMax= 5.09D-03  0.00D+00 EMaxC= 1.00D-01 BMatC= 6.00D-02 BMatP= 1.15D-01
 IDIUse=3 WtCom= 9.49D-01 WtEn= 5.09D-02
 Coeff-Com:  0.875D-02 0.531D-01 0.410D+00 0.184D-01 0.510D+00
 Coeff-En:   0.000D+00 0.000D+00 0.266D+00 0.000D+00 0.734D+00
 Coeff:      0.831D-02 0.504D-01 0.403D+00 0.174D-01 0.521D+00
 Gap=     0.165 Goal=   None    Shift=    0.000
 RMSDP=1.30D-03 MaxDP=1.90D-01 DE=-1.72D+00 OVMax= 7.98D-02

 Cycle   6  Pass 1  IDiag  1:
 RMSU=  6.99D-04    CP:  8.36D-01  6.81D-02  9.07D-01  1.04D-01  7.00D-01
 E= -593.976395196643     Delta-E=       -0.042314377587 Rises=F Damp=F
 DIIS: error= 1.66D-03 at cycle   6 NSaved=   6.
 NSaved= 6 IEnMin= 6 EnMin= -593.976395196643     IErMin= 6 ErrMin= 1.66D-03
 ErrMax= 1.66D-03  0.00D+00 EMaxC= 1.00D-01 BMatC= 3.40D-03 BMatP= 6.00D-02
 IDIUse=3 WtCom= 9.83D-01 WtEn= 1.66D-02
 Coeff-Com: -0.617D-02 0.606D-02 0.122D+00 0.482D-02 0.264D+00 0.609D+00
 Coeff-En:   0.000D+00 0.000D+00 0.000D+00 0.000D+00 0.000D+00 0.100D+01
 Coeff:     -0.607D-02 0.596D-02 0.120D+00 0.474D-02 0.260D+00 0.616D+00
 Gap=     0.169 Goal=   None    Shift=    0.000
 RMSDP=2.75D-04 MaxDP=5.12D-02 DE=-4.23D-02 OVMax= 1.83D-02

 Cycle   7  Pass 1  IDiag  1:
 RMSU=  2.21D-04    CP:  8.43D-01  7.09D-02  9.02D-01  1.09D-01  7.50D-01
                    CP:  1.01D+00
 E= -593.979263857530     Delta-E=       -0.002868660887 Rises=F Damp=F
 DIIS: error= 3.67D-04 at cycle   7 NSaved=   7.
 NSaved= 7 IEnMin= 7 EnMin= -593.979263857530     IErMin= 7 ErrMin= 3.67D-04
 ErrMax= 3.67D-04  0.00D+00 EMaxC= 1.00D-01 BMatC= 1.71D-04 BMatP= 3.40D-03
 IDIUse=3 WtCom= 9.96D-01 WtEn= 3.67D-03
 Coeff-Com: -0.418D-02 0.259D-02-0.173D-01 0.469D-03 0.413D-02 0.216D+00
 Coeff-Com:  0.798D+00
 Coeff-En:   0.000D+00 0.000D+00 0.000D+00 0.000D+00 0.000D+00 0.000D+00
 Coeff-En:   0.100D+01
 Coeff:     -0.417D-02 0.258D-02-0.173D-01 0.468D-03 0.412D-02 0.216D+00
 Coeff:      0.799D+00
 Gap=     0.173 Goal=   None    Shift=    0.000
 RMSDP=1.00D-04 MaxDP=1.14D-02 DE=-2.87D-03 OVMax= 8.78D-03

 Cycle   8  Pass 1  IDiag  1:
 RMSU=  7.62D-05    CP:  8.44D-01  7.05D-02  9.00D-01  1.10D-01  7.55D-01
                    CP:  1.09D+00  1.07D+00
 E= -593.979462119267     Delta-E=       -0.000198261736 Rises=F Damp=F
 DIIS: error= 1.73D-04 at cycle   8 NSaved=   8.
 NSaved= 8 IEnMin= 8 EnMin= -593.979462119267     IErMin= 8 ErrMin= 1.73D-04
 ErrMax= 1.73D-04  0.00D+00 EMaxC= 1.00D-01 BMatC= 4.21D-05 BMatP= 1.71D-04
 IDIUse=3 WtCom= 9.98D-01 WtEn= 1.73D-03
 Coeff-Com: -0.159D-02 0.772D-03-0.197D-01 0.968D-03-0.233D-01 0.609D-01
 Coeff-Com:  0.421D+00 0.561D+00
 Coeff-En:   0.000D+00 0.000D+00 0.000D+00 0.000D+00 0.000D+00 0.000D+00
 Coeff-En:   0.000D+00 0.100D+01
 Coeff:     -0.159D-02 0.771D-03-0.197D-01 0.966D-03-0.233D-01 0.608D-01
 Coeff:      0.421D+00 0.561D+00
 Gap=     0.174 Goal=   None    Shift=    0.000
 RMSDP=3.92D-05 MaxDP=3.85D-03 DE=-1.98D-04 OVMax= 3.49D-03

 Cycle   9  Pass 1  IDiag  1:
 RMSU=  3.01D-05    CP:  8.45D-01  7.07D-02  8.99D-01  1.11D-01  7.58D-01
                    CP:  1.11D+00  1.13D+00  1.12D+00
 E= -593.979508599233     Delta-E=       -0.000046479966 Rises=F Damp=F
 DIIS: error= 5.30D-05 at cycle   9 NSaved=   9.
 NSaved= 9 IEnMin= 9 EnMin= -593.979508599233     IErMin= 9 ErrMin= 5.30D-05
 ErrMax= 5.30D-05  0.00D+00 EMaxC= 1.00D-01 BMatC= 4.01D-06 BMatP= 4.21D-05
 IDIUse=1 WtCom= 1.00D+00 WtEn= 0.00D+00
 Coeff-Com: -0.514D-04-0.466D-03-0.517D-02 0.540D-03-0.707D-02-0.141D-01
 Coeff-Com: -0.202D-01 0.155D+00 0.891D+00
 Coeff:     -0.514D-04-0.466D-03-0.517D-02 0.540D-03-0.707D-02-0.141D-01
 Coeff:     -0.202D-01 0.155D+00 0.891D+00
 Gap=     0.174 Goal=   None    Shift=    0.000
 RMSDP=2.78D-05 MaxDP=2.95D-03 DE=-4.65D-05 OVMax= 2.85D-03

 Cycle  10  Pass 1  IDiag  1:
 RMSU=  1.44D-05    CP:  8.45D-01  7.06D-02  9.00D-01  1.12D-01  7.60D-01
                    CP:  1.13D+00  1.16D+00  1.29D+00  1.34D+00
 E= -593.979517280866     Delta-E=       -0.000008681633 Rises=F Damp=F
 DIIS: error= 1.80D-05 at cycle  10 NSaved=  10.
 NSaved=10 IEnMin=10 EnMin= -593.979517280866     IErMin=10 ErrMin= 1.80D-05
 ErrMax= 1.80D-05  0.00D+00 EMaxC= 1.00D-01 BMatC= 6.11D-07 BMatP= 4.01D-06
 IDIUse=1 WtCom= 1.00D+00 WtEn= 0.00D+00
 Coeff-Com:  0.485D-04 0.315D-03-0.380D-03 0.263D-06-0.530D-03-0.130D-01
 Coeff-Com: -0.566D-01-0.243D-02 0.345D+00 0.728D+00
 Coeff:      0.485D-04 0.315D-03-0.380D-03 0.263D-06-0.530D-03-0.130D-01
 Coeff:     -0.566D-01-0.243D-02 0.345D+00 0.728D+00
 Gap=     0.174 Goal=   None    Shift=    0.000
 RMSDP=1.03D-05 MaxDP=1.12D-03 DE=-8.68D-06 OVMax= 9.60D-04

 Cycle  11  Pass 1  IDiag  1:
 RMSU=  3.97D-06    CP:  8.45D-01  7.07D-02  9.00D-01  1.12D-01  7.61D-01
                    CP:  1.13D+00  1.16D+00  1.35D+00  1.50D+00  1.26D+00
 E= -593.979518409592     Delta-E=       -0.000001128726 Rises=F Damp=F
 DIIS: error= 6.66D-06 at cycle  11 NSaved=  11.
 NSaved=11 IEnMin=11 EnMin= -593.979518409592     IErMin=11 ErrMin= 6.66D-06
 ErrMax= 6.66D-06  0.00D+00 EMaxC= 1.00D-01 BMatC= 6.85D-08 BMatP= 6.11D-07
 IDIUse=1 WtCom= 1.00D+00 WtEn= 0.00D+00
 Coeff-Com:  0.201D-04-0.109D-04 0.566D-03-0.502D-05 0.792D-03-0.228D-02
 Coeff-Com: -0.183D-01-0.255D-01-0.408D-02 0.260D+00 0.789D+00
 Coeff:      0.201D-04-0.109D-04 0.566D-03-0.502D-05 0.792D-03-0.228D-02
 Coeff:     -0.183D-01-0.255D-01-0.408D-02 0.260D+00 0.789D+00
 Gap=     0.174 Goal=   None    Shift=    0.000
 RMSDP=3.86D-06 MaxDP=4.10D-04 DE=-1.13D-06 OVMax= 4.23D-04

 Cycle  12  Pass 1  IDiag  1:
 RMSU=  1.68D-06    CP:  8.45D-01  7.07D-02  9.00D-01  1.12D-01  7.61D-01
                    CP:  1.14D+00  1.17D+00  1.37D+00  1.55D+00  1.40D+00
                    CP:  1.04D+00
 E= -593.979518568566     Delta-E=       -0.000000158974 Rises=F Damp=F
 DIIS: error= 2.26D-06 at cycle  12 NSaved=  12.
[...]
 IXCGrd= 4 IRadAn=           5 IRanWt=          -1 IRanGd=           0 AccXCQ= 0.00D+00.
 Generated NRdTot=       0 NPtTot=           0 NUsed=           0 NTot=          32
 NSgBfM=   171   171   171   171   171 MxSgAt=     8 MxSgA2=     8.
 Leave Link  302 at Mon Feb 20 01:52:16 2023, MaxMem=  6710886400 cpu:               3.3 elap:               0.2
 (Enter /data0/hywu0/study/g16/l303.exe)
 DipDrv:  MaxL=1.
 Leave Link  303 at Mon Feb 20 01:52:16 2023, MaxMem=  6710886400 cpu:               0.9 elap:               0.1
 (Enter /data0/hywu0/study/g16/l401.exe)
 ExpMin= 3.48D-02 ExpMax= 7.75D+04 ExpMxC= 2.65D+03 IAcc=3 IRadAn=         5 AccDes= 0.00D+00
 Harris functional with IExCor= 1009 and IRadAn=       5 diagonalized for initial guess.
 HarFok:  IExCor= 1009 AccDes= 0.00D+00 IRadAn=         5 IDoV= 1 UseB2=F ITyADJ=14
 ICtDFT=  3500011 ScaDFX=  1.000000  1.000000  1.000000  1.000000
 FoFCou: FMM=F IPFlag=           0 FMFlag=      100000 FMFlg1=           0
         NFxFlg=           0 DoJE=T BraDBF=F KetDBF=T FulRan=T
         wScrn=  0.000000 ICntrl=       500 IOpCl=  0 I1Cent=   200000004 NGrid=           0
         NMat0=    1 NMatS0=      1 NMatT0=    0 NMatD0=    1 NMtDS0=    0 NMtDT0=    0
 Symmetry not used in FoFCou.
 Harris En= -643.935605707781    
 JPrj=0 DoOrth=F DoCkMO=F.
 Leave Link  401 at Mon Feb 20 01:52:17 2023, MaxMem=  6710886400 cpu:               6.9 elap:               0.3
 (Enter /data0/hywu0/study/g16/l502.exe)
 Keep R1 ints in memory in canonical form, NReq=108966562.
 FoFCou: FMM=F IPFlag=           0 FMFlag=           0 FMFlg1=           0
         NFxFlg=           0 DoJE=F BraDBF=F KetDBF=F FulRan=T
         wScrn=  0.000000 ICntrl=       600 IOpCl=  0 I1Cent=           0 NGrid=           0
         NMat0=    1 NMatS0=  13041 NMatT0=    0 NMatD0=    1 NMtDS0=    0 NMtDT0=    0
 Symmetry not used in FoFCou.
 Two-electron integral symmetry not used.
 Closed shell SCF:
 Using DIIS extrapolation, IDIIS=  1040.
 NGot=  6710886400 LenX=  6625781372 LenY=  6625751690
 Requested convergence on RMS density matrix=1.00D-08 within 128 cycles.
 Requested convergence on MAX density matrix=1.00D-06.
 Requested convergence on             energy=1.00D-06.
 No special actions if energy rises.

 Cycle   1  Pass 1  IDiag  1:
 E= -643.836851841528    
 DIIS: error= 4.95D-02 at cycle   1 NSaved=   1.
 NSaved= 1 IEnMin= 1 EnMin= -643.836851841528     IErMin= 1 ErrMin= 4.95D-02
 ErrMax= 4.95D-02  0.00D+00 EMaxC= 1.00D-01 BMatC= 5.12D-01 BMatP= 5.12D-01
 IDIUse=3 WtCom= 5.05D-01 WtEn= 4.95D-01
 Coeff-Com:  0.100D+01
 Coeff-En:   0.100D+01
 Coeff:      0.100D+01
 Gap=     0.224 Goal=   None    Shift=    0.000
 GapD=    0.224 DampG=1.000 DampE=0.500 DampFc=0.5000 IDamp=-1.
 Damping current iteration by 5.00D-01
 RMSDP=8.23D-03 MaxDP=2.19D-01              OVMax= 2.81D-01

 Cycle   2  Pass 1  IDiag  1:
 E= -643.953045282211     Delta-E=       -0.116193440683 Rises=F Damp=T
 DIIS: error= 1.07D-02 at cycle   2 NSaved=   2.
 NSaved= 2 IEnMin= 2 EnMin= -643.953045282211     IErMin= 2 ErrMin= 1.07D-02
 ErrMax= 1.07D-02  0.00D+00 EMaxC= 1.00D-01 BMatC= 2.86D-02 BMatP= 5.12D-01
 IDIUse=3 WtCom= 8.93D-01 WtEn= 1.07D-01
 Coeff-Com:  0.814D-01 0.919D+00
 Coeff-En:   0.219D+00 0.781D+00
 Coeff:      0.960D-01 0.904D+00
 Gap=     0.331 Goal=   None    Shift=    0.000
 RMSDP=2.02D-03 MaxDP=7.64D-02 DE=-1.16D-01 OVMax= 1.86D-01

 Cycle   3  Pass 1  IDiag  1:
 E= -644.125905391376     Delta-E=       -0.172860109165 Rises=F Damp=F
 DIIS: error= 7.51D-03 at cycle   3 NSaved=   3.
 NSaved= 3 IEnMin= 3 EnMin= -644.125905391376     IErMin= 3 ErrMin= 7.51D-03
 ErrMax= 7.51D-03  0.00D+00 EMaxC= 1.00D-01 BMatC= 1.07D-02 BMatP= 2.86D-02
 IDIUse=3 WtCom= 9.25D-01 WtEn= 7.51D-02
 Coeff-Com: -0.107D-01 0.340D+00 0.671D+00
 Coeff-En:   0.000D+00 0.000D+00 0.100D+01
 Coeff:     -0.991D-02 0.314D+00 0.696D+00
 Gap=     0.320 Goal=   None    Shift=    0.000
 RMSDP=6.96D-04 MaxDP=1.53D-02 DE=-1.73D-01 OVMax= 3.62D-02

 Cycle   4  Pass 1  IDiag  1:
 E= -644.130681967647     Delta-E=       -0.004776576271 Rises=F Damp=F
 DIIS: error= 4.34D-03 at cycle   4 NSaved=   4.
 NSaved= 4 IEnMin= 4 EnMin= -644.130681967647     IErMin= 4 ErrMin= 4.34D-03
 ErrMax= 4.34D-03  0.00D+00 EMaxC= 1.00D-01 BMatC= 4.18D-03 BMatP= 1.07D-02
 IDIUse=3 WtCom= 9.57D-01 WtEn= 4.34D-02
 Coeff-Com: -0.206D-01 0.467D-01 0.405D+00 0.569D+00
 Coeff-En:   0.000D+00 0.000D+00 0.281D+00 0.719D+00
 Coeff:     -0.197D-01 0.447D-01 0.399D+00 0.576D+00
 Gap=     0.327 Goal=   None    Shift=    0.000
 RMSDP=2.77D-04 MaxDP=6.39D-03 DE=-4.78D-03 OVMax= 1.18D-02

 Cycle   5  Pass 1  IDiag  1:
 E= -644.133455298515     Delta-E=       -0.002773330868 Rises=F Damp=F
 DIIS: error= 2.50D-04 at cycle   5 NSaved=   5.
 NSaved= 5 IEnMin= 5 EnMin= -644.133455298515     IErMin= 5 ErrMin= 2.50D-04
 ErrMax= 2.50D-04  0.00D+00 EMaxC= 1.00D-01 BMatC= 1.74D-05 BMatP= 4.18D-03
 IDIUse=3 WtCom= 9.98D-01 WtEn= 2.50D-03
 Coeff-Com: -0.220D-02-0.622D-03 0.559D-01 0.116D+00 0.831D+00
 Coeff-En:   0.000D+00 0.000D+00 0.000D+00 0.000D+00 0.100D+01
 Coeff:     -0.219D-02-0.621D-03 0.558D-01 0.116D+00 0.831D+00
 Gap=     0.326 Goal=   None    Shift=    0.000
 RMSDP=3.02D-05 MaxDP=7.22D-04 DE=-2.77D-03 OVMax= 8.24D-04

 Cycle   6  Pass 1  IDiag  1:
 E= -644.133466799329     Delta-E=       -0.000011500815 Rises=F Damp=F
 DIIS: error= 8.45D-05 at cycle   6 NSaved=   6.
 NSaved= 6 IEnMin= 6 EnMin= -644.133466799329     IErMin= 6 ErrMin= 8.45D-05
 ErrMax= 8.45D-05  0.00D+00 EMaxC= 1.00D-01 BMatC= 1.70D-06 BMatP= 1.74D-05
 IDIUse=1 WtCom= 1.00D+00 WtEn= 0.00D+00
 Coeff-Com:  0.651D-05-0.179D-02 0.293D-02 0.146D-01 0.259D+00 0.726D+00
 Coeff:      0.651D-05-0.179D-02 0.293D-02 0.146D-01 0.259D+00 0.726D+00
 Gap=     0.326 Goal=   None    Shift=    0.000
 RMSDP=1.14D-05 MaxDP=2.06D-04 DE=-1.15D-05 OVMax= 2.99D-04

 Cycle   7  Pass 1  IDiag  1:
 E= -644.133467907574     Delta-E=       -0.000001108245 Rises=F Damp=F
 DIIS: error= 4.50D-05 at cycle   7 NSaved=   7.
 NSaved= 7 IEnMin= 7 EnMin= -644.133467907574     IErMin= 7 ErrMin= 4.50D-05
 ErrMax= 4.50D-05  0.00D+00 EMaxC= 1.00D-01 BMatC= 4.18D-07 BMatP= 1.70D-06
 IDIUse=1 WtCom= 1.00D+00 WtEn= 0.00D+00
 Coeff-Com:  0.384D-03-0.648D-03-0.913D-02-0.146D-01-0.244D-01 0.331D+00
 Coeff-Com:  0.717D+00
 Coeff:      0.384D-03-0.648D-03-0.913D-02-0.146D-01-0.244D-01 0.331D+00
 Coeff:      0.717D+00
 Gap=     0.326 Goal=   None    Shift=    0.000
 RMSDP=4.83D-06 MaxDP=1.01D-04 DE=-1.11D-06 OVMax= 1.33D-04

 Cycle   8  Pass 1  IDiag  1:
 E= -644.133468198996     Delta-E=       -0.000000291422 Rises=F Damp=F
 DIIS: error= 1.05D-05 at cycle   8 NSaved=   8.
 NSaved= 8 IEnMin= 8 EnMin= -644.133468198996     IErMin= 8 ErrMin= 1.05D-05
 ErrMax= 1.05D-05  0.00D+00 EMaxC= 1.00D-01 BMatC= 2.95D-08 BMatP= 4.18D-07
 IDIUse=1 WtCom= 1.00D+00 WtEn= 0.00D+00
 Coeff-Com:  0.136D-03-0.160D-03-0.376D-02-0.600D-02-0.172D-01 0.931D-01
 Coeff-Com:  0.294D+00 0.640D+00
 Coeff:      0.136D-03-0.160D-03-0.376D-02-0.600D-02-0.172D-01 0.931D-01
 Coeff:      0.294D+00 0.640D+00
 Gap=     0.326 Goal=   None    Shift=    0.000
 RMSDP=8.89D-07 MaxDP=2.69D-05 DE=-2.91D-07 OVMax= 3.56D-05

 Cycle   9  Pass 1  IDiag  1:
 E= -644.133468222187     Delta-E=       -0.000000023191 Rises=F Damp=F
 DIIS: error= 1.87D-06 at cycle   9 NSaved=   9.
 NSaved= 9 IEnMin= 9 EnMin= -644.133468222187     IErMin= 9 ErrMin= 1.87D-06
 ErrMax= 1.87D-06  0.00D+00 EMaxC= 1.00D-01 BMatC= 1.03D-09 BMatP= 2.95D-08
 IDIUse=1 WtCom= 1.00D+00 WtEn= 0.00D+00
 Coeff-Com: -0.278D-04 0.554D-04 0.271D-03 0.595D-03-0.828D-03-0.200D-01
 Coeff-Com: -0.288D-01 0.823D-01 0.966D+00
 Coeff:     -0.278D-04 0.554D-04 0.271D-03 0.595D-03-0.828D-03-0.200D-01
 Coeff:     -0.288D-01 0.823D-01 0.966D+00
 Gap=     0.326 Goal=   None    Shift=    0.000
 RMSDP=4.00D-07 MaxDP=1.02D-05 DE=-2.32D-08 OVMax= 1.43D-05

 Cycle  10  Pass 1  IDiag  1:
 E= -644.133468223481     Delta-E=       -0.000000001294 Rises=F Damp=F
 DIIS: error= 2.92D-07 at cycle  10 NSaved=  10.
 NSaved=10 IEnMin=10 EnMin= -644.133468223481     IErMin=10 ErrMin= 2.92D-07
 ErrMax= 2.92D-07  0.00D+00 EMaxC= 1.00D-01 BMatC= 2.99D-11 BMatP= 1.03D-09
 IDIUse=1 WtCom= 1.00D+00 WtEn= 0.00D+00
 Coeff-Com: -0.488D-05 0.838D-05 0.128D-03 0.216D-03 0.462D-03-0.507D-02
 Coeff-Com: -0.137D-01-0.137D-01 0.838D-01 0.948D+00
 Coeff:     -0.488D-05 0.838D-05 0.128D-03 0.216D-03 0.462D-03-0.507D-02
 Coeff:     -0.137D-01-0.137D-01 0.838D-01 0.948D+00
 Gap=     0.326 Goal=   None    Shift=    0.000
 RMSDP=8.13D-08 MaxDP=1.29D-06 DE=-1.29D-09 OVMax= 3.64D-06

 Cycle  11  Pass 1  IDiag  1:
 E= -644.133468223534     Delta-E=       -0.000000000053 Rises=F Damp=F
 DIIS: error= 3.49D-07 at cycle  11 NSaved=  11.
 NSaved=11 IEnMin=11 EnMin= -644.133468223534     IErMin=10 ErrMin= 2.92D-07
 ErrMax= 3.49D-07  0.00D+00 EMaxC= 1.00D-01 BMatC= 1.95D-11 BMatP= 2.99D-11
 IDIUse=1 WtCom= 1.00D+00 WtEn= 0.00D+00
 Coeff-Com:  0.335D-06-0.116D-05 0.404D-04 0.549D-04 0.314D-03-0.813D-03
 Coeff-Com: -0.442D-02-0.141D-01-0.474D-01 0.506D+00 0.560D+00
 Coeff:      0.335D-06-0.116D-05 0.404D-04 0.549D-04 0.314D-03-0.813D-03
 Coeff:     -0.442D-02-0.141D-01-0.474D-01 0.506D+00 0.560D+00
 Gap=     0.326 Goal=   None    Shift=    0.000
 RMSDP=2.41D-08 MaxDP=6.29D-07 DE=-5.34D-11 OVMax= 8.91D-07

 Cycle  12  Pass 1  IDiag  1:
 E= -644.133468223536     Delta-E=       -0.000000000002 Rises=F Damp=F
 DIIS: error= 5.17D-08 at cycle  12 NSaved=  12.
 NSaved=12 IEnMin=12 EnMin= -644.133468223536     IErMin=12 ErrMin= 5.17D-08
 ErrMax= 5.17D-08  0.00D+00 EMaxC= 1.00D-01 BMatC= 6.48D-13 BMatP= 1.95D-11
 IDIUse=1 WtCom= 1.00D+00 WtEn= 0.00D+00
 Coeff-Com:  0.752D-06-0.143D-05-0.629D-05-0.133D-04 0.104D-04 0.453D-03
 Coeff-Com:  0.921D-03-0.109D-02-0.233D-01-0.610D-02 0.136D+00 0.893D+00
 Coeff:      0.752D-06-0.143D-05-0.629D-05-0.133D-04 0.104D-04 0.453D-03
 Coeff:      0.921D-03-0.109D-02-0.233D-01-0.610D-02 0.136D+00 0.893D+00
 Gap=     0.326 Goal=   None    Shift=    0.000
 RMSDP=9.82D-09 MaxDP=1.75D-07 DE=-1.82D-12 OVMax= 4.31D-07

 SCF Done:  E(RM062X) =  -644.133468224     A.U. after   12 cycles
            NFock= 12  Conv=0.98D-08     -V/T= 2.0026
 KE= 6.424718658287D+02 PE=-2.086980559140D+03 EE= 5.206801592148D+02
 Leave Link  502 at Mon Feb 20 01:52:22 2023, MaxMem=  6710886400 cpu:             107.0 elap:               5.7
 (Enter /data0/hywu0/study/g16/l601.exe)
 Copying SCF densities to generalized density rwf, IOpCl= 0 IROHF=0.

 **********************************************************************

            Population analysis using the SCF density.

 **********************************************************************

 Alpha  occ. eigenvalues --  -78.16851 -19.69887 -19.69093 -19.68114 -19.57946
 Alpha  occ. eigenvalues --   -6.97639  -5.09557  -5.09543  -5.09290  -1.24614
 Alpha  occ. eigenvalues --   -1.17371  -1.16696  -1.08174  -0.72616  -0.65603
 Alpha  occ. eigenvalues --   -0.63723  -0.59069  -0.53362  -0.51924  -0.50036
 Alpha  occ. eigenvalues --   -0.46289  -0.45339  -0.45037  -0.37783  -0.36766
 Alpha virt. eigenvalues --   -0.04164   0.00879   0.02772   0.04648   0.08010
 Alpha virt. eigenvalues --    0.08827   0.10606   0.12721   0.15856   0.17088
 Alpha virt. eigenvalues --    0.17568   0.18393   0.19453   0.19855   0.21256
 Alpha virt. eigenvalues --    0.22505   0.24273   0.25719   0.25878   0.27456
 Alpha virt. eigenvalues --    0.27952   0.28996   0.30207   0.31999   0.33146
 Alpha virt. eigenvalues --    0.34192   0.36521   0.38158   0.40287   0.42586
 Alpha virt. eigenvalues --    0.44273   0.44801   0.52115   0.55689   0.57282
 Alpha virt. eigenvalues --    0.73501   0.76094   0.76494   0.85775   0.97865
 Alpha virt. eigenvalues --    0.99924   1.00214   1.05134   1.05798   1.11713
 Alpha virt. eigenvalues --    1.14110   1.14969   1.18624   1.19397   1.20098
 Alpha virt. eigenvalues --    1.21497   1.23128   1.26027   1.26835   1.32309
 Alpha virt. eigenvalues --    1.32875   1.42022   1.43003   1.49794   1.51734
 Alpha virt. eigenvalues --    1.52548   1.54929   1.57819   1.59515   1.63577
 Alpha virt. eigenvalues --    1.66457   1.67436   1.70276   1.72700   1.82597
 Alpha virt. eigenvalues --    1.83201   1.84500   1.86888   1.89143   1.96644
 Alpha virt. eigenvalues --    1.99271   2.03425   2.09693   2.11668   2.13644
 Alpha virt. eigenvalues --    2.17943   2.21792   2.25402   2.36739   2.42770
 Alpha virt. eigenvalues --    2.44292   2.56436   2.61623   2.62057   2.70144
 Alpha virt. eigenvalues --    2.72940   2.80536   2.85939   2.89530   2.94123
 Alpha virt. eigenvalues --    5.01037   5.03269   5.06018   5.06465   5.10612
 Alpha virt. eigenvalues --    5.13610   5.17239   5.23495   5.34783   5.41630
 Alpha virt. eigenvalues --    5.44108   5.51618   6.71688   6.73920   6.74992
 Alpha virt. eigenvalues --    6.76532   6.79122   6.80469   6.82770   6.85281
 Alpha virt. eigenvalues --    6.91403   6.92663   6.94118   6.97973   6.99424
 Alpha virt. eigenvalues --    7.01616   7.10751   7.24513   7.25663   7.27837
 Alpha virt. eigenvalues --    7.31539   7.40221   7.64184  14.23313  14.23799
 Alpha virt. eigenvalues --   14.33723  49.97260  49.98964  50.00467  50.10471
 Alpha virt. eigenvalues --  163.85501
          Condensed to atoms (all electrons):
              27         28         29         30         31         32
    27  P   12.486558   0.555770   0.170725   0.044471   0.233946   0.003845
    28  O    0.555770   8.136880  -0.035771   0.002373  -0.006480  -0.014691
    29  O    0.170725  -0.035771   8.118051   0.220916   0.006281  -0.000728
    30  H    0.044471   0.002373   0.220916   0.452670  -0.013322   0.001989
    31  O    0.233946  -0.006480   0.006281  -0.013322   8.046296   0.250878
    32  H    0.003845  -0.014691  -0.000728   0.001989   0.250878   0.460078
    33  O    0.225930  -0.007647   0.004997  -0.013456   0.035638  -0.003574
    34  H   -0.001685  -0.015021   0.000130   0.001491  -0.003733  -0.003631
              33         34
    27  P    0.225930  -0.001685
    28  O   -0.007647  -0.015021
    29  O    0.004997   0.000130
    30  H   -0.013456   0.001491
    31  O    0.035638  -0.003733
    32  H   -0.003574  -0.003631
    33  O    8.059701   0.256527
    34  H    0.256527   0.447428
 Mulliken charges:
               1
     1  C    0.000000
     2  C    0.000000
     3  C    0.000000
     4  C    0.000000
     5  C    0.000000
     6  H    0.000000
     7  H    0.000000
     8  H    0.000000
     9  H    0.000000
    10  C    0.000000
    11  H    0.000000
    12  H    0.000000
    13  H    0.000000
    14  N    0.000000
    15  C    0.000000
    16  H    0.000000
    17  H    0.000000
    18  C    0.000000
    19  H    0.000000
    20  H    0.000000
    21  C    0.000000
    22  H    0.000000
    23  H    0.000000
    24  C    0.000000
    25  O    0.000000
    26  O    0.000000
    27  P    1.280439
    28  O   -0.615413
    29  O   -0.484601
    30  H    0.302869
    31  O   -0.549505
    32  H    0.305833
    33  O   -0.558116
    34  H    0.318494
 Sum of Mulliken charges =  -0.00000
 Mulliken charges with hydrogens summed into heavy atoms:
               1
     1  C    0.000000
     2  C    0.000000
     3  C    0.000000
     4  C    0.000000
     5  C    0.000000
    10  C    0.000000
    14  N    0.000000
    15  C    0.000000
    18  C    0.000000
    21  C    0.000000
    24  C    0.000000
    25  O    0.000000
    26  O    0.000000
    27  P    1.280439
    28  O   -0.615413
    29  O   -0.181733
    31  O   -0.243672
    33  O   -0.239622
         Mulliken charges condensed to fragments:
      1      0.000000
      2     -0.000000
 Electronic spatial extent (au):  <R**2>=          55411.1143
 Charge=             -0.0000 electrons
 Dipole moment (field-independent basis, Debye):
    X=              4.9845    Y=              1.0860    Z=              2.5563  Tot=              5.7061
 Quadrupole moment (field-independent basis, Debye-Ang):
   XX=             66.8183   YY=             -7.6080   ZZ=              4.4583
   XY=             67.1836   XZ=             66.2146   YZ=             34.2974
 Traceless Quadrupole moment (field-independent basis, Debye-Ang):
   XX=             45.5954   YY=            -28.8309   ZZ=            -16.7646
   XY=             67.1836   XZ=             66.2146   YZ=             34.2974
 Octapole moment (field-independent basis, Debye-Ang**2):
  XXX=            477.0509  YYY=           -739.5381  ZZZ=           -307.3104  XYY=            556.7624
  XXY=            832.3215  XXZ=            834.4862  XZZ=            366.4444  YZZ=             41.2305
  YYZ=            203.5306  XYZ=            799.0399
 Hexadecapole moment (field-independent basis, Debye-Ang**3):
 XXXX=          -1245.1201 YYYY=         -21554.7836 ZZZZ=          -6550.3353 XXXY=           5491.2891
 XXXZ=           7502.2022 YYYX=           -332.4355 YYYZ=          -3056.5760 ZZZX=           -572.4007
 ZZZY=          -4119.3484 XXYY=           6918.4737 XXZZ=           5165.2298 YYZZ=          -1584.2835
 XXYZ=           9672.8458 YYXZ=           7114.0836 ZZXY=           3994.3709
 N-N= 2.796950658733D+02 E-N=-2.086980563760D+03  KE= 6.424718658287D+02
 No NMR shielding tensors so no spin-rotation constants.
 Leave Link  601 at Mon Feb 20 01:52:23 2023, MaxMem=  6710886400 cpu:               1.9 elap:               0.1
 (Enter /data0/hywu0/study/g16/l122.exe)
 CPIOFr:  IOpCl= 0 IRwI=-1 IRwCP=  731 ICalc=  4 LCPTot=      533842 Len1MO=     1404424 IndFrg=     7555962
 Restoring MOs from calculation   1 to rwf.
 CPIOFr:  IOpCl= 0 IRwI=-2 IRwCP=  731 ICalc=  0 LCPTot=      533842 Len1MO=     1404424 IndFrg=     1938266
 Counterpoise corrected energy =   -1238.207686905808
                   BSSE energy =       0.003206063103
              sum of fragments =   -1238.112099259994
           complexation energy =     -61.99 kcal/mole (raw)
           complexation energy =     -59.98 kcal/mole (corrected)
 Leave Link  122 at Mon Feb 20 01:52:23 2023, MaxMem=  6710886400 cpu:               0.7 elap:               0.0
 (Enter /data0/hywu0/study/g16/l9999.exe)
 1\1\GINC-LOCALHOST\SP\RM062X\6-311+G(2d,p)\C10H16N1O6P1\HYWU0\20-Feb-2
 023\0\\#p M062X/6-311+G(2d,p) nosymm em=GD3 counterpoise=2\\Title Card
  Required\\0,1\C,0,8.889206,8.456952,9.844959\C,0,8.057443,9.24734,9.0
 53931\C,0,7.884379,10.601387,9.383892\C,0,8.55709,11.120654,10.485378\
 C,0,9.387453,10.301424,11.251765\H,0,7.247305,11.242681,8.76278\H,0,9.
 069671,7.399166,9.601678\H,0,8.495539,12.188513,10.720027\H,0,9.953448
 ,10.698119,12.107926\C,0,7.399234,8.663431,7.858645\H,0,7.912587,7.758
 549,7.490959\H,0,6.350917,8.399405,8.050268\H,0,7.407571,9.374135,7.00
 7814\N,0,9.526829,8.984549,10.934053\C,0,10.374871,8.094665,11.762979\
 H,0,9.839646,7.90991,12.724004\H,0,10.474542,7.105972,11.251318\C,0,11
 .780538,8.651373,12.044836\H,0,11.727197,9.658348,12.512409\H,0,12.263
 036,8.001163,12.804335\C,0,12.653351,8.716866,10.797823\H,0,13.717491,
 8.864534,11.069533\H,0,12.622642,7.774101,10.220789\C,0,12.262141,9.88
 0825,9.878947\O,0,11.628407,10.827752,10.386177\O,0,12.58938,9.767514,
 8.682678\P,0,10.3185,11.99564,7.360002\O,0,9.310576,10.931324,7.238323
 \O,0,9.917193,13.233943,6.438171\H,0,10.654106,13.949066,6.553961\O,0,
 10.416437,12.637184,8.810619\H,0,10.967946,11.969039,9.439509\O,0,11.7
 91612,11.640117,6.913512\H,0,12.174073,10.901976,7.601031\\Version=ES6
 4L-G16RevA.03\HF=-644.1334682\RMSD=9.817e-09\Dipole=-1.5811895,-1.8962
 412,3.1083483\Quadrupole=-55.6664454,-58.1209843,113.7874297,-65.61721
 91,34.9145488,23.6739722\PG=C01 [X(C10H16N1O6P1)]\\@


 MARY HAD A LITTLE LAMB
      HIS FEET WERE BLACK AS SOOT,
           AND EVERYWHERE THAT MARY WENT
                HIS SOOTY FOOT HE PUT.

                    -- NONAME
 Job cpu time:       0 days  3 hours 47 minutes 30.1 seconds.
 Elapsed time:       0 days  0 hours  9 minutes 32.7 seconds.
 File lengths (MBytes):  RWF=    262 Int=      0 D2E=      0 Chk=     78 Scr=      1
 Normal termination of Gaussian 16 at Mon Feb 20 01:52:23 2023.
