 Entering Gaussian System, Link 0=g16
 Initial command:
 /data0/home/software/g16/l1.exe "/data0/home/software/g16/scratch/Gau-329081.inp" -scrdir="/data0/home/software/g16/scratch/"
 Default is to use a total of  22 processors:
                               22 via shared-memory
                                1 via Linda
 Entering Link 1 = /data0/home/software/g16/l1.exe PID=    329082.
  
 Copyright (c) 1988,1990,1992,1993,1995,1998,2003,2009,2016,
            Gaussian, Inc.  All Rights Reserved.
  
 This is part of the Gaussian(R) 16 program.  It is based on
 the Gaussian(R) 09 system (copyright 2009, Gaussian, Inc.),
 the Gaussian(R) 03 system (copyright 2003, Gaussian, Inc.),
 the Gaussian(R) 98 system (copyright 1998, Gaussian, Inc.),
 the Gaussian(R) 94 system (copyright 1995, Gaussian, Inc.),
 the Gaussian 92(TM) system (copyright 1992, Gaussian, Inc.),
 the Gaussian 90(TM) system (copyright 1990, Gaussian, Inc.),
 the Gaussian 88(TM) system (copyright 1988, Gaussian, Inc.),
 the Gaussian 86(TM) system (copyright 1986, Carnegie Mellon
 University), and the Gaussian 82(TM) system (copyright 1983,
 Carnegie Mellon University). Gaussian is a federally registered
 trademark of Gaussian, Inc.
  
 This software contains proprietary and confidential information,
 including trade secrets, belonging to Gaussian, Inc.
  
 This software is provided under written license and may be
 used, copied, transmitted, or stored only in accord with that
 written license.
  
 The following legend is applicable only to US Government
 contracts under FAR:
  
                    RESTRICTED RIGHTS LEGEND
  
 Use, reproduction and disclosure by the US Government is
 subject to restrictions as set forth in subparagraphs (a)
 and (c) of the Commercial Computer Software - Restricted
 Rights clause in FAR 52.227-19.
  
 Gaussian, Inc.
 340 Quinnipiac St., Bldg. 40, Wallingford CT 06492
  
  
 ---------------------------------------------------------------
 Warning -- This program may not be used in any manner that
 competes with the business of Gaussian, Inc. or will provide
 assistance to any competitor of Gaussian, Inc.  The licensee
 of this program is prohibited from giving any competitor of
 Gaussian, Inc. access to this program.  By using this program,
 the user acknowledges that Gaussian, Inc. is engaged in the
 business of creating and licensing software in the field of
 computational chemistry and represents and warrants to the
 licensee that it is not a competitor of Gaussian, Inc. and that
 it will not use this program in any manner prohibited above.
 ---------------------------------------------------------------
  

 Cite this work as:
 Gaussian 16, Revision A.03,
 M. J. Frisch, G. W. Trucks, H. B. Schlegel, G. E. Scuseria, 
 M. A. Robb, J. R. Cheeseman, G. Scalmani, V. Barone, 
 G. A. Petersson, H. Nakatsuji, X. Li, M. Caricato, A. V. Marenich, 
 J. Bloino, B. G. Janesko, R. Gomperts, B. Mennucci, H. P. Hratchian, 
 J. V. Ortiz, A. F. Izmaylov, J. L. Sonnenberg, D. Williams-Young, 
 F. Ding, F. Lipparini, F. Egidi, J. Goings, B. Peng, A. Petrone, 
 T. Henderson, D. Ranasinghe, V. G. Zakrzewski, J. Gao, N. Rega, 
 G. Zheng, W. Liang, M. Hada, M. Ehara, K. Toyota, R. Fukuda, 
 J. Hasegawa, M. Ishida, T. Nakajima, Y. Honda, O. Kitao, H. Nakai, 
 T. Vreven, K. Throssell, J. A. Montgomery, Jr., J. E. Peralta, 
 F. Ogliaro, M. J. Bearpark, J. J. Heyd, E. N. Brothers, K. N. Kudin, 
 V. N. Staroverov, T. A. Keith, R. Kobayashi, J. Normand, 
 K. Raghavachari, A. P. Rendell, J. C. Burant, S. S. Iyengar, 
 J. Tomasi, M. Cossi, J. M. Millam, M. Klene, C. Adamo, R. Cammi, 
 J. W. Ochterski, R. L. Martin, K. Morokuma, O. Farkas, 
 J. B. Foresman, and D. J. Fox, Gaussian, Inc., Wallingford CT, 2016.
 
 ******************************************
 Gaussian 16:  ES64L-G16RevA.03 25-Dec-2016
                19-Feb-2023 
 ******************************************
 %nproc=24
 Will use up to   24 processors via shared memory.
 %mem=50GB
 ---------------------------------------------------
 #p M062X/6-311+G(2d,p) nosymm em=GD3 counterpoise=3
 ---------------------------------------------------
 1/38=1,62=3,172=1/1;
 2/12=2,15=1,17=6,18=5,40=1/2;
 1/38=1,53=2,62=3,63=1/22;
 3/5=4,6=6,7=112,11=2,25=1,30=1,74=-55,124=31/1,2,3;
 4//1;
 5/5=2,38=5/2;
 6/7=2,8=2,9=2,10=2,28=1/1;
 1/53=2,62=3,63=1/22;
 3/5=7,6=11,7=112,11=2,25=1,30=1,74=-55,82=7,124=31/1,2,3;
 4//1;
 5/5=2,38=5/2;
 6/7=2,8=2,9=2,10=2,28=1/1;
 1/53=2,62=3,63=1/22(-4);
 99/5=1,9=1/99;
 Leave Link    1 at Sun Feb 19 22:32:36 2023, MaxMem=  6710886400 cpu:               0.7 elap:               0.0
 (Enter /data0/home/software/g16/l101.exe)
 -------------------
 Title Card Required
 -------------------
 Symbolic Z-matrix:
 Charge =  0 Multiplicity = 1 in supermolecule
 Charge =  0 Multiplicity = 1 in fragment      1.
 Charge =  0 Multiplicity = 1 in fragment      2.
 Charge =  0 Multiplicity = 1 in fragment      3.
 O                     13.07294   12.52299   9.70175    
 H                     12.60329   12.27329   8.88301    
 H                     12.36782   12.70439   10.34206    
 O                     7.36596   12.8399   9.36318    
 H                     7.50583   13.75408   9.57914    
 H                     8.26697   12.43447   9.36214    
 O                     10.8406   12.49929   11.63299    
 H                     11.27029   11.69498   11.9359    
 H                     10.35307   12.20358   10.84025    
 
 ITRead=  0  0  0  0  0  0  0  0  0
 MicOpt= -1 -1 -1 -1 -1 -1 -1 -1 -1
 NAtoms=      9 NQM=        9 NQMF=       0 NMMI=      0 NMMIF=      0
                NMic=       0 NMicF=      0.
                    Isotopes and Nuclear Properties:
 (Nuclear quadrupole moments (NQMom) in fm**2, nuclear magnetic moments (NMagM)
  in nuclear magnetons)

  Atom         1           2           3           4           5           6           7           8           9
 IAtWgt=          16           1           1          16           1           1          16           1           1
 AtmWgt=  15.9949146   1.0078250   1.0078250  15.9949146   1.0078250   1.0078250  15.9949146   1.0078250   1.0078250
 NucSpn=           0           1           1           0           1           1           0           1           1
 AtZEff=  -0.0000000  -0.0000000  -0.0000000  -0.0000000  -0.0000000  -0.0000000  -0.0000000  -0.0000000  -0.0000000
 NQMom=    0.0000000   0.0000000   0.0000000   0.0000000   0.0000000   0.0000000   0.0000000   0.0000000   0.0000000
 NMagM=    0.0000000   2.7928460   2.7928460   0.0000000   2.7928460   2.7928460   0.0000000   2.7928460   2.7928460
 AtZNuc=   8.0000000   1.0000000   1.0000000   8.0000000   1.0000000   1.0000000   8.0000000   1.0000000   1.0000000
 Leave Link  101 at Sun Feb 19 22:32:36 2023, MaxMem=  6710886400 cpu:               2.0 elap:               0.1
 (Enter /data0/home/software/g16/l202.exe)
                          Input orientation:                          
 ---------------------------------------------------------------------
 Center     Atomic      Atomic             Coordinates (Angstroms)
 Number     Number       Type             X           Y           Z
 ---------------------------------------------------------------------
      1          8           0       13.072938   12.522995    9.701750
      2          1           0       12.603292   12.273286    8.883009
      3          1           0       12.367824   12.704391   10.342057
      4          8           0        7.365961   12.839897    9.363178
      5          1           0        7.505833   13.754080    9.579144
      6          1           0        8.266965   12.434474    9.362144
      7          8           0       10.840604   12.499290   11.632993
      8          1           0       11.270291   11.694976   11.935899
      9          1           0       10.353070   12.203576   10.840249
 ---------------------------------------------------------------------
                    Distance matrix (angstroms):
                    1          2          3          4          5
     1  O    0.000000
     2  H    0.976350   0.000000
     3  H    0.969579   1.539519   0.000000
     4  O    5.725788   5.289730   5.098549   0.000000
     5  H    5.702917   5.353638   5.032180   0.949703   0.000000
     6  H    4.818770   4.365694   4.224941   0.988017   1.538756
     7  O    2.951877   3.274226   2.010220   4.164279   4.112602
     8  H    2.987737   3.381046   2.182620   4.813889   4.895441
     9  H    2.965787   2.983144   2.135005   3.392560   3.478679
                    6          7          8          9
     6  H    0.000000
     7  O    3.432867   0.000000
     8  H    4.023809   0.960887   0.000000
     9  H    2.567088   0.976514   1.516713   0.000000
 Symmetry turned off by external request.
 Stoichiometry    H6O3
 Framework group  C1[X(H6O3)]
 Deg. of freedom    21
 Full point group                 C1      NOp   1
 Rotational constants (GHZ):           9.6834738           1.7146429           1.4720316
 Leave Link  202 at Sun Feb 19 22:32:36 2023, MaxMem=  6710886400 cpu:               0.1 elap:               0.0
 (Enter /data0/home/software/g16/l122.exe)
 Counterpoise: doing full-system calculation.
 Leave Link  122 at Sun Feb 19 22:32:36 2023, MaxMem=  6710886400 cpu:               0.0 elap:               0.0
 (Enter /data0/home/software/g16/l301.exe)
 Standard basis: 6-311+G(2d,p) (5D, 7F)
 Ernie: Thresh=  0.10000D-02 Tol=  0.10000D-05 Strict=F.
   117 basis functions,   174 primitive gaussians,   123 cartesian basis functions
    15 alpha electrons       15 beta electrons
       nuclear repulsion energy        68.5000718662 Hartrees.
 IExCor= 4336 DFT=T Ex+Corr=M062X ExCW=0 ScaHFX=  0.540000
 ScaDFX=  1.000000  1.000000  1.000000  1.000000 ScalE2=  1.000000  1.000000
 IRadAn=      5 IRanWt=     -1 IRanGd=            0 ICorTp=0 IEmpDi=131
 NAtoms=    9 NActive=    9 NUniq=    9 SFac= 1.00D+00 NAtFMM=   60 NAOKFM=F Big=F
 Integral buffers will be    131072 words long.
 Raffenetti 2 integral format.
 Two-electron integral symmetry is turned off.
 R6Disp:  Grimme-D3 Dispersion energy=       -0.0001351574 Hartrees.
 Nuclear repulsion after empirical dispersion term =       68.4999367088 Hartrees.
 Leave Link  301 at Sun Feb 19 22:32:36 2023, MaxMem=  6710886400 cpu:               1.1 elap:               0.1
 (Enter /data0/home/software/g16/l302.exe)
 NPDir=0 NMtPBC=     1 NCelOv=     1 NCel=       1 NClECP=     1 NCelD=      1
         NCelK=      1 NCelE2=     1 NClLst=     1 CellRange=     0.0.
 One-electron integrals computed using PRISM.
 NBasis=   117 RedAO= T EigKep=  9.44D-04  NBF=   117
 NBsUse=   117 1.00D-06 EigRej= -1.00D+00 NBFU=   117
 Precomputing XC quadrature grid using
 IXCGrd= 4 IRadAn=           5 IRanWt=          -1 IRanGd=           0 AccXCQ= 0.00D+00.
 Generated NRdTot=       0 NPtTot=           0 NUsed=           0 NTot=          32
 NSgBfM=   123   123   123   123   123 MxSgAt=     9 MxSgA2=     9.
 Leave Link  302 at Sun Feb 19 22:32:36 2023, MaxMem=  6710886400 cpu:               2.6 elap:               0.1
 (Enter /data0/home/software/g16/l303.exe)
 DipDrv:  MaxL=1.
 Leave Link  303 at Sun Feb 19 22:32:36 2023, MaxMem=  6710886400 cpu:               0.5 elap:               0.0
 (Enter /data0/home/software/g16/l401.exe)
 ExpMin= 8.45D-02 ExpMax= 8.59D+03 ExpMxC= 1.30D+03 IAcc=3 IRadAn=         5 AccDes= 0.00D+00
 Harris functional with IExCor= 1009 and IRadAn=       5 diagonalized for initial guess.
 HarFok:  IExCor= 1009 AccDes= 0.00D+00 IRadAn=         5 IDoV= 1 UseB2=F ITyADJ=14
 ICtDFT=  3500011 ScaDFX=  1.000000  1.000000  1.000000  1.000000
 FoFCou: FMM=F IPFlag=           0 FMFlag=      100000 FMFlg1=           0
         NFxFlg=           0 DoJE=T BraDBF=F KetDBF=T FulRan=T
         wScrn=  0.000000 ICntrl=       500 IOpCl=  0 I1Cent=   200000004 NGrid=           0
         NMat0=    1 NMatS0=      1 NMatT0=    0 NMatD0=    1 NMtDS0=    0 NMtDT0=    0
 Symmetry not used in FoFCou.
 Harris En= -229.247169307757    
 JPrj=0 DoOrth=F DoCkMO=F.
 Leave Link  401 at Sun Feb 19 22:32:37 2023, MaxMem=  6710886400 cpu:               4.7 elap:               0.2
 (Enter /data0/home/software/g16/l502.exe)
 Keep R1 ints in memory in canonical form, NReq=46556122.
 FoFCou: FMM=F IPFlag=           0 FMFlag=           0 FMFlg1=           0
         NFxFlg=           0 DoJE=F BraDBF=F KetDBF=F FulRan=T
         wScrn=  0.000000 ICntrl=       600 IOpCl=  0 I1Cent=           0 NGrid=           0
         NMat0=    1 NMatS0=   6903 NMatT0=    0 NMatD0=    1 NMtDS0=    0 NMtDT0=    0
 Symmetry not used in FoFCou.
 Two-electron integral symmetry not used.
 Closed shell SCF:
 Using DIIS extrapolation, IDIIS=  1040.
 NGot=  6710886400 LenX=  6687023004 LenY=  6687007434
 Requested convergence on RMS density matrix=1.00D-08 within 128 cycles.
 Requested convergence on MAX density matrix=1.00D-06.
 Requested convergence on             energy=1.00D-06.
 No special actions if energy rises.
 Integral accuracy reduced to 1.0D-05 until final iterations.

 Cycle   1  Pass 0  IDiag  1:
 E= -229.048922804786    
 DIIS: error= 5.70D-02 at cycle   1 NSaved=   1.
 NSaved= 1 IEnMin= 1 EnMin= -229.048922804786     IErMin= 1 ErrMin= 5.70D-02
 ErrMax= 5.70D-02  0.00D+00 EMaxC= 1.00D-01 BMatC= 3.52D-01 BMatP= 3.52D-01
 IDIUse=3 WtCom= 4.30D-01 WtEn= 5.70D-01
 Coeff-Com:  0.100D+01
 Coeff-En:   0.100D+01
 Coeff:      0.100D+01
 Gap=     0.252 Goal=   None    Shift=    0.000
 GapD=    0.252 DampG=1.000 DampE=0.500 DampFc=0.5000 IDamp=-1.
 Damping current iteration by 5.00D-01
 RMSDP=5.31D-03 MaxDP=1.02D-01              OVMax= 1.73D-01

 Cycle   2  Pass 0  IDiag  1:
 E= -229.141301642936     Delta-E=       -0.092378838150 Rises=F Damp=T
 DIIS: error= 1.05D-02 at cycle   2 NSaved=   2.
 NSaved= 2 IEnMin= 2 EnMin= -229.141301642936     IErMin= 2 ErrMin= 1.05D-02
 ErrMax= 1.05D-02  0.00D+00 EMaxC= 1.00D-01 BMatC= 1.39D-02 BMatP= 3.52D-01
 IDIUse=3 WtCom= 8.95D-01 WtEn= 1.05D-01
 Coeff-Com:  0.754D-01 0.925D+00
 Coeff-En:   0.176D+00 0.824D+00
 Coeff:      0.860D-01 0.914D+00
 Gap=     0.387 Goal=   None    Shift=    0.000
 RMSDP=7.20D-04 MaxDP=1.58D-02 DE=-9.24D-02 OVMax= 1.02D-01

 Cycle   3  Pass 0  IDiag  1:
 E= -229.267092490082     Delta-E=       -0.125790847146 Rises=F Damp=F
 DIIS: error= 2.41D-03 at cycle   3 NSaved=   3.
 NSaved= 3 IEnMin= 3 EnMin= -229.267092490082     IErMin= 3 ErrMin= 2.41D-03
 ErrMax= 2.41D-03  0.00D+00 EMaxC= 1.00D-01 BMatC= 3.66D-04 BMatP= 1.39D-02
 IDIUse=3 WtCom= 9.76D-01 WtEn= 2.41D-02
 Coeff-Com: -0.217D-01 0.499D-01 0.972D+00
 Coeff-En:   0.000D+00 0.000D+00 0.100D+01
 Coeff:     -0.211D-01 0.487D-01 0.972D+00
 Gap=     0.392 Goal=   None    Shift=    0.000
 RMSDP=1.22D-04 MaxDP=2.05D-03 DE=-1.26D-01 OVMax= 5.55D-03

 Cycle   4  Pass 0  IDiag  1:
 E= -229.267340364734     Delta-E=       -0.000247874652 Rises=F Damp=F
 DIIS: error= 1.26D-03 at cycle   4 NSaved=   4.
 NSaved= 4 IEnMin= 4 EnMin= -229.267340364734     IErMin= 4 ErrMin= 1.26D-03
 ErrMax= 1.26D-03  0.00D+00 EMaxC= 1.00D-01 BMatC= 8.61D-05 BMatP= 3.66D-04
 IDIUse=3 WtCom= 9.87D-01 WtEn= 1.26D-02
 Coeff-Com: -0.950D-02 0.122D-01 0.442D+00 0.556D+00
 Coeff-En:   0.000D+00 0.000D+00 0.000D+00 0.100D+01
 Coeff:     -0.938D-02 0.121D-01 0.436D+00 0.561D+00
 Gap=     0.393 Goal=   None    Shift=    0.000
 RMSDP=4.15D-05 MaxDP=1.30D-03 DE=-2.48D-04 OVMax= 1.81D-03

 Cycle   5  Pass 0  IDiag  1:
 E= -229.267392701007     Delta-E=       -0.000052336273 Rises=F Damp=F
 DIIS: error= 2.39D-04 at cycle   5 NSaved=   5.
 NSaved= 5 IEnMin= 5 EnMin= -229.267392701007     IErMin= 5 ErrMin= 2.39D-04
 ErrMax= 2.39D-04  0.00D+00 EMaxC= 1.00D-01 BMatC= 4.92D-06 BMatP= 8.61D-05
 IDIUse=3 WtCom= 9.98D-01 WtEn= 2.39D-03
 Coeff-Com: -0.851D-04-0.275D-02 0.344D-01 0.183D+00 0.785D+00
 Coeff-En:   0.000D+00 0.000D+00 0.000D+00 0.000D+00 0.100D+01
 Coeff:     -0.849D-04-0.275D-02 0.343D-01 0.183D+00 0.786D+00
 Gap=     0.393 Goal=   None    Shift=    0.000
 RMSDP=1.25D-05 MaxDP=4.16D-04 DE=-5.23D-05 OVMax= 6.92D-04

 Cycle   6  Pass 0  IDiag  1:
 E= -229.267396215120     Delta-E=       -0.000003514113 Rises=F Damp=F
 DIIS: error= 4.29D-05 at cycle   6 NSaved=   6.
 NSaved= 6 IEnMin= 6 EnMin= -229.267396215120     IErMin= 6 ErrMin= 4.29D-05
 ErrMax= 4.29D-05  0.00D+00 EMaxC= 1.00D-01 BMatC= 1.24D-07 BMatP= 4.92D-06
 IDIUse=1 WtCom= 1.00D+00 WtEn= 0.00D+00
 Coeff-Com:  0.699D-03-0.104D-02-0.237D-01-0.280D-01 0.756D-01 0.976D+00
 Coeff:      0.699D-03-0.104D-02-0.237D-01-0.280D-01 0.756D-01 0.976D+00
 Gap=     0.393 Goal=   None    Shift=    0.000
 RMSDP=5.52D-06 MaxDP=1.23D-04 DE=-3.51D-06 OVMax= 1.35D-04

 Initial convergence to 1.0D-05 achieved.  Increase integral accuracy.
 Cycle   7  Pass 1  IDiag  1:
 E= -229.267386175984     Delta-E=        0.000010039136 Rises=F Damp=F
 DIIS: error= 2.12D-05 at cycle   1 NSaved=   1.
 NSaved= 1 IEnMin= 1 EnMin= -229.267386175984     IErMin= 1 ErrMin= 2.12D-05
 ErrMax= 2.12D-05  0.00D+00 EMaxC= 1.00D-01 BMatC= 6.21D-08 BMatP= 6.21D-08
 IDIUse=1 WtCom= 1.00D+00 WtEn= 0.00D+00
 Coeff-Com:  0.100D+01
 Coeff:      0.100D+01
 Gap=     0.393 Goal=   None    Shift=    0.000
 RMSDP=5.52D-06 MaxDP=1.23D-04 DE= 1.00D-05 OVMax= 5.47D-05

 Cycle   8  Pass 1  IDiag  1:
 E= -229.267386217083     Delta-E=       -0.000000041099 Rises=F Damp=F
 DIIS: error= 1.22D-05 at cycle   2 NSaved=   2.
 NSaved= 2 IEnMin= 2 EnMin= -229.267386217083     IErMin= 2 ErrMin= 1.22D-05
 ErrMax= 1.22D-05  0.00D+00 EMaxC= 1.00D-01 BMatC= 1.25D-08 BMatP= 6.21D-08
 IDIUse=1 WtCom= 1.00D+00 WtEn= 0.00D+00
 Coeff-Com:  0.211D+00 0.789D+00
 Coeff:      0.211D+00 0.789D+00
 Gap=     0.394 Goal=   None    Shift=    0.000
 RMSDP=8.51D-07 MaxDP=2.91D-05 DE=-4.11D-08 OVMax= 4.38D-05

 Cycle   9  Pass 1  IDiag  1:
 E= -229.267386221347     Delta-E=       -0.000000004264 Rises=F Damp=F
 DIIS: error= 7.91D-06 at cycle   3 NSaved=   3.
 NSaved= 3 IEnMin= 3 EnMin= -229.267386221347     IErMin= 3 ErrMin= 7.91D-06
 ErrMax= 7.91D-06  0.00D+00 EMaxC= 1.00D-01 BMatC= 6.63D-09 BMatP= 1.25D-08
 IDIUse=1 WtCom= 1.00D+00 WtEn= 0.00D+00
 Coeff-Com: -0.470D-01 0.420D+00 0.627D+00
 Coeff:     -0.470D-01 0.420D+00 0.627D+00
 Gap=     0.393 Goal=   None    Shift=    0.000
 RMSDP=3.50D-07 MaxDP=1.25D-05 DE=-4.26D-09 OVMax= 1.61D-05

 Cycle  10  Pass 1  IDiag  1:
 E= -229.267386225703     Delta-E=       -0.000000004356 Rises=F Damp=F
 DIIS: error= 4.46D-07 at cycle   4 NSaved=   4.
 NSaved= 4 IEnMin= 4 EnMin= -229.267386225703     IErMin= 4 ErrMin= 4.46D-07
 ErrMax= 4.46D-07  0.00D+00 EMaxC= 1.00D-01 BMatC= 1.35D-11 BMatP= 6.63D-09
 IDIUse=1 WtCom= 1.00D+00 WtEn= 0.00D+00
 Coeff-Com: -0.434D-02 0.127D-01 0.343D-01 0.957D+00
 Coeff:     -0.434D-02 0.127D-01 0.343D-01 0.957D+00
 Gap=     0.393 Goal=   None    Shift=    0.000
 RMSDP=5.05D-08 MaxDP=8.77D-07 DE=-4.36D-09 OVMax= 2.08D-06

 Cycle  11  Pass 1  IDiag  1:
 E= -229.267386225722     Delta-E=       -0.000000000019 Rises=F Damp=F
 DIIS: error= 2.07D-07 at cycle   5 NSaved=   5.
 NSaved= 5 IEnMin= 5 EnMin= -229.267386225722     IErMin= 5 ErrMin= 2.07D-07
 ErrMax= 2.07D-07  0.00D+00 EMaxC= 1.00D-01 BMatC= 4.03D-12 BMatP= 1.35D-11
 IDIUse=1 WtCom= 1.00D+00 WtEn= 0.00D+00
 Coeff-Com:  0.214D-02-0.307D-01-0.407D-01 0.309D+00 0.760D+00
 Coeff:      0.214D-02-0.307D-01-0.407D-01 0.309D+00 0.760D+00
 Gap=     0.393 Goal=   None    Shift=    0.000
 RMSDP=2.05D-08 MaxDP=5.03D-07 DE=-1.91D-11 OVMax= 8.76D-07

 Cycle  12  Pass 1  IDiag  1:
 E= -229.267386225728     Delta-E=       -0.000000000006 Rises=F Damp=F
 DIIS: error= 8.52D-08 at cycle   6 NSaved=   6.
 NSaved= 6 IEnMin= 6 EnMin= -229.267386225728     IErMin= 6 ErrMin= 8.52D-08
 ErrMax= 8.52D-08  0.00D+00 EMaxC= 1.00D-01 BMatC= 8.70D-13 BMatP= 4.03D-12
 IDIUse=1 WtCom= 1.00D+00 WtEn= 0.00D+00
 Coeff-Com:  0.177D-02-0.174D-01-0.258D-01 0.171D-01 0.350D+00 0.674D+00
 Coeff:      0.177D-02-0.174D-01-0.258D-01 0.171D-01 0.350D+00 0.674D+00
 Gap=     0.393 Goal=   None    Shift=    0.000
 RMSDP=6.57D-09 MaxDP=1.62D-07 DE=-5.68D-12 OVMax= 3.34D-07

 SCF Done:  E(RM062X) =  -229.267386226     A.U. after   12 cycles
            NFock= 12  Conv=0.66D-08     -V/T= 2.0030
 KE= 2.285774060000D+02 PE=-6.790844069179D+02 EE= 1.527396779834D+02
 Leave Link  502 at Sun Feb 19 22:32:39 2023, MaxMem=  6710886400 cpu:              41.7 elap:               2.2
 (Enter /data0/home/software/g16/l601.exe)
 Copying SCF densities to generalized density rwf, IOpCl= 0 IROHF=0.

 **********************************************************************

            Population analysis using the SCF density.

 **********************************************************************

 Alpha  occ. eigenvalues --  -19.66497 -19.64009 -19.61964  -1.17356  -1.14617
 Alpha  occ. eigenvalues --   -1.12503  -0.64292  -0.62241  -0.60297  -0.51480
 Alpha  occ. eigenvalues --   -0.48660  -0.47699  -0.43213  -0.41289  -0.39455
 Alpha virt. eigenvalues --   -0.00108   0.06185   0.08244   0.09807   0.13001
 Alpha virt. eigenvalues --    0.14092   0.14877   0.16973   0.17306   0.18644
 Alpha virt. eigenvalues --    0.18757   0.20031   0.20448   0.21352   0.25418
 Alpha virt. eigenvalues --    0.26102   0.27636   0.38285   0.49587   0.50152
 Alpha virt. eigenvalues --    0.52256   0.54941   0.56877   0.61962   0.95846
 Alpha virt. eigenvalues --    0.96073   0.98455   1.00309   1.00806   1.03013
 Alpha virt. eigenvalues --    1.05235   1.05624   1.07314   1.15739   1.16604
 Alpha virt. eigenvalues --    1.18356   1.19645   1.21203   1.23847   1.28197
 Alpha virt. eigenvalues --    1.31729   1.33178   1.34627   1.35422   1.43385
 Alpha virt. eigenvalues --    1.66407   1.68367   1.70102   1.72608   1.73142
 Alpha virt. eigenvalues --    1.74137   1.75098   1.78775   1.90512   2.03492
 Alpha virt. eigenvalues --    2.05903   2.06997   2.07820   2.08861   2.24476
 Alpha virt. eigenvalues --    2.34622   2.36584   2.39323   2.41925   2.43116
 Alpha virt. eigenvalues --    2.50618   2.51715   2.56195   2.58848   2.84425
 Alpha virt. eigenvalues --    2.87320   2.95468   3.00707   3.01492   3.09635
 Alpha virt. eigenvalues --    5.04902   5.06460   5.11579   5.45561   5.47506
 Alpha virt. eigenvalues --    5.49519   5.87611   5.91612   5.92942   6.76092
 Alpha virt. eigenvalues --    6.76878   6.77095   6.79031   6.79090   6.81283
 Alpha virt. eigenvalues --    6.83608   6.85687   6.88039   6.90098   6.92140
 Alpha virt. eigenvalues --    6.92805   7.06358   7.08686   7.14212  49.94388
 Alpha virt. eigenvalues --   49.94728  49.97911
          Condensed to atoms (all electrons):
               1          2          3          4          5          6
     1  O    8.027291   0.307933   0.271794  -0.000030   0.000024  -0.000143
     2  H    0.307933   0.448421  -0.022121   0.000043   0.000001  -0.000082
     3  H    0.271794  -0.022121   0.411131   0.000207  -0.000017  -0.000164
     4  O   -0.000030   0.000043   0.000207   7.899731   0.330396   0.313859
     5  H    0.000024   0.000001  -0.000017   0.330396   0.414667  -0.027202
     6  H   -0.000143  -0.000082  -0.000164   0.313859  -0.027202   0.441093
     7  O    0.020952  -0.006367   0.010489  -0.004038  -0.000417  -0.001199
     8  H   -0.007797   0.000444  -0.000350   0.000651   0.000037   0.000113
     9  H   -0.000149   0.001838   0.003196   0.006150   0.000728   0.003708
               7          8          9
     1  O    0.020952  -0.007797  -0.000149
     2  H   -0.006367   0.000444   0.001838
     3  H    0.010489  -0.000350   0.003196
     4  O   -0.004038   0.000651   0.006150
     5  H   -0.000417   0.000037   0.000728
     6  H   -0.001199   0.000113   0.003708
     7  O    7.817174   0.359773   0.333542
     8  H    0.359773   0.375869  -0.031305
     9  H    0.333542  -0.031305   0.435628
 Mulliken charges:
               1
     1  O   -0.619876
     2  H    0.269889
     3  H    0.325835
     4  O   -0.546969
     5  H    0.281783
     6  H    0.270017
     7  O   -0.529910
     8  H    0.302566
     9  H    0.246665
 Sum of Mulliken charges =  -0.00000
 Mulliken charges with hydrogens summed into heavy atoms:
               1
     1  O   -0.024151
     4  O    0.004830
     7  O    0.019320
         Mulliken charges condensed to fragments:
      1     -0.024151
      2      0.004830
      3      0.019320
 Electronic spatial extent (au):  <R**2>=          40586.0403
 Charge=             -0.0000 electrons
 Dipole moment (field-independent basis, Debye):
    X=             -0.6314    Y=             -1.0398    Z=             -0.3868  Tot=              1.2765
 Quadrupole moment (field-independent basis, Debye-Ang):
   XX=            -53.5041   YY=            -43.3592   ZZ=            -28.1887
   XY=            -23.4770   XZ=            -11.6048   YZ=            -17.6303
 Traceless Quadrupole moment (field-independent basis, Debye-Ang):
   XX=            -11.8201   YY=             -1.6752   ZZ=             13.4953
   XY=            -23.4770   XZ=            -11.6048   YZ=            -17.6303
 Octapole moment (field-independent basis, Debye-Ang**2):
  XXX=          -1467.4073  YYY=          -1142.2571  ZZZ=           -744.1263  XYY=           -678.1001
  XXY=           -875.2511  XXZ=           -596.4260  XZZ=           -369.4088  YZZ=           -514.0465
  YYZ=           -556.8708  XYZ=           -326.7154
 Hexadecapole moment (field-independent basis, Debye-Ang**3):
 XXXX=         -30105.0771 YYYY=         -24609.1406 ZZZZ=         -14543.2348 XXXY=         -20906.5199
 XXXZ=         -15370.6959 YYYX=         -15685.3319 YYYZ=         -13407.5436 ZZZX=          -8421.2625
 ZZZY=         -11357.0154 XXYY=         -15689.2750 XXZZ=          -8671.9812 YYZZ=         -10265.8797
 XXYZ=          -9792.8214 YYXZ=          -8289.7459 ZZXY=          -6791.7923
 N-N= 6.849993670879D+01 E-N=-6.790844013506D+02  KE= 2.285774060000D+02
 No NMR shielding tensors so no spin-rotation constants.
 Leave Link  601 at Sun Feb 19 22:32:39 2023, MaxMem=  6710886400 cpu:               1.8 elap:               0.1
 (Enter /data0/home/software/g16/l122.exe)
 CPIOFr:  IOpCl= 0 IRwI=-1 IRwCP=  731 ICalc= -1 LCPTot=       22668 Len1MO=       57607 IndFrg=       22668
 CPIOFr:  IOpCl= 0 IRwI=-1 IRwCP=  731 ICalc=  0 LCPTot=       22668 Len1MO=       57607 IndFrg=       80275
 Counterpoise: doing calculation for fragment   1 using the basis set of the full-system, NewBq=T
 Leave Link  122 at Sun Feb 19 22:32:39 2023, MaxMem=  6710886400 cpu:               0.1 elap:               0.0
 (Enter /data0/home/software/g16/l301.exe)
 Basis read from rwf:  (5D, 7F)
 No pseudopotential information found on rwf file.
   117 basis functions,   174 primitive gaussians,   123 cartesian basis functions
     5 alpha electrons        5 beta electrons
       nuclear repulsion energy         9.0459369112 Hartrees.
 IExCor= 4336 DFT=T Ex+Corr=M062X ExCW=0 ScaHFX=  0.540000
 ScaDFX=  1.000000  1.000000  1.000000  1.000000 ScalE2=  1.000000  1.000000
 IRadAn=      5 IRanWt=     -1 IRanGd=            0 ICorTp=0 IEmpDi=131
 NAtoms=    9 NActive=    9 NUniq=    9 SFac= 1.00D+00 NAtFMM=   60 NAOKFM=F Big=F
 Integral buffers will be    131072 words long.
 Raffenetti 2 integral format.
 Two-electron integral symmetry is turned off.
 R6Disp:  Grimme-D3 Dispersion energy=       -0.0000000083 Hartrees.
 Nuclear repulsion after empirical dispersion term =        9.0459369029 Hartrees.
 No density basis found on file   718.
 Leave Link  301 at Sun Feb 19 22:32:39 2023, MaxMem=  6710886400 cpu:               1.3 elap:               0.1
 (Enter /data0/home/software/g16/l302.exe)
 NPDir=0 NMtPBC=     1 NCelOv=     1 NCel=       1 NClECP=     1 NCelD=      1
         NCelK=      1 NCelE2=     1 NClLst=     1 CellRange=     0.0.
 One-electron integrals computed using PRISM.
 NBasis=   117 RedAO= T EigKep=  9.44D-04  NBF=   117
 NBsUse=   117 1.00D-06 EigRej= -1.00D+00 NBFU=   117
 Precomputing XC quadrature grid using
 IXCGrd= 4 IRadAn=           5 IRanWt=          -1 IRanGd=           0 AccXCQ= 0.00D+00.
 Generated NRdTot=       0 NPtTot=           0 NUsed=           0 NTot=          32
 NSgBfM=   123   123   123   123   123 MxSgAt=     9 MxSgA2=     9.
 Leave Link  302 at Sun Feb 19 22:32:39 2023, MaxMem=  6710886400 cpu:               2.7 elap:               0.1
 (Enter /data0/home/software/g16/l303.exe)
 DipDrv:  MaxL=1.
 Leave Link  303 at Sun Feb 19 22:32:39 2023, MaxMem=  6710886400 cpu:               0.5 elap:               0.0
 (Enter /data0/home/software/g16/l401.exe)
 ExpMin= 8.45D-02 ExpMax= 8.59D+03 ExpMxC= 1.30D+03 IAcc=3 IRadAn=         5 AccDes= 0.00D+00
 Harris functional with IExCor= 1009 and IRadAn=       5 diagonalized for initial guess.
 HarFok:  IExCor= 1009 AccDes= 0.00D+00 IRadAn=         5 IDoV= 1 UseB2=F ITyADJ=14
 ICtDFT=  3500011 ScaDFX=  1.000000  1.000000  1.000000  1.000000
 FoFCou: FMM=F IPFlag=           0 FMFlag=      100000 FMFlg1=           0
         NFxFlg=           0 DoJE=T BraDBF=F KetDBF=T FulRan=T
         wScrn=  0.000000 ICntrl=       500 IOpCl=  0 I1Cent=   200000004 NGrid=           0
         NMat0=    1 NMatS0=      1 NMatT0=    0 NMatD0=    1 NMtDS0=    0 NMtDT0=    0
 Symmetry not used in FoFCou.
 Harris En= -76.4163312827696    
 JPrj=0 DoOrth=F DoCkMO=F.
 Leave Link  401 at Sun Feb 19 22:32:39 2023, MaxMem=  6710886400 cpu:               4.6 elap:               0.2
 (Enter /data0/home/software/g16/l502.exe)
 Keep R1 ints in memory in canonical form, NReq=46556122.
 FoFCou: FMM=F IPFlag=           0 FMFlag=           0 FMFlg1=           0
         NFxFlg=           0 DoJE=F BraDBF=F KetDBF=F FulRan=T
         wScrn=  0.000000 ICntrl=       600 IOpCl=  0 I1Cent=           0 NGrid=           0
         NMat0=    1 NMatS0=   6903 NMatT0=    0 NMatD0=    1 NMtDS0=    0 NMtDT0=    0
 Symmetry not used in FoFCou.
 Two-electron integral symmetry not used.
 Closed shell SCF:
 Using DIIS extrapolation, IDIIS=  1040.
 NGot=  6710886400 LenX=  6687023004 LenY=  6687007434
 Requested convergence on RMS density matrix=1.00D-08 within 128 cycles.
 Requested convergence on MAX density matrix=1.00D-06.
 Requested convergence on             energy=1.00D-06.
 No special actions if energy rises.
 Integral accuracy reduced to 1.0D-05 until final iterations.

 Cycle   1  Pass 0  IDiag  1:
 E= -76.3471666053065    
 DIIS: error= 3.37D-02 at cycle   1 NSaved=   1.
 NSaved= 1 IEnMin= 1 EnMin= -76.3471666053065     IErMin= 1 ErrMin= 3.37D-02
 ErrMax= 3.37D-02  0.00D+00 EMaxC= 1.00D-01 BMatC= 1.19D-01 BMatP= 1.19D-01
 IDIUse=3 WtCom= 6.63D-01 WtEn= 3.37D-01
 Coeff-Com:  0.100D+01
 Coeff-En:   0.100D+01
 Coeff:      0.100D+01
 Gap=     0.295 Goal=   None    Shift=    0.000
 GapD=    0.295 DampG=1.000 DampE=0.500 DampFc=0.5000 IDamp=-1.
 Damping current iteration by 5.00D-01
 RMSDP=2.84D-03 MaxDP=9.95D-02              OVMax= 1.69D-01

 Cycle   2  Pass 0  IDiag  1:
 E= -76.3780190928013     Delta-E=       -0.030852487495 Rises=F Damp=T
 DIIS: error= 6.88D-03 at cycle   2 NSaved=   2.
 NSaved= 2 IEnMin= 2 EnMin= -76.3780190928013     IErMin= 2 ErrMin= 6.88D-03
 ErrMax= 6.88D-03  0.00D+00 EMaxC= 1.00D-01 BMatC= 4.96D-03 BMatP= 1.19D-01
 IDIUse=3 WtCom= 9.31D-01 WtEn= 6.88D-02
 Coeff-Com:  0.861D-01 0.914D+00
 Coeff-En:   0.194D+00 0.806D+00
 Coeff:      0.935D-01 0.906D+00
 Gap=     0.420 Goal=   None    Shift=    0.000
 RMSDP=3.54D-04 MaxDP=1.46D-02 DE=-3.09D-02 OVMax= 1.02D-01

 Cycle   3  Pass 0  IDiag  1:
 E= -76.4218543185646     Delta-E=       -0.043835225763 Rises=F Damp=F
 DIIS: error= 1.10D-03 at cycle   3 NSaved=   3.
 NSaved= 3 IEnMin= 3 EnMin= -76.4218543185646     IErMin= 3 ErrMin= 1.10D-03
 ErrMax= 1.10D-03  0.00D+00 EMaxC= 1.00D-01 BMatC= 1.36D-04 BMatP= 4.96D-03
 IDIUse=3 WtCom= 9.89D-01 WtEn= 1.10D-02
 Coeff-Com: -0.254D-01 0.504D-01 0.975D+00
 Coeff-En:   0.000D+00 0.000D+00 0.100D+01
 Coeff:     -0.251D-01 0.499D-01 0.975D+00
 Gap=     0.422 Goal=   None    Shift=    0.000
 RMSDP=5.18D-05 MaxDP=1.19D-03 DE=-4.38D-02 OVMax= 3.77D-03

 Cycle   4  Pass 0  IDiag  1:
 E= -76.4219643735287     Delta-E=       -0.000110054964 Rises=F Damp=F
 DIIS: error= 1.88D-04 at cycle   4 NSaved=   4.
 NSaved= 4 IEnMin= 4 EnMin= -76.4219643735287     IErMin= 4 ErrMin= 1.88D-04
 ErrMax= 1.88D-04  0.00D+00 EMaxC= 1.00D-01 BMatC= 3.10D-06 BMatP= 1.36D-04
 IDIUse=3 WtCom= 9.98D-01 WtEn= 1.88D-03
 Coeff-Com: -0.313D-02 0.131D-03 0.161D+00 0.842D+00
 Coeff-En:   0.000D+00 0.000D+00 0.000D+00 0.100D+01
 Coeff:     -0.312D-02 0.131D-03 0.161D+00 0.842D+00
 Gap=     0.422 Goal=   None    Shift=    0.000
 RMSDP=7.93D-06 MaxDP=3.31D-04 DE=-1.10D-04 OVMax= 5.21D-04

 Initial convergence to 1.0D-05 achieved.  Increase integral accuracy.
 Cycle   5  Pass 1  IDiag  1:
 E= -76.4219658046991     Delta-E=       -0.000001431170 Rises=F Damp=F
 DIIS: error= 4.32D-05 at cycle   1 NSaved=   1.
 NSaved= 1 IEnMin= 1 EnMin= -76.4219658046991     IErMin= 1 ErrMin= 4.32D-05
 ErrMax= 4.32D-05  0.00D+00 EMaxC= 1.00D-01 BMatC= 9.51D-08 BMatP= 9.51D-08
 IDIUse=1 WtCom= 1.00D+00 WtEn= 0.00D+00
 Coeff-Com:  0.100D+01
 Coeff:      0.100D+01
 Gap=     0.422 Goal=   None    Shift=    0.000
 RMSDP=7.93D-06 MaxDP=3.31D-04 DE=-1.43D-06 OVMax= 2.34D-04

 Cycle   6  Pass 1  IDiag  1:
 E= -76.4219659082193     Delta-E=       -0.000000103520 Rises=F Damp=F
 DIIS: error= 2.13D-05 at cycle   2 NSaved=   2.
 NSaved= 2 IEnMin= 2 EnMin= -76.4219659082193     IErMin= 2 ErrMin= 2.13D-05
 ErrMax= 2.13D-05  0.00D+00 EMaxC= 1.00D-01 BMatC= 5.93D-08 BMatP= 9.51D-08
 IDIUse=1 WtCom= 1.00D+00 WtEn= 0.00D+00
 Coeff-Com:  0.421D+00 0.579D+00
 Coeff:      0.421D+00 0.579D+00
 Gap=     0.422 Goal=   None    Shift=    0.000
 RMSDP=1.13D-06 MaxDP=4.49D-05 DE=-1.04D-07 OVMax= 8.02D-05

 Cycle   7  Pass 1  IDiag  1:
 E= -76.4219659475366     Delta-E=       -0.000000039317 Rises=F Damp=F
 DIIS: error= 1.16D-05 at cycle   3 NSaved=   3.
 NSaved= 3 IEnMin= 3 EnMin= -76.4219659475366     IErMin= 3 ErrMin= 1.16D-05
 ErrMax= 1.16D-05  0.00D+00 EMaxC= 1.00D-01 BMatC= 5.42D-09 BMatP= 5.93D-08
 IDIUse=1 WtCom= 1.00D+00 WtEn= 0.00D+00
 Coeff-Com: -0.117D+00 0.161D+00 0.955D+00
 Coeff:     -0.117D+00 0.161D+00 0.955D+00
 Gap=     0.422 Goal=   None    Shift=    0.000
 RMSDP=6.44D-07 MaxDP=1.93D-05 DE=-3.93D-08 OVMax= 4.31D-05

 Cycle   8  Pass 1  IDiag  1:
 E= -76.4219659530311     Delta-E=       -0.000000005495 Rises=F Damp=F
 DIIS: error= 1.04D-06 at cycle   4 NSaved=   4.
 NSaved= 4 IEnMin= 4 EnMin= -76.4219659530311     IErMin= 4 ErrMin= 1.04D-06
 ErrMax= 1.04D-06  0.00D+00 EMaxC= 1.00D-01 BMatC= 6.97D-11 BMatP= 5.42D-09
 IDIUse=1 WtCom= 1.00D+00 WtEn= 0.00D+00
 Coeff-Com: -0.320D-01 0.107D-01 0.148D+00 0.873D+00
 Coeff:     -0.320D-01 0.107D-01 0.148D+00 0.873D+00
 Gap=     0.422 Goal=   None    Shift=    0.000
 RMSDP=8.83D-08 MaxDP=2.11D-06 DE=-5.49D-09 OVMax= 5.22D-06

 Cycle   9  Pass 1  IDiag  1:
 E= -76.4219659531242     Delta-E=       -0.000000000093 Rises=F Damp=F
 DIIS: error= 1.97D-07 at cycle   5 NSaved=   5.
 NSaved= 5 IEnMin= 5 EnMin= -76.4219659531242     IErMin= 5 ErrMin= 1.97D-07
 ErrMax= 1.97D-07  0.00D+00 EMaxC= 1.00D-01 BMatC= 1.60D-12 BMatP= 6.97D-11
 IDIUse=1 WtCom= 1.00D+00 WtEn= 0.00D+00
 Coeff-Com:  0.444D-02-0.597D-02-0.404D-01-0.664D-01 0.111D+01
 Coeff:      0.444D-02-0.597D-02-0.404D-01-0.664D-01 0.111D+01
 Gap=     0.422 Goal=   None    Shift=    0.000
 RMSDP=2.07D-08 MaxDP=5.67D-07 DE=-9.31D-11 OVMax= 1.45D-06

 Cycle  10  Pass 1  IDiag  1:
 E= -76.4219659531284     Delta-E=       -0.000000000004 Rises=F Damp=F
 DIIS: error= 1.32D-08 at cycle   6 NSaved=   6.
 NSaved= 6 IEnMin= 6 EnMin= -76.4219659531284     IErMin= 6 ErrMin= 1.32D-08
 ErrMax= 1.32D-08  0.00D+00 EMaxC= 1.00D-01 BMatC= 2.70D-14 BMatP= 1.60D-12
 IDIUse=1 WtCom= 1.00D+00 WtEn= 0.00D+00
 Coeff-Com:  0.620D-05 0.576D-03 0.290D-02-0.913D-02-0.111D+00 0.112D+01
 Coeff:      0.620D-05 0.576D-03 0.290D-02-0.913D-02-0.111D+00 0.112D+01
 Gap=     0.422 Goal=   None    Shift=    0.000
 RMSDP=2.24D-09 MaxDP=5.15D-08 DE=-4.18D-12 OVMax= 1.71D-07

 SCF Done:  E(RM062X) =  -76.4219659531     A.U. after   10 cycles
            NFock= 10  Conv=0.22D-08     -V/T= 2.0033
 KE= 7.617071799146D+01 PE=-1.989319966651D+02 EE= 3.729337581757D+01
 Leave Link  502 at Sun Feb 19 22:32:41 2023, MaxMem=  6710886400 cpu:              38.3 elap:               1.9
 (Enter /data0/home/software/g16/l601.exe)
 Copying SCF densities to generalized density rwf, IOpCl= 0 IROHF=0.

 **********************************************************************

            Population analysis using the SCF density.

 **********************************************************************

 Alpha  occ. eigenvalues --  -19.62704  -1.13050  -0.60567  -0.47376  -0.39935
 Alpha virt. eigenvalues --    0.02301   0.08265   0.09169   0.12316   0.13425
 Alpha virt. eigenvalues --    0.15330   0.17478   0.17591   0.18853   0.19556
 Alpha virt. eigenvalues --    0.20534   0.23599   0.24877   0.26687   0.29177
 Alpha virt. eigenvalues --    0.30670   0.35948   0.39822   0.50469   0.55388
 Alpha virt. eigenvalues --    0.58245   0.61073   0.72200   0.75795   0.78790
 Alpha virt. eigenvalues --    0.79471   0.80871   0.82004   0.94263   0.99466
 Alpha virt. eigenvalues --    1.00825   1.04438   1.06859   1.09747   1.11831
 Alpha virt. eigenvalues --    1.21341   1.22024   1.33087   1.40123   1.68553
 Alpha virt. eigenvalues --    1.71201   1.73668   1.77160   1.80846   1.84742
 Alpha virt. eigenvalues --    1.85274   1.88742   1.98136   2.06196   2.07763
 Alpha virt. eigenvalues --    2.17016   2.21674   2.26568   2.30042   2.38237
 Alpha virt. eigenvalues --    2.40776   2.44442   2.47818   2.51103   2.56396
 Alpha virt. eigenvalues --    2.58144   2.58614   2.61740   2.63442   2.68358
 Alpha virt. eigenvalues --    2.70137   2.73034   2.75000   2.77747   2.86248
 Alpha virt. eigenvalues --    2.93034   2.96771   3.00199   3.09353   3.12050
 Alpha virt. eigenvalues --    3.45292   3.54343   3.58837   3.69338   4.45767
 Alpha virt. eigenvalues --    4.63585   5.01349   5.06774   5.26441   5.47886
 Alpha virt. eigenvalues --    5.92764   6.78592   6.80692   6.89112   6.91616
 Alpha virt. eigenvalues --    7.12358   9.82106   9.82904   9.91947   9.95270
 Alpha virt. eigenvalues --   10.11390  10.24465  10.28216  10.33355  10.41931
 Alpha virt. eigenvalues --   10.58011  12.93012  13.25664  13.38997  13.70116
 Alpha virt. eigenvalues --   13.77855  14.30407  17.67624  18.39133  49.97162
 Alpha virt. eigenvalues --  136.02220 139.74764
          Condensed to atoms (all electrons):
               1          2          3          4          5          6
     1  O    7.962451   0.315689   0.301385   0.000057   0.000007  -0.000163
     2  H    0.315689   0.430033  -0.024295   0.000018   0.000002  -0.000057
     3  H    0.301385  -0.024295   0.386415  -0.000004   0.000002  -0.000023
     4  O    0.000057   0.000018  -0.000004   0.000234   0.000022  -0.000298
     5  H    0.000007   0.000002   0.000002   0.000022   0.000023  -0.000055
     6  H   -0.000163  -0.000057  -0.000023  -0.000298  -0.000055   0.000456
     7  O    0.020672  -0.001700  -0.000741   0.000005  -0.000021   0.000115
     8  H   -0.005822   0.000165   0.000521  -0.000013   0.000002   0.000004
     9  H   -0.000520   0.001479   0.002738   0.000079   0.000032  -0.000282
               7          8          9
     1  O    0.020672  -0.005822  -0.000520
     2  H   -0.001700   0.000165   0.001479
     3  H   -0.000741   0.000521   0.002738
     4  O    0.000005  -0.000013   0.000079
     5  H   -0.000021   0.000002   0.000032
     6  H    0.000115   0.000004  -0.000282
     7  O    0.015608  -0.005841  -0.005345
     8  H   -0.005841   0.002824   0.001429
     9  H   -0.005345   0.001429   0.003466
 Mulliken charges:
               1
     1  O   -0.593757
     2  H    0.278666
     3  H    0.334000
     4  O   -0.000101
     5  H   -0.000014
     6  H    0.000302
     7  O   -0.022752
     8  H    0.006730
     9  H   -0.003075
 Sum of Mulliken charges =  -0.00000
 Mulliken charges with hydrogens summed into heavy atoms:
               1
     1  O    0.018909
     4  O    0.000187
     7  O   -0.019097
         Mulliken charges condensed to fragments:
      1      0.018909
      2      0.000187
      3     -0.019097
 Electronic spatial extent (au):  <R**2>=          15003.3715
 Charge=             -0.0000 electrons
 Dipole moment (field-independent basis, Debye):
    X=             -2.0578    Y=             -0.1133    Z=             -0.3246  Tot=              2.0863
 Quadrupole moment (field-independent basis, Debye-Ang):
   XX=            -59.6882   YY=            -10.3161   ZZ=            -10.9599
   XY=            -27.2990   XZ=            -24.4086   YZ=             -4.2452
 Traceless Quadrupole moment (field-independent basis, Debye-Ang):
   XX=            -32.7002   YY=             16.6720   ZZ=             16.0282
   XY=            -27.2990   XZ=            -24.4086   YZ=             -4.2452
 Octapole moment (field-independent basis, Debye-Ang**2):
  XXX=          -1285.0539  YYY=           -334.1453  ZZZ=           -227.7244  XYY=           -458.3088
  XXY=           -767.9492  XXZ=           -639.4703  XZZ=           -341.5595  YZZ=           -130.2374
  YYZ=           -127.9701  XYZ=           -308.8612
 Hexadecapole moment (field-independent basis, Debye-Ang**3):
 XXXX=         -24390.8888 YYYY=          -7928.7311 ZZZZ=          -3839.8574 XXXY=         -16365.2122
 XXXZ=         -13282.5861 YYYX=          -8414.8507 YYYZ=          -3447.0187 ZZZX=          -4932.7530
 ZZZY=          -2699.7619 XXYY=         -11142.0186 XXZZ=          -7606.5738 YYZZ=          -2249.3781
 XXYZ=          -8059.1947 YYXZ=          -4851.7594 ZZXY=          -4197.2620
 N-N= 9.045936902900D+00 E-N=-1.989319963408D+02  KE= 7.617071799146D+01
 No NMR shielding tensors so no spin-rotation constants.
 Leave Link  601 at Sun Feb 19 22:32:41 2023, MaxMem=  6710886400 cpu:               1.7 elap:               0.1
 (Enter /data0/home/software/g16/l122.exe)
 CPIOFr:  IOpCl= 0 IRwI=-1 IRwCP=  731 ICalc=  1 LCPTot=       22668 Len1MO=       57607 IndFrg=      137882
 Counterpoise: doing calculation for fragment   2 using the basis set of the full-system, NewBq=T
 Leave Link  122 at Sun Feb 19 22:32:41 2023, MaxMem=  6710886400 cpu:               0.1 elap:               0.0
 (Enter /data0/home/software/g16/l301.exe)
 Basis read from rwf:  (5D, 7F)
 No pseudopotential information found on rwf file.
   117 basis functions,   174 primitive gaussians,   123 cartesian basis functions
     5 alpha electrons        5 beta electrons
       nuclear repulsion energy         9.0862845000 Hartrees.
 IExCor= 4336 DFT=T Ex+Corr=M062X ExCW=0 ScaHFX=  0.540000
 ScaDFX=  1.000000  1.000000  1.000000  1.000000 ScalE2=  1.000000  1.000000
 IRadAn=      5 IRanWt=     -1 IRanGd=            0 ICorTp=0 IEmpDi=131
 NAtoms=    9 NActive=    9 NUniq=    9 SFac= 1.00D+00 NAtFMM=   60 NAOKFM=F Big=F
 Integral buffers will be    131072 words long.
 Raffenetti 2 integral format.
 Two-electron integral symmetry is turned off.
 R6Disp:  Grimme-D3 Dispersion energy=       -0.0000000082 Hartrees.
 Nuclear repulsion after empirical dispersion term =        9.0862844918 Hartrees.
 No density basis found on file   718.
 Leave Link  301 at Sun Feb 19 22:32:41 2023, MaxMem=  6710886400 cpu:               1.3 elap:               0.1
 (Enter /data0/home/software/g16/l302.exe)
 NPDir=0 NMtPBC=     1 NCelOv=     1 NCel=       1 NClECP=     1 NCelD=      1
         NCelK=      1 NCelE2=     1 NClLst=     1 CellRange=     0.0.
 One-electron integrals computed using PRISM.
 NBasis=   117 RedAO= T EigKep=  9.44D-04  NBF=   117
 NBsUse=   117 1.00D-06 EigRej= -1.00D+00 NBFU=   117
 Precomputing XC quadrature grid using
 IXCGrd= 4 IRadAn=           5 IRanWt=          -1 IRanGd=           0 AccXCQ= 0.00D+00.
 Generated NRdTot=       0 NPtTot=           0 NUsed=           0 NTot=          32
 NSgBfM=   123   123   123   123   123 MxSgAt=     9 MxSgA2=     9.
 Leave Link  302 at Sun Feb 19 22:32:42 2023, MaxMem=  6710886400 cpu:               2.7 elap:               0.1
 (Enter /data0/home/software/g16/l303.exe)
 DipDrv:  MaxL=1.
 Leave Link  303 at Sun Feb 19 22:32:42 2023, MaxMem=  6710886400 cpu:               0.5 elap:               0.0
 (Enter /data0/home/software/g16/l401.exe)
 ExpMin= 8.45D-02 ExpMax= 8.59D+03 ExpMxC= 1.30D+03 IAcc=3 IRadAn=         5 AccDes= 0.00D+00
 Harris functional with IExCor= 1009 and IRadAn=       5 diagonalized for initial guess.
 HarFok:  IExCor= 1009 AccDes= 0.00D+00 IRadAn=         5 IDoV= 1 UseB2=F ITyADJ=14
 ICtDFT=  3500011 ScaDFX=  1.000000  1.000000  1.000000  1.000000
 FoFCou: FMM=F IPFlag=           0 FMFlag=      100000 FMFlg1=           0
         NFxFlg=           0 DoJE=T BraDBF=F KetDBF=T FulRan=T
         wScrn=  0.000000 ICntrl=       500 IOpCl=  0 I1Cent=   200000004 NGrid=           0
         NMat0=    1 NMatS0=      1 NMatT0=    0 NMatD0=    1 NMtDS0=    0 NMtDT0=    0
 Symmetry not used in FoFCou.
 Harris En= -76.4161678382420    
 JPrj=0 DoOrth=F DoCkMO=F.
 Leave Link  401 at Sun Feb 19 22:32:42 2023, MaxMem=  6710886400 cpu:               4.6 elap:               0.2
 (Enter /data0/home/software/g16/l502.exe)
 Keep R1 ints in memory in canonical form, NReq=46556122.
 FoFCou: FMM=F IPFlag=           0 FMFlag=           0 FMFlg1=           0
         NFxFlg=           0 DoJE=F BraDBF=F KetDBF=F FulRan=T
         wScrn=  0.000000 ICntrl=       600 IOpCl=  0 I1Cent=           0 NGrid=           0
         NMat0=    1 NMatS0=   6903 NMatT0=    0 NMatD0=    1 NMtDS0=    0 NMtDT0=    0
 Symmetry not used in FoFCou.
 Two-electron integral symmetry not used.
 Closed shell SCF:
 Using DIIS extrapolation, IDIIS=  1040.
 NGot=  6710886400 LenX=  6687023004 LenY=  6687007434
 Requested convergence on RMS density matrix=1.00D-08 within 128 cycles.
 Requested convergence on MAX density matrix=1.00D-06.
 Requested convergence on             energy=1.00D-06.
 No special actions if energy rises.
 Integral accuracy reduced to 1.0D-05 until final iterations.

 Cycle   1  Pass 0  IDiag  1:
 E= -76.3457866538271    
 DIIS: error= 5.53D-02 at cycle   1 NSaved=   1.
 NSaved= 1 IEnMin= 1 EnMin= -76.3457866538271     IErMin= 1 ErrMin= 5.53D-02
 ErrMax= 5.53D-02  0.00D+00 EMaxC= 1.00D-01 BMatC= 1.21D-01 BMatP= 1.21D-01
 IDIUse=3 WtCom= 4.47D-01 WtEn= 5.53D-01
 Coeff-Com:  0.100D+01
 Coeff-En:   0.100D+01
 Coeff:      0.100D+01
 Gap=     0.305 Goal=   None    Shift=    0.000
 GapD=    0.305 DampG=1.000 DampE=0.500 DampFc=0.5000 IDamp=-1.
 Damping current iteration by 5.00D-01
 RMSDP=2.84D-03 MaxDP=1.01D-01              OVMax= 1.69D-01

 Cycle   2  Pass 0  IDiag  1:
 E= -76.3771168574817     Delta-E=       -0.031330203655 Rises=F Damp=T
 DIIS: error= 8.28D-03 at cycle   2 NSaved=   2.
 NSaved= 2 IEnMin= 2 EnMin= -76.3771168574817     IErMin= 2 ErrMin= 8.28D-03
 ErrMax= 8.28D-03  0.00D+00 EMaxC= 1.00D-01 BMatC= 4.89D-03 BMatP= 1.21D-01
 IDIUse=3 WtCom= 9.17D-01 WtEn= 8.28D-02
 Coeff-Com:  0.838D-01 0.916D+00
 Coeff-En:   0.191D+00 0.809D+00
 Coeff:      0.926D-01 0.907D+00
 Gap=     0.427 Goal=   None    Shift=    0.000
 RMSDP=3.53D-04 MaxDP=1.43D-02 DE=-3.13D-02 OVMax= 1.02D-01

 Cycle   3  Pass 0  IDiag  1:
 E= -76.4212361181139     Delta-E=       -0.044119260632 Rises=F Damp=F
 DIIS: error= 1.67D-03 at cycle   3 NSaved=   3.
 NSaved= 3 IEnMin= 3 EnMin= -76.4212361181139     IErMin= 3 ErrMin= 1.67D-03
 ErrMax= 1.67D-03  0.00D+00 EMaxC= 1.00D-01 BMatC= 1.22D-04 BMatP= 4.89D-03
 IDIUse=3 WtCom= 9.83D-01 WtEn= 1.67D-02
 Coeff-Com: -0.238D-01 0.473D-01 0.977D+00
 Coeff-En:   0.000D+00 0.000D+00 0.100D+01
 Coeff:     -0.234D-01 0.465D-01 0.977D+00
 Gap=     0.430 Goal=   None    Shift=    0.000
 RMSDP=4.60D-05 MaxDP=1.16D-03 DE=-4.41D-02 OVMax= 3.64D-03

 Cycle   4  Pass 0  IDiag  1:
 E= -76.4213360421799     Delta-E=       -0.000099924066 Rises=F Damp=F
 DIIS: error= 3.16D-04 at cycle   4 NSaved=   4.
 NSaved= 4 IEnMin= 4 EnMin= -76.4213360421799     IErMin= 4 ErrMin= 3.16D-04
 ErrMax= 3.16D-04  0.00D+00 EMaxC= 1.00D-01 BMatC= 3.23D-06 BMatP= 1.22D-04
 IDIUse=3 WtCom= 9.97D-01 WtEn= 3.16D-03
 Coeff-Com: -0.268D-02-0.690D-03 0.162D+00 0.841D+00
 Coeff-En:   0.000D+00 0.000D+00 0.000D+00 0.100D+01
 Coeff:     -0.267D-02-0.688D-03 0.161D+00 0.842D+00
 Gap=     0.430 Goal=   None    Shift=    0.000
 RMSDP=7.87D-06 MaxDP=3.43D-04 DE=-9.99D-05 OVMax= 5.29D-04

 Initial convergence to 1.0D-05 achieved.  Increase integral accuracy.
 Cycle   5  Pass 1  IDiag  1:
 E= -76.4213368125038     Delta-E=       -0.000000770324 Rises=F Damp=F
 DIIS: error= 7.17D-05 at cycle   1 NSaved=   1.
 NSaved= 1 IEnMin= 1 EnMin= -76.4213368125038     IErMin= 1 ErrMin= 7.17D-05
 ErrMax= 7.17D-05  0.00D+00 EMaxC= 1.00D-01 BMatC= 9.96D-08 BMatP= 9.96D-08
 IDIUse=1 WtCom= 1.00D+00 WtEn= 0.00D+00
 Coeff-Com:  0.100D+01
 Coeff:      0.100D+01
 Gap=     0.431 Goal=   None    Shift=    0.000
 RMSDP=7.87D-06 MaxDP=3.43D-04 DE=-7.70D-07 OVMax= 2.33D-04

 Cycle   6  Pass 1  IDiag  1:
 E= -76.4213369256628     Delta-E=       -0.000000113159 Rises=F Damp=F
 DIIS: error= 2.83D-05 at cycle   2 NSaved=   2.
 NSaved= 2 IEnMin= 2 EnMin= -76.4213369256628     IErMin= 2 ErrMin= 2.83D-05
 ErrMax= 2.83D-05  0.00D+00 EMaxC= 1.00D-01 BMatC= 5.65D-08 BMatP= 9.96D-08
 IDIUse=1 WtCom= 1.00D+00 WtEn= 0.00D+00
 Coeff-Com:  0.402D+00 0.598D+00
 Coeff:      0.402D+00 0.598D+00
 Gap=     0.431 Goal=   None    Shift=    0.000
 RMSDP=1.13D-06 MaxDP=4.57D-05 DE=-1.13D-07 OVMax= 8.12D-05

 Cycle   7  Pass 1  IDiag  1:
 E= -76.4213369626245     Delta-E=       -0.000000036962 Rises=F Damp=F
 DIIS: error= 1.98D-05 at cycle   3 NSaved=   3.
 NSaved= 3 IEnMin= 3 EnMin= -76.4213369626245     IErMin= 3 ErrMin= 1.98D-05
 ErrMax= 1.98D-05  0.00D+00 EMaxC= 1.00D-01 BMatC= 6.36D-09 BMatP= 5.65D-08
 IDIUse=1 WtCom= 1.00D+00 WtEn= 0.00D+00
 Coeff-Com: -0.122D+00 0.188D+00 0.934D+00
 Coeff:     -0.122D+00 0.188D+00 0.934D+00
 Gap=     0.431 Goal=   None    Shift=    0.000
 RMSDP=6.72D-07 MaxDP=2.01D-05 DE=-3.70D-08 OVMax= 4.41D-05

 Cycle   8  Pass 1  IDiag  1:
 E= -76.4213369687410     Delta-E=       -0.000000006116 Rises=F Damp=F
 DIIS: error= 1.38D-06 at cycle   4 NSaved=   4.
 NSaved= 4 IEnMin= 4 EnMin= -76.4213369687410     IErMin= 4 ErrMin= 1.38D-06
 ErrMax= 1.38D-06  0.00D+00 EMaxC= 1.00D-01 BMatC= 5.16D-11 BMatP= 6.36D-09
 IDIUse=1 WtCom= 1.00D+00 WtEn= 0.00D+00
 Coeff-Com: -0.238D-01 0.100D-01 0.104D+00 0.910D+00
 Coeff:     -0.238D-01 0.100D-01 0.104D+00 0.910D+00
 Gap=     0.431 Goal=   None    Shift=    0.000
 RMSDP=8.38D-08 MaxDP=1.99D-06 DE=-6.12D-09 OVMax= 4.97D-06

 Cycle   9  Pass 1  IDiag  1:
 E= -76.4213369688203     Delta-E=       -0.000000000079 Rises=F Damp=F
 DIIS: error= 3.14D-07 at cycle   5 NSaved=   5.
 NSaved= 5 IEnMin= 5 EnMin= -76.4213369688203     IErMin= 5 ErrMin= 3.14D-07
 ErrMax= 3.14D-07  0.00D+00 EMaxC= 1.00D-01 BMatC= 1.85D-12 BMatP= 5.16D-11
 IDIUse=1 WtCom= 1.00D+00 WtEn= 0.00D+00
 Coeff-Com:  0.496D-02-0.861D-02-0.440D-01-0.311D-01 0.108D+01
 Coeff:      0.496D-02-0.861D-02-0.440D-01-0.311D-01 0.108D+01
 Gap=     0.431 Goal=   None    Shift=    0.000
 RMSDP=2.32D-08 MaxDP=5.63D-07 DE=-7.93D-11 OVMax= 1.47D-06

 Cycle  10  Pass 1  IDiag  1:
 E= -76.4213369688245     Delta-E=       -0.000000000004 Rises=F Damp=F
 DIIS: error= 2.89D-08 at cycle   6 NSaved=   6.
 NSaved= 6 IEnMin= 6 EnMin= -76.4213369688245     IErMin= 6 ErrMin= 2.89D-08
 ErrMax= 2.89D-08  0.00D+00 EMaxC= 1.00D-01 BMatC= 2.84D-14 BMatP= 1.85D-12
 IDIUse=1 WtCom= 1.00D+00 WtEn= 0.00D+00
 Coeff-Com: -0.591D-03 0.145D-02 0.676D-02-0.136D-01-0.159D+00 0.116D+01
 Coeff:     -0.591D-03 0.145D-02 0.676D-02-0.136D-01-0.159D+00 0.116D+01
 Gap=     0.431 Goal=   None    Shift=    0.000
 RMSDP=2.66D-09 MaxDP=4.87D-08 DE=-4.15D-12 OVMax= 1.71D-07

 SCF Done:  E(RM062X) =  -76.4213369688     A.U. after   10 cycles
            NFock= 10  Conv=0.27D-08     -V/T= 2.0031
 KE= 7.618836352428D+01 PE=-1.990213496039D+02 EE= 3.732536461893D+01
 Leave Link  502 at Sun Feb 19 22:32:44 2023, MaxMem=  6710886400 cpu:              36.2 elap:               1.8
 (Enter /data0/home/software/g16/l601.exe)
 Copying SCF densities to generalized density rwf, IOpCl= 0 IROHF=0.

 **********************************************************************

            Population analysis using the SCF density.

 **********************************************************************

 Alpha  occ. eigenvalues --  -19.62599  -1.13226  -0.60843  -0.47318  -0.39956
 Alpha virt. eigenvalues --    0.03100   0.07913   0.10741   0.11703   0.14277
 Alpha virt. eigenvalues --    0.15838   0.16776   0.18440   0.19185   0.19888
 Alpha virt. eigenvalues --    0.20811   0.22674   0.24955   0.27752   0.29925
 Alpha virt. eigenvalues --    0.31880   0.35772   0.40201   0.53491   0.55536
 Alpha virt. eigenvalues --    0.58816   0.64557   0.76857   0.78534   0.79393
 Alpha virt. eigenvalues --    0.80960   0.82068   0.87477   0.97555   0.99639
 Alpha virt. eigenvalues --    1.01576   1.02398   1.06735   1.10405   1.19578
 Alpha virt. eigenvalues --    1.20385   1.22476   1.33389   1.36097   1.69907
 Alpha virt. eigenvalues --    1.74402   1.76695   1.80677   1.81540   1.86871
 Alpha virt. eigenvalues --    1.88918   1.93013   1.99531   2.07430   2.09996
 Alpha virt. eigenvalues --    2.17670   2.25179   2.26042   2.30722   2.37675
 Alpha virt. eigenvalues --    2.43386   2.47739   2.50358   2.53069   2.55812
 Alpha virt. eigenvalues --    2.63693   2.65320   2.66513   2.68545   2.69658
 Alpha virt. eigenvalues --    2.72828   2.77030   2.78969   2.88826   2.90589
 Alpha virt. eigenvalues --    2.98982   3.01826   3.03493   3.08441   3.20715
 Alpha virt. eigenvalues --    3.57818   3.62464   3.63927   3.76591   4.59513
 Alpha virt. eigenvalues --    4.69659   5.06298   5.18426   5.29291   5.47161
 Alpha virt. eigenvalues --    5.93053   6.78231   6.80390   6.87003   6.91465
 Alpha virt. eigenvalues --    7.10029  10.14322  10.15179  10.22489  10.24866
 Alpha virt. eigenvalues --   10.27934  10.28908  10.36509  10.41887  10.45450
 Alpha virt. eigenvalues --   10.61748  13.34455  13.39429  13.70853  13.78508
 Alpha virt. eigenvalues --   14.15835  14.30311  18.28829  18.40920  49.96124
 Alpha virt. eigenvalues --  139.36943 139.74795
          Condensed to atoms (all electrons):
               1          2          3          4          5          6
     1  O    0.000630  -0.000159  -0.000776  -0.000009  -0.000003   0.000020
     2  H   -0.000159   0.000055   0.000163   0.000002   0.000001  -0.000003
     3  H   -0.000776   0.000163   0.001174   0.000050   0.000005  -0.000024
     4  O   -0.000009   0.000002   0.000050   7.910322   0.325663   0.323268
     5  H   -0.000003   0.000001   0.000005   0.325663   0.425632  -0.026339
     6  H    0.000020  -0.000003  -0.000024   0.323268  -0.026339   0.410430
     7  O    0.001161  -0.000240  -0.002405  -0.003065  -0.000269  -0.001033
     8  H   -0.000310   0.000060   0.000772   0.000540   0.000041   0.000077
     9  H   -0.000577   0.000129   0.001129   0.004995   0.000622   0.002068
               7          8          9
     1  O    0.001161  -0.000310  -0.000577
     2  H   -0.000240   0.000060   0.000129
     3  H   -0.002405   0.000772   0.001129
     4  O   -0.003065   0.000540   0.004995
     5  H   -0.000269   0.000041   0.000622
     6  H   -0.001033   0.000077   0.002068
     7  O    0.018500  -0.007733  -0.010294
     8  H   -0.007733   0.003891   0.003551
     9  H   -0.010294   0.003551   0.007213
 Mulliken charges:
               1
     1  O    0.000023
     2  H   -0.000009
     3  H   -0.000089
     4  O   -0.561766
     5  H    0.274648
     6  H    0.291537
     7  O    0.005380
     8  H   -0.000888
     9  H   -0.008835
 Sum of Mulliken charges =  -0.00000
 Mulliken charges with hydrogens summed into heavy atoms:
               1
     1  O   -0.000074
     4  O    0.004418
     7  O   -0.004344
         Mulliken charges condensed to fragments:
      1     -0.000074
      2      0.004418
      3     -0.004344
 Electronic spatial extent (au):  <R**2>=          11048.5465
 Charge=             -0.0000 electrons
 Dipole moment (field-independent basis, Debye):
    X=              1.8305    Y=              0.9257    Z=              0.3782  Tot=              2.0859
 Quadrupole moment (field-independent basis, Debye-Ang):
   XX=             21.4382   YY=             18.9061   ZZ=             -0.5342
   XY=             29.5991   XZ=             19.9729   YZ=             14.0888
 Traceless Quadrupole moment (field-independent basis, Debye-Ang):
   XX=              8.1681   YY=              5.6360   ZZ=            -13.8042
   XY=             29.5991   XZ=             19.9729   YZ=             14.0888
 Octapole moment (field-independent basis, Debye-Ang**2):
  XXX=            175.7850  YYY=            271.2388  ZZZ=           -114.7548  XYY=            422.5353
  XXY=            313.9771  XXZ=            221.8249  XZZ=            156.9433  YZZ=             84.7686
  YYZ=            254.1619  XYZ=            317.7402
 Hexadecapole moment (field-independent basis, Debye-Ang**3):
 XXXX=           1119.6799 YYYY=           3061.1734 ZZZZ=          -2782.4566 XXXY=           2489.7335
 XXXZ=           1801.9228 YYYX=           5517.6484 YYYZ=           3630.6289 ZZZX=            655.8769
 ZZZY=           -568.2051 XXYY=           4263.1168 XXZZ=           1851.3468 YYZZ=           1840.9410
 XXYZ=           3242.1702 YYXZ=           4533.7550 ZZXY=           2627.6926
 N-N= 9.086284491817D+00 E-N=-1.990213493524D+02  KE= 7.618836352428D+01
 No NMR shielding tensors so no spin-rotation constants.
 Leave Link  601 at Sun Feb 19 22:32:44 2023, MaxMem=  6710886400 cpu:               1.8 elap:               0.1
 (Enter /data0/home/software/g16/l122.exe)
 CPIOFr:  IOpCl= 0 IRwI=-1 IRwCP=  731 ICalc=  2 LCPTot=       22668 Len1MO=       57607 IndFrg=      195489
 Counterpoise: doing calculation for fragment   3 using the basis set of the full-system, NewBq=T
 Leave Link  122 at Sun Feb 19 22:32:44 2023, MaxMem=  6710886400 cpu:               0.1 elap:               0.0
 (Enter /data0/home/software/g16/l301.exe)
 Basis read from rwf:  (5D, 7F)
 No pseudopotential information found on rwf file.
   117 basis functions,   174 primitive gaussians,   123 cartesian basis functions
     5 alpha electrons        5 beta electrons
       nuclear repulsion energy         9.0898723578 Hartrees.
 IExCor= 4336 DFT=T Ex+Corr=M062X ExCW=0 ScaHFX=  0.540000
 ScaDFX=  1.000000  1.000000  1.000000  1.000000 ScalE2=  1.000000  1.000000
 IRadAn=      5 IRanWt=     -1 IRanGd=            0 ICorTp=0 IEmpDi=131
 NAtoms=    9 NActive=    9 NUniq=    9 SFac= 1.00D+00 NAtFMM=   60 NAOKFM=F Big=F
 Integral buffers will be    131072 words long.
 Raffenetti 2 integral format.
 Two-electron integral symmetry is turned off.
 R6Disp:  Grimme-D3 Dispersion energy=       -0.0000000074 Hartrees.
 Nuclear repulsion after empirical dispersion term =        9.0898723504 Hartrees.
 No density basis found on file   718.
 Leave Link  301 at Sun Feb 19 22:32:44 2023, MaxMem=  6710886400 cpu:               1.3 elap:               0.1
 (Enter /data0/home/software/g16/l302.exe)
 NPDir=0 NMtPBC=     1 NCelOv=     1 NCel=       1 NClECP=     1 NCelD=      1
         NCelK=      1 NCelE2=     1 NClLst=     1 CellRange=     0.0.
 One-electron integrals computed using PRISM.
 NBasis=   117 RedAO= T EigKep=  9.44D-04  NBF=   117
 NBsUse=   117 1.00D-06 EigRej= -1.00D+00 NBFU=   117
 Precomputing XC quadrature grid using
 IXCGrd= 4 IRadAn=           5 IRanWt=          -1 IRanGd=           0 AccXCQ= 0.00D+00.
 Generated NRdTot=       0 NPtTot=           0 NUsed=           0 NTot=          32
 NSgBfM=   123   123   123   123   123 MxSgAt=     9 MxSgA2=     9.
 Leave Link  302 at Sun Feb 19 22:32:44 2023, MaxMem=  6710886400 cpu:               2.7 elap:               0.1
 (Enter /data0/home/software/g16/l303.exe)
 DipDrv:  MaxL=1.
 Leave Link  303 at Sun Feb 19 22:32:44 2023, MaxMem=  6710886400 cpu:               0.5 elap:               0.0
 (Enter /data0/home/software/g16/l401.exe)
 ExpMin= 8.45D-02 ExpMax= 8.59D+03 ExpMxC= 1.30D+03 IAcc=3 IRadAn=         5 AccDes= 0.00D+00
 Harris functional with IExCor= 1009 and IRadAn=       5 diagonalized for initial guess.
 HarFok:  IExCor= 1009 AccDes= 0.00D+00 IRadAn=         5 IDoV= 1 UseB2=F ITyADJ=14
 ICtDFT=  3500011 ScaDFX=  1.000000  1.000000  1.000000  1.000000
 FoFCou: FMM=F IPFlag=           0 FMFlag=      100000 FMFlg1=           0
         NFxFlg=           0 DoJE=T BraDBF=F KetDBF=T FulRan=T
         wScrn=  0.000000 ICntrl=       500 IOpCl=  0 I1Cent=   200000004 NGrid=           0
         NMat0=    1 NMatS0=      1 NMatT0=    0 NMatD0=    1 NMtDS0=    0 NMtDT0=    0
 Symmetry not used in FoFCou.
 Harris En= -76.4166751638058    
 JPrj=0 DoOrth=F DoCkMO=F.
 Leave Link  401 at Sun Feb 19 22:32:44 2023, MaxMem=  6710886400 cpu:               4.5 elap:               0.2
 (Enter /data0/home/software/g16/l502.exe)
 Keep R1 ints in memory in canonical form, NReq=46556122.
 FoFCou: FMM=F IPFlag=           0 FMFlag=           0 FMFlg1=           0
         NFxFlg=           0 DoJE=F BraDBF=F KetDBF=F FulRan=T
         wScrn=  0.000000 ICntrl=       600 IOpCl=  0 I1Cent=           0 NGrid=           0
         NMat0=    1 NMatS0=   6903 NMatT0=    0 NMatD0=    1 NMtDS0=    0 NMtDT0=    0
 Symmetry not used in FoFCou.
 Two-electron integral symmetry not used.
 Closed shell SCF:
 Using DIIS extrapolation, IDIIS=  1040.
 NGot=  6710886400 LenX=  6687023004 LenY=  6687007434
 Requested convergence on RMS density matrix=1.00D-08 within 128 cycles.
 Requested convergence on MAX density matrix=1.00D-06.
 Requested convergence on             energy=1.00D-06.
 No special actions if energy rises.
 Integral accuracy reduced to 1.0D-05 until final iterations.

 Cycle   1  Pass 0  IDiag  1:
 E= -76.3471198532108    
 DIIS: error= 3.15D-02 at cycle   1 NSaved=   1.
 NSaved= 1 IEnMin= 1 EnMin= -76.3471198532108     IErMin= 1 ErrMin= 3.15D-02
 ErrMax= 3.15D-02  0.00D+00 EMaxC= 1.00D-01 BMatC= 1.20D-01 BMatP= 1.20D-01
 IDIUse=3 WtCom= 6.85D-01 WtEn= 3.15D-01
 Coeff-Com:  0.100D+01
 Coeff-En:   0.100D+01
 Coeff:      0.100D+01
 Gap=     0.300 Goal=   None    Shift=    0.000
 GapD=    0.300 DampG=1.000 DampE=0.500 DampFc=0.5000 IDamp=-1.
 Damping current iteration by 5.00D-01
 RMSDP=2.97D-03 MaxDP=1.00D-01              OVMax= 1.69D-01

 Cycle   2  Pass 0  IDiag  1:
 E= -76.3781924397144     Delta-E=       -0.031072586504 Rises=F Damp=T
 DIIS: error= 6.30D-03 at cycle   2 NSaved=   2.
 NSaved= 2 IEnMin= 2 EnMin= -76.3781924397144     IErMin= 2 ErrMin= 6.30D-03
 ErrMax= 6.30D-03  0.00D+00 EMaxC= 1.00D-01 BMatC= 4.92D-03 BMatP= 1.20D-01
 IDIUse=3 WtCom= 9.37D-01 WtEn= 6.30D-02
 Coeff-Com:  0.850D-01 0.915D+00
 Coeff-En:   0.192D+00 0.808D+00
 Coeff:      0.918D-01 0.908D+00
 Gap=     0.429 Goal=   None    Shift=    0.000
 RMSDP=4.07D-04 MaxDP=1.46D-02 DE=-3.11D-02 OVMax= 1.02D-01

 Cycle   3  Pass 0  IDiag  1:
 E= -76.4221165152566     Delta-E=       -0.043924075542 Rises=F Damp=F
 DIIS: error= 9.43D-04 at cycle   3 NSaved=   3.
 NSaved= 3 IEnMin= 3 EnMin= -76.4221165152566     IErMin= 3 ErrMin= 9.43D-04
 ErrMax= 9.43D-04  0.00D+00 EMaxC= 1.00D-01 BMatC= 1.38D-04 BMatP= 4.92D-03
 IDIUse=3 WtCom= 9.91D-01 WtEn= 9.43D-03
 Coeff-Com: -0.260D-01 0.493D-01 0.977D+00
 Coeff-En:   0.000D+00 0.000D+00 0.100D+01
 Coeff:     -0.258D-01 0.488D-01 0.977D+00
 Gap=     0.431 Goal=   None    Shift=    0.000
 RMSDP=5.61D-05 MaxDP=1.13D-03 DE=-4.39D-02 OVMax= 3.77D-03

 Cycle   4  Pass 0  IDiag  1:
 E= -76.4222272238429     Delta-E=       -0.000110708586 Rises=F Damp=F
 DIIS: error= 1.52D-04 at cycle   4 NSaved=   4.
 NSaved= 4 IEnMin= 4 EnMin= -76.4222272238429     IErMin= 4 ErrMin= 1.52D-04
 ErrMax= 1.52D-04  0.00D+00 EMaxC= 1.00D-01 BMatC= 2.83D-06 BMatP= 1.38D-04
 IDIUse=3 WtCom= 9.98D-01 WtEn= 1.52D-03
 Coeff-Com: -0.299D-02 0.150D-03 0.153D+00 0.850D+00
 Coeff-En:   0.000D+00 0.000D+00 0.000D+00 0.100D+01
 Coeff:     -0.299D-02 0.149D-03 0.152D+00 0.850D+00
 Gap=     0.432 Goal=   None    Shift=    0.000
 RMSDP=8.51D-06 MaxDP=3.21D-04 DE=-1.11D-04 OVMax= 5.21D-04

 Initial convergence to 1.0D-05 achieved.  Increase integral accuracy.
 Cycle   5  Pass 1  IDiag  1:
 E= -76.4222192301313     Delta-E=        0.000007993712 Rises=F Damp=F
 DIIS: error= 2.89D-05 at cycle   1 NSaved=   1.
 NSaved= 1 IEnMin= 1 EnMin= -76.4222192301313     IErMin= 1 ErrMin= 2.89D-05
 ErrMax= 2.89D-05  0.00D+00 EMaxC= 1.00D-01 BMatC= 9.79D-08 BMatP= 9.79D-08
 IDIUse=1 WtCom= 1.00D+00 WtEn= 0.00D+00
 Coeff-Com:  0.100D+01
 Coeff:      0.100D+01
 Gap=     0.432 Goal=   None    Shift=    0.000
 RMSDP=8.51D-06 MaxDP=3.21D-04 DE= 7.99D-06 OVMax= 2.30D-04

 Cycle   6  Pass 1  IDiag  1:
 E= -76.4222193470043     Delta-E=       -0.000000116873 Rises=F Damp=F
 DIIS: error= 2.30D-05 at cycle   2 NSaved=   2.
 NSaved= 2 IEnMin= 2 EnMin= -76.4222193470043     IErMin= 2 ErrMin= 2.30D-05
 ErrMax= 2.30D-05  0.00D+00 EMaxC= 1.00D-01 BMatC= 5.03D-08 BMatP= 9.79D-08
 IDIUse=1 WtCom= 1.00D+00 WtEn= 0.00D+00
 Coeff-Com:  0.384D+00 0.616D+00
 Coeff:      0.384D+00 0.616D+00
 Gap=     0.432 Goal=   None    Shift=    0.000
 RMSDP=1.15D-06 MaxDP=4.55D-05 DE=-1.17D-07 OVMax= 8.05D-05

 Cycle   7  Pass 1  IDiag  1:
 E= -76.4222193797689     Delta-E=       -0.000000032765 Rises=F Damp=F
 DIIS: error= 9.57D-06 at cycle   3 NSaved=   3.
 NSaved= 3 IEnMin= 3 EnMin= -76.4222193797689     IErMin= 3 ErrMin= 9.57D-06
 ErrMax= 9.57D-06  0.00D+00 EMaxC= 1.00D-01 BMatC= 6.95D-09 BMatP= 5.03D-08
 IDIUse=1 WtCom= 1.00D+00 WtEn= 0.00D+00
 Coeff-Com: -0.115D+00 0.212D+00 0.903D+00
 Coeff:     -0.115D+00 0.212D+00 0.903D+00
 Gap=     0.432 Goal=   None    Shift=    0.000
 RMSDP=9.01D-07 MaxDP=2.23D-05 DE=-3.28D-08 OVMax= 4.51D-05

 Cycle   8  Pass 1  IDiag  1:
 E= -76.4222193862145     Delta-E=       -0.000000006446 Rises=F Damp=F
 DIIS: error= 6.78D-07 at cycle   4 NSaved=   4.
 NSaved= 4 IEnMin= 4 EnMin= -76.4222193862145     IErMin= 4 ErrMin= 6.78D-07
 ErrMax= 6.78D-07  0.00D+00 EMaxC= 1.00D-01 BMatC= 7.55D-11 BMatP= 6.95D-09
 IDIUse=1 WtCom= 1.00D+00 WtEn= 0.00D+00
 Coeff-Com: -0.281D-01 0.113D-01 0.132D+00 0.885D+00
 Coeff:     -0.281D-01 0.113D-01 0.132D+00 0.885D+00
 Gap=     0.432 Goal=   None    Shift=    0.000
 RMSDP=1.31D-07 MaxDP=2.93D-06 DE=-6.45D-09 OVMax= 5.73D-06

 Cycle   9  Pass 1  IDiag  1:
 E= -76.4222193863175     Delta-E=       -0.000000000103 Rises=F Damp=F
 DIIS: error= 1.25D-07 at cycle   5 NSaved=   5.
 NSaved= 5 IEnMin= 5 EnMin= -76.4222193863175     IErMin= 5 ErrMin= 1.25D-07
 ErrMax= 1.25D-07  0.00D+00 EMaxC= 1.00D-01 BMatC= 1.92D-12 BMatP= 7.55D-11
 IDIUse=1 WtCom= 1.00D+00 WtEn= 0.00D+00
 Coeff-Com:  0.543D-02-0.979D-02-0.439D-01-0.654D-01 0.111D+01
 Coeff:      0.543D-02-0.979D-02-0.439D-01-0.654D-01 0.111D+01
 Gap=     0.432 Goal=   None    Shift=    0.000
 RMSDP=2.90D-08 MaxDP=7.76D-07 DE=-1.03D-10 OVMax= 1.65D-06

 Cycle  10  Pass 1  IDiag  1:
 E= -76.4222193863218     Delta-E=       -0.000000000004 Rises=F Damp=F
 DIIS: error= 1.88D-08 at cycle   6 NSaved=   6.
 NSaved= 6 IEnMin= 6 EnMin= -76.4222193863218     IErMin= 6 ErrMin= 1.88D-08
 ErrMax= 1.88D-08  0.00D+00 EMaxC= 1.00D-01 BMatC= 2.69D-14 BMatP= 1.92D-12
 IDIUse=1 WtCom= 1.00D+00 WtEn= 0.00D+00
 Coeff-Com: -0.626D-03 0.175D-02 0.593D-02-0.544D-02-0.161D+00 0.116D+01
 Coeff:     -0.626D-03 0.175D-02 0.593D-02-0.544D-02-0.161D+00 0.116D+01
 Gap=     0.432 Goal=   None    Shift=    0.000
 RMSDP=2.41D-09 MaxDP=4.36D-08 DE=-4.35D-12 OVMax= 1.52D-07

 SCF Done:  E(RM062X) =  -76.4222193863     A.U. after   10 cycles
            NFock= 10  Conv=0.24D-08     -V/T= 2.0031
 KE= 7.618696964634D+01 PE=-1.990227363559D+02 EE= 3.732367497281D+01
 Leave Link  502 at Sun Feb 19 22:32:46 2023, MaxMem=  6710886400 cpu:              36.3 elap:               1.8
 (Enter /data0/home/software/g16/l601.exe)
 Copying SCF densities to generalized density rwf, IOpCl= 0 IROHF=0.

 **********************************************************************

            Population analysis using the SCF density.

 **********************************************************************

 Alpha  occ. eigenvalues --  -19.62709  -1.13343  -0.60467  -0.47722  -0.40009
 Alpha virt. eigenvalues --    0.03172   0.07290   0.10074   0.12440   0.13691
 Alpha virt. eigenvalues --    0.15203   0.15583   0.17465   0.18729   0.19087
 Alpha virt. eigenvalues --    0.20520   0.23196   0.25002   0.28914   0.29672
 Alpha virt. eigenvalues --    0.32754   0.34914   0.38616   0.53077   0.54930
 Alpha virt. eigenvalues --    0.58480   0.60661   0.72887   0.74332   0.77396
 Alpha virt. eigenvalues --    0.78764   0.79587   0.83140   0.93332   0.98259
 Alpha virt. eigenvalues --    1.02473   1.03214   1.03789   1.09027   1.15637
 Alpha virt. eigenvalues --    1.21072   1.25081   1.32789   1.48979   1.68746
 Alpha virt. eigenvalues --    1.74781   1.76539   1.79022   1.80509   1.81381
 Alpha virt. eigenvalues --    1.86576   1.88126   1.95515   2.06730   2.09113
 Alpha virt. eigenvalues --    2.16205   2.18226   2.21023   2.25928   2.37431
 Alpha virt. eigenvalues --    2.42309   2.46539   2.47026   2.50072   2.55230
 Alpha virt. eigenvalues --    2.56044   2.57446   2.60958   2.63654   2.65153
 Alpha virt. eigenvalues --    2.69729   2.71792   2.75220   2.75594   2.82927
 Alpha virt. eigenvalues --    2.93722   2.97084   3.04121   3.05026   3.08263
 Alpha virt. eigenvalues --    3.47164   3.56284   3.57229   3.59568   4.46462
 Alpha virt. eigenvalues --    4.57024   5.01158   5.18066   5.21286   5.53364
 Alpha virt. eigenvalues --    5.91489   6.80356   6.81551   6.90525   6.92467
 Alpha virt. eigenvalues --    7.10139   9.73701   9.77625   9.83729   9.90643
 Alpha virt. eigenvalues --   10.08923  10.16634  10.20092  10.25376  10.33852
 Alpha virt. eigenvalues --   10.50120  12.76698  13.16213  13.30094  13.66193
 Alpha virt. eigenvalues --   13.68934  14.20824  17.55971  18.26505  49.98204
 Alpha virt. eigenvalues --  136.69178 139.56784
          Condensed to atoms (all electrons):
               1          2          3          4          5          6
     1  O    0.018633  -0.003691  -0.019154  -0.000082   0.000019   0.000035
     2  H   -0.003691   0.001573   0.001921   0.000011  -0.000003   0.000000
     3  H   -0.019154   0.001921   0.027973   0.000136  -0.000027  -0.000117
     4  O   -0.000082   0.000011   0.000136   0.000943  -0.000412  -0.000547
     5  H    0.000019  -0.000003  -0.000027  -0.000412   0.000273   0.000122
     6  H    0.000035   0.000000  -0.000117  -0.000547   0.000122   0.000557
     7  O    0.021544  -0.003516  -0.004843  -0.000045  -0.000085   0.001326
     8  H    0.002243  -0.000152  -0.003014   0.000015  -0.000002  -0.000103
     9  H    0.003581  -0.000591  -0.004480   0.000001  -0.000038   0.000381
               7          8          9
     1  O    0.021544   0.002243   0.003581
     2  H   -0.003516  -0.000152  -0.000591
     3  H   -0.004843  -0.003014  -0.004480
     4  O   -0.000045   0.000015   0.000001
     5  H   -0.000085  -0.000002  -0.000038
     6  H    0.001326  -0.000103   0.000381
     7  O    7.775190   0.368886   0.375909
     8  H    0.368886   0.400692  -0.039985
     9  H    0.375909  -0.039985   0.383676
 Mulliken charges:
               1
     1  O   -0.023127
     2  H    0.004447
     3  H    0.001604
     4  O   -0.000020
     5  H    0.000152
     6  H   -0.001656
     7  O   -0.534368
     8  H    0.271422
     9  H    0.281546
 Sum of Mulliken charges =  -0.00000
 Mulliken charges with hydrogens summed into heavy atoms:
               1
     1  O   -0.017076
     4  O   -0.001523
     7  O    0.018599
         Mulliken charges condensed to fragments:
      1     -0.017076
      2     -0.001523
      3      0.018599
 Electronic spatial extent (au):  <R**2>=          14536.6013
 Charge=              0.0000 electrons
 Dipole moment (field-independent basis, Debye):
    X=             -0.0874    Y=             -1.9101    Z=             -0.8403  Tot=              2.0886
 Quadrupole moment (field-independent basis, Debye-Ang):
   XX=             -8.4348   YY=            -53.5230   ZZ=            -25.2744
   XY=            -22.3808   XZ=             -8.6230   YZ=            -32.8432
 Traceless Quadrupole moment (field-independent basis, Debye-Ang):
   XX=             20.6426   YY=            -24.4456   ZZ=              3.8030
   XY=            -22.3808   XZ=             -8.6230   YZ=            -32.8432
 Octapole moment (field-independent basis, Debye-Ang**2):
  XXX=           -243.4885  YYY=          -1111.2747  ZZZ=           -541.1281  XYY=           -607.8955
  XXY=           -342.4406  XXZ=           -164.2997  XZZ=           -251.3913  YZZ=           -577.2091
  YYZ=           -756.3658  XYZ=           -357.1902
 Hexadecapole moment (field-independent basis, Debye-Ang**3):
 XXXX=          -5063.5597 YYYY=         -20316.0590 ZZZZ=          -9956.2627 XXXY=          -5679.4859
 XXXZ=          -3373.3422 YYYX=         -12471.2159 YYYZ=         -14604.8113 ZZZX=          -5411.9117
 ZZZY=          -9819.8963 XXYY=          -7912.2135 XXZZ=          -3367.7136 YYZZ=         -11251.8106
 XXYZ=          -4834.8729 YYXZ=          -8297.8995 ZZXY=          -6064.0867
 N-N= 9.089872350431D+00 E-N=-1.990227364638D+02  KE= 7.618696964634D+01
 No NMR shielding tensors so no spin-rotation constants.
 Leave Link  601 at Sun Feb 19 22:32:46 2023, MaxMem=  6710886400 cpu:               1.9 elap:               0.1
 (Enter /data0/home/software/g16/l122.exe)
 CPIOFr:  IOpCl= 0 IRwI=-1 IRwCP=  731 ICalc=  3 LCPTot=       22668 Len1MO=       57607 IndFrg=      253096
 Counterpoise: doing calculation for fragment   1 using the basis set of the fragment.
 Leave Link  122 at Sun Feb 19 22:32:46 2023, MaxMem=  6710886400 cpu:               0.1 elap:               0.0
 (Enter /data0/home/software/g16/l301.exe)
 Basis read from rwf:  (5D, 7F)
 No pseudopotential information found on rwf file.
    39 basis functions,    58 primitive gaussians,    41 cartesian basis functions
     5 alpha electrons        5 beta electrons
       nuclear repulsion energy         9.0459369112 Hartrees.
 IExCor= 4336 DFT=T Ex+Corr=M062X ExCW=0 ScaHFX=  0.540000
 ScaDFX=  1.000000  1.000000  1.000000  1.000000 ScalE2=  1.000000  1.000000
 IRadAn=      5 IRanWt=     -1 IRanGd=            0 ICorTp=0 IEmpDi=131
 NAtoms=    9 NActive=    3 NUniq=    3 SFac= 1.00D+00 NAtFMM=   60 NAOKFM=F Big=F
 Integral buffers will be    131072 words long.
 Raffenetti 2 integral format.
 Two-electron integral symmetry is turned off.
 R6Disp:  Grimme-D3 Dispersion energy=       -0.0000000083 Hartrees.
 Nuclear repulsion after empirical dispersion term =        9.0459369029 Hartrees.
 No density basis found on file   718.
 Leave Link  301 at Sun Feb 19 22:32:46 2023, MaxMem=  6710886400 cpu:               1.2 elap:               0.1
 (Enter /data0/home/software/g16/l302.exe)
 NPDir=0 NMtPBC=     1 NCelOv=     1 NCel=       1 NClECP=     1 NCelD=      1
         NCelK=      1 NCelE2=     1 NClLst=     1 CellRange=     0.0.
 One-electron integrals computed using PRISM.
 NBasis=    39 RedAO= T EigKep=  3.15D-03  NBF=    39
 NBsUse=    39 1.00D-06 EigRej= -1.00D+00 NBFU=    39
 Precomputing XC quadrature grid using
 IXCGrd= 4 IRadAn=           5 IRanWt=          -1 IRanGd=           0 AccXCQ= 0.00D+00.
 Generated NRdTot=       0 NPtTot=           0 NUsed=           0 NTot=          32
 NSgBfM=    41    41    41    41    41 MxSgAt=     3 MxSgA2=     3.
 Leave Link  302 at Sun Feb 19 22:32:46 2023, MaxMem=  6710886400 cpu:               2.2 elap:               0.1
 (Enter /data0/home/software/g16/l303.exe)
 DipDrv:  MaxL=1.
 Leave Link  303 at Sun Feb 19 22:32:46 2023, MaxMem=  6710886400 cpu:               0.4 elap:               0.0
 (Enter /data0/home/software/g16/l401.exe)
 ExpMin= 8.45D-02 ExpMax= 8.59D+03 ExpMxC= 1.30D+03 IAcc=3 IRadAn=         5 AccDes= 0.00D+00
 Harris functional with IExCor= 1009 and IRadAn=       5 diagonalized for initial guess.
 HarFok:  IExCor= 1009 AccDes= 0.00D+00 IRadAn=         5 IDoV= 1 UseB2=F ITyADJ=14
 ICtDFT=  3500011 ScaDFX=  1.000000  1.000000  1.000000  1.000000
 FoFCou: FMM=F IPFlag=           0 FMFlag=      100000 FMFlg1=           0
         NFxFlg=           0 DoJE=T BraDBF=F KetDBF=T FulRan=T
         wScrn=  0.000000 ICntrl=       500 IOpCl=  0 I1Cent=   200000004 NGrid=           0
         NMat0=    1 NMatS0=      1 NMatT0=    0 NMatD0=    1 NMtDS0=    0 NMtDT0=    0
 Symmetry not used in FoFCou.
 Harris En= -76.4161246474754    
 JPrj=0 DoOrth=F DoCkMO=F.
 Leave Link  401 at Sun Feb 19 22:32:47 2023, MaxMem=  6710886400 cpu:               2.9 elap:               0.1
 (Enter /data0/home/software/g16/l502.exe)
 Keep R1 ints in memory in canonical form, NReq=21036630.
 FoFCou: FMM=F IPFlag=           0 FMFlag=           0 FMFlg1=           0
         NFxFlg=           0 DoJE=F BraDBF=F KetDBF=F FulRan=T
         wScrn=  0.000000 ICntrl=       600 IOpCl=  0 I1Cent=           0 NGrid=           0
         NMat0=    1 NMatS0=    780 NMatT0=    0 NMatD0=    1 NMtDS0=    0 NMtDT0=    0
 Symmetry not used in FoFCou.
 Two-electron integral symmetry not used.
 Closed shell SCF:
 Using DIIS extrapolation, IDIIS=  1040.
 NGot=  6710886400 LenX=  6710576844 LenY=  6710574722
 Requested convergence on RMS density matrix=1.00D-08 within 128 cycles.
 Requested convergence on MAX density matrix=1.00D-06.
 Requested convergence on             energy=1.00D-06.
 No special actions if energy rises.
 Integral accuracy reduced to 1.0D-05 until final iterations.

 Cycle   1  Pass 0  IDiag  1:
 E= -76.3469084905154    
 DIIS: error= 6.96D-02 at cycle   1 NSaved=   1.
 NSaved= 1 IEnMin= 1 EnMin= -76.3469084905154     IErMin= 1 ErrMin= 6.96D-02
 ErrMax= 6.96D-02  0.00D+00 EMaxC= 1.00D-01 BMatC= 1.20D-01 BMatP= 1.20D-01
 IDIUse=3 WtCom= 3.04D-01 WtEn= 6.96D-01
 Coeff-Com:  0.100D+01
 Coeff-En:   0.100D+01
 Coeff:      0.100D+01
 Gap=     0.324 Goal=   None    Shift=    0.000
 GapD=    0.324 DampG=1.000 DampE=0.500 DampFc=0.5000 IDamp=-1.
 Damping current iteration by 5.00D-01
 RMSDP=7.88D-03 MaxDP=1.00D-01              OVMax= 1.67D-01

 Cycle   2  Pass 0  IDiag  1:
 E= -76.3779078608133     Delta-E=       -0.030999370298 Rises=F Damp=T
 DIIS: error= 1.13D-02 at cycle   2 NSaved=   2.
 NSaved= 2 IEnMin= 2 EnMin= -76.3779078608133     IErMin= 2 ErrMin= 1.13D-02
 ErrMax= 1.13D-02  0.00D+00 EMaxC= 1.00D-01 BMatC= 4.90D-03 BMatP= 1.20D-01
 IDIUse=3 WtCom= 8.87D-01 WtEn= 1.13D-01
 Coeff-Com:  0.848D-01 0.915D+00
 Coeff-En:   0.192D+00 0.808D+00
 Coeff:      0.968D-01 0.903D+00
 Gap=     0.456 Goal=   None    Shift=    0.000
 RMSDP=9.48D-04 MaxDP=1.42D-02 DE=-3.10D-02 OVMax= 1.00D-01

 Cycle   3  Pass 0  IDiag  1:
 E= -76.4216399579398     Delta-E=       -0.043732097127 Rises=F Damp=F
 DIIS: error= 2.20D-03 at cycle   3 NSaved=   3.
 NSaved= 3 IEnMin= 3 EnMin= -76.4216399579398     IErMin= 3 ErrMin= 2.20D-03
 ErrMax= 2.20D-03  0.00D+00 EMaxC= 1.00D-01 BMatC= 9.33D-05 BMatP= 4.90D-03
 IDIUse=3 WtCom= 9.78D-01 WtEn= 2.20D-02
 Coeff-Com: -0.199D-01 0.411D-01 0.979D+00
 Coeff-En:   0.000D+00 0.000D+00 0.100D+01
 Coeff:     -0.195D-01 0.402D-01 0.979D+00
 Gap=     0.460 Goal=   None    Shift=    0.000
 RMSDP=1.16D-04 MaxDP=1.03D-03 DE=-4.37D-02 OVMax= 3.35D-03

 Cycle   4  Pass 0  IDiag  1:
 E= -76.4217194107448     Delta-E=       -0.000079452805 Rises=F Damp=F
 DIIS: error= 4.21D-04 at cycle   4 NSaved=   4.
 NSaved= 4 IEnMin= 4 EnMin= -76.4217194107448     IErMin= 4 ErrMin= 4.21D-04
 ErrMax= 4.21D-04  0.00D+00 EMaxC= 1.00D-01 BMatC= 3.45D-06 BMatP= 9.33D-05
 IDIUse=3 WtCom= 9.96D-01 WtEn= 4.21D-03
 Coeff-Com: -0.204D-02-0.211D-02 0.167D+00 0.837D+00
 Coeff-En:   0.000D+00 0.000D+00 0.000D+00 0.100D+01
 Coeff:     -0.203D-02-0.210D-02 0.166D+00 0.838D+00
 Gap=     0.461 Goal=   None    Shift=    0.000
 RMSDP=2.24D-05 MaxDP=3.57D-04 DE=-7.95D-05 OVMax= 5.45D-04

 Cycle   5  Pass 0  IDiag  1:
 E= -76.4217215319639     Delta-E=       -0.000002121219 Rises=F Damp=F
 DIIS: error= 9.24D-05 at cycle   5 NSaved=   5.
[...]
 ErrMax= 1.49D-08  0.00D+00 EMaxC= 1.00D-01 BMatC= 6.23D-15 BMatP= 5.54D-13
 IDIUse=1 WtCom= 1.00D+00 WtEn= 0.00D+00
 Coeff-Com:  0.159D-05 0.111D-02 0.124D-02-0.167D-01-0.562D-01 0.107D+01
 Coeff:      0.159D-05 0.111D-02 0.124D-02-0.167D-01-0.562D-01 0.107D+01
 Gap=     0.462 Goal=   None    Shift=    0.000
 RMSDP=5.32D-09 MaxDP=7.41D-08 DE=-1.05D-12 OVMax= 1.10D-07

 SCF Done:  E(RM062X) =  -76.4212114635     A.U. after   11 cycles
            NFock= 11  Conv=0.53D-08     -V/T= 2.0030
 KE= 7.618903544070D+01 PE=-1.990225342609D+02 EE= 3.732600286486D+01
 Leave Link  502 at Sun Feb 19 22:32:48 2023, MaxMem=  6710886400 cpu:               8.5 elap:               0.4
 (Enter /data0/home/software/g16/l601.exe)
 Copying SCF densities to generalized density rwf, IOpCl= 0 IROHF=0.

 **********************************************************************

            Population analysis using the SCF density.

 **********************************************************************

 Alpha  occ. eigenvalues --  -19.62587  -1.13222  -0.60839  -0.47308  -0.39947
 Alpha virt. eigenvalues --    0.06223   0.13289   0.17391   0.17954   0.18962
 Alpha virt. eigenvalues --    0.23221   0.50490   0.53824   0.97767   1.00370
 Alpha virt. eigenvalues --    1.06039   1.19158   1.19682   1.32686   1.33950
 Alpha virt. eigenvalues --    1.68912   1.73748   1.75964   2.06651   2.09958
 Alpha virt. eigenvalues --    2.34579   2.43032   2.54064   2.87951   3.01217
 Alpha virt. eigenvalues --    5.05695   5.46689   5.92691   6.78159   6.80396
 Alpha virt. eigenvalues --    6.86886   6.91456   7.09792  49.95810
          Condensed to atoms (all electrons):
               4          5          6
     4  O    7.917439   0.324570   0.318072
     5  H    0.324570   0.422826  -0.024507
     6  H    0.318072  -0.024507   0.423464
 Mulliken charges:
               1
     1  O    0.000000
     2  H    0.000000
     3  H    0.000000
     4  O   -0.560081
     5  H    0.277111
     6  H    0.282971
     7  O    0.000000
     8  H    0.000000
     9  H    0.000000
 Sum of Mulliken charges =   0.00000
 Mulliken charges with hydrogens summed into heavy atoms:
               1
     1  O    0.000000
     4  O    0.000000
     7  O    0.000000
         Mulliken charges condensed to fragments:
      1      0.000000
      2      0.000000
      3      0.000000
 Electronic spatial extent (au):  <R**2>=          11048.1675
 Charge=             -0.0000 electrons
 Dipole moment (field-independent basis, Debye):
    X=              1.8480    Y=              0.9281    Z=              0.3871  Tot=              2.1039
 Quadrupole moment (field-independent basis, Debye-Ang):
   XX=             21.7200   YY=             18.9666   ZZ=             -0.3667
   XY=             29.8395   XZ=             20.2148   YZ=             14.2260
 Traceless Quadrupole moment (field-independent basis, Debye-Ang):
   XX=              8.2800   YY=              5.5266   ZZ=            -13.8066
   XY=             29.8395   XZ=             20.2148   YZ=             14.2260
 Octapole moment (field-independent basis, Debye-Ang**2):
  XXX=            179.2506  YYY=            272.3589  ZZZ=           -112.3608  XYY=            425.8207
  XXY=            317.6967  XXZ=            225.1676  XZZ=            159.9819  YZZ=             87.1338
  YYZ=            256.2008  XYZ=            320.9950
 Hexadecapole moment (field-independent basis, Debye-Ang**3):
 XXXX=           1158.2606 YYYY=           3079.6833 ZZZZ=          -2751.5899 XXXY=           2534.8571
 XXXZ=           1840.8625 YYYX=           5562.3527 YYYZ=           3660.2319 ZZZX=            692.2708
 ZZZY=           -535.3962 XXYY=           4312.2674 XXZZ=           1889.8855 YYZZ=           1874.0227
 XXYZ=           3286.0534 YYXZ=           4577.4925 ZZXY=           2668.1351
 N-N= 9.086284491817D+00 E-N=-1.990225343781D+02  KE= 7.618903544070D+01
 No NMR shielding tensors so no spin-rotation constants.
 Leave Link  601 at Sun Feb 19 22:32:48 2023, MaxMem=  6710886400 cpu:               1.8 elap:               0.1
 (Enter /data0/home/software/g16/l122.exe)
 CPIOFr:  IOpCl= 0 IRwI=-1 IRwCP=  731 ICalc=  5 LCPTot=       22668 Len1MO=       57607 IndFrg=      368310
 Counterpoise: doing calculation for fragment   3 using the basis set of the fragment.
 Leave Link  122 at Sun Feb 19 22:32:48 2023, MaxMem=  6710886400 cpu:               0.1 elap:               0.0
 (Enter /data0/home/software/g16/l301.exe)
 Basis read from rwf:  (5D, 7F)
 No pseudopotential information found on rwf file.
    39 basis functions,    58 primitive gaussians,    41 cartesian basis functions
     5 alpha electrons        5 beta electrons
       nuclear repulsion energy         9.0898723578 Hartrees.
 IExCor= 4336 DFT=T Ex+Corr=M062X ExCW=0 ScaHFX=  0.540000
 ScaDFX=  1.000000  1.000000  1.000000  1.000000 ScalE2=  1.000000  1.000000
 IRadAn=      5 IRanWt=     -1 IRanGd=            0 ICorTp=0 IEmpDi=131
 NAtoms=    9 NActive=    3 NUniq=    3 SFac= 1.00D+00 NAtFMM=   60 NAOKFM=F Big=F
 Integral buffers will be    131072 words long.
 Raffenetti 2 integral format.
 Two-electron integral symmetry is turned off.
 R6Disp:  Grimme-D3 Dispersion energy=       -0.0000000074 Hartrees.
 Nuclear repulsion after empirical dispersion term =        9.0898723504 Hartrees.
 No density basis found on file   718.
 Leave Link  301 at Sun Feb 19 22:32:48 2023, MaxMem=  6710886400 cpu:               1.3 elap:               0.1
 (Enter /data0/home/software/g16/l302.exe)
 NPDir=0 NMtPBC=     1 NCelOv=     1 NCel=       1 NClECP=     1 NCelD=      1
         NCelK=      1 NCelE2=     1 NClLst=     1 CellRange=     0.0.
 One-electron integrals computed using PRISM.
 NBasis=    39 RedAO= T EigKep=  3.01D-03  NBF=    39
 NBsUse=    39 1.00D-06 EigRej= -1.00D+00 NBFU=    39
 Precomputing XC quadrature grid using
 IXCGrd= 4 IRadAn=           5 IRanWt=          -1 IRanGd=           0 AccXCQ= 0.00D+00.
 Generated NRdTot=       0 NPtTot=           0 NUsed=           0 NTot=          32
 NSgBfM=    41    41    41    41    41 MxSgAt=     3 MxSgA2=     3.
 Leave Link  302 at Sun Feb 19 22:32:48 2023, MaxMem=  6710886400 cpu:               2.2 elap:               0.1
 (Enter /data0/home/software/g16/l303.exe)
 DipDrv:  MaxL=1.
 Leave Link  303 at Sun Feb 19 22:32:48 2023, MaxMem=  6710886400 cpu:               0.4 elap:               0.0
 (Enter /data0/home/software/g16/l401.exe)
 ExpMin= 8.45D-02 ExpMax= 8.59D+03 ExpMxC= 1.30D+03 IAcc=3 IRadAn=         5 AccDes= 0.00D+00
 Harris functional with IExCor= 1009 and IRadAn=       5 diagonalized for initial guess.
 HarFok:  IExCor= 1009 AccDes= 0.00D+00 IRadAn=         5 IDoV= 1 UseB2=F ITyADJ=14
 ICtDFT=  3500011 ScaDFX=  1.000000  1.000000  1.000000  1.000000
 FoFCou: FMM=F IPFlag=           0 FMFlag=      100000 FMFlg1=           0
         NFxFlg=           0 DoJE=T BraDBF=F KetDBF=T FulRan=T
         wScrn=  0.000000 ICntrl=       500 IOpCl=  0 I1Cent=   200000004 NGrid=           0
         NMat0=    1 NMatS0=      1 NMatT0=    0 NMatD0=    1 NMtDS0=    0 NMtDT0=    0
 Symmetry not used in FoFCou.
 Harris En= -76.4162525822385    
 JPrj=0 DoOrth=F DoCkMO=F.
 Leave Link  401 at Sun Feb 19 22:32:48 2023, MaxMem=  6710886400 cpu:               2.8 elap:               0.1
 (Enter /data0/home/software/g16/l502.exe)
 Keep R1 ints in memory in canonical form, NReq=21036630.
 FoFCou: FMM=F IPFlag=           0 FMFlag=           0 FMFlg1=           0
         NFxFlg=           0 DoJE=F BraDBF=F KetDBF=F FulRan=T
         wScrn=  0.000000 ICntrl=       600 IOpCl=  0 I1Cent=           0 NGrid=           0
         NMat0=    1 NMatS0=    780 NMatT0=    0 NMatD0=    1 NMtDS0=    0 NMtDT0=    0
 Symmetry not used in FoFCou.
 Two-electron integral symmetry not used.
 Closed shell SCF:
 Using DIIS extrapolation, IDIIS=  1040.
 NGot=  6710886400 LenX=  6710576844 LenY=  6710574722
 Requested convergence on RMS density matrix=1.00D-08 within 128 cycles.
 Requested convergence on MAX density matrix=1.00D-06.
 Requested convergence on             energy=1.00D-06.
 No special actions if energy rises.
 Integral accuracy reduced to 1.0D-05 until final iterations.

 Cycle   1  Pass 0  IDiag  1:
 E= -76.3466045586819    
 DIIS: error= 6.99D-02 at cycle   1 NSaved=   1.
 NSaved= 1 IEnMin= 1 EnMin= -76.3466045586819     IErMin= 1 ErrMin= 6.99D-02
 ErrMax= 6.99D-02  0.00D+00 EMaxC= 1.00D-01 BMatC= 1.20D-01 BMatP= 1.20D-01
 IDIUse=3 WtCom= 3.01D-01 WtEn= 6.99D-01
 Coeff-Com:  0.100D+01
 Coeff-En:   0.100D+01
 Coeff:      0.100D+01
 Gap=     0.325 Goal=   None    Shift=    0.000
 GapD=    0.325 DampG=1.000 DampE=0.500 DampFc=0.5000 IDamp=-1.
 Damping current iteration by 5.00D-01
 RMSDP=7.96D-03 MaxDP=1.01D-01              OVMax= 1.68D-01

 Cycle   2  Pass 0  IDiag  1:
 E= -76.3778512567935     Delta-E=       -0.031246698112 Rises=F Damp=T
 DIIS: error= 1.13D-02 at cycle   2 NSaved=   2.
 NSaved= 2 IEnMin= 2 EnMin= -76.3778512567935     IErMin= 2 ErrMin= 1.13D-02
 ErrMax= 1.13D-02  0.00D+00 EMaxC= 1.00D-01 BMatC= 4.85D-03 BMatP= 1.20D-01
 IDIUse=3 WtCom= 8.87D-01 WtEn= 1.13D-01
 Coeff-Com:  0.832D-01 0.917D+00
 Coeff-En:   0.189D+00 0.811D+00
 Coeff:      0.951D-01 0.905D+00
 Gap=     0.457 Goal=   None    Shift=    0.000
 RMSDP=9.49D-04 MaxDP=1.41D-02 DE=-3.12D-02 OVMax= 1.00D-01

 Cycle   3  Pass 0  IDiag  1:
 E= -76.4216392707153     Delta-E=       -0.043788013922 Rises=F Damp=F
 DIIS: error= 2.16D-03 at cycle   3 NSaved=   3.
 NSaved= 3 IEnMin= 3 EnMin= -76.4216392707153     IErMin= 3 ErrMin= 2.16D-03
 ErrMax= 2.16D-03  0.00D+00 EMaxC= 1.00D-01 BMatC= 9.07D-05 BMatP= 4.85D-03
 IDIUse=3 WtCom= 9.78D-01 WtEn= 2.16D-02
 Coeff-Com: -0.199D-01 0.394D-01 0.981D+00
 Coeff-En:   0.000D+00 0.000D+00 0.100D+01
 Coeff:     -0.195D-01 0.385D-01 0.981D+00
 Gap=     0.461 Goal=   None    Shift=    0.000
 RMSDP=1.14D-04 MaxDP=9.48D-04 DE=-4.38D-02 OVMax= 3.32D-03

 Cycle   4  Pass 0  IDiag  1:
 E= -76.4217167203443     Delta-E=       -0.000077449629 Rises=F Damp=F
 DIIS: error= 4.14D-04 at cycle   4 NSaved=   4.
 NSaved= 4 IEnMin= 4 EnMin= -76.4217167203443     IErMin= 4 ErrMin= 4.14D-04
 ErrMax= 4.14D-04  0.00D+00 EMaxC= 1.00D-01 BMatC= 3.28D-06 BMatP= 9.07D-05
 IDIUse=3 WtCom= 9.96D-01 WtEn= 4.14D-03
 Coeff-Com: -0.189D-02-0.225D-02 0.162D+00 0.842D+00
 Coeff-En:   0.000D+00 0.000D+00 0.000D+00 0.100D+01
 Coeff:     -0.188D-02-0.225D-02 0.161D+00 0.843D+00
 Gap=     0.462 Goal=   None    Shift=    0.000
 RMSDP=2.22D-05 MaxDP=3.55D-04 DE=-7.74D-05 OVMax= 5.38D-04

 Cycle   5  Pass 0  IDiag  1:
 E= -76.4217187494659     Delta-E=       -0.000002029122 Rises=F Damp=F
 DIIS: error= 8.89D-05 at cycle   5 NSaved=   5.
 NSaved= 5 IEnMin= 5 EnMin= -76.4217187494659     IErMin= 5 ErrMin= 8.89D-05
 ErrMax= 8.89D-05  0.00D+00 EMaxC= 1.00D-01 BMatC= 8.25D-08 BMatP= 3.28D-06
 IDIUse=1 WtCom= 1.00D+00 WtEn= 0.00D+00
 Coeff-Com:  0.118D-02-0.180D-02-0.368D-01-0.640D-01 0.110D+01
 Coeff:      0.118D-02-0.180D-02-0.368D-01-0.640D-01 0.110D+01
 Gap=     0.462 Goal=   None    Shift=    0.000
 RMSDP=8.99D-06 MaxDP=1.02D-04 DE=-2.03D-06 OVMax= 2.03D-04

 Initial convergence to 1.0D-05 achieved.  Increase integral accuracy.
 Cycle   6  Pass 1  IDiag  1:
 E= -76.4217075773935     Delta-E=        0.000011172072 Rises=F Damp=F
 DIIS: error= 3.51D-05 at cycle   1 NSaved=   1.
 NSaved= 1 IEnMin= 1 EnMin= -76.4217075773935     IErMin= 1 ErrMin= 3.51D-05
 ErrMax= 3.51D-05  0.00D+00 EMaxC= 1.00D-01 BMatC= 1.98D-08 BMatP= 1.98D-08
 IDIUse=1 WtCom= 1.00D+00 WtEn= 0.00D+00
 Coeff-Com:  0.100D+01
 Coeff:      0.100D+01
 Gap=     0.462 Goal=   None    Shift=    0.000
 RMSDP=8.99D-06 MaxDP=1.02D-04 DE= 1.12D-05 OVMax= 5.29D-05

 Cycle   7  Pass 1  IDiag  1:
 E= -76.4217075942134     Delta-E=       -0.000000016820 Rises=F Damp=F
 DIIS: error= 1.00D-05 at cycle   2 NSaved=   2.
 NSaved= 2 IEnMin= 2 EnMin= -76.4217075942134     IErMin= 2 ErrMin= 1.00D-05
 ErrMax= 1.00D-05  0.00D+00 EMaxC= 1.00D-01 BMatC= 1.60D-09 BMatP= 1.98D-08
 IDIUse=1 WtCom= 1.00D+00 WtEn= 0.00D+00
 Coeff-Com:  0.384D-01 0.962D+00
 Coeff:      0.384D-01 0.962D+00
 Gap=     0.462 Goal=   None    Shift=    0.000
 RMSDP=8.98D-07 MaxDP=1.54D-05 DE=-1.68D-08 OVMax= 2.34D-05

 Cycle   8  Pass 1  IDiag  1:
 E= -76.4217075944803     Delta-E=       -0.000000000267 Rises=F Damp=F
 DIIS: error= 8.09D-06 at cycle   3 NSaved=   3.
 NSaved= 3 IEnMin= 3 EnMin= -76.4217075944803     IErMin= 3 ErrMin= 8.09D-06
 ErrMax= 8.09D-06  0.00D+00 EMaxC= 1.00D-01 BMatC= 1.65D-09 BMatP= 1.60D-09
 IDIUse=1 WtCom= 1.00D+00 WtEn= 0.00D+00
 Coeff-Com: -0.509D-01 0.527D+00 0.524D+00
 Coeff:     -0.509D-01 0.527D+00 0.524D+00
 Gap=     0.462 Goal=   None    Shift=    0.000
 RMSDP=4.46D-07 MaxDP=5.77D-06 DE=-2.67D-10 OVMax= 1.06D-05

 Cycle   9  Pass 1  IDiag  1:
 E= -76.4217075955687     Delta-E=       -0.000000001088 Rises=F Damp=F
 DIIS: error= 5.86D-07 at cycle   4 NSaved=   4.
 NSaved= 4 IEnMin= 4 EnMin= -76.4217075955687     IErMin= 4 ErrMin= 5.86D-07
 ErrMax= 5.86D-07  0.00D+00 EMaxC= 1.00D-01 BMatC= 4.70D-12 BMatP= 1.60D-09
 IDIUse=1 WtCom= 1.00D+00 WtEn= 0.00D+00
 Coeff-Com:  0.298D-03-0.448D-01-0.234D-01 0.107D+01
 Coeff:      0.298D-03-0.448D-01-0.234D-01 0.107D+01
 Gap=     0.462 Goal=   None    Shift=    0.000
 RMSDP=8.98D-08 MaxDP=7.30D-07 DE=-1.09D-09 OVMax= 1.85D-06

 Cycle  10  Pass 1  IDiag  1:
 E= -76.4217075955794     Delta-E=       -0.000000000011 Rises=F Damp=F
 DIIS: error= 1.22D-07 at cycle   5 NSaved=   5.
 NSaved= 5 IEnMin= 5 EnMin= -76.4217075955794     IErMin= 5 ErrMin= 1.22D-07
 ErrMax= 1.22D-07  0.00D+00 EMaxC= 1.00D-01 BMatC= 3.33D-13 BMatP= 4.70D-12
 IDIUse=1 WtCom= 1.00D+00 WtEn= 0.00D+00
 Coeff-Com:  0.336D-02-0.403D-01-0.344D-01 0.995D-01 0.972D+00
 Coeff:      0.336D-02-0.403D-01-0.344D-01 0.995D-01 0.972D+00
 Gap=     0.462 Goal=   None    Shift=    0.000
 RMSDP=2.44D-08 MaxDP=1.87D-07 DE=-1.07D-11 OVMax= 5.17D-07

 Cycle  11  Pass 1  IDiag  1:
 E= -76.4217075955798     Delta-E=       -0.000000000000 Rises=F Damp=F
 DIIS: error= 1.86D-08 at cycle   6 NSaved=   6.
 NSaved= 6 IEnMin= 6 EnMin= -76.4217075955798     IErMin= 6 ErrMin= 1.86D-08
 ErrMax= 1.86D-08  0.00D+00 EMaxC= 1.00D-01 BMatC= 5.47D-15 BMatP= 3.33D-13
 IDIUse=1 WtCom= 1.00D+00 WtEn= 0.00D+00
 Coeff-Com: -0.162D-03 0.265D-02 0.303D-02-0.297D-01-0.712D-01 0.110D+01
 Coeff:     -0.162D-03 0.265D-02 0.303D-02-0.297D-01-0.712D-01 0.110D+01
 Gap=     0.462 Goal=   None    Shift=    0.000
 RMSDP=4.08D-09 MaxDP=3.51D-08 DE=-3.13D-13 OVMax= 8.20D-08

 SCF Done:  E(RM062X) =  -76.4217075956     A.U. after   11 cycles
            NFock= 11  Conv=0.41D-08     -V/T= 2.0030
 KE= 7.619149095485D+01 PE=-1.990272528097D+02 EE= 3.732418190886D+01
 Leave Link  502 at Sun Feb 19 22:32:49 2023, MaxMem=  6710886400 cpu:               8.6 elap:               0.4
 (Enter /data0/home/software/g16/l601.exe)
 Copying SCF densities to generalized density rwf, IOpCl= 0 IROHF=0.

 **********************************************************************

            Population analysis using the SCF density.

 **********************************************************************

 Alpha  occ. eigenvalues --  -19.62676  -1.13350  -0.60470  -0.47700  -0.39997
 Alpha virt. eigenvalues --    0.06214   0.13304   0.17420   0.17943   0.18903
 Alpha virt. eigenvalues --    0.23400   0.50882   0.53411   0.98107   1.00261
 Alpha virt. eigenvalues --    1.06008   1.17577   1.20133   1.31958   1.34007
 Alpha virt. eigenvalues --    1.70428   1.74271   1.75304   2.07369   2.09563
 Alpha virt. eigenvalues --    2.36316   2.39638   2.54857   2.87779   3.01222
 Alpha virt. eigenvalues --    5.05626   5.48722   5.90803   6.78477   6.80051
 Alpha virt. eigenvalues --    6.87330   6.91614   7.09519  49.95529
          Condensed to atoms (all electrons):
               7          8          9
     7  O    7.918189   0.318885   0.316291
     8  H    0.318885   0.429402  -0.023820
     9  H    0.316291  -0.023820   0.429699
 Mulliken charges:
               1
     1  O    0.000000
     2  H    0.000000
     3  H    0.000000
     4  O    0.000000
     5  H    0.000000
     6  H    0.000000
     7  O   -0.553364
     8  H    0.275533
     9  H    0.277831
 Sum of Mulliken charges =  -0.00000
 Mulliken charges with hydrogens summed into heavy atoms:
               1
     1  O    0.000000
     4  O    0.000000
     7  O   -0.000000
         Mulliken charges condensed to fragments:
      1      0.000000
      2      0.000000
      3     -0.000000
 Electronic spatial extent (au):  <R**2>=          14537.8593
 Charge=             -0.0000 electrons
 Dipole moment (field-independent basis, Debye):
    X=             -0.0967    Y=             -1.9522    Z=             -0.8609  Tot=              2.1358
 Quadrupole moment (field-independent basis, Debye-Ang):
   XX=             -8.6238   YY=            -54.5639   ZZ=            -25.7365
   XY=            -22.9661   XZ=             -8.9781   YZ=            -33.5683
 Traceless Quadrupole moment (field-independent basis, Debye-Ang):
   XX=             21.0176   YY=            -24.9225   ZZ=              3.9050
   XY=            -22.9661   XZ=             -8.9781   YZ=            -33.5683
 Octapole moment (field-independent basis, Debye-Ang**2):
  XXX=           -246.3590  YYY=          -1130.7186  ZZZ=           -548.9503  XYY=           -620.9736
  XXY=           -350.0757  XXZ=           -169.4684  XZZ=           -258.1753  YZZ=           -588.1900
  YYZ=           -771.2048  XYZ=           -366.8344
 Hexadecapole moment (field-independent basis, Debye-Ang**3):
 XXXX=          -5101.9357 YYYY=         -20640.5579 ZZZZ=         -10074.9250 XXXY=          -5775.0377
 XXXZ=          -3442.6064 YYYX=         -12706.6162 YYYZ=         -14862.8506 ZZZX=          -5520.0461
 ZZZY=          -9975.8272 XXYY=          -8072.4362 XXZZ=          -3459.6987 YYZZ=         -11453.9234
 XXYZ=          -4957.9020 YYXZ=          -8482.9150 ZZXY=          -6206.8166
 N-N= 9.089872350431D+00 E-N=-1.990272531267D+02  KE= 7.619149095485D+01
 No NMR shielding tensors so no spin-rotation constants.
 Leave Link  601 at Sun Feb 19 22:32:49 2023, MaxMem=  6710886400 cpu:               1.7 elap:               0.1
 (Enter /data0/home/software/g16/l122.exe)
 CPIOFr:  IOpCl= 0 IRwI=-1 IRwCP=  731 ICalc=  6 LCPTot=       22668 Len1MO=       57607 IndFrg=      425917
 Restoring MOs from calculation   1 to rwf.
 CPIOFr:  IOpCl= 0 IRwI=-2 IRwCP=  731 ICalc=  0 LCPTot=       22668 Len1MO=       57607 IndFrg=       80275
 Counterpoise corrected energy =    -229.266504445094
                   BSSE energy =       0.000881780633
              sum of fragments =    -229.264640527641
           complexation energy =      -1.72 kcal/mole (raw)
           complexation energy =      -1.17 kcal/mole (corrected)
 Leave Link  122 at Sun Feb 19 22:32:49 2023, MaxMem=  6710886400 cpu:               0.1 elap:               0.0
 (Enter /data0/home/software/g16/l9999.exe)
 1\1\GINC-LOCALHOST\SP\RM062X\6-311+G(2d,p)\H6O3\WUHANYU\19-Feb-2023\0\
 \#p M062X/6-311+G(2d,p) nosymm em=GD3 counterpoise=3\\Title Card Requi
 red\\0,1\O,0,13.072938,12.522995,9.70175\H,0,12.603292,12.273286,8.883
 009\H,0,12.367824,12.704391,10.342057\O,0,7.365961,12.839897,9.363178\
 H,0,7.505833,13.75408,9.579144\H,0,8.266965,12.434474,9.362144\O,0,10.
 840604,12.49929,11.632993\H,0,11.270291,11.694976,11.935899\H,0,10.353
 07,12.203576,10.840249\\Version=ES64L-G16RevA.03\HF=-76.4217076\RMSD=4
 .081e-09\Dipole=-0.2572755,-0.427372,-0.1523624\Quadrupole=-8.8176481,
 -1.6348575,10.4525056,-18.0597813,-8.8393207,-13.4899831\PG=C01 [X(H6O
 3)]\\@


      SCIENCE SANS CONSCIENCE N'EST QUE RUINE DE L'AME.

                                                  -- RABELAIS
 Job cpu time:       0 days  0 hours  4 minutes 10.9 seconds.
 Elapsed time:       0 days  0 hours  0 minutes 12.7 seconds.
 File lengths (MBytes):  RWF=     15 Int=      0 D2E=      0 Chk=      5 Scr=      1
 Normal termination of Gaussian 16 at Sun Feb 19 22:32:49 2023.
