          23
 Energy =  -1023.25272790 a.u.  #Cluster:    1
C           8.74139600     10.13731900     10.75097000
C           8.60903200      8.74694200     10.79830300
C          10.39354400      9.17513800      9.58448100
N           9.86578000     10.39756300      9.97135400
H          10.30519400     11.31001300      9.83292000
H           8.14327100     10.91239000     11.17910600
H           7.86667500      8.14518500     11.28329200
H          11.29006800      9.06713400      8.99468800
N           9.63754300      8.16764000     10.07163000
P          12.14062400      9.05279500     12.70469700
O          12.62407200      9.34106600     11.35292700
O          11.69363600      7.58293000     13.06515400
H          11.53812700      7.00932300     12.18486200
O          13.22946500      9.42343900     13.79794900
H          12.84155700      9.17532900     14.72491100
O          10.90713500      9.95820900     13.17579200
H          10.03991300      9.56768000     12.79584000
O          11.17167400      6.08944300     10.82820200
H          10.33812200      6.52878400     10.50738200
H          11.82623900      6.34333300     10.17646100
O          11.97240200     11.93069500     10.10706800
H          12.12696600     12.57314900     10.79973300
H          12.34757600     11.10451500     10.46229100
          23
 Energy =  -1023.24736620 a.u.  #Cluster:    2
C           8.65638400     10.40959100      9.41503700
C           8.08194100      9.27774100      9.99673100
C          10.24234400      8.88795200      9.84465900
N          10.02115800     10.15023600      9.31504500
H          10.73852200     10.81558800      9.02971000
H           8.21695300     11.32600600      9.08425000
H           7.05697100      9.07463800     10.23059800
H          11.21304900      8.42066300      9.90869600
N           9.07687800      8.34732500     10.25805700
P          12.29400500      9.26465100     13.09452500
O          11.68542000     10.47497800     12.54500500
O          11.98736900      7.87788600     12.41355500
H          10.96641500      7.59971500     12.58025400
O          13.88010800      9.34778900     12.98442200
H          14.27811700      8.44696500     13.27893100
O          11.98362300      8.96335800     14.63243000
H          11.86417700      9.85313400     15.12288500
O           9.39307400      7.10331000     12.55931600
H           8.88710400      7.86938600     12.84281200
H           9.20862800      7.07489700     11.57971700
O          12.17950600     11.53930100      9.83168600
H          13.10129300     11.31163500      9.72171800
H          11.98697100     11.32326500     10.75997400
          23
 Energy =  -1023.24662650 a.u.  #Cluster:    3
C           8.22430000      9.36962700      9.98990700
C           8.52139500     10.59096000      9.37981000
C          10.32245000      9.34169500      9.20756500
N           9.36375000      8.58168600      9.86480900
H           9.52920100      7.70116400     10.35116700
H           7.33385100      9.02446000     10.47041900
H           7.90318800     11.45375800      9.23628200
H          11.31428300      8.98854800      8.97095900
N           9.82736300     10.56207000      8.91107600
P          11.75623300      7.91688200     12.33322800
O          10.39255000      7.51258800     12.00590300
O          12.51676900      7.04792500     13.41593400
H          12.66400400      7.64727900     14.26823400
O          12.64501300      7.82680800     11.01436800
H          13.63606800      7.89679600     11.25441300
O          11.96990200      9.38447800     12.91221600
H          11.53724300     10.10687100     12.30435700
O          12.80452200      8.89347000     15.59820400
H          11.88415000      9.04001300     15.83866600
H          13.03150400      9.66111600     15.05586400
O          10.82337100     11.44461800     11.37473600
H           9.87018000     11.31404400     11.37476200
H          11.04872400     11.47315100     10.42713100
          23
 Energy =  -1023.24270430 a.u.  #Cluster:    4
C           8.49943700      8.94800800      9.66182000
C           8.34326700     10.33457000      9.61668800
C          10.48221800      9.92618300      9.30542000
N           9.85253900      8.69839500      9.44884500
H          10.31750100      7.80757500      9.60228500
H           7.78770600      8.16705800      9.82337000
H           7.45645700     10.92736000      9.71329100
H          11.53993000     10.04445700      9.13243400
N           9.58079600     10.92783600      9.40628200
P          11.99361000      8.17635700     12.12545800
O          11.23782000      7.34810900     11.19466100
O          12.81585800      7.40319800     13.23768300
H          12.37240200      7.60591600     14.16905600
O          13.06897600      9.04247000     11.32349400
H          13.87254200      9.23835500     11.92274000
O          11.15361700      9.20694100     12.99934100
H          10.96941400     10.09239500     12.48158700
O          11.42889800      8.13689200     15.64337800
H          11.31782100      9.07007200     15.41553300
H          10.56345100      7.75028900     15.47428900
O          10.73706000     11.69979600     11.76681500
H          11.48876700     11.89425400     11.20560300
H           9.97992700     11.70352000     11.13993700
          23
 Energy =  -1023.23750130 a.u.  #Cluster:    5
C           8.91278600      9.00982800      9.25344500
C           8.65050700     10.35191200      9.52772300
C          10.83448600     10.10349500      9.62458500
N          10.29829600      8.86444000      9.29180400
H          10.79234800      7.98323900      9.33721700
H           8.25359200      8.18968300      9.06044200
H           7.71628800     10.87366400      9.56377500
H          11.88762200     10.28783000      9.75128400
N           9.84980300     11.01453100      9.76120700
P          10.94239900      7.91618100     12.47543000
O           9.50610300      7.76116500     12.35187300
O          11.70970100      6.93441800     13.45530700
H          12.28102700      7.51068000     14.12071800
O          11.63475400      7.64560900     11.04875000
H          12.60929900      7.39105600     11.15930100
O          11.54688600      9.32519000     12.90630500
H          10.90149800     10.11609800     12.67599000
O          13.11077900      8.74334600     15.20575000
H          12.36599100      9.05926000     15.72705300
H          13.24318300      9.43587600     14.54359900
O           9.90356300     11.48729600     12.37784000
H           9.02875000     11.09936100     12.28795600
H          10.10035200     11.80584900     11.46265600
          23
 Energy =  -1023.23560530 a.u.  #Cluster:    6
C           9.00845100     10.42912900     10.87853400
C           8.58547300      9.13110100     11.17700300
C          10.03677000      8.96375600      9.53180400
N           9.91172200     10.31408700      9.82392600
H          10.49718100     11.06468400      9.45878600
H           8.75724300     11.36724000     11.32189900
H           7.89667700      8.79093200     11.92181900
H          10.69532400      8.57329100      8.77670300
N           9.22914200      8.23708000     10.33336900
P          12.01271200      9.09589400     12.69765500
O          12.66951300      9.18791500     11.39424300
O          11.67436000      7.66043800     13.25971800
H          11.20685900      7.07300300     12.50574700
O          12.80348200      9.74098600     13.92966200
H          13.51468400      9.06909000     14.24089400
O          10.66158200      9.93977800     12.69880600
H          10.30442900      9.99934800     13.66068600
O          10.47452000      6.08863700     11.35614000
H           9.68248600      6.61991600     11.06688600
H          11.05663400      6.13335500     10.59670900
O          12.24988300     11.46644300      9.56410700
H          12.53229200     12.20761000     10.09883600
H          12.48859200     10.68629600     10.09608300
