          23
 G =       -0.486509 Gcorr = 0.101080 a.u. Nimag =   0 Frame:     1 Step:     2 Geom:     2
C           8.16932900      9.15496100     10.09463600
C           8.46370600     10.24954400      9.27768500
C          10.25495000      8.97469500      9.29911400
N           9.30230300      8.34793900     10.09181300
H           9.47037900      7.56389800     10.72127000
H           7.28439200      8.90563100     10.64021000
H           7.84815300     11.07942500      8.99556900
H          11.24099900      8.57776800      9.11317400
N           9.76208900     10.12916000      8.80246900
P          11.72953400      8.10258700     12.60416900
O          10.35702800      7.66392000     12.37146600
O          12.49838400      7.42865400     13.81265400
H          12.66570900      8.16724400     14.54333300
O          12.59667400      7.77063000     11.30980800
H          13.59179800      7.87367400     11.51897200
O          11.96703900      9.64649500     12.91211000
H          11.52418400     10.25610200     12.19738700
O          12.84037900      9.62687100     15.62929500
H          13.06771200     10.28414800     14.95753100
H          11.92524300      9.82574400     15.85170400
O          10.79763700     11.41668500     11.06358600
H           9.84408600     11.29395400     11.10013600
H          11.00830400     11.28027200     10.12192200
          23
 G =       -0.486507 Gcorr = 0.101082 a.u. Nimag =   0 Frame:     2 Step:     3 Geom:     3
C           8.23121500      9.09349400     10.13084700
C           8.43302700     10.22605000      9.33787500
C          10.31281200      9.08609300      9.30499800
N           9.42003500      8.37223500     10.09368800
H           9.65397300      7.58763900     10.70109200
H           7.37479500      8.76678100     10.68105500
H           7.75442700     11.01499100      9.08434000
H          11.32249200      8.76729900      9.09684000
N           9.72978000     10.21284700      8.84360900
P          11.89419900      8.24323800     12.56801600
O          10.55431000      7.71040700     12.34181200
O          12.72811100      7.59839100     13.74890600
H          12.85200400      8.32935100     14.49570000
O          12.76427200      8.00808000     11.25459400
H          13.75224200      8.17785600     11.45376700
O          12.02206300      9.79245400     12.91217600
H          11.52500500     10.38493900     12.21902300
O          12.93559000      9.77136700     15.61584200
H          12.01174900      9.89662100     15.85526100
H          13.10386500     10.45989300     14.95813200
O          10.69927100     11.51717400     11.12503500
H          10.90685500     11.41950100     10.17790500
H           9.75791900     11.32330400     11.16950000
          23
 G =       -0.486553 Gcorr = 0.101036 a.u. Nimag =   0 Frame:     3 Step:     4 Geom:     4
C           8.22430000      9.36962700      9.98990700
C           8.52139500     10.59096000      9.37981000
C          10.32245000      9.34169500      9.20756500
N           9.36375000      8.58168600      9.86480900
H           9.52920100      7.70116400     10.35116700
H           7.33385100      9.02446000     10.47041900
H           7.90318800     11.45375800      9.23628200
H          11.31428300      8.98854800      8.97095900
N           9.82736300     10.56207000      8.91107600
P          11.75623300      7.91688200     12.33322800
O          10.39255000      7.51258800     12.00590300
O          12.51676900      7.04792500     13.41593400
H          12.66400400      7.64727900     14.26823400
O          12.64501300      7.82680800     11.01436800
H          13.63606800      7.89679600     11.25441300
O          11.96990200      9.38447800     12.91221600
H          11.53724300     10.10687100     12.30435700
O          12.80452200      8.89347000     15.59820400
H          11.88415000      9.04001300     15.83866600
H          13.03150400      9.66111600     15.05586400
O          10.82337100     11.44461800     11.37473600
H           9.87018000     11.31404400     11.37476200
H          11.04872400     11.47315100     10.42713100
          23
 G =       -0.486236 Gcorr = 0.101760 a.u. Nimag =   0 Frame:     4 Step:     6 Geom:     6
C           8.91278600      9.00982800      9.25344500
C           8.65050700     10.35191200      9.52772300
C          10.83448600     10.10349500      9.62458500
N          10.29829600      8.86444000      9.29180400
H          10.79234800      7.98323900      9.33721700
H           8.25359200      8.18968300      9.06044200
H           7.71628800     10.87366400      9.56377500
H          11.88762200     10.28783000      9.75128400
N           9.84980300     11.01453100      9.76120700
P          10.94239900      7.91618100     12.47543000
O           9.50610300      7.76116500     12.35187300
O          11.70970100      6.93441800     13.45530700
H          12.28102700      7.51068000     14.12071800
O          11.63475400      7.64560900     11.04875000
H          12.60929900      7.39105600     11.15930100
O          11.54688600      9.32519000     12.90630500
H          10.90149800     10.11609800     12.67599000
O          13.11077900      8.74334600     15.20575000
H          12.36599100      9.05926000     15.72705300
H          13.24318300      9.43587600     14.54359900
O           9.90356300     11.48729600     12.37784000
H           9.02875000     11.09936100     12.28795600
H          10.10035200     11.80584900     11.46265600
          23
 G =       -0.486511 Gcorr = 0.101078 a.u. Nimag =   0 Frame:     5 Step:     7 Geom:     7
C           8.63133100      8.95586000      9.55217100
C           8.44459100     10.33121100      9.39164400
C          10.61476900      9.97919700      9.36818900
N          10.00530800      8.74093100      9.52298300
H          10.47285900      7.87253800      9.78104000
H           7.92532100      8.16206700      9.67206100
H           7.53730400     10.89690500      9.32823900
H          11.68276600     10.12343400      9.31362500
N           9.68182600     10.95182400      9.29095700
P          12.11622600      8.17598400     12.25855700
O          11.11150100      7.44560400     11.49208500
O          13.03241900      7.32370200     13.22805900
H          12.79921200      7.59559200     14.21753500
O          13.11669000      8.88472400     11.24160000
H          13.94085500      9.22521200     11.74096200
O          11.60444300      9.31698400     13.24395900
H          10.97710400      9.99059800     12.76298200
O          12.22114800      8.25585100     15.82077000
H          12.16397700      9.19130900     15.58281600
H          11.30445800      7.96316700     15.84310800
O           9.87354900     11.20254900     12.07444600
H          10.18143600     11.64671500     11.26355700
H           9.08091600     10.73805100     11.78866600
          23
 G =       -0.486515 Gcorr = 0.101074 a.u. Nimag =   0 Frame:     6 Step:     8 Geom:     8
C           8.88177700      8.77963200      9.34318000
C           8.47252600     10.11477200      9.29801000
C          10.67077700     10.12672200      9.34000200
N          10.27263400      8.79633800      9.35615200
H          10.87089500      7.99564700      9.55677200
H           8.31524700      7.87317700      9.35994000
H           7.48567700     10.52768500      9.24497200
H          11.70079400     10.44835000      9.34624300
N           9.59103000     10.93632200      9.30847000
P          12.36261100      8.33122800     12.12648900
O          11.52106000      7.52123900     11.25127800
O          13.37875400      7.55297500     13.05784400
H          13.07512500      7.69069300     14.05598600
O          13.25935400      9.29090000     11.22517000
H          13.99802700      9.71373600     11.79084000
O          11.63421400      9.27127400     13.18511400
H          10.92064200      9.87824500     12.73682800
O          12.34678300      8.09070600     15.68387800
H          11.49359500      7.64742700     15.63886800
H          12.13729000      9.02151800     15.52675700
O           9.65476400     10.95596500     12.10722700
H           8.95741000     10.39873200     11.74822200
H           9.90901700     11.51672700     11.35177100
          23
 G =       -0.486501 Gcorr = 0.101087 a.u. Nimag =   0 Frame:     7 Step:     9 Geom:     9
C           8.79438000      8.77418900      9.28692400
C           8.40873300     10.11397700      9.19493200
C          10.60203000     10.09477300      9.34689900
N          10.18292900      8.77093600      9.36940500
H          10.75818700      7.96572200      9.61491800
H           8.21367800      7.87659900      9.29296700
H           7.43227500     10.54011500      9.08454600
H          11.63533000     10.40149000      9.39804000
N           9.53791000     10.91918900      9.24527200
P          12.13647300      8.32377800     12.24108500
O          11.32456200      7.50928800     11.34227000
O          13.09642900      7.54913800     13.23327800
H          12.74382600      7.70273900     14.21252100
O          13.08971000      9.25283400     11.36622900
H          13.80852300      9.67359100     11.95895000
O          11.37349200      9.29402000     13.24661200
H          10.68878500      9.90033500     12.75423200
O          11.94031600      8.14305400     15.79639700
H          11.08228500      7.71453100     15.71626800
H          11.75649400      9.07457000     15.61351100
O           9.46524400     10.97880800     12.04705200
H           9.76297900     11.52714100     11.29863300
H           8.78543800     10.41919400     11.65906900
          23
 G =       -0.487287 Gcorr = 0.099458 a.u. Nimag =   0 Frame:     8 Step:    11 Geom:    11
C           8.49943700      8.94800800      9.66182000
C           8.34326700     10.33457000      9.61668800
C          10.48221800      9.92618300      9.30542000
N           9.85253900      8.69839500      9.44884500
H          10.31750100      7.80757500      9.60228500
H           7.78770600      8.16705800      9.82337000
H           7.45645700     10.92736000      9.71329100
H          11.53993000     10.04445700      9.13243400
N           9.58079600     10.92783600      9.40628200
P          11.99361000      8.17635700     12.12545800
O          11.23782000      7.34810900     11.19466100
O          12.81585800      7.40319800     13.23768300
H          12.37240200      7.60591600     14.16905600
O          13.06897600      9.04247000     11.32349400
H          13.87254200      9.23835500     11.92274000
O          11.15361700      9.20694100     12.99934100
H          10.96941400     10.09239500     12.48158700
O          11.42889800      8.13689200     15.64337800
H          11.31782100      9.07007200     15.41553300
H          10.56345100      7.75028900     15.47428900
O          10.73706000     11.69979600     11.76681500
H          11.48876700     11.89425400     11.20560300
H           9.97992700     11.70352000     11.13993700
          23
 G =       -0.493353 Gcorr = 0.102606 a.u. Nimag =   0 Frame:     9 Step:    12 Geom:    12
C           8.65638400     10.40959100      9.41503700
C           8.08194100      9.27774100      9.99673100
C          10.24234400      8.88795200      9.84465900
N          10.02115800     10.15023600      9.31504500
H          10.73852200     10.81558800      9.02971000
H           8.21695300     11.32600600      9.08425000
H           7.05697100      9.07463800     10.23059800
H          11.21304900      8.42066300      9.90869600
N           9.07687800      8.34732500     10.25805700
P          12.29400500      9.26465100     13.09452500
O          11.68542000     10.47497800     12.54500500
O          11.98736900      7.87788600     12.41355500
H          10.96641500      7.59971500     12.58025400
O          13.88010800      9.34778900     12.98442200
H          14.27811700      8.44696500     13.27893100
O          11.98362300      8.96335800     14.63243000
H          11.86417700      9.85313400     15.12288500
O           9.39307400      7.10331000     12.55931600
H           8.88710400      7.86938600     12.84281200
H           9.20862800      7.07489700     11.57971700
O          12.17950600     11.53930100      9.83168600
H          13.10129300     11.31163500      9.72171800
H          11.98697100     11.32326500     10.75997400
          23
 G =       -0.492432 Gcorr = 0.105141 a.u. Nimag =   0 Frame:    10 Step:    16 Geom:    16
C           9.00845100     10.42912900     10.87853400
C           8.58547300      9.13110100     11.17700300
C          10.03677000      8.96375600      9.53180400
N           9.91172200     10.31408700      9.82392600
H          10.49718100     11.06468400      9.45878600
H           8.75724300     11.36724000     11.32189900
H           7.89667700      8.79093200     11.92181900
H          10.69532400      8.57329100      8.77670300
N           9.22914200      8.23708000     10.33336900
P          12.01271200      9.09589400     12.69765500
O          12.66951300      9.18791500     11.39424300
O          11.67436000      7.66043800     13.25971800
H          11.20685900      7.07300300     12.50574700
O          12.80348200      9.74098600     13.92966200
H          13.51468400      9.06909000     14.24089400
O          10.66158200      9.93977800     12.69880600
H          10.30442900      9.99934800     13.66068600
O          10.47452000      6.08863700     11.35614000
H           9.68248600      6.61991600     11.06688600
H          11.05663400      6.13335500     10.59670900
O          12.24988300     11.46644300      9.56410700
H          12.53229200     12.20761000     10.09883600
H          12.48859200     10.68629600     10.09608300
          23
 G =       -0.491792 Gcorr = 0.106245 a.u. Nimag =   0 Frame:    11 Step:    21 Geom:    21
C           8.74139600     10.13731900     10.75097000
C           8.60903200      8.74694200     10.79830300
C          10.39354400      9.17513800      9.58448100
N           9.86578000     10.39756300      9.97135400
H          10.30519400     11.31001300      9.83292000
H           8.14327100     10.91239000     11.17910600
H           7.86667500      8.14518500     11.28329200
H          11.29006800      9.06713400      8.99468800
N           9.63754300      8.16764000     10.07163000
P          12.14062400      9.05279500     12.70469700
O          12.62407200      9.34106600     11.35292700
O          11.69363600      7.58293000     13.06515400
H          11.53812700      7.00932300     12.18486200
O          13.22946500      9.42343900     13.79794900
H          12.84155700      9.17532900     14.72491100
O          10.90713500      9.95820900     13.17579200
H          10.03991300      9.56768000     12.79584000
O          11.17167400      6.08944300     10.82820200
H          10.33812200      6.52878400     10.50738200
H          11.82623900      6.34333300     10.17646100
O          11.97240200     11.93069500     10.10706800
H          12.12696600     12.57314900     10.79973300
H          12.34757600     11.10451500     10.46229100
