          20
 Energy =     -0.39981900 a.u.  #Cluster:    1
C          18.82557200      9.22701600      4.38503200
C          18.54876100      9.47464600      3.04059700
C          17.03508200      8.04108700      3.74581900
N          17.86986200      8.31006800      4.82113500
H          17.69886000      8.04661700      5.79136200
H          19.58674400      9.61380200      5.02591300
H          19.05100400     10.11220700      2.34240300
H          16.18539500      7.37921400      3.79456700
N          17.43190700      8.74039300      2.66030800
P          15.06027400     10.95243600      3.92049000
O          14.69924100      9.75877600      4.68119900
O          13.97463000     12.12132800      3.84903900
H          13.24490400     11.83201200      3.18415800
O          16.28443100     11.69257200      4.61802100
H          16.48932600     12.55754700      4.10372300
O          15.41838800     10.77983800      2.38741100
H          16.05253000      9.94261700      2.25858400
O          16.32475400      8.52070600      6.87227200
H          15.71344200      8.87045400      6.20207900
H          16.43491200      9.24667000      7.48588900
          20
 Energy =     -0.39930600 a.u.  #Cluster:    2
C          18.72353100      8.59535100      4.39676400
C          18.68654700      9.22473700      3.15278000
C          16.76529300      8.17775300      3.39094800
N          17.50898500      7.92449200      4.53532500
H          17.15821600      7.51760700      5.40204300
H          19.47664300      8.58181300      5.15499700
H          19.42329500      9.83384400      2.66965100
H          15.77102500      7.80026100      3.22284800
N          17.46447200      8.96461200      2.54467500
P          15.42296900     11.35211900      4.11664400
O          16.31742400     11.02930700      5.22127700
O          14.24718600     10.27520800      4.05418500
H          13.53741400     10.58205700      3.38339600
O          14.61322200     12.72472000      4.22387300
H          15.21989500     13.47707400      3.87132400
O          16.01586400     11.47037300      2.65333500
H          16.57618700     10.60465700      2.41940300
O          16.15522600      8.37115200      6.65457500
H          16.27901400      9.27411000      6.31494000
H          15.20761000      8.28876100      6.75701800
          20
 Energy =     -0.39694600 a.u.  #Cluster:    3
C          18.50956700      9.05626400      3.96700800
C          18.21303400      9.16565800      2.60476600
C          16.61169400      7.96071600      3.50437700
N          17.49590900      8.28234000      4.52674600
H          17.36287700      8.10579200      5.52153400
H          19.32945700      9.43220900      4.53902900
H          18.75004100      9.66718700      1.82513600
H          15.71618800      7.38019800      3.64660200
N          17.03500400      8.48719400      2.33529300
P          15.25180200     11.26239200      4.18281900
O          15.26963600     11.12634800      5.63608000
O          14.94388800      9.87234300      3.49001800
H          15.19044000      9.91364300      2.48181000
O          14.15795500     12.22192300      3.53870100
H          14.34156800     13.17567300      3.88868900
O          16.57690500     11.85206000      3.51236200
H          17.37823100     11.26826400      3.77548700
O          16.31695100      8.62917300      6.88650600
H          16.01631600      9.49836000      6.57151100
H          15.51256200      8.17227300      7.12552600
          20
 Energy =     -0.39574200 a.u.  #Cluster:    4
C          18.35956700      8.73407000      4.66967000
C          18.58236800      9.20994800      3.37868000
C          16.67250400      8.11637000      3.32661900
N          17.15414200      8.03113300      4.62798800
H          16.64507500      7.70966000      5.44418300
H          18.92885600      8.84399600      5.56677700
H          19.39398900      9.79347800      2.99227700
H          15.74616700      7.67841800      2.99452000
N          17.52461100      8.82924700      2.56128100
P          15.42415900     11.37599100      3.84412600
O          16.26475300     11.42712600      5.04013900
O          14.49840300     10.06184600      3.77110000
H          14.57821400      9.55209400      4.65064700
O          14.40970200     12.59313500      3.77697200
H          13.90271000     12.53549000      2.87758000
O          16.07919900     11.40817900      2.40534900
H          16.60928400     10.50574700      2.25146100
O          15.68624800      8.86506300      6.51151800
H          15.31763700      8.98338300      7.38283100
H          16.03242800      9.73563200      6.24628600
          20
 Energy =     -0.39303000 a.u.  #Cluster:    5
C          19.19734400      9.44434700      3.44682600
C          19.23686600      8.72285400      2.24942900
C          17.63208400      7.84191400      3.45971300
N          18.19322600      8.86784400      4.21644300
H          17.82211400      9.24573500      5.08458100
H          19.77417400     10.27872100      3.78215600
H          19.88157300      8.84045900      1.40247600
H          16.82145100      7.22407500      3.80072100
N          18.26275100      7.73891500      2.27432900
P          15.45432800     10.90734200      4.41693900
O          16.17478300     10.08062400      5.39017400
O          13.94819500     10.49802800      4.13575300
H          13.53992000     10.11698400      5.01642000
O          15.43009000     12.42921200      4.86386300
H          15.00640400     12.98174400      4.10075400
O          16.05179000     11.01080600      2.94464300
H          16.25370000     10.05660400      2.60513200
O          13.05014900      9.45644800      6.67919000
H          13.72989200      8.78970000      6.82734900
H          13.25917800     10.15765600      7.30310900
          20
 Energy =     -0.39285500 a.u.  #Cluster:    6
C          18.31310600      9.12137000      2.45366500
C          18.89911700     10.15897100      1.72227200
C          16.73632100     10.53509000      1.71933100
N          16.94228000      9.35750200      2.43411200
H          16.24652300      8.83887800      2.95651200
H          18.74847600      8.28207000      2.94982600
H          19.93027500     10.33430200      1.49104500
H          15.76625900     10.96939200      1.54767900
N          17.91148100     11.02221700      1.27822800
P          15.15811200     10.53448500      5.32012200
O          15.82705000     10.63375400      6.60418800
O          15.35745800      9.14385900      4.53914900
H          15.54034000      8.38278600      5.20926200
O          13.58703000     10.70916800      5.41867500
H          13.19367500     10.67315400      4.46458200
O          15.51545800     11.54856300      4.14419800
H          16.54042100     11.58957800      4.04033300
O          15.94117300      7.21543300      6.56000900
H          16.64189500      7.68620800      7.02615900
H          15.18356200      7.26322400      7.15065500
          20
 Energy =     -0.39250600 a.u.  #Cluster:    7
C          18.47173300      9.64128000      1.23101300
C          17.62885200      9.97707400      2.29018100
C          19.23475500      8.73238100      3.14053000
N          19.48887400      8.85254600      1.77494600
H          20.24662600      8.45616400      1.26782800
H          18.42561400      9.89053400      0.19287400
H          16.72906000     10.57078500      2.30022900
H          19.85361200      8.17688000      3.82365900
N          18.11747400      9.40763300      3.45588900
P          15.18329100     10.27621900      5.69556300
O          14.26440600      9.17080900      5.93726900
O          15.10375000     10.93209500      4.23317500
H          14.17666700     10.74921200      3.82926700
O          14.88647000     11.48217000      6.69487700
H          15.62382300     12.18763900      6.58644600
O          16.73648100     10.05642600      5.88207400
H          17.15054600      9.71125800      4.96464600
O          12.39699300     10.15197000      3.36215800
H          12.54636500      9.22605800      3.58657900
H          11.90462400     10.50087800      4.11079700
