 Entering Gaussian System, Link 0=g16
 Initial command:
 /data0/home/software/g16/l1.exe "/data0/home/software/g16/scratch/Gau-2534405.inp" -scrdir="/data0/home/software/g16/scratch/"
 Default is to use a total of  22 processors:
                               22 via shared-memory
                                1 via Linda
 Entering Link 1 = /data0/home/software/g16/l1.exe PID=   2534406.
  
 Copyright (c) 1988,1990,1992,1993,1995,1998,2003,2009,2016,
            Gaussian, Inc.  All Rights Reserved.
  
 This is part of the Gaussian(R) 16 program.  It is based on
 the Gaussian(R) 09 system (copyright 2009, Gaussian, Inc.),
 the Gaussian(R) 03 system (copyright 2003, Gaussian, Inc.),
 the Gaussian(R) 98 system (copyright 1998, Gaussian, Inc.),
 the Gaussian(R) 94 system (copyright 1995, Gaussian, Inc.),
 the Gaussian 92(TM) system (copyright 1992, Gaussian, Inc.),
 the Gaussian 90(TM) system (copyright 1990, Gaussian, Inc.),
 the Gaussian 88(TM) system (copyright 1988, Gaussian, Inc.),
 the Gaussian 86(TM) system (copyright 1986, Carnegie Mellon
 University), and the Gaussian 82(TM) system (copyright 1983,
 Carnegie Mellon University). Gaussian is a federally registered
 trademark of Gaussian, Inc.
  
 This software contains proprietary and confidential information,
 including trade secrets, belonging to Gaussian, Inc.
  
 This software is provided under written license and may be
 used, copied, transmitted, or stored only in accord with that
 written license.
  
 The following legend is applicable only to US Government
 contracts under FAR:
  
                    RESTRICTED RIGHTS LEGEND
  
 Use, reproduction and disclosure by the US Government is
 subject to restrictions as set forth in subparagraphs (a)
 and (c) of the Commercial Computer Software - Restricted
 Rights clause in FAR 52.227-19.
  
 Gaussian, Inc.
 340 Quinnipiac St., Bldg. 40, Wallingford CT 06492
  
  
 ---------------------------------------------------------------
 Warning -- This program may not be used in any manner that
 competes with the business of Gaussian, Inc. or will provide
 assistance to any competitor of Gaussian, Inc.  The licensee
 of this program is prohibited from giving any competitor of
 Gaussian, Inc. access to this program.  By using this program,
 the user acknowledges that Gaussian, Inc. is engaged in the
 business of creating and licensing software in the field of
 computational chemistry and represents and warrants to the
 licensee that it is not a competitor of Gaussian, Inc. and that
 it will not use this program in any manner prohibited above.
 ---------------------------------------------------------------
  

 Cite this work as:
 Gaussian 16, Revision A.03,
 M. J. Frisch, G. W. Trucks, H. B. Schlegel, G. E. Scuseria, 
 M. A. Robb, J. R. Cheeseman, G. Scalmani, V. Barone, 
 G. A. Petersson, H. Nakatsuji, X. Li, M. Caricato, A. V. Marenich, 
 J. Bloino, B. G. Janesko, R. Gomperts, B. Mennucci, H. P. Hratchian, 
 J. V. Ortiz, A. F. Izmaylov, J. L. Sonnenberg, D. Williams-Young, 
 F. Ding, F. Lipparini, F. Egidi, J. Goings, B. Peng, A. Petrone, 
 T. Henderson, D. Ranasinghe, V. G. Zakrzewski, J. Gao, N. Rega, 
 G. Zheng, W. Liang, M. Hada, M. Ehara, K. Toyota, R. Fukuda, 
 J. Hasegawa, M. Ishida, T. Nakajima, Y. Honda, O. Kitao, H. Nakai, 
 T. Vreven, K. Throssell, J. A. Montgomery, Jr., J. E. Peralta, 
 F. Ogliaro, M. J. Bearpark, J. J. Heyd, E. N. Brothers, K. N. Kudin, 
 V. N. Staroverov, T. A. Keith, R. Kobayashi, J. Normand, 
 K. Raghavachari, A. P. Rendell, J. C. Burant, S. S. Iyengar, 
 J. Tomasi, M. Cossi, J. M. Millam, M. Klene, C. Adamo, R. Cammi, 
 J. W. Ochterski, R. L. Martin, K. Morokuma, O. Farkas, 
 J. B. Foresman, and D. J. Fox, Gaussian, Inc., Wallingford CT, 2016.
 
 ******************************************
 Gaussian 16:  ES64L-G16RevA.03 25-Dec-2016
                11-Oct-2023 
 ******************************************
 %mem=50GB
 %nprocshared=24
 Will use up to   24 processors via shared memory.
 -----------------------------------------------------------------
 #p opt freq b3lyp/6-311+g(2d,p) scrf=(smd,solvent=water) em=gd3bj
 -----------------------------------------------------------------
 1/18=20,19=15,26=3,38=1/1,3;
 2/9=110,12=2,17=6,18=5,40=1/2;
 3/5=4,6=6,7=112,11=2,25=1,30=1,70=32201,71=1,72=1,74=-5,124=41/1,2,3;
 4//1;
 5/5=2,38=5,53=1/2;
 6/7=2,8=2,9=2,10=2,28=1/1;
 7//1,2,3,16;
 1/18=20,19=15,26=3/3(2);
 2/9=110/2;
 99//99;
 2/9=110/2;
 3/5=4,6=6,7=112,11=2,25=1,30=1,70=32205,71=1,72=1,74=-5,124=41/1,2,3;
 4/5=5,16=3,69=1/1;
 5/5=2,38=5,53=1/2;
 7//1,2,3,16;
 1/18=20,19=15,26=3/3(-5);
 2/9=110/2;
 6/7=2,8=2,9=2,10=2,19=2,28=1/1;
 99/9=1/99;
 Leave Link    1 at Wed Oct 11 21:06:17 2023, MaxMem=  6710886400 cpu:               0.9 elap:               0.0
 (Enter /data0/home/software/g16/l101.exe)
 -------------------
 Title Card Required
 -------------------
 Symbolic Z-matrix:
 Charge =  0 Multiplicity = 1
 C                     2.01717  -0.60916   1.00828 
 C                     0.93871  -1.4308    0.95282 
 C                     1.00219  -0.26806  -0.91774 
 N                     2.03993   0.10731  -0.1723 
 H                     2.76497  -0.47157   1.76947 
 H                     0.55527  -2.14343   1.66164 
 H                     0.75555   0.12105  -1.89049 
 C                     3.03036   1.11892  -0.53683 
 H                     2.78309   1.5107   -1.52008 
 H                     3.00743   1.92288   0.19656 
 H                     4.01939   0.6651   -0.55696 
 N                     0.32396  -1.21108  -0.26326 
 C                    -0.94844  -1.80752  -0.70057 
 H                    -0.90166  -2.86729  -0.45356 
 H                    -0.98566  -1.70935  -1.78491 
 C                    -2.16535  -1.15382  -0.05071 
 H                    -3.03153  -1.73326  -0.38055 
 H                    -2.10286  -1.26108   1.03426 
 C                    -2.36619   0.3156   -0.42782 
 H                    -3.38791   0.60791  -0.16302 
 H                    -2.27016   0.44852  -1.50751 
 C                    -1.45711   1.32764   0.2855 
 O                    -1.06492   2.32907  -0.38391 
 O                    -1.19272   1.13085   1.50472 
 
 ITRead=  0  0  0  0  0  0  0  0  0  0  0  0  0  0  0  0  0  0  0  0
 ITRead=  0  0  0  0
 MicOpt= -1 -1 -1 -1 -1 -1 -1 -1 -1 -1 -1 -1 -1 -1 -1 -1 -1 -1 -1 -1
 MicOpt= -1 -1 -1 -1
 NAtoms=     24 NQM=       24 NQMF=       0 NMMI=      0 NMMIF=      0
                NMic=       0 NMicF=      0.
                    Isotopes and Nuclear Properties:
 (Nuclear quadrupole moments (NQMom) in fm**2, nuclear magnetic moments (NMagM)
  in nuclear magnetons)

  Atom         1           2           3           4           5           6           7           8           9          10
 IAtWgt=          12          12          12          14           1           1           1          12           1           1
 AtmWgt=  12.0000000  12.0000000  12.0000000  14.0030740   1.0078250   1.0078250   1.0078250  12.0000000   1.0078250   1.0078250
 NucSpn=           0           0           0           2           1           1           1           0           1           1
 AtZEff=  -0.0000000  -0.0000000  -0.0000000  -0.0000000  -0.0000000  -0.0000000  -0.0000000  -0.0000000  -0.0000000  -0.0000000
 NQMom=    0.0000000   0.0000000   0.0000000   2.0440000   0.0000000   0.0000000   0.0000000   0.0000000   0.0000000   0.0000000
 NMagM=    0.0000000   0.0000000   0.0000000   0.4037610   2.7928460   2.7928460   2.7928460   0.0000000   2.7928460   2.7928460
 AtZNuc=   6.0000000   6.0000000   6.0000000   7.0000000   1.0000000   1.0000000   1.0000000   6.0000000   1.0000000   1.0000000

  Atom        11          12          13          14          15          16          17          18          19          20
 IAtWgt=           1          14          12           1           1          12           1           1          12           1
 AtmWgt=   1.0078250  14.0030740  12.0000000   1.0078250   1.0078250  12.0000000   1.0078250   1.0078250  12.0000000   1.0078250
 NucSpn=           1           2           0           1           1           0           1           1           0           1
 AtZEff=  -0.0000000  -0.0000000  -0.0000000  -0.0000000  -0.0000000  -0.0000000  -0.0000000  -0.0000000  -0.0000000  -0.0000000
 NQMom=    0.0000000   2.0440000   0.0000000   0.0000000   0.0000000   0.0000000   0.0000000   0.0000000   0.0000000   0.0000000
 NMagM=    2.7928460   0.4037610   0.0000000   2.7928460   2.7928460   0.0000000   2.7928460   2.7928460   0.0000000   2.7928460
 AtZNuc=   1.0000000   7.0000000   6.0000000   1.0000000   1.0000000   6.0000000   1.0000000   1.0000000   6.0000000   1.0000000

  Atom        21          22          23          24
 IAtWgt=           1          12          16          16
 AtmWgt=   1.0078250  12.0000000  15.9949146  15.9949146
 NucSpn=           1           0           0           0
 AtZEff=  -0.0000000  -0.0000000  -0.0000000  -0.0000000
 NQMom=    0.0000000   0.0000000   0.0000000   0.0000000
 NMagM=    2.7928460   0.0000000   0.0000000   0.0000000
 AtZNuc=   1.0000000   6.0000000   8.0000000   8.0000000
 Leave Link  101 at Wed Oct 11 21:06:17 2023, MaxMem=  6710886400 cpu:               7.8 elap:               0.3
 (Enter /data0/home/software/g16/l103.exe)

 GradGradGradGradGradGradGradGradGradGradGradGradGradGradGradGradGradGrad
 Berny optimization.
 Initialization pass.
                           ----------------------------
                           !    Initial Parameters    !
                           ! (Angstroms and Degrees)  !
 --------------------------                            --------------------------
 ! Name  Definition              Value          Derivative Info.                !
 --------------------------------------------------------------------------------
 ! R1    R(1,2)                  1.3569         estimate D2E/DX2                !
 ! R2    R(1,4)                  1.3812         estimate D2E/DX2                !
 ! R3    R(1,5)                  1.0759         estimate D2E/DX2                !
 ! R4    R(2,6)                  1.0758         estimate D2E/DX2                !
 ! R5    R(2,12)                 1.3802         estimate D2E/DX2                !
 ! R6    R(3,4)                  1.3317         estimate D2E/DX2                !
 ! R7    R(3,7)                  1.0763         estimate D2E/DX2                !
 ! R8    R(3,12)                 1.3333         estimate D2E/DX2                !
 ! R9    R(4,8)                  1.4619         estimate D2E/DX2                !
 ! R10   R(8,9)                  1.0869         estimate D2E/DX2                !
 ! R11   R(8,10)                 1.0885         estimate D2E/DX2                !
 ! R12   R(8,11)                 1.0884         estimate D2E/DX2                !
 ! R13   R(12,13)                1.4717         estimate D2E/DX2                !
 ! R14   R(13,14)                1.0892         estimate D2E/DX2                !
 ! R15   R(13,15)                1.0894         estimate D2E/DX2                !
 ! R16   R(13,16)                1.5266         estimate D2E/DX2                !
 ! R17   R(16,17)                1.0931         estimate D2E/DX2                !
 ! R18   R(16,18)                1.0921         estimate D2E/DX2                !
 ! R19   R(16,19)                1.5303         estimate D2E/DX2                !
 ! R20   R(19,20)                1.0952         estimate D2E/DX2                !
 ! R21   R(19,21)                1.0921         estimate D2E/DX2                !
 ! R22   R(19,22)                1.5361         estimate D2E/DX2                !
 ! R23   R(22,23)                1.2668         estimate D2E/DX2                !
 ! R24   R(22,24)                1.263          estimate D2E/DX2                !
 ! A1    A(2,1,4)              106.9938         estimate D2E/DX2                !
 ! A2    A(2,1,5)              131.2061         estimate D2E/DX2                !
 ! A3    A(4,1,5)              121.7998         estimate D2E/DX2                !
 ! A4    A(1,2,6)              131.1074         estimate D2E/DX2                !
 ! A5    A(1,2,12)             107.0744         estimate D2E/DX2                !
 ! A6    A(6,2,12)             121.818          estimate D2E/DX2                !
 ! A7    A(4,3,7)              125.6308         estimate D2E/DX2                !
 ! A8    A(4,3,12)             108.7231         estimate D2E/DX2                !
 ! A9    A(7,3,12)             125.645          estimate D2E/DX2                !
 ! A10   A(1,4,3)              108.6269         estimate D2E/DX2                !
 ! A11   A(1,4,8)              125.6803         estimate D2E/DX2                !
 ! A12   A(3,4,8)              125.6901         estimate D2E/DX2                !
 ! A13   A(4,8,9)              108.7154         estimate D2E/DX2                !
 ! A14   A(4,8,10)             109.1977         estimate D2E/DX2                !
 ! A15   A(4,8,11)             109.3743         estimate D2E/DX2                !
 ! A16   A(9,8,10)             109.7849         estimate D2E/DX2                !
 ! A17   A(9,8,11)             109.8945         estimate D2E/DX2                !
 ! A18   A(10,8,11)            109.8518         estimate D2E/DX2                !
 ! A19   A(2,12,3)             108.5732         estimate D2E/DX2                !
 ! A20   A(2,12,13)            125.6168         estimate D2E/DX2                !
 ! A21   A(3,12,13)            125.4915         estimate D2E/DX2                !
 ! A22   A(12,13,14)           106.8461         estimate D2E/DX2                !
 ! A23   A(12,13,15)           106.7852         estimate D2E/DX2                !
 ! A24   A(12,13,16)           112.9015         estimate D2E/DX2                !
 ! A25   A(14,13,15)           108.353          estimate D2E/DX2                !
 ! A26   A(14,13,16)           110.753          estimate D2E/DX2                !
 ! A27   A(15,13,16)           110.9703         estimate D2E/DX2                !
 ! A28   A(13,16,17)           106.0354         estimate D2E/DX2                !
 ! A29   A(13,16,18)           109.5885         estimate D2E/DX2                !
 ! A30   A(13,16,19)           114.261          estimate D2E/DX2                !
 ! A31   A(17,16,18)           107.0421         estimate D2E/DX2                !
 ! A32   A(17,16,19)           109.3082         estimate D2E/DX2                !
 ! A33   A(18,16,19)           110.283          estimate D2E/DX2                !
 ! A34   A(16,19,20)           108.6108         estimate D2E/DX2                !
 ! A35   A(16,19,21)           110.4244         estimate D2E/DX2                !
 ! A36   A(16,19,22)           116.1382         estimate D2E/DX2                !
 ! A37   A(20,19,21)           106.7739         estimate D2E/DX2                !
 ! A38   A(20,19,22)           105.307          estimate D2E/DX2                !
 ! A39   A(21,19,22)           109.0796         estimate D2E/DX2                !
 ! A40   A(19,22,23)           117.3015         estimate D2E/DX2                !
 ! A41   A(19,22,24)           118.0033         estimate D2E/DX2                !
 ! A42   A(23,22,24)           124.6442         estimate D2E/DX2                !
 ! D1    D(4,1,2,6)           -179.4721         estimate D2E/DX2                !
 ! D2    D(4,1,2,12)             0.3914         estimate D2E/DX2                !
 ! D3    D(5,1,2,6)              0.7565         estimate D2E/DX2                !
 ! D4    D(5,1,2,12)          -179.3801         estimate D2E/DX2                !
 ! D5    D(2,1,4,3)              0.1874         estimate D2E/DX2                !
 ! D6    D(2,1,4,8)            179.6141         estimate D2E/DX2                !
 ! D7    D(5,1,4,3)            179.985          estimate D2E/DX2                !
 ! D8    D(5,1,4,8)             -0.5883         estimate D2E/DX2                !
 ! D9    D(1,2,12,3)            -0.8363         estimate D2E/DX2                !
 ! D10   D(1,2,12,13)         -174.6303         estimate D2E/DX2                !
 ! D11   D(6,2,12,3)           179.0426         estimate D2E/DX2                !
 ! D12   D(6,2,12,13)            5.2486         estimate D2E/DX2                !
 ! D13   D(7,3,4,1)            179.6473         estimate D2E/DX2                !
 ! D14   D(7,3,4,8)              0.2206         estimate D2E/DX2                !
 ! D15   D(12,3,4,1)            -0.7163         estimate D2E/DX2                !
 ! D16   D(12,3,4,8)           179.8571         estimate D2E/DX2                !
 ! D17   D(4,3,12,2)             0.9633         estimate D2E/DX2                !
 ! D18   D(4,3,12,13)          174.767          estimate D2E/DX2                !
 ! D19   D(7,3,12,2)          -179.4002         estimate D2E/DX2                !
 ! D20   D(7,3,12,13)           -5.5966         estimate D2E/DX2                !
 ! D21   D(1,4,8,9)           -179.6443         estimate D2E/DX2                !
 ! D22   D(1,4,8,10)           -59.8826         estimate D2E/DX2                !
 ! D23   D(1,4,8,11)            60.3566         estimate D2E/DX2                !
 ! D24   D(3,4,8,9)             -0.3132         estimate D2E/DX2                !
 ! D25   D(3,4,8,10)           119.4484         estimate D2E/DX2                !
 ! D26   D(3,4,8,11)          -120.3123         estimate D2E/DX2                !
 ! D27   D(2,12,13,14)         -45.782          estimate D2E/DX2                !
 ! D28   D(2,12,13,15)        -161.565          estimate D2E/DX2                !
 ! D29   D(2,12,13,16)          76.2115         estimate D2E/DX2                !
 ! D30   D(3,12,13,14)         141.4483         estimate D2E/DX2                !
 ! D31   D(3,12,13,15)          25.6653         estimate D2E/DX2                !
 ! D32   D(3,12,13,16)         -96.5582         estimate D2E/DX2                !
 ! D33   D(12,13,16,17)       -175.1027         estimate D2E/DX2                !
 ! D34   D(12,13,16,18)        -59.8919         estimate D2E/DX2                !
 ! D35   D(12,13,16,19)         64.4397         estimate D2E/DX2                !
 ! D36   D(14,13,16,17)        -55.3337         estimate D2E/DX2                !
 ! D37   D(14,13,16,18)         59.8772         estimate D2E/DX2                !
 ! D38   D(14,13,16,19)       -175.7913         estimate D2E/DX2                !
 ! D39   D(15,13,16,17)         65.053          estimate D2E/DX2                !
 ! D40   D(15,13,16,18)       -179.7361         estimate D2E/DX2                !
 ! D41   D(15,13,16,19)        -55.4046         estimate D2E/DX2                !
 ! D42   D(13,16,19,20)        163.8068         estimate D2E/DX2                !
 ! D43   D(13,16,19,21)         47.041          estimate D2E/DX2                !
 ! D44   D(13,16,19,22)        -77.7987         estimate D2E/DX2                !
 ! D45   D(17,16,19,20)         45.1898         estimate D2E/DX2                !
 ! D46   D(17,16,19,21)        -71.5761         estimate D2E/DX2                !
 ! D47   D(17,16,19,22)        163.5842         estimate D2E/DX2                !
 ! D48   D(18,16,19,20)        -72.233          estimate D2E/DX2                !
 ! D49   D(18,16,19,21)        171.0011         estimate D2E/DX2                !
 ! D50   D(18,16,19,22)         46.1614         estimate D2E/DX2                !
 ! D51   D(16,19,22,23)        144.1506         estimate D2E/DX2                !
 ! D52   D(16,19,22,24)        -38.3241         estimate D2E/DX2                !
 ! D53   D(20,19,22,23)        -95.6588         estimate D2E/DX2                !
 ! D54   D(20,19,22,24)         81.8665         estimate D2E/DX2                !
 ! D55   D(21,19,22,23)         18.6259         estimate D2E/DX2                !
 ! D56   D(21,19,22,24)       -163.8488         estimate D2E/DX2                !
 --------------------------------------------------------------------------------
 Trust Radius=3.00D-01 FncErr=1.00D-07 GrdErr=1.00D-06 EigMax=2.50D+02 EigMin=1.00D-04
 Number of steps in this run=    132 maximum allowed number of steps=    144.
 GradGradGradGradGradGradGradGradGradGradGradGradGradGradGradGradGradGrad

 Leave Link  103 at Wed Oct 11 21:06:17 2023, MaxMem=  6710886400 cpu:               0.2 elap:               0.0
 (Enter /data0/home/software/g16/l202.exe)
                          Input orientation:                          
 ---------------------------------------------------------------------
 Center     Atomic      Atomic             Coordinates (Angstroms)
 Number     Number       Type             X           Y           Z
 ---------------------------------------------------------------------
      1          6           0        2.017173   -0.609161    1.008278
      2          6           0        0.938708   -1.430799    0.952819
      3          6           0        1.002192   -0.268056   -0.917735
      4          7           0        2.039930    0.107312   -0.172299
      5          1           0        2.764971   -0.471565    1.769469
      6          1           0        0.555266   -2.143434    1.661635
      7          1           0        0.755547    0.121045   -1.890487
      8          6           0        3.030356    1.118917   -0.536829
      9          1           0        2.783089    1.510700   -1.520082
     10          1           0        3.007428    1.922880    0.196564
     11          1           0        4.019392    0.665103   -0.556963
     12          7           0        0.323957   -1.211082   -0.263261
     13          6           0       -0.948437   -1.807519   -0.700571
     14          1           0       -0.901656   -2.867293   -0.453563
     15          1           0       -0.985664   -1.709353   -1.784909
     16          6           0       -2.165347   -1.153824   -0.050712
     17          1           0       -3.031534   -1.733263   -0.380552
     18          1           0       -2.102860   -1.261083    1.034261
     19          6           0       -2.366194    0.315603   -0.427823
     20          1           0       -3.387907    0.607905   -0.163017
     21          1           0       -2.270165    0.448524   -1.507507
     22          6           0       -1.457110    1.327644    0.285495
     23          8           0       -1.064924    2.329073   -0.383908
     24          8           0       -1.192720    1.130852    1.504723
 ---------------------------------------------------------------------
                    Distance matrix (angstroms):
                    1          2          3          4          5
     1  C    0.000000
     2  C    1.356927   0.000000
     3  C    2.203648   2.203401   0.000000
     4  N    1.381164   2.200992   1.331719   0.000000
     5  H    1.075893   2.218622   3.220228   2.152033   0.000000
     6  H    2.217666   1.075777   3.220238   3.260889   2.773007
     7  H    3.244648   3.244404   1.076327   2.145227   4.217138
     8  C    2.529852   3.618714   2.486410   1.461906   2.814085
     9  H    3.387188   4.262558   2.588125   2.082859   3.840683
    10  H    2.837378   4.012317   3.172197   2.090072   2.875097
    11  H    2.842993   4.020306   3.178748   2.092216   2.877129
    12  N    2.201386   1.380234   1.333281   2.165872   3.261507
    13  C    3.626440   2.537111   2.494406   3.588312   4.655671
    14  H    3.969345   2.725503   3.255169   4.192888   4.911775
    15  H    4.246098   3.357969   2.604016   3.880078   5.313472
    16  C    4.348746   3.273980   3.401414   4.391993   5.299677
    17  H    5.355548   4.199069   4.325083   5.399151   6.309829
    18  H    4.171373   3.047388   3.799702   4.526699   4.985945
    19  C    4.704411   3.984780   3.453505   4.418439   5.637072
    20  H    5.662868   4.911314   4.539810   5.450880   6.538935
    21  H    5.082238   4.458915   3.401417   4.525055   6.077642
    22  C    4.042805   3.714064   3.168941   3.732034   4.823412
    23  O    4.480036   4.465201   3.361996   3.823757   5.210442
    24  O    3.684768   3.377816   3.555683   3.782864   4.277984
                    6          7          8          9         10
     6  H    0.000000
     7  H    4.217292   0.000000
     8  C    4.647822   2.828939   0.000000
     9  H    5.332843   2.485813   1.086932   0.000000
    10  H    4.969350   3.559966   1.088461   1.779633   0.000000
    11  H    4.980986   3.567488   1.088368   1.780752   1.781538
    12  N    2.151281   2.146788   3.581666   3.877503   4.151406
    13  C    2.820280   2.835281   4.941825   5.060283   5.510862
    14  H    2.668456   3.706917   5.599779   5.820793   6.216861
    15  H    3.800205   2.528501   5.068060   4.964109   5.750142
    16  C    3.363509   3.679903   5.691835   5.809110   6.023691
    17  H    4.147759   4.478878   6.701184   6.755121   7.083044
    18  H    2.870152   4.316818   5.872191   6.170895   6.079013
    19  C    4.352887   3.452898   5.457101   5.397815   5.643493
    20  H    5.142746   4.515462   6.449416   6.382621   6.539019
    21  H    4.974411   3.067385   5.430209   5.163696   5.738516
    22  C    4.241674   3.329659   4.566961   4.612256   4.504921
    23  O    5.178087   3.234081   4.273076   4.094854   4.133520
    24  O    3.714973   4.042636   4.690677   5.010069   4.469880
                   11         12         13         14         15
    11  H    0.000000
    12  N    4.154825   0.000000
    13  C    5.551019   1.471721   0.000000
    14  H    6.058484   2.069149   1.089184   0.000000
    15  H    5.674194   2.068525   1.089409   1.766455   0.000000
    16  C    6.466512   2.499018   1.526599   2.166836   2.169724
    17  H    7.449754   3.397904   2.108843   2.414070   2.481607
    18  H    6.612424   2.752363   2.154281   2.497283   3.065419
    19  C    6.396447   3.097541   2.567503   3.503764   2.801427
    20  H    7.417988   4.134815   3.474802   4.282857   3.710928
    21  H    6.364666   3.321432   2.736392   3.738751   2.526525
    22  C    5.580392   3.149359   3.325706   4.295606   3.705696
    23  O    5.352477   3.804766   4.150330   5.199397   4.275274
    24  O    5.624374   3.303140   3.681986   4.461476   4.351013
                   16         17         18         19         20
    16  C    0.000000
    17  H    1.093080   0.000000
    18  H    1.092051   1.757010   0.000000
    19  C    1.530284   2.154707   2.166327   0.000000
    20  H    2.147313   2.378107   2.564749   1.095199   0.000000
    21  H    2.168123   2.570974   3.067789   1.092066   1.755677
    22  C    2.602368   3.505935   2.771128   1.536061   2.108830
    23  O    3.667768   4.513329   3.997216   2.397768   2.899562
    24  O    2.930039   3.890842   2.602123   2.403416   2.806007
                   21         22         23         24
    21  H    0.000000
    22  C    2.156100   0.000000
    23  O    2.500309   1.266795   0.000000
    24  O    3.271084   1.262991   2.240311   0.000000
 Stoichiometry    C8H12N2O2
 Framework group  C1[X(C8H12N2O2)]
 Deg. of freedom    66
 Full point group                 C1      NOp   1
 Largest Abelian subgroup         C1      NOp   1
 Largest concise Abelian subgroup C1      NOp   1
                         Standard orientation:                         
 ---------------------------------------------------------------------
 Center     Atomic      Atomic             Coordinates (Angstroms)
 Number     Number       Type             X           Y           Z
 ---------------------------------------------------------------------
      1          6           0        2.017173   -0.609161    1.008278
      2          6           0        0.938708   -1.430799    0.952819
      3          6           0        1.002192   -0.268056   -0.917735
      4          7           0        2.039930    0.107312   -0.172299
      5          1           0        2.764971   -0.471565    1.769469
      6          1           0        0.555266   -2.143434    1.661635
      7          1           0        0.755547    0.121045   -1.890487
      8          6           0        3.030356    1.118917   -0.536829
      9          1           0        2.783089    1.510700   -1.520082
     10          1           0        3.007428    1.922880    0.196564
     11          1           0        4.019392    0.665103   -0.556963
     12          7           0        0.323957   -1.211082   -0.263261
     13          6           0       -0.948437   -1.807519   -0.700571
     14          1           0       -0.901656   -2.867293   -0.453563
     15          1           0       -0.985664   -1.709353   -1.784909
     16          6           0       -2.165347   -1.153824   -0.050712
     17          1           0       -3.031534   -1.733263   -0.380552
     18          1           0       -2.102860   -1.261083    1.034261
     19          6           0       -2.366194    0.315603   -0.427823
     20          1           0       -3.387907    0.607905   -0.163017
     21          1           0       -2.270165    0.448524   -1.507507
     22          6           0       -1.457110    1.327644    0.285495
     23          8           0       -1.064924    2.329073   -0.383908
     24          8           0       -1.192720    1.130852    1.504723
 ---------------------------------------------------------------------
 Rotational constants (GHZ):           1.3256143           0.8120507           0.6363574
 Leave Link  202 at Wed Oct 11 21:06:17 2023, MaxMem=  6710886400 cpu:               0.1 elap:               0.0
 (Enter /data0/home/software/g16/l301.exe)
 Standard basis: 6-311+G(2d,p) (5D, 7F)
 Ernie: Thresh=  0.10000D-02 Tol=  0.10000D-05 Strict=F.
 There are   420 symmetry adapted cartesian basis functions of A   symmetry.
 There are   396 symmetry adapted basis functions of A   symmetry.
   396 basis functions,   600 primitive gaussians,   420 cartesian basis functions
    45 alpha electrons       45 beta electrons
       nuclear repulsion energy       736.2560221224 Hartrees.
 IExCor=  402 DFT=T Ex+Corr=B3LYP ExCW=0 ScaHFX=  0.200000
 ScaDFX=  0.800000  0.720000  1.000000  0.810000 ScalE2=  1.000000  1.000000
 IRadAn=      5 IRanWt=     -1 IRanGd=            0 ICorTp=0 IEmpDi=141
 NAtoms=   24 NActive=   24 NUniq=   24 SFac= 1.00D+00 NAtFMM=   60 NAOKFM=F Big=F
 Integral buffers will be    131072 words long.
 Raffenetti 2 integral format.
 Two-electron integral symmetry is turned on.
 R6Disp:  Grimme-D3(BJ) Dispersion energy=       -0.0428557728 Hartrees.
 Nuclear repulsion after empirical dispersion term =      736.2131663495 Hartrees.
 ------------------------------------------------------------------------------
 Polarizable Continuum Model (PCM)
 =================================
 Model                : PCM.
 Atomic radii         : SMD-Coulomb.
 Polarization charges : Total charges.
 Charge compensation  : None.
 Solution method      : On-the-fly selection.
 Cavity type          : VdW (van der Waals Surface) (Alpha=1.000).
 Cavity algorithm     : GePol (No added spheres)
                        Default sphere list used, NSphG=   24.
                        Lebedev-Laikov grids with approx.  5.0 points / Ang**2.
                        Smoothing algorithm: York/Karplus (Gamma=1.0000).
                        Polarization charges: spherical gaussians, with
                                              point-specific exponents (IZeta= 3).
                        Self-potential: point-specific (ISelfS= 7).
                        Self-field    : sphere-specific E.n sum rule (ISelfD= 2).
 1st derivatives      : Analytical E(r).r(x)/FMM algorithm (CHGder, D1EAlg=3).
                        Cavity 1st derivative terms included.
 Solvent              : Water, Eps=  78.355300 Eps(inf)=   1.777849
 ------------------------------------------------------------------------------
 GePol: Number of generator spheres                  =      24
 GePol: Total number of spheres                      =      24
 GePol: Number of exposed spheres                    =      24 (100.00%)
 GePol: Number of points                             =    1754
 GePol: Average weight of points                     =       0.11
 GePol: Minimum weight of points                     =   0.30D-08
 GePol: Maximum weight of points                     =    0.21991
 GePol: Number of points with low weight             =     116
 GePol: Fraction of low-weight points (<1% of avg)   =       6.61%
 GePol: Cavity surface area                          =    201.118 Ang**2
 GePol: Cavity volume                                =    172.683 Ang**3
 ------------------------------------------------------------------------------
 Atomic radii for non-electrostatic terms: SMD-CDS.
 ------------------------------------------------------------------------------
 PCM non-electrostatic energy =         0.0099353077 Hartrees.
 Nuclear repulsion after PCM non-electrostatic terms =      736.2231016573 Hartrees.
 Leave Link  301 at Wed Oct 11 21:06:17 2023, MaxMem=  6710886400 cpu:               1.7 elap:               0.1
 (Enter /data0/home/software/g16/l302.exe)
 NPDir=0 NMtPBC=     1 NCelOv=     1 NCel=       1 NClECP=     1 NCelD=      1
         NCelK=      1 NCelE2=     1 NClLst=     1 CellRange=     0.0.
 One-electron integrals computed using PRISM.
 One-electron integral symmetry used in STVInt
 NBasis=   396 RedAO= T EigKep=  1.27D-05  NBF=   396
 NBsUse=   396 1.00D-06 EigRej= -1.00D+00 NBFU=   396
 Precomputing XC quadrature grid using
 IXCGrd= 4 IRadAn=           5 IRanWt=          -1 IRanGd=           0 AccXCQ= 0.00D+00.
 Generated NRdTot=       0 NPtTot=           0 NUsed=           0 NTot=          32
 NSgBfM=   420   420   420   420   420 MxSgAt=    24 MxSgA2=    24.
 Leave Link  302 at Wed Oct 11 21:06:17 2023, MaxMem=  6710886400 cpu:               7.1 elap:               0.3
 (Enter /data0/home/software/g16/l303.exe)
 DipDrv:  MaxL=1.
 Leave Link  303 at Wed Oct 11 21:06:18 2023, MaxMem=  6710886400 cpu:               0.9 elap:               0.1
 (Enter /data0/home/software/g16/l401.exe)
 ExpMin= 4.38D-02 ExpMax= 8.59D+03 ExpMxC= 1.30D+03 IAcc=3 IRadAn=         5 AccDes= 0.00D+00
 Harris functional with IExCor=  402 and IRadAn=       5 diagonalized for initial guess.
 HarFok:  IExCor=  402 AccDes= 0.00D+00 IRadAn=         5 IDoV= 1 UseB2=F ITyADJ=14
 ICtDFT=  3500011 ScaDFX=  1.000000  1.000000  1.000000  1.000000
 FoFCou: FMM=F IPFlag=           0 FMFlag=      100000 FMFlg1=           0
         NFxFlg=           0 DoJE=T BraDBF=F KetDBF=T FulRan=T
         wScrn=  0.000000 ICntrl=       500 IOpCl=  0 I1Cent=   200000004 NGrid=           0
         NMat0=    1 NMatS0=      1 NMatT0=    0 NMatD0=    1 NMtDS0=    0 NMtDT0=    0
 Petite list used in FoFCou.
 Harris En= -572.284545444631    
 JPrj=0 DoOrth=F DoCkMO=F.
 Leave Link  401 at Wed Oct 11 21:06:19 2023, MaxMem=  6710886400 cpu:              29.5 elap:               1.3
 (Enter /data0/home/software/g16/l502.exe)
 Integral symmetry usage will be decided dynamically.
 Closed shell SCF:
 Using DIIS extrapolation, IDIIS=  1040.
 NGot=  6710886400 LenX=  6710519556 LenY=  6710342715
 Requested convergence on RMS density matrix=1.00D-08 within 128 cycles.
 Requested convergence on MAX density matrix=1.00D-06.
 Requested convergence on             energy=1.00D-06.
 No special actions if energy rises.
 Fock matrices will be formed incrementally for  20 cycles.

 Cycle   1  Pass 1  IDiag  1:
 FoFJK:  IHMeth= 1 ICntrl=       0 DoSepK=F KAlg= 0 I1Cent=           0 FoldK=F
 IRaf= 930000000 NMat=       1 IRICut=       1 DoRegI=T DoRafI=F ISym2E= 0 IDoP0=0 IntGTp=1.
 FoFCou: FMM=F IPFlag=           0 FMFlag=      100000 FMFlg1=           0
         NFxFlg=           0 DoJE=F BraDBF=F KetDBF=F FulRan=T
         wScrn=  0.000000 ICntrl=         0 IOpCl=  0 I1Cent=           0 NGrid=           0
         NMat0=    1 NMatS0=      1 NMatT0=    0 NMatD0=    1 NMtDS0=    0 NMtDT0=    0
 Symmetry not used in FoFCou.
 Inv3:  Mode=1 IEnd=     9229548.
 Iteration    1 A*A^-1 deviation from unit magnitude is 4.22D-15 for   1743.
 Iteration    1 A*A^-1 deviation from orthogonality  is 1.96D-15 for   1724   1361.
 Iteration    1 A^-1*A deviation from unit magnitude is 4.22D-15 for   1743.
 Iteration    1 A^-1*A deviation from orthogonality  is 1.89D-15 for   1754   1312.
 E= -571.950596829529    
 DIIS: error= 2.52D-02 at cycle   1 NSaved=   1.
 NSaved= 1 IEnMin= 1 EnMin= -571.950596829529     IErMin= 1 ErrMin= 2.52D-02
 ErrMax= 2.52D-02  0.00D+00 EMaxC= 1.00D-01 BMatC= 4.30D-01 BMatP= 4.30D-01
 IDIUse=3 WtCom= 7.48D-01 WtEn= 2.52D-01
 Coeff-Com:  0.100D+01
 Coeff-En:   0.100D+01
 Coeff:      0.100D+01
 Gap=     0.235 Goal=   None    Shift=    0.000
 GapD=    0.235 DampG=1.000 DampE=0.500 DampFc=0.5000 IDamp=-1.
 Damping current iteration by 5.00D-01
 RMSDP=6.00D-03 MaxDP=5.16D-01              OVMax= 2.73D-01

 Cycle   2  Pass 1  IDiag  1:
 RMSU=  2.96D-03    CP:  9.51D-01
 E= -572.062417437869     Delta-E=       -0.111820608340 Rises=F Damp=T
 DIIS: error= 8.86D-03 at cycle   2 NSaved=   2.
 NSaved= 2 IEnMin= 2 EnMin= -572.062417437869     IErMin= 2 ErrMin= 8.86D-03
 ErrMax= 8.86D-03  0.00D+00 EMaxC= 1.00D-01 BMatC= 4.29D-02 BMatP= 4.30D-01
 IDIUse=3 WtCom= 9.11D-01 WtEn= 8.86D-02
 Coeff-Com:  0.159D+00 0.841D+00
 Coeff-En:   0.279D+00 0.721D+00
 Coeff:      0.169D+00 0.831D+00
 Gap=     0.240 Goal=   None    Shift=    0.000
 RMSDP=2.62D-03 MaxDP=4.20D-01 DE=-1.12D-01 OVMax= 1.79D-01

 Cycle   3  Pass 1  IDiag  1:
 RMSU=  1.88D-03    CP:  9.00D-01  4.08D-01
 E= -572.266708350764     Delta-E=       -0.204290912895 Rises=F Damp=F
 DIIS: error= 6.53D-03 at cycle   3 NSaved=   3.
 NSaved= 3 IEnMin= 3 EnMin= -572.266708350764     IErMin= 3 ErrMin= 6.53D-03
 ErrMax= 6.53D-03  0.00D+00 EMaxC= 1.00D-01 BMatC= 2.18D-02 BMatP= 4.29D-02
 IDIUse=3 WtCom= 9.35D-01 WtEn= 6.53D-02
 Coeff-Com:  0.619D-02 0.407D+00 0.587D+00
 Coeff-En:   0.000D+00 0.000D+00 0.100D+01
 Coeff:      0.579D-02 0.380D+00 0.614D+00
 Gap=     0.246 Goal=   None    Shift=    0.000
 RMSDP=4.38D-04 MaxDP=2.40D-02 DE=-2.04D-01 OVMax= 3.55D-02

 Cycle   4  Pass 1  IDiag  1:
 RMSU=  4.33D-04    CP:  8.95D-01  4.24D-01  1.01D+00
 E= -572.280135254095     Delta-E=       -0.013426903331 Rises=F Damp=F
 DIIS: error= 1.83D-03 at cycle   4 NSaved=   4.
 NSaved= 4 IEnMin= 4 EnMin= -572.280135254095     IErMin= 4 ErrMin= 1.83D-03
 ErrMax= 1.83D-03  0.00D+00 EMaxC= 1.00D-01 BMatC= 3.33D-03 BMatP= 2.18D-02
 IDIUse=3 WtCom= 9.82D-01 WtEn= 1.83D-02
 Coeff-Com: -0.160D-01 0.103D+00 0.325D+00 0.588D+00
 Coeff-En:   0.000D+00 0.000D+00 0.129D+00 0.871D+00
 Coeff:     -0.157D-01 0.101D+00 0.321D+00 0.594D+00
 Gap=     0.222 Goal=   None    Shift=    0.000
 RMSDP=1.69D-04 MaxDP=1.15D-02 DE=-1.34D-02 OVMax= 1.13D-02

 Cycle   5  Pass 1  IDiag  1:
 RMSU=  1.17D-04    CP:  8.91D-01  4.25D-01  1.03D+00  7.57D-01
 E= -572.283006203639     Delta-E=       -0.002870949544 Rises=F Damp=F
 DIIS: error= 3.07D-04 at cycle   5 NSaved=   5.
 NSaved= 5 IEnMin= 5 EnMin= -572.283006203639     IErMin= 5 ErrMin= 3.07D-04
 ErrMax= 3.07D-04  0.00D+00 EMaxC= 1.00D-01 BMatC= 1.05D-04 BMatP= 3.33D-03
 IDIUse=3 WtCom= 9.97D-01 WtEn= 3.07D-03
 Coeff-Com: -0.787D-02 0.205D-01 0.963D-01 0.245D+00 0.646D+00
 Coeff-En:   0.000D+00 0.000D+00 0.000D+00 0.000D+00 0.100D+01
 Coeff:     -0.785D-02 0.205D-01 0.960D-01 0.244D+00 0.647D+00
 Gap=     0.224 Goal=   None    Shift=    0.000
 RMSDP=3.87D-05 MaxDP=1.53D-03 DE=-2.87D-03 OVMax= 2.13D-03

 Cycle   6  Pass 1  IDiag  1:
 RMSU=  3.13D-05    CP:  8.90D-01  4.22D-01  1.04D+00  7.93D-01  9.03D-01
 E= -572.283091379464     Delta-E=       -0.000085175825 Rises=F Damp=F
 DIIS: error= 1.19D-04 at cycle   6 NSaved=   6.
 NSaved= 6 IEnMin= 6 EnMin= -572.283091379464     IErMin= 6 ErrMin= 1.19D-04
 ErrMax= 1.19D-04  0.00D+00 EMaxC= 1.00D-01 BMatC= 9.91D-06 BMatP= 1.05D-04
 IDIUse=3 WtCom= 9.99D-01 WtEn= 1.19D-03
 Coeff-Com: -0.258D-02 0.453D-02 0.274D-01 0.812D-01 0.318D+00 0.571D+00
 Coeff-En:   0.000D+00 0.000D+00 0.000D+00 0.000D+00 0.000D+00 0.100D+01
 Coeff:     -0.258D-02 0.452D-02 0.273D-01 0.811D-01 0.318D+00 0.572D+00
 Gap=     0.224 Goal=   None    Shift=    0.000
 RMSDP=9.23D-06 MaxDP=3.94D-04 DE=-8.52D-05 OVMax= 1.01D-03

 Cycle   7  Pass 1  IDiag  1:
 RMSU=  8.45D-06    CP:  8.91D-01  4.21D-01  1.04D+00  7.97D-01  9.06D-01
                    CP:  9.38D-01
 E= -572.283100139592     Delta-E=       -0.000008760128 Rises=F Damp=F
 DIIS: error= 3.24D-05 at cycle   7 NSaved=   7.
 NSaved= 7 IEnMin= 7 EnMin= -572.283100139592     IErMin= 7 ErrMin= 3.24D-05
 ErrMax= 3.24D-05  0.00D+00 EMaxC= 1.00D-01 BMatC= 1.06D-06 BMatP= 9.91D-06
 IDIUse=1 WtCom= 1.00D+00 WtEn= 0.00D+00
 Coeff-Com: -0.709D-03 0.535D-03 0.720D-02 0.244D-01 0.121D+00 0.301D+00
 Coeff-Com:  0.547D+00
 Coeff:     -0.709D-03 0.535D-03 0.720D-02 0.244D-01 0.121D+00 0.301D+00
 Coeff:      0.547D+00
 Gap=     0.224 Goal=   None    Shift=    0.000
 RMSDP=2.74D-06 MaxDP=1.67D-04 DE=-8.76D-06 OVMax= 3.74D-04

 Cycle   8  Pass 1  IDiag  1:
 RMSU=  2.48D-06    CP:  8.90D-01  4.21D-01  1.04D+00  7.98D-01  9.13D-01
                    CP:  9.49D-01  9.90D-01
 E= -572.283100936353     Delta-E=       -0.000000796761 Rises=F Damp=F
 DIIS: error= 1.31D-05 at cycle   8 NSaved=   8.
 NSaved= 8 IEnMin= 8 EnMin= -572.283100936353     IErMin= 8 ErrMin= 1.31D-05
 ErrMax= 1.31D-05  0.00D+00 EMaxC= 1.00D-01 BMatC= 1.47D-07 BMatP= 1.06D-06
 IDIUse=1 WtCom= 1.00D+00 WtEn= 0.00D+00
 Coeff-Com: -0.150D-04-0.312D-03 0.508D-03 0.274D-02 0.237D-01 0.854D-01
 Coeff-Com:  0.304D+00 0.584D+00
 Coeff:     -0.150D-04-0.312D-03 0.508D-03 0.274D-02 0.237D-01 0.854D-01
 Coeff:      0.304D+00 0.584D+00
 Gap=     0.224 Goal=   None    Shift=    0.000
 RMSDP=1.18D-06 MaxDP=6.53D-05 DE=-7.97D-07 OVMax= 1.31D-04

 Cycle   9  Pass 1  IDiag  1:
 RMSU=  7.48D-07    CP:  8.90D-01  4.21D-01  1.04D+00  7.98D-01  9.16D-01
                    CP:  9.65D-01  1.03D+00  8.79D-01
 E= -572.283101048100     Delta-E=       -0.000000111747 Rises=F Damp=F
 DIIS: error= 4.49D-06 at cycle   9 NSaved=   9.
 NSaved= 9 IEnMin= 9 EnMin= -572.283101048100     IErMin= 9 ErrMin= 4.49D-06
 ErrMax= 4.49D-06  0.00D+00 EMaxC= 1.00D-01 BMatC= 1.70D-08 BMatP= 1.47D-07
 IDIUse=1 WtCom= 1.00D+00 WtEn= 0.00D+00
 Coeff-Com:  0.561D-04-0.203D-03-0.252D-03-0.374D-03 0.397D-02 0.252D-01
 Coeff-Com:  0.130D+00 0.338D+00 0.504D+00
 Coeff:      0.561D-04-0.203D-03-0.252D-03-0.374D-03 0.397D-02 0.252D-01
 Coeff:      0.130D+00 0.338D+00 0.504D+00
 Gap=     0.224 Goal=   None    Shift=    0.000
 RMSDP=4.45D-07 MaxDP=2.14D-05 DE=-1.12D-07 OVMax= 4.35D-05

 Cycle  10  Pass 1  IDiag  1:
 RMSU=  2.82D-07    CP:  8.90D-01  4.21D-01  1.04D+00  7.98D-01  9.16D-01
                    CP:  9.71D-01  1.05D+00  9.10D-01  8.52D-01
 E= -572.283101062299     Delta-E=       -0.000000014199 Rises=F Damp=F
 DIIS: error= 9.89D-07 at cycle  10 NSaved=  10.
 NSaved=10 IEnMin=10 EnMin= -572.283101062299     IErMin=10 ErrMin= 9.89D-07
 ErrMax= 9.89D-07  0.00D+00 EMaxC= 1.00D-01 BMatC= 9.21D-10 BMatP= 1.70D-08
 IDIUse=1 WtCom= 1.00D+00 WtEn= 0.00D+00
 Coeff-Com:  0.252D-04-0.627D-04-0.159D-03-0.434D-03-0.798D-03 0.155D-02
 Coeff-Com:  0.221D-01 0.842D-01 0.236D+00 0.658D+00
 Coeff:      0.252D-04-0.627D-04-0.159D-03-0.434D-03-0.798D-03 0.155D-02
 Coeff:      0.221D-01 0.842D-01 0.236D+00 0.658D+00
 Gap=     0.224 Goal=   None    Shift=    0.000
 RMSDP=1.16D-07 MaxDP=7.13D-06 DE=-1.42D-08 OVMax= 7.20D-06

 Cycle  11  Pass 1  IDiag  1:
 RMSU=  6.93D-08    CP:  8.90D-01  4.21D-01  1.04D+00  7.98D-01  9.16D-01
                    CP:  9.72D-01  1.05D+00  9.24D-01  8.93D-01  9.49D-01
 E= -572.283101063071     Delta-E=       -0.000000000772 Rises=F Damp=F
 DIIS: error= 2.82D-07 at cycle  11 NSaved=  11.
 NSaved=11 IEnMin=11 EnMin= -572.283101063071     IErMin=11 ErrMin= 2.82D-07
 ErrMax= 2.82D-07  0.00D+00 EMaxC= 1.00D-01 BMatC= 5.19D-11 BMatP= 9.21D-10
 IDIUse=1 WtCom= 1.00D+00 WtEn= 0.00D+00
 Coeff-Com:  0.652D-05-0.156D-04-0.535D-04-0.149D-03-0.441D-03-0.418D-03
 Coeff-Com:  0.265D-02 0.178D-01 0.725D-01 0.268D+00 0.640D+00
 Coeff:      0.652D-05-0.156D-04-0.535D-04-0.149D-03-0.441D-03-0.418D-03
 Coeff:      0.265D-02 0.178D-01 0.725D-01 0.268D+00 0.640D+00
 Gap=     0.224 Goal=   None    Shift=    0.000
 RMSDP=3.13D-08 MaxDP=1.82D-06 DE=-7.72D-10 OVMax= 3.42D-06

 Cycle  12  Pass 1  IDiag  1:
 RMSU=  2.52D-08    CP:  8.90D-01  4.21D-01  1.04D+00  7.98D-01  9.16D-01
                    CP:  9.72D-01  1.05D+00  9.27D-01  9.02D-01  9.77D-01
                    CP:  9.50D-01
 E= -572.283101063093     Delta-E=       -0.000000000022 Rises=F Damp=F
 DIIS: error= 2.60D-07 at cycle  12 NSaved=  12.
 NSaved=12 IEnMin=12 EnMin= -572.283101063093     IErMin=12 ErrMin= 2.60D-07
 ErrMax= 2.60D-07  0.00D+00 EMaxC= 1.00D-01 BMatC= 3.26D-11 BMatP= 5.19D-11
 IDIUse=1 WtCom= 1.00D+00 WtEn= 0.00D+00
 Coeff-Com: -0.104D-06 0.699D-06-0.110D-04-0.315D-04-0.186D-03-0.640D-03
 Coeff-Com: -0.228D-02-0.269D-02 0.855D-02 0.667D-01 0.455D+00 0.476D+00
 Coeff:     -0.104D-06 0.699D-06-0.110D-04-0.315D-04-0.186D-03-0.640D-03
 Coeff:     -0.228D-02-0.269D-02 0.855D-02 0.667D-01 0.455D+00 0.476D+00
 Gap=     0.224 Goal=   None    Shift=    0.000
 RMSDP=1.48D-08 MaxDP=7.76D-07 DE=-2.18D-11 OVMax= 1.54D-06

 Cycle  13  Pass 1  IDiag  1:
 RMSU=  9.13D-09    CP:  8.90D-01  4.21D-01  1.04D+00  7.98D-01  9.16D-01
                    CP:  9.72D-01  1.06D+00  9.28D-01  9.07D-01  9.85D-01
                    CP:  1.02D+00  6.97D-01
 E= -572.283101063132     Delta-E=       -0.000000000039 Rises=F Damp=F
 DIIS: error= 3.18D-08 at cycle  13 NSaved=  13.
 NSaved=13 IEnMin=13 EnMin= -572.283101063132     IErMin=13 ErrMin= 3.18D-08
 ErrMax= 3.18D-08  0.00D+00 EMaxC= 1.00D-01 BMatC= 1.26D-12 BMatP= 3.26D-11
 IDIUse=1 WtCom= 1.00D+00 WtEn= 0.00D+00
 Coeff-Com: -0.626D-06 0.186D-05-0.215D-05-0.648D-05-0.709D-04-0.339D-03
 Coeff-Com: -0.149D-02-0.289D-02-0.168D-02 0.109D-01 0.181D+00 0.240D+00
 Coeff-Com:  0.574D+00
 Coeff:     -0.626D-06 0.186D-05-0.215D-05-0.648D-05-0.709D-04-0.339D-03
 Coeff:     -0.149D-02-0.289D-02-0.168D-02 0.109D-01 0.181D+00 0.240D+00
 Coeff:      0.574D+00
 Gap=     0.224 Goal=   None    Shift=    0.000
 RMSDP=3.98D-09 MaxDP=2.51D-07 DE=-3.89D-11 OVMax= 2.47D-07

 Error on total polarization charges =  0.06062
 SCF Done:  E(RB3LYP) =  -572.283101063     A.U. after   13 cycles
            NFock= 13  Conv=0.40D-08     -V/T= 2.0042
 KE= 5.698684546824D+02 PE=-2.808289265872D+03 EE= 9.299146084695D+02
 SMD-CDS (non-electrostatic) energy       (kcal/mol) =       6.23
 (included in total energy above)
 Leave Link  502 at Wed Oct 11 21:07:01 2023, MaxMem=  6710886400 cpu:             988.7 elap:              41.9
 (Enter /data0/home/software/g16/l601.exe)
 Copying SCF densities to generalized density rwf, IOpCl= 0 IROHF=0.

 **********************************************************************

            Population analysis using the SCF density.

 **********************************************************************

 Orbital symmetries:
       Occupied  (A) (A) (A) (A) (A) (A) (A) (A) (A) (A) (A) (A)
                 (A) (A) (A) (A) (A) (A) (A) (A) (A) (A) (A) (A)
                 (A) (A) (A) (A) (A) (A) (A) (A) (A) (A) (A) (A)
                 (A) (A) (A) (A) (A) (A) (A) (A) (A)
       Virtual   (A) (A) (A) (A) (A) (A) (A) (A) (A) (A) (A) (A)
                 (A) (A) (A) (A) (A) (A) (A) (A) (A) (A) (A) (A)
                 (A) (A) (A) (A) (A) (A) (A) (A) (A) (A) (A) (A)
                 (A) (A) (A) (A) (A) (A) (A) (A) (A) (A) (A) (A)
                 (A) (A) (A) (A) (A) (A) (A) (A) (A) (A) (A) (A)
                 (A) (A) (A) (A) (A) (A) (A) (A) (A) (A) (A) (A)
                 (A) (A) (A) (A) (A) (A) (A) (A) (A) (A) (A) (A)
                 (A) (A) (A) (A) (A) (A) (A) (A) (A) (A) (A) (A)
                 (A) (A) (A) (A) (A) (A) (A) (A) (A) (A) (A) (A)
                 (A) (A) (A) (A) (A) (A) (A) (A) (A) (A) (A) (A)
                 (A) (A) (A) (A) (A) (A) (A) (A) (A) (A) (A) (A)
                 (A) (A) (A) (A) (A) (A) (A) (A) (A) (A) (A) (A)
                 (A) (A) (A) (A) (A) (A) (A) (A) (A) (A) (A) (A)
                 (A) (A) (A) (A) (A) (A) (A) (A) (A) (A) (A) (A)
                 (A) (A) (A) (A) (A) (A) (A) (A) (A) (A) (A) (A)
                 (A) (A) (A) (A) (A) (A) (A) (A) (A) (A) (A) (A)
                 (A) (A) (A) (A) (A) (A) (A) (A) (A) (A) (A) (A)
                 (A) (A) (A) (A) (A) (A) (A) (A) (A) (A) (A) (A)
                 (A) (A) (A) (A) (A) (A) (A) (A) (A) (A) (A) (A)
                 (A) (A) (A) (A) (A) (A) (A) (A) (A) (A) (A) (A)
                 (A) (A) (A) (A) (A) (A) (A) (A) (A) (A) (A) (A)
                 (A) (A) (A) (A) (A) (A) (A) (A) (A) (A) (A) (A)
                 (A) (A) (A) (A) (A) (A) (A) (A) (A) (A) (A) (A)
                 (A) (A) (A) (A) (A) (A) (A) (A) (A) (A) (A) (A)
                 (A) (A) (A) (A) (A) (A) (A) (A) (A) (A) (A) (A)
                 (A) (A) (A) (A) (A) (A) (A) (A) (A) (A) (A) (A)
                 (A) (A) (A) (A) (A) (A) (A) (A) (A) (A) (A) (A)
                 (A) (A) (A) (A) (A) (A) (A) (A) (A) (A) (A) (A)
                 (A) (A) (A) (A) (A) (A) (A) (A) (A) (A) (A) (A)
                 (A) (A) (A)
 The electronic state is 1-A.
 Alpha  occ. eigenvalues --  -19.07322 -19.07277 -14.40781 -14.40420 -10.26872
 Alpha  occ. eigenvalues --  -10.26337 -10.22330 -10.22255 -10.21785 -10.21279
 Alpha  occ. eigenvalues --  -10.16958 -10.16120  -1.07905  -1.03431  -0.96081
 Alpha  occ. eigenvalues --   -0.94410  -0.81543  -0.78760  -0.75284  -0.70603
 Alpha  occ. eigenvalues --   -0.65248  -0.62558  -0.60942  -0.55455  -0.51471
 Alpha  occ. eigenvalues --   -0.50413  -0.48745  -0.47629  -0.47060  -0.46372
 Alpha  occ. eigenvalues --   -0.45213  -0.44913  -0.43049  -0.42454  -0.40981
 Alpha  occ. eigenvalues --   -0.40578  -0.39677  -0.37695  -0.34842  -0.34393
 Alpha  occ. eigenvalues --   -0.30584  -0.27831  -0.26378  -0.25589  -0.24772
 Alpha virt. eigenvalues --   -0.02403   0.00055   0.01023   0.01728   0.02648
 Alpha virt. eigenvalues --    0.02904   0.03745   0.04223   0.04609   0.04984
 Alpha virt. eigenvalues --    0.05745   0.06098   0.06507   0.07374   0.07732
 Alpha virt. eigenvalues --    0.08107   0.08953   0.09664   0.09854   0.10349
 Alpha virt. eigenvalues --    0.11203   0.11555   0.11930   0.12573   0.13653
 Alpha virt. eigenvalues --    0.14126   0.14451   0.15099   0.15972   0.16419
 Alpha virt. eigenvalues --    0.17099   0.17139   0.17556   0.18148   0.18419
 Alpha virt. eigenvalues --    0.18872   0.19513   0.19764   0.20318   0.20741
 Alpha virt. eigenvalues --    0.20884   0.21341   0.22054   0.22192   0.23110
 Alpha virt. eigenvalues --    0.23848   0.24234   0.24676   0.24949   0.25890
 Alpha virt. eigenvalues --    0.26483   0.27079   0.27527   0.27889   0.28174
 Alpha virt. eigenvalues --    0.28795   0.29676   0.30122   0.30644   0.31224
 Alpha virt. eigenvalues --    0.32043   0.32904   0.33909   0.34168   0.34789
 Alpha virt. eigenvalues --    0.35851   0.36379   0.38264   0.39164   0.40188
 Alpha virt. eigenvalues --    0.40839   0.42632   0.43408   0.44357   0.44649
 Alpha virt. eigenvalues --    0.45690   0.47229   0.47787   0.48644   0.49627
 Alpha virt. eigenvalues --    0.51079   0.51687   0.52498   0.53833   0.55047
 Alpha virt. eigenvalues --    0.55714   0.57071   0.58004   0.58807   0.59555
 Alpha virt. eigenvalues --    0.60468   0.60959   0.62385   0.62461   0.63342
 Alpha virt. eigenvalues --    0.63707   0.64747   0.65173   0.66166   0.67077
 Alpha virt. eigenvalues --    0.67534   0.69105   0.69596   0.70031   0.71842
 Alpha virt. eigenvalues --    0.72287   0.73049   0.73322   0.74294   0.74850
 Alpha virt. eigenvalues --    0.75974   0.76490   0.77103   0.77777   0.79847
 Alpha virt. eigenvalues --    0.80499   0.82569   0.83816   0.84986   0.86247
 Alpha virt. eigenvalues --    0.88197   0.90058   0.90854   0.91868   0.92502
 Alpha virt. eigenvalues --    0.93107   0.94064   0.96879   0.98126   1.01123
 Alpha virt. eigenvalues --    1.02279   1.02985   1.04895   1.05586   1.06704
 Alpha virt. eigenvalues --    1.07787   1.09138   1.11092   1.11858   1.12711
 Alpha virt. eigenvalues --    1.13810   1.14409   1.16870   1.18277   1.19720
 Alpha virt. eigenvalues --    1.20323   1.20455   1.22692   1.23234   1.24422
 Alpha virt. eigenvalues --    1.26050   1.26771   1.27421   1.28382   1.29628
 Alpha virt. eigenvalues --    1.30528   1.32749   1.33516   1.34785   1.36067
 Alpha virt. eigenvalues --    1.37784   1.38393   1.40069   1.40608   1.41606
 Alpha virt. eigenvalues --    1.42792   1.43484   1.45566   1.46038   1.47610
 Alpha virt. eigenvalues --    1.50040   1.50957   1.52363   1.55018   1.55880
 Alpha virt. eigenvalues --    1.58131   1.59006   1.61635   1.66988   1.69574
 Alpha virt. eigenvalues --    1.71612   1.72441   1.73723   1.76052   1.77772
 Alpha virt. eigenvalues --    1.78227   1.79962   1.80624   1.81920   1.84028
 Alpha virt. eigenvalues --    1.84782   1.87439   1.90534   1.90893   1.95753
 Alpha virt. eigenvalues --    1.96023   1.97354   2.00013   2.02011   2.04734
 Alpha virt. eigenvalues --    2.05470   2.05882   2.09648   2.11859   2.14343
 Alpha virt. eigenvalues --    2.18824   2.20609   2.23802   2.24857   2.27640
 Alpha virt. eigenvalues --    2.29709   2.31235   2.31840   2.34255   2.35156
 Alpha virt. eigenvalues --    2.35710   2.37791   2.39215   2.42434   2.43889
 Alpha virt. eigenvalues --    2.44931   2.46725   2.51699   2.52652   2.54140
 Alpha virt. eigenvalues --    2.55111   2.58243   2.64274   2.66744   2.67542
 Alpha virt. eigenvalues --    2.70713   2.72823   2.76923   2.78035   2.78591
 Alpha virt. eigenvalues --    2.81302   2.83233   2.86944   2.88223   2.89741
 Alpha virt. eigenvalues --    2.91141   2.93073   2.94635   2.95489   2.97678
 Alpha virt. eigenvalues --    2.99430   3.04564   3.10228   3.11809   3.14344
 Alpha virt. eigenvalues --    3.16134   3.18395   3.21433   3.23866   3.26211
 Alpha virt. eigenvalues --    3.29155   3.30489   3.32055   3.33979   3.36184
 Alpha virt. eigenvalues --    3.37078   3.38116   3.40410   3.41683   3.42253
 Alpha virt. eigenvalues --    3.43490   3.45283   3.47788   3.47938   3.49050
 Alpha virt. eigenvalues --    3.51618   3.52129   3.53518   3.54982   3.57871
 Alpha virt. eigenvalues --    3.59920   3.61477   3.62264   3.62493   3.65490
 Alpha virt. eigenvalues --    3.66463   3.67422   3.68083   3.70010   3.70389
 Alpha virt. eigenvalues --    3.72669   3.76243   3.77319   3.84593   3.85028
 Alpha virt. eigenvalues --    3.87344   3.88722   3.90290   3.92900   3.94387
 Alpha virt. eigenvalues --    3.95892   3.98392   4.04564   4.07666   4.14135
 Alpha virt. eigenvalues --    4.21965   4.24455   4.27195   4.27615   4.30301
 Alpha virt. eigenvalues --    4.36067   4.43934   4.55039   4.59741   4.98264
 Alpha virt. eigenvalues --    4.98861   5.02465   5.10436   5.12191   5.15200
 Alpha virt. eigenvalues --    5.16248   5.18714   5.18764   5.20604   5.24081
 Alpha virt. eigenvalues --    5.29783   5.40185   5.48731   5.54354   5.67958
 Alpha virt. eigenvalues --    5.70136   5.80445   5.95089   6.08387   6.80121
 Alpha virt. eigenvalues --    6.86688   6.89236   6.91538   7.07130   7.12692
 Alpha virt. eigenvalues --    7.14426   7.26345   7.29370   7.38024  23.86658
 Alpha virt. eigenvalues --   23.93006  24.00734  24.02847  24.02930  24.10060
 Alpha virt. eigenvalues --   24.12990  24.20497  35.52051  35.64554  50.03466
 Alpha virt. eigenvalues --   50.06972
          Condensed to atoms (all electrons):
               1          2          3          4          5          6
     1  C    5.505673   0.091276  -0.128220   0.322633   0.439273  -0.070442
     2  C    0.091276   5.576731  -0.151133   0.049889  -0.061781   0.445031
     3  C   -0.128220  -0.151133   5.640038   0.311229   0.007477   0.008637
     4  N    0.322633   0.049889   0.311229   6.088157  -0.035621   0.016226
     5  H    0.439273  -0.061781   0.007477  -0.035621   0.460617  -0.001825
     6  H   -0.070442   0.445031   0.008637   0.016226  -0.001825   0.457299
     7  H    0.007622   0.009615   0.429568  -0.039469  -0.000057  -0.000098
     8  C   -0.052005  -0.011803  -0.100544   0.266321  -0.002250   0.000498
     9  H   -0.009663   0.005990   0.024916  -0.042307  -0.000067   0.000014
    10  H   -0.004668   0.004524  -0.023400  -0.020837   0.000326  -0.000001
    11  H    0.001146  -0.006040  -0.006652  -0.033134   0.000509  -0.000001
    12  N    0.067742   0.199360   0.361769  -0.056433   0.016844  -0.033893
    13  C   -0.063699  -0.028955  -0.247742   0.005071   0.001224   0.003502
    14  H    0.001236  -0.014319   0.003601  -0.001868  -0.000007   0.000582
    15  H   -0.000633  -0.000508  -0.003044  -0.000540   0.000013  -0.000012
    16  C    0.040895  -0.079063   0.089787   0.007105  -0.000110  -0.005041
    17  H    0.001854  -0.001322  -0.003300  -0.000414  -0.000001  -0.000144
    18  H    0.001226  -0.002016   0.011317  -0.000040   0.000016   0.000255
    19  C   -0.040017   0.097467   0.026730  -0.013394   0.000311   0.000568
    20  H    0.000802  -0.000343   0.000340  -0.000017  -0.000000   0.000000
    21  H   -0.000415   0.001630   0.005515  -0.000858   0.000001  -0.000006
    22  C    0.021742  -0.025279  -0.110191   0.029104  -0.000249   0.000135
    23  O   -0.008505   0.000907   0.000938  -0.003592   0.000030   0.000030
    24  O    0.026527  -0.000783  -0.036185   0.001469  -0.000001  -0.001554
               7          8          9         10         11         12
     1  C    0.007622  -0.052005  -0.009663  -0.004668   0.001146   0.067742
     2  C    0.009615  -0.011803   0.005990   0.004524  -0.006040   0.199360
     3  C    0.429568  -0.100544   0.024916  -0.023400  -0.006652   0.361769
     4  N   -0.039469   0.266321  -0.042307  -0.020837  -0.033134  -0.056433
     5  H   -0.000057  -0.002250  -0.000067   0.000326   0.000509   0.016844
     6  H   -0.000098   0.000498   0.000014  -0.000001  -0.000001  -0.033893
     7  H    0.415523  -0.003766   0.002602   0.000243  -0.000319  -0.037568
     8  C   -0.003766   4.962984   0.388024   0.417139   0.415462   0.010581
     9  H    0.002602   0.388024   0.486043  -0.021324  -0.020536   0.003762
    10  H    0.000243   0.417139  -0.021324   0.492288  -0.031838  -0.001438
    11  H   -0.000319   0.415462  -0.020536  -0.031838   0.497224  -0.002240
    12  N   -0.037568   0.010581   0.003762  -0.001438  -0.002240   6.180392
    13  C   -0.006126  -0.003354   0.002643  -0.000119  -0.001037   0.246145
    14  H    0.000149  -0.000368   0.000000  -0.000000  -0.000003  -0.038324
    15  H    0.001386   0.000202  -0.000001   0.000002  -0.000005  -0.049606
    16  C    0.005762   0.005263  -0.000363  -0.000379   0.000479  -0.004416
    17  H   -0.000074   0.000012  -0.000000   0.000000  -0.000000   0.001274
    18  H    0.000032   0.000136   0.000000   0.000000  -0.000000   0.002488
    19  C   -0.003878   0.000829   0.000351   0.000069  -0.000347  -0.042087
    20  H   -0.000001  -0.000059  -0.000000  -0.000001   0.000000   0.000808
    21  H    0.000231   0.000045  -0.000006  -0.000002  -0.000000  -0.002356
    22  C   -0.006308  -0.002797  -0.001131   0.000515   0.000047   0.015272
    23  O   -0.003340   0.003244  -0.000223  -0.000091  -0.000034  -0.001629
    24  O    0.001424  -0.000358   0.000064   0.000050   0.000006   0.008469
              13         14         15         16         17         18
     1  C   -0.063699   0.001236  -0.000633   0.040895   0.001854   0.001226
     2  C   -0.028955  -0.014319  -0.000508  -0.079063  -0.001322  -0.002016
     3  C   -0.247742   0.003601  -0.003044   0.089787  -0.003300   0.011317
     4  N    0.005071  -0.001868  -0.000540   0.007105  -0.000414  -0.000040
     5  H    0.001224  -0.000007   0.000013  -0.000110  -0.000001   0.000016
     6  H    0.003502   0.000582  -0.000012  -0.005041  -0.000144   0.000255
     7  H   -0.006126   0.000149   0.001386   0.005762  -0.000074   0.000032
     8  C   -0.003354  -0.000368   0.000202   0.005263   0.000012   0.000136
     9  H    0.002643   0.000000  -0.000001  -0.000363  -0.000000   0.000000
    10  H   -0.000119  -0.000000   0.000002  -0.000379   0.000000   0.000000
    11  H   -0.001037  -0.000003  -0.000005   0.000479  -0.000000  -0.000000
    12  N    0.246145  -0.038324  -0.049606  -0.004416   0.001274   0.002488
    13  C    5.727768   0.446919   0.473358  -0.118544  -0.043929  -0.071271
    14  H    0.446919   0.508087  -0.025079  -0.051913  -0.003494  -0.004479
    15  H    0.473358  -0.025079   0.495665  -0.061496  -0.003574   0.006180
    16  C   -0.118544  -0.051913  -0.061496   5.521948   0.439467   0.480378
    17  H   -0.043929  -0.003494  -0.003574   0.439467   0.551769  -0.032034
    18  H   -0.071271  -0.004479   0.006180   0.480378  -0.032034   0.537657
    19  C   -0.040562   0.001947  -0.009428  -0.074278  -0.037508  -0.064150
    20  H    0.009860  -0.000263  -0.000064  -0.028209  -0.009303  -0.002767
    21  H   -0.007259   0.000217   0.002386  -0.070690  -0.002523   0.006926
    22  C    0.002034   0.003591  -0.001632   0.070694   0.007671  -0.010957
    23  O    0.014945  -0.000088  -0.000160  -0.009737  -0.000971   0.000198
    24  O   -0.012485   0.000340  -0.000002  -0.016336  -0.000738   0.003431
              19         20         21         22         23         24
     1  C   -0.040017   0.000802  -0.000415   0.021742  -0.008505   0.026527
     2  C    0.097467  -0.000343   0.001630  -0.025279   0.000907  -0.000783
     3  C    0.026730   0.000340   0.005515  -0.110191   0.000938  -0.036185
     4  N   -0.013394  -0.000017  -0.000858   0.029104  -0.003592   0.001469
     5  H    0.000311  -0.000000   0.000001  -0.000249   0.000030  -0.000001
     6  H    0.000568   0.000000  -0.000006   0.000135   0.000030  -0.001554
     7  H   -0.003878  -0.000001   0.000231  -0.006308  -0.003340   0.001424
     8  C    0.000829  -0.000059   0.000045  -0.002797   0.003244  -0.000358
     9  H    0.000351  -0.000000  -0.000006  -0.001131  -0.000223   0.000064
    10  H    0.000069  -0.000001  -0.000002   0.000515  -0.000091   0.000050
    11  H   -0.000347   0.000000  -0.000000   0.000047  -0.000034   0.000006
    12  N   -0.042087   0.000808  -0.002356   0.015272  -0.001629   0.008469
    13  C   -0.040562   0.009860  -0.007259   0.002034   0.014945  -0.012485
    14  H    0.001947  -0.000263   0.000217   0.003591  -0.000088   0.000340
    15  H   -0.009428  -0.000064   0.002386  -0.001632  -0.000160  -0.000002
    16  C   -0.074278  -0.028209  -0.070690   0.070694  -0.009737  -0.016336
    17  H   -0.037508  -0.009303  -0.002523   0.007671  -0.000971  -0.000738
    18  H   -0.064150  -0.002767   0.006926  -0.010957   0.000198   0.003431
    19  C    5.646283   0.427039   0.477377   0.069829  -0.121555  -0.102347
    20  H    0.427039   0.550264  -0.034627  -0.065673   0.004022  -0.003398
    21  H    0.477377  -0.034627   0.552224  -0.064858  -0.009100   0.007897
    22  C    0.069829  -0.065673  -0.064858   4.743594   0.451878   0.428068
    23  O   -0.121555   0.004022  -0.009100   0.451878   8.540603  -0.093163
    24  O   -0.102347  -0.003398   0.007897   0.428068  -0.093163   8.546738
 Mulliken charges:
               1
     1  C   -0.151379
     2  C   -0.099074
     3  C   -0.111451
     4  N    0.151321
     5  H    0.175330
     6  H    0.180242
     7  H    0.226848
     8  C   -0.293435
     9  H    0.181213
    10  H    0.188940
    11  H    0.187313
    12  N    0.155082
    13  C   -0.288387
    14  H    0.173538
    15  H    0.176591
    16  C   -0.141204
    17  H    0.137281
    18  H    0.137475
    19  C   -0.199250
    20  H    0.151591
    21  H    0.138252
    22  C    0.444903
    23  O   -0.764606
    24  O   -0.757134
 Sum of Mulliken charges =  -0.00000
 Mulliken charges with hydrogens summed into heavy atoms:
               1
     1  C    0.023951
     2  C    0.081168
     3  C    0.115396
     4  N    0.151321
     8  C    0.264031
    12  N    0.155082
    13  C    0.061741
    16  C    0.133553
    19  C    0.090594
    22  C    0.444903
    23  O   -0.764606
    24  O   -0.757134
 Electronic spatial extent (au):  <R**2>=           1973.2107
 Charge=             -0.0000 electrons
 Dipole moment (field-independent basis, Debye):
    X=              9.0015    Y=            -11.8764    Z=             -5.1277  Tot=             15.7597
 Quadrupole moment (field-independent basis, Debye-Ang):
   XX=            -52.4863   YY=            -84.2454   ZZ=            -71.7556
   XY=             16.4946   XZ=              5.2890   YZ=             -4.7425
 Traceless Quadrupole moment (field-independent basis, Debye-Ang):
   XX=             17.0095   YY=            -14.7496   ZZ=             -2.2599
   XY=             16.4946   XZ=              5.2890   YZ=             -4.7425
 Octapole moment (field-independent basis, Debye-Ang**2):
  XXX=             52.9098  YYY=            -68.5538  ZZZ=            -21.7792  XYY=             22.6198
  XXY=              3.1899  XXZ=             -4.5282  XZZ=             24.3618  YZZ=            -18.8697
  YYZ=              3.1195  XYZ=             -5.7488
 Hexadecapole moment (field-independent basis, Debye-Ang**3):
 XXXX=          -1236.7547 YYYY=           -889.8337 ZZZZ=           -354.3558 XXXY=             62.5160
 XXXZ=             11.6010 YYYX=             85.7019 YYYZ=              2.8366 ZZZX=             23.4251
 ZZZY=            -28.6917 XXYY=           -377.4272 XXZZ=           -291.4015 YYZZ=           -197.3399
 XXYZ=             -8.3884 YYXZ=             -1.3437 ZZXY=             20.1129
 N-N= 7.362231016573D+02 E-N=-2.808289265107D+03  KE= 5.698684546824D+02
 No NMR shielding tensors so no spin-rotation constants.
 Leave Link  601 at Wed Oct 11 21:07:01 2023, MaxMem=  6710886400 cpu:               3.6 elap:               0.2
 (Enter /data0/home/software/g16/l701.exe)
 ... and contract with generalized density number  0.
 Compute integral first derivatives.
 R6Disp: Adding Grimme-D3(BJ) dispersion energy 1st derivatives to the gradient.
 D1PCM: PCM CHGder 1st derivatives, ID1Alg=3 FixD1E=F DoIter=F DoCFld=F I1PDM=0.
 GePol: Maximum number of non-zero 1st derivatives   =     248
 Leave Link  701 at Wed Oct 11 21:07:02 2023, MaxMem=  6710886400 cpu:              22.1 elap:               0.9
 (Enter /data0/home/software/g16/l702.exe)
 L702 exits ... SP integral derivatives will be done elsewhere.
 Leave Link  702 at Wed Oct 11 21:07:02 2023, MaxMem=  6710886400 cpu:               0.4 elap:               0.0
 (Enter /data0/home/software/g16/l703.exe)
 Integral derivatives from FoFJK, PRISM(SPDF).
 Compute integral first derivatives, UseDBF=F ICtDFT=           0.
 Calling FoFJK, ICntrl=      2127 FMM=F ISym2X=0 I1Cent= 0 IOpClX= 0 NMat=1 NMatS=1 NMatT=0.
 FoFJK:  IHMeth= 1 ICntrl=    2127 DoSepK=F KAlg= 0 I1Cent=           0 FoldK=F
 IRaf=         0 NMat=       1 IRICut=       1 DoRegI=T DoRafI=F ISym2E= 0 IDoP0=0 IntGTp=1.
 FoFCou: FMM=F IPFlag=           0 FMFlag=      100000 FMFlg1=         800
         NFxFlg=           0 DoJE=F BraDBF=F KetDBF=F FulRan=T
         wScrn=  0.000000 ICntrl=      2127 IOpCl=  0 I1Cent=           0 NGrid=           0
         NMat0=    1 NMatS0=      1 NMatT0=    0 NMatD0=    1 NMtDS0=    0 NMtDT0=    0
 Symmetry not used in FoFCou.
 Leave Link  703 at Wed Oct 11 21:07:11 2023, MaxMem=  6710886400 cpu:             218.4 elap:               9.2
 (Enter /data0/home/software/g16/l716.exe)
 Dipole        = 3.54145535D+00-4.67253138D+00-2.01738713D+00
 ***** Axes restored to original set *****
 -------------------------------------------------------------------
 Center     Atomic                   Forces (Hartrees/Bohr)
 Number     Number              X              Y              Z
 -------------------------------------------------------------------
      1        6           0.000433932   -0.000181046    0.000969951
      2        6          -0.000193048   -0.000653232    0.000855570
      3        6          -0.000794861    0.000792781   -0.001808895
      4        7           0.000228400    0.000317190   -0.000201940
      5        1          -0.000140536   -0.000033938   -0.000144225
      6        1           0.000118289    0.000111368   -0.000116037
      7        1           0.000112600   -0.000094226    0.000142083
      8        6          -0.000099550   -0.000131420    0.000090771
      9        1          -0.000156703   -0.000279381    0.000241449
     10        1           0.000002222   -0.000140768   -0.000116667
     11        1          -0.000170268    0.000061477    0.000000285
     12        7          -0.000515430   -0.000050378   -0.000214268
     13        6          -0.000222060    0.000434941    0.000275849
     14        1          -0.000041347    0.000321084    0.000011232
     15        1           0.000149236    0.000140674    0.000342286
     16        6           0.000693399    0.000334227   -0.000208595
     17        1           0.000230853    0.000174362    0.000032219
     18        1          -0.000119603   -0.000074546   -0.000280486
     19        6           0.000619778   -0.000072721    0.000383213
     20        1           0.000013310   -0.000238046   -0.000115916
     21        1           0.000015949   -0.000092036    0.000230261
     22        6           0.000054121   -0.000738108   -0.000335108
     23        8          -0.000165249   -0.000221066    0.000285366
     24        8          -0.000053434    0.000312808   -0.000318399
 -------------------------------------------------------------------
 Cartesian Forces:  Max     0.001808895 RMS     0.000388548
 Leave Link  716 at Wed Oct 11 21:07:11 2023, MaxMem=  6710886400 cpu:               0.5 elap:               0.0
 (Enter /data0/home/software/g16/l103.exe)

 GradGradGradGradGradGradGradGradGradGradGradGradGradGradGradGradGradGrad
 Berny optimization.
 FormGI is forming the generalized inverse of G from B-inverse, IUseBI=4.
 GSVD:  received Info=                   1 from GESDD.
 Internal  Forces:  Max     0.001436480 RMS     0.000329493
 Search for a local minimum.
 Step number   1 out of a maximum of  132
 All quantities printed in internal units (Hartrees-Bohrs-Radians)
 RMS Force = .32949D-03 SwitMx=.10000D-02 MixMth= 2
 Mixed Optimization -- En-DIIS/RFO-DIIS
 Second derivative matrix not updated -- first step.
 ITU=  0
     Eigenvalues ---    0.00289   0.00298   0.00365   0.00414   0.00743
     Eigenvalues ---    0.00873   0.01550   0.01700   0.02176   0.02227
     Eigenvalues ---    0.02436   0.02459   0.02585   0.03408   0.03623
     Eigenvalues ---    0.04180   0.04844   0.05257   0.05307   0.07633
     Eigenvalues ---    0.07703   0.08595   0.09580   0.09873   0.12396
     Eigenvalues ---    0.12856   0.13177   0.16000   0.16000   0.16000
     Eigenvalues ---    0.16000   0.16000   0.16000   0.21963   0.22005
     Eigenvalues ---    0.22018   0.22813   0.23528   0.24766   0.24998
     Eigenvalues ---    0.25000   0.25000   0.28871   0.29397   0.29740
     Eigenvalues ---    0.34219   0.34459   0.34575   0.34577   0.34881
     Eigenvalues ---    0.34907   0.34991   0.35002   0.35170   0.35535
     Eigenvalues ---    0.36442   0.36495   0.36509   0.36727   0.43775
     Eigenvalues ---    0.46719   0.50120   0.56623   0.57438   0.77327
     Eigenvalues ---    0.78616
 RFO step:  Lambda=-6.91539805D-05 EMin= 2.88930154D-03
 Linear search not attempted -- first point.
 Iteration  1 RMS(Cart)=  0.01311328 RMS(Int)=  0.00010207
 Iteration  2 RMS(Cart)=  0.00009348 RMS(Int)=  0.00006680
 Iteration  3 RMS(Cart)=  0.00000000 RMS(Int)=  0.00006680
 ITry= 1 IFail=0 DXMaxC= 6.37D-02 DCOld= 1.00D+10 DXMaxT= 3.00D-01 DXLimC= 3.00D+00 Rises=F
 Variable       Old X    -DE/DX   Delta X   Delta X   Delta X     New X
                                 (Linear)    (Quad)   (Total)
    R1        2.56422   0.00006   0.00000   0.00008   0.00008   2.56430
    R2        2.61002   0.00086   0.00000   0.00177   0.00177   2.61179
    R3        2.03314  -0.00020   0.00000  -0.00056  -0.00056   2.03259
    R4        2.03292  -0.00019   0.00000  -0.00053  -0.00053   2.03240
    R5        2.60826   0.00069   0.00000   0.00138   0.00138   2.60965
    R6        2.51658   0.00041   0.00000   0.00072   0.00072   2.51731
    R7        2.03396  -0.00019   0.00000  -0.00052  -0.00052   2.03345
    R8        2.51954   0.00026   0.00000   0.00047   0.00047   2.52001
    R9        2.76260  -0.00068   0.00000  -0.00184  -0.00184   2.76076
   R10        2.05400  -0.00028   0.00000  -0.00080  -0.00080   2.05320
   R11        2.05689  -0.00018   0.00000  -0.00052  -0.00052   2.05637
   R12        2.05672  -0.00018   0.00000  -0.00052  -0.00052   2.05620
   R13        2.78115  -0.00121   0.00000  -0.00341  -0.00341   2.77774
   R14        2.05826  -0.00031   0.00000  -0.00089  -0.00089   2.05737
   R15        2.05868  -0.00033   0.00000  -0.00096  -0.00096   2.05772
   R16        2.88485  -0.00144   0.00000  -0.00483  -0.00483   2.88002
   R17        2.06562  -0.00028   0.00000  -0.00083  -0.00083   2.06480
   R18        2.06368  -0.00028   0.00000  -0.00080  -0.00080   2.06288
   R19        2.89182  -0.00111   0.00000  -0.00377  -0.00377   2.88805
   R20        2.06963  -0.00010   0.00000  -0.00031  -0.00031   2.06932
   R21        2.06370  -0.00024   0.00000  -0.00068  -0.00068   2.06302
   R22        2.90273  -0.00070   0.00000  -0.00242  -0.00242   2.90031
   R23        2.39390  -0.00038   0.00000  -0.00049  -0.00049   2.39341
   R24        2.38671  -0.00037   0.00000  -0.00047  -0.00047   2.38624
    A1        1.86739  -0.00019   0.00000  -0.00077  -0.00077   1.86662
    A2        2.28998   0.00009   0.00000   0.00037   0.00037   2.29034
    A3        2.12581   0.00010   0.00000   0.00040   0.00040   2.12621
    A4        2.28826   0.00010   0.00000   0.00035   0.00034   2.28860
    A5        1.86880  -0.00028   0.00000  -0.00123  -0.00123   1.86757
    A6        2.12613   0.00018   0.00000   0.00089   0.00089   2.12701
    A7        2.19267   0.00037   0.00000   0.00145   0.00145   2.19412
    A8        1.89758  -0.00081   0.00000  -0.00338  -0.00338   1.89420
    A9        2.19292   0.00044   0.00000   0.00192   0.00192   2.19484
   A10        1.89590   0.00055   0.00000   0.00242   0.00242   1.89831
   A11        2.19353  -0.00006   0.00000  -0.00037  -0.00037   2.19316
   A12        2.19371  -0.00048   0.00000  -0.00205  -0.00205   2.19166
   A13        1.89744  -0.00044   0.00000  -0.00299  -0.00299   1.89445
   A14        1.90586   0.00007   0.00000   0.00057   0.00057   1.90643
   A15        1.90894   0.00006   0.00000   0.00045   0.00045   1.90940
   A16        1.91611   0.00015   0.00000   0.00071   0.00071   1.91682
   A17        1.91802   0.00014   0.00000   0.00062   0.00062   1.91864
   A18        1.91728   0.00002   0.00000   0.00061   0.00061   1.91789
   A19        1.89496   0.00072   0.00000   0.00296   0.00296   1.89792
   A20        2.19243  -0.00016   0.00000  -0.00079  -0.00079   2.19164
   A21        2.19024  -0.00057   0.00000  -0.00245  -0.00245   2.18779
   A22        1.86482   0.00032   0.00000   0.00234   0.00234   1.86716
   A23        1.86375   0.00006   0.00000  -0.00212  -0.00212   1.86163
   A24        1.97050  -0.00073   0.00000  -0.00392  -0.00392   1.96658
   A25        1.89112  -0.00002   0.00000   0.00192   0.00192   1.89304
   A26        1.93300   0.00019   0.00000   0.00190   0.00190   1.93490
   A27        1.93680   0.00020   0.00000   0.00003   0.00002   1.93682
   A28        1.85067   0.00024   0.00000   0.00069   0.00069   1.85135
   A29        1.91268   0.00027   0.00000   0.00116   0.00116   1.91384
   A30        1.99423  -0.00083   0.00000  -0.00405  -0.00405   1.99018
   A31        1.86824  -0.00015   0.00000   0.00027   0.00027   1.86851
   A32        1.90779   0.00021   0.00000   0.00069   0.00069   1.90848
   A33        1.92480   0.00028   0.00000   0.00145   0.00145   1.92625
   A34        1.89562  -0.00014   0.00000  -0.00040  -0.00041   1.89521
   A35        1.92727  -0.00005   0.00000  -0.00153  -0.00154   1.92573
   A36        2.02699  -0.00003   0.00000  -0.00010  -0.00010   2.02690
   A37        1.86356   0.00001   0.00000   0.00004   0.00004   1.86359
   A38        1.83795   0.00024   0.00000   0.00317   0.00317   1.84113
   A39        1.90380  -0.00003   0.00000  -0.00093  -0.00094   1.90286
   A40        2.04730  -0.00008   0.00000  -0.00100  -0.00143   2.04587
   A41        2.05955   0.00030   0.00000   0.00051   0.00009   2.05963
   A42        2.17545  -0.00023   0.00000  -0.00164  -0.00207   2.17338
    D1       -3.13238  -0.00000   0.00000  -0.00031  -0.00031  -3.13269
    D2        0.00683  -0.00000   0.00000  -0.00018  -0.00018   0.00665
    D3        0.01320   0.00001   0.00000   0.00014   0.00014   0.01335
    D4       -3.13077   0.00001   0.00000   0.00027   0.00027  -3.13050
    D5        0.00327   0.00001   0.00000   0.00048   0.00048   0.00375
    D6        3.13486   0.00001   0.00000   0.00067   0.00067   3.13553
    D7        3.14133   0.00000   0.00000   0.00008   0.00008   3.14141
    D8       -0.01027   0.00000   0.00000   0.00027   0.00027  -0.01000
    D9       -0.01460  -0.00001   0.00000  -0.00020  -0.00021  -0.01480
   D10       -3.04787   0.00007   0.00000   0.00265   0.00266  -3.04522
   D11        3.12488  -0.00001   0.00000  -0.00009  -0.00009   3.12479
   D12        0.09161   0.00007   0.00000   0.00277   0.00277   0.09438
   D13        3.13544   0.00002   0.00000   0.00046   0.00046   3.13590
   D14        0.00385   0.00001   0.00000   0.00026   0.00026   0.00411
   D15       -0.01250  -0.00001   0.00000  -0.00058  -0.00058  -0.01308
   D16        3.13910  -0.00002   0.00000  -0.00079  -0.00079   3.13831
   D17        0.01681   0.00001   0.00000   0.00048   0.00048   0.01730
   D18        3.05026  -0.00004   0.00000  -0.00224  -0.00224   3.04802
   D19       -3.13112  -0.00002   0.00000  -0.00057  -0.00057  -3.13169
   D20       -0.09768  -0.00007   0.00000  -0.00329  -0.00329  -0.10097
   D21       -3.13538  -0.00001   0.00000  -0.00009  -0.00009  -3.13547
   D22       -1.04515  -0.00005   0.00000  -0.00068  -0.00068  -1.04583
   D23        1.05342   0.00005   0.00000   0.00069   0.00069   1.05411
   D24       -0.00547   0.00000   0.00000   0.00016   0.00016  -0.00531
   D25        2.08477  -0.00004   0.00000  -0.00043  -0.00043   2.08434
   D26       -2.09985   0.00006   0.00000   0.00094   0.00094  -2.09891
   D27       -0.79905   0.00008   0.00000   0.00435   0.00435  -0.79470
   D28       -2.81984  -0.00007   0.00000   0.00203   0.00204  -2.81780
   D29        1.33014   0.00009   0.00000   0.00590   0.00589   1.33603
   D30        2.46874   0.00010   0.00000   0.00734   0.00733   2.47607
   D31        0.44794  -0.00005   0.00000   0.00502   0.00502   0.45297
   D32       -1.68526   0.00011   0.00000   0.00888   0.00888  -1.67638
   D33       -3.05612  -0.00020   0.00000  -0.01133  -0.01133  -3.06745
   D34       -1.04531  -0.00011   0.00000  -0.01009  -0.01008  -1.05539
   D35        1.12468  -0.00013   0.00000  -0.01024  -0.01024   1.11444
   D36       -0.96575  -0.00014   0.00000  -0.00966  -0.00966  -0.97542
   D37        1.04505  -0.00006   0.00000  -0.00841  -0.00842   1.03664
   D38       -3.06814  -0.00008   0.00000  -0.00857  -0.00857  -3.07671
   D39        1.13539   0.00009   0.00000  -0.00595  -0.00595   1.12944
   D40       -3.13699   0.00017   0.00000  -0.00471  -0.00471   3.14149
   D41       -0.96699   0.00015   0.00000  -0.00486  -0.00487  -0.97186
   D42        2.85897  -0.00008   0.00000   0.00414   0.00414   2.86311
   D43        0.82102   0.00001   0.00000   0.00520   0.00520   0.82622
   D44       -1.35784   0.00011   0.00000   0.00787   0.00787  -1.34998
   D45        0.78871  -0.00001   0.00000   0.00539   0.00539   0.79410
   D46       -1.24924   0.00009   0.00000   0.00645   0.00645  -1.24279
   D47        2.85508   0.00018   0.00000   0.00912   0.00912   2.86420
   D48       -1.26070  -0.00013   0.00000   0.00379   0.00379  -1.25691
   D49        2.98453  -0.00003   0.00000   0.00485   0.00485   2.98939
[...]
 11358,0.00046174,0.00221994,-0.00027946,0.00332774,-0.00114603,-0.0007
 3438,-0.00058581,-0.00078592,0.00009191,-0.00012867,-0.00008449,-0.000
 06635,0.00011435,-0.00014093,-0.00009189,0.00001728,0.00017591,0.00029
 991,-0.00035695,-0.00037561,-0.00001204,-0.00000069,0.00000814,-0.0001
 0949,-0.00010884,0.00008259,0.00002705,0.00004977,-0.00000437,-0.04313
 778,0.00214817,0.00803838,-0.12814663,0.03663029,0.03810831,-0.0011462
 3,0.00175904,0.00174281,0.00007551,0.00079825,0.00178228,0.51334651,-0
 .00097403,-0.00128909,0.00042169,0.00067067,0.00036652,0.00178072,-0.0
 0019959,0.00242877,-0.00053887,-0.00201055,-0.00143346,-0.00205999,0.0
 0003672,-0.00014157,-0.00003372,0.00001664,0.00004633,0.00004071,-0.00
 025352,0.00029750,0.00012564,0.00052480,-0.00001746,-0.00054393,-0.000
 03747,-0.00002611,0.00002946,-0.00017982,-0.00020347,0.00010287,-0.000
 04770,-0.00003270,0.00002968,-0.01682260,0.00737888,0.00906224,0.03931
 568,-0.10248432,-0.02415203,0.02604109,-0.01228003,-0.01612221,-0.0016
 0340,0.00086769,0.00111009,0.04866693,0.48167304,-0.00025128,-0.000894
 97,0.00041366,-0.00096286,-0.00000379,0.00145919,0.00191575,0.00245863
 ,-0.00052442,-0.00244600,-0.00095614,-0.00148040,0.00009726,-0.0002118
 6,-0.00009583,-0.00003309,0.00007303,0.00001479,-0.00000559,-0.0000067
 1,-0.00004431,0.00034638,0.00012067,-0.00043065,-0.00003316,-0.0000355
 2,0.00001724,-0.00014336,-0.00016477,0.00010306,-0.00008134,-0.0000667
 1,0.00005556,-0.01007139,0.00508519,0.00726697,0.04007911,-0.02140657,
 -0.10647540,-0.00715393,0.00348999,0.00349855,0.02782579,-0.01501502,-
 0.01356812,0.03557214,0.01160748,0.57653823,-0.00048049,-0.00058534,0.
 00019389,0.00055003,-0.00002647,0.00124230,0.00086050,0.00175917,-0.00
 063235,-0.00118814,-0.00060023,-0.00090258,0.00001124,-0.00007163,-0.0
 0000991,-0.00001744,0.00001137,-0.00001189,-0.00006841,0.00004500,-0.0
 0000871,0.00022677,0.00008705,-0.00026247,-0.00002333,-0.00002164,0.00
 001561,-0.00008721,-0.00009768,0.00005734,-0.00004767,-0.00004454,0.00
 003133,-0.00552550,0.00155544,0.00307222,-0.02225675,-0.01327753,-0.00
 913610,0.00093672,0.00010322,-0.00066112,0.00100762,-0.00048965,0.0002
 0839,-0.21200031,-0.10699963,-0.06357961,0.23259687,0.00009069,0.00012
 266,-0.00001757,-0.00005563,0.00005501,-0.00034465,0.00011718,-0.00064
 138,0.00030403,0.00047261,0.00043801,0.00022972,0.00001276,0.00002512,
 0.00000269,-0.00000817,-0.00000191,0.00001305,0.00003074,-0.00001105,-
 0.00002710,-0.00009081,0.00001207,0.00013348,0.00000679,0.00000589,-0.
 00000649,0.00005068,0.00004224,-0.00002599,0.00001527,0.00000966,-0.00
 000793,0.00429246,0.00033172,-0.00164232,0.00952810,0.00538384,0.00454
 949,-0.00039053,0.00072326,0.00063159,-0.00034960,0.00040978,0.0001058
 6,-0.10757875,-0.11438059,-0.04181374,0.11347126,0.12867658,0.00029146
 ,0.00035346,-0.00000869,0.00013436,0.00000468,-0.00036922,-0.00031197,
 -0.00035697,0.00020364,0.00043264,0.00014672,0.00046493,-0.00001803,0.
 00006569,0.00001399,0.00003920,-0.00009208,-0.00000269,0.00004077,-0.0
 0003738,-0.00001400,-0.00006884,-0.00002788,0.00008634,0.00000613,0.00
 000329,-0.00000444,0.00002461,0.00003409,-0.00001536,0.00001384,0.0000
 1360,-0.00000609,0.00358744,-0.00103917,-0.00055022,0.01197967,0.00686
 348,0.00320222,-0.00045411,0.00021865,0.00053900,-0.00069881,0.0005766
 3,0.00053486,-0.06538577,-0.04230281,-0.07261889,0.06912949,0.04619348
 ,0.07421409,-0.00015925,-0.00009860,-0.00009536,-0.00007816,0.00013194
 ,-0.00015415,-0.00020648,-0.00046089,0.00009385,0.00020316,0.00004755,
 -0.00001702,-0.00001985,0.00003894,0.00002579,-0.00024993,0.00009610,0
 .00000139,-0.00003627,0.00005023,-0.00002634,-0.00001895,0.00002517,0.
 00002465,0.00000085,0.00000256,0.00000112,0.00000865,0.00001158,-0.000
 00604,-0.00000015,-0.00000300,-0.00000272,0.00286056,0.00004346,0.0001
 5668,-0.00138810,-0.00121852,0.03015792,0.00099450,-0.00056572,-0.0009
 4761,-0.00403283,0.00231521,0.00227912,-0.04904441,0.00208851,-0.01716
 735,-0.00070031,0.00293342,-0.02544151,0.05172193,0.00009975,0.0000529
 8,0.00006713,-0.00011126,0.00008028,-0.00006994,-0.00002459,-0.0000048
 9,0.00003943,0.00004195,0.00003180,0.00003682,0.00002588,-0.00000847,-
 0.00001936,0.00010341,-0.00000310,0.00001864,0.00001390,-0.00002558,-0
 .00000418,-0.00001326,-0.00003499,0.00000621,0.00000247,0.00000133,-0.
 00000197,0.00000182,0.00000482,0.00000167,0.00000691,0.00000921,-0.000
 00310,-0.00041297,0.00014243,0.00083739,-0.00133505,0.,-0.01537964,-0.
 00075512,0.00049803,0.00008911,0.00286915,-0.00024341,-0.00079300,0.00
 278445,-0.04924515,0.02451756,0.00008931,0.00129820,-0.01575653,-0.005
 38702,0.05526806,0.00019361,0.00022530,0.00004737,0.00034147,0.0002589
 3,-0.00018104,-0.00020648,-0.00010953,0.00004814,0.00014335,-0.0000752
 8,0.00025811,0.00000157,0.00002762,0.00000123,-0.00014143,-0.00009837,
 0.00003903,-0.00001058,-0.00002445,0.00001496,0.00002318,-0.00002988,0
 .00000508,-0.00000181,-0.00000216,0.00000060,-0.00000164,0.00000082,-0
 .00000036,0.00000476,0.00000946,-0.00000385,-0.00050051,0.00007043,0.0
 0059430,-0.00006154,0.00005605,-0.01453187,0.00008416,-0.00021482,0.00
 067521,0.00193265,-0.00127154,0.00044001,-0.01313520,0.02560869,-0.303
 21475,-0.00100845,0.00021602,-0.00844905,0.01466306,-0.02647041,0.3317
 3974,0.00023489,0.00032635,-0.00012654,-0.00044245,-0.00016514,-0.0004
 6370,-0.00001611,-0.00026347,0.00029975,0.00014625,-0.00025089,0.00012
 834,-0.00000627,0.00000529,0.00000182,0.00001766,-0.00003152,0.0000176
 6,-0.00009286,-0.00001024,0.00001704,-0.00006118,-0.00004349,0.0000208
 4,0.00000669,0.00000146,-0.00000098,-0.00001188,0.00002520,0.00001605,
 0.00000355,0.00000946,0.00000104,0.00257119,0.00108428,-0.00032755,-0.
 00610099,0.02927341,-0.00614957,-0.00350413,0.00244171,0.00231203,0.00
 101795,-0.00060999,-0.00087140,-0.07562846,0.01402052,-0.00512670,0.00
 397759,-0.02330131,0.00701132,-0.00023360,0.00136525,0.00006993,0.4957
 9079,-0.00029850,-0.00005854,0.00015500,0.00020307,0.00002639,0.000389
 04,0.00026317,0.00038281,0.00023653,-0.00004190,-0.00001224,-0.0003381
 6,0.00001322,-0.00003661,-0.00000323,-0.00000004,-0.00001412,-0.000013
 92,0.00002723,-0.00005260,0.00002021,-0.00001001,-0.00002791,-0.000005
 83,-0.00000132,-0.00000034,-0.00000562,-0.00000340,0.00001441,0.000016
 16,-0.00000052,0.00000738,0.00000207,-0.00081385,0.00014676,-0.0005867
 6,0.00792206,-0.01756506,0.00211073,0.00118007,0.00081079,-0.00031390,
 -0.00131311,0.00090491,0.00063964,0.00865546,-0.17004326,0.02273411,0.
 00375740,-0.02038756,0.00638779,0.00000998,-0.00418255,0.00334188,-0.0
 2149397,0.45050391,0.00015365,0.00013160,0.00012002,-0.00021176,0.0002
 9609,-0.00057111,-0.00069609,-0.00059078,0.00062727,0.00050398,0.00026
 037,0.00003773,0.00002883,0.00001104,-0.00001902,-0.00002256,-0.000017
 64,0.00003495,0.00005615,0.00003066,-0.00002662,-0.00006519,-0.0001247
 2,0.00009032,0.00001143,0.00001431,-0.00000653,0.00002923,0.00004202,-
 0.00001613,0.00003895,0.00004006,-0.00002088,0.00030002,0.00055307,-0.
 00007558,-0.00137706,-0.01478124,0.00338133,0.00349880,-0.00146517,-0.
 00070912,0.00025807,-0.00118098,0.00095062,-0.00696539,0.02815666,-0.0
 9206424,0.00233938,-0.01207450,0.00281288,-0.00389936,0.03279118,-0.00
 767324,-0.03808795,-0.01984545,0.57304690,-0.00002099,0.00001021,-0.00
 007701,0.00002083,-0.00006081,0.00007676,0.00029272,0.00008998,-0.0001
 3504,-0.00008828,-0.00001395,0.00005627,-0.00000158,-0.00000476,0.0000
 0312,-0.00000503,-0.00000126,0.00000066,0.00000867,-0.00001062,-0.0000
 4363,0.00003046,0.00004509,-0.00002115,-0.00000330,-0.00000411,0.00000
 176,-0.00000458,-0.00001294,0.00000094,-0.00001111,-0.00001223,0.00000
 408,0.00028491,-0.00013484,0.00010320,0.00130196,0.00063431,-0.0006622
 1,-0.00036225,0.00001605,0.00016228,0.00000918,-0.00007986,-0.00001410
 ,-0.00330593,0.00051128,0.00097130,0.00136735,-0.00008630,0.00003991,-
 0.00002059,0.00017180,-0.00019134,-0.27191780,0.06569746,0.05761614,0.
 29340354,0.00007108,0.00008556,-0.00002384,-0.00006682,0.00011150,-0.0
 0016699,-0.00023605,-0.00026885,0.00006259,0.00027285,0.00018228,0.000
 18610,0.00001282,0.00000936,-0.00000558,0.00000178,0.00000491,-0.00001
 230,0.00001099,-0.00002574,-0.00001749,-0.00002415,-0.00003917,0.00004
 445,0.00000515,0.00000548,-0.00000406,0.00001758,0.00001658,-0.0000123
 0,0.00001520,0.00001446,-0.00000959,-0.00046063,0.00000113,-0.00007591
 ,-0.00005191,-0.00610807,0.00283004,0.00151449,-0.00091146,-0.00065692
 ,-0.00028401,0.00022997,0.00011580,0.03013175,-0.01198126,-0.00898772,
 0.00003100,0.00183128,-0.00073013,-0.00021108,0.00095977,0.00038776,0.
 05818583,-0.05723822,-0.01510909,-0.06769699,0.07082451,-0.00000571,0.
 00001397,0.00000017,0.00002923,-0.00000483,0.00008198,0.00005787,0.000
 09761,-0.00014092,-0.00002659,-0.00004062,0.00001460,-0.00000196,-0.00
 000023,0.00000233,0.00000588,-0.00000482,-0.00000333,0.00000625,-0.000
 01876,0.00002552,0.00000732,0.00000842,-0.00000684,-0.00000196,-0.0000
 0145,0.00000079,-0.00000122,-0.00000378,-0.00000036,-0.00000342,-0.000
 00351,0.00000194,0.00010174,-0.00000643,-0.00002668,0.00001759,0.00089
 902,0.00011123,-0.00008127,0.00011345,0.00030775,-0.00014638,0.0000787
 5,0.00028239,-0.00872947,0.00309259,0.00180346,0.00018551,-0.00054708,
 0.00032878,-0.00000012,-0.00053806,0.00024881,0.05518318,-0.01582265,-
 0.05885720,-0.06178912,0.01798852,0.06050238,0.00001548,0.00000230,0.0
 0003551,0.00001083,0.00002672,-0.00004587,-0.00007954,-0.00012617,0.00
 015832,0.00005748,0.00001202,-0.00001717,0.00000131,0.00000566,-0.0000
 0062,-0.00000030,-0.00000196,0.00000910,-0.00033882,0.00007409,0.00001
 872,-0.00000623,-0.00001210,0.00000654,0.00000306,0.00000209,-0.000000
 24,0.00000462,0.00000514,-0.00000113,0.00000315,0.00000295,-0.00000027
 ,0.00000179,-0.00004230,-0.00000616,0.00035832,0.00001942,-0.00121501,
 0.00007022,-0.00010386,0.00001573,0.00009929,-0.00005576,0.00003100,-0
 .00009934,0.00099945,-0.00444060,-0.00001998,-0.00000151,0.00013458,0.
 00047497,0.00080886,-0.00092188,-0.04775334,-0.00355535,0.02989807,-0.
 00232196,-0.00347560,0.02961666,0.05011567,0.00003569,0.00005435,-0.00
 002222,-0.00010560,-0.00001630,-0.00001728,0.00004688,-0.00006649,0.00
 000478,0.00007159,0.00003537,0.00006290,0.00000377,-0.00000083,-0.0000
 0083,0.00001181,0.00000845,-0.00001713,0.00005479,-0.00000863,0.000012
 54,-0.00000792,-0.00000235,0.00001052,0.00000123,0.00000084,-0.0000008
 7,0.00000499,0.00000538,-0.00000137,0.00000102,0.00000241,-0.00000070,
 0.00023224,0.00000998,-0.00005229,-0.00072733,0.00166579,0.00096307,-0
 .00034752,0.00015356,-0.00017990,0.00017569,0.00007608,-0.00068309,-0.
 00207023,-0.00544520,0.03216575,-0.00035328,0.00069872,-0.00053772,0.0
 0080368,-0.00593398,0.00123733,-0.00306612,-0.05185178,0.03083151,0.00
 048174,0.00057280,-0.00814660,0.00442537,0.05930535,-0.00002864,-0.000
 04563,0.00003600,0.00013062,0.00001175,0.00013825,-0.00012147,0.000200
 37,-0.00024929,-0.00003359,-0.00005528,-0.00001158,-0.00000531,0.00000
 016,0.00000624,0.00001143,-0.00000744,-0.00000460,0.00009586,-0.000037
 41,0.00009948,0.00000439,-0.00000167,-0.00001126,-0.00000200,-0.000001
 26,0.00000084,-0.00000126,-0.00000099,0.00000147,-0.00000122,-0.000000
 97,0.00000195,-0.00031480,-0.00005011,-0.00007724,0.00056590,-0.000743
 64,0.00094299,0.00001350,-0.00003467,0.00026849,-0.00058894,0.00031582
 ,0.00029778,0.00042184,0.00161923,-0.00750036,0.00005186,0.00045239,0.
 00017569,0.00019872,0.00129177,0.00069438,0.02606332,0.02713473,-0.299
 93214,0.00127725,0.00016210,-0.00648705,-0.02917063,-0.03348937,0.3262
 2379,-0.00025380,-0.00069219,0.00027936,0.00059169,0.00012583,0.000711
 06,0.00012324,-0.00011373,0.00024433,-0.00153854,0.00067192,-0.0004121
 1,-0.00002528,-0.00002825,-0.00000783,0.00002748,-0.00003661,0.0000117
 9,-0.00012367,0.00016265,0.00011146,0.00003993,-0.00007917,-0.00001397
 ,0.00001488,-0.00000096,0.00003031,0.00000660,-0.00004682,-0.00004195,
 -0.00000500,0.00001172,0.00000019,-0.00041364,0.00095345,-0.00041864,0
 .00199535,0.00251002,-0.00070264,-0.00135787,0.00033799,0.00014950,-0.
 00008029,-0.00017232,-0.00004193,0.00709445,-0.00395623,0.01189081,0.0
 0053110,0.00448237,-0.00117016,-0.00017832,-0.00027209,-0.00147924,-0.
 11023403,-0.01538475,-0.01991243,-0.02242231,-0.02116510,-0.01722238,0
 .00179765,0.00594163,0.00501838,0.35274531,-0.00051396,-0.00021027,-0.
 00001792,0.00046407,-0.00023323,0.00135681,0.00273791,0.00132367,-0.00
 149685,-0.00073819,-0.00052510,-0.00065889,-0.00000872,-0.00003140,0.0
 0003345,-0.00004719,0.00000571,-0.00001277,0.00017509,-0.00030002,-0.0
 0000419,0.00016550,0.00029938,-0.00020992,-0.00003935,-0.00003268,0.00
 006322,-0.00008686,-0.00009558,0.00000464,-0.00007737,-0.00010424,0.00
 003895,-0.00019540,-0.00075417,0.00058660,0.00000048,0.00019039,-0.001
 72882,-0.00067775,0.00059593,0.00039928,-0.00005258,-0.00014791,0.0001
 1862,-0.01735842,-0.02383713,-0.00813965,0.00139163,-0.00089758,0.0009
 1847,-0.00054644,0.00150036,-0.00066274,-0.02019577,-0.10999049,-0.030
 48738,0.00570588,0.00644222,0.00603886,0.00169472,0.00169173,0.0057282
 0,0.13425786,0.52472262,0.00013344,-0.00034135,-0.00082286,0.00024072,
 -0.00058159,-0.00106216,0.00103039,-0.00029774,0.00010428,-0.00049254,
 0.00001574,0.00046083,-0.00004797,0.00003645,0.00000457,-0.00005983,0.
 00012159,-0.00001256,-0.00002803,0.00012895,-0.00042896,0.00009204,0.0
 0011314,-0.00005387,0.00000049,-0.00001487,-0.00004067,0.00000124,-0.0
 0005733,0.00003077,-0.00003151,-0.00001096,0.00000851,0.00053828,-0.00
 182593,0.00050838,0.00081404,0.00073957,-0.00079176,-0.00080408,0.0003
 4656,0.00023252,0.00006896,-0.00012523,-0.00000372,0.00879886,-0.00077
 085,0.00783073,-0.00042924,0.00472015,-0.00171008,-0.00009973,0.000620
 14,-0.00276892,-0.01696277,-0.02199251,-0.09375058,0.00561718,0.006153
 82,0.00335741,-0.01974292,-0.01700021,-0.01494879,0.06707398,-0.105854
 86,0.65685826,0.00049600,0.00035762,-0.00049631,-0.00056301,-0.0000565
 2,-0.00094018,-0.00088582,-0.00015035,0.00032041,0.00011656,0.00052584
 ,0.00104977,0.00000800,0.00002788,-0.00001139,0.00000294,0.00000583,-0
 .00001537,-0.00018083,0.00031612,-0.00026469,0.00018036,0.00009419,0.0
 0000279,0.00000986,-0.00001035,-0.00003967,0.00006228,-0.00000826,0.00
 001092,-0.00001733,0.00000726,0.00000265,0.00036520,-0.00019934,0.0004
 5538,-0.00106708,-0.00067687,0.00046223,0.00061304,-0.00014481,-0.0001
 2319,0.00010942,0.00005865,-0.00005265,-0.00595812,-0.00052119,-0.0047
 1553,0.00027630,-0.00276992,0.00048582,0.00022335,0.00004649,0.0004110
 3,0.00481373,-0.03822741,0.00889481,0.00133216,0.00148908,0.00135105,0
 .00074056,-0.00065483,0.00033672,-0.12169242,-0.09803928,0.03410503,0.
 09092599,0.00009473,-0.00055855,0.00042311,0.00061475,0.00002490,-0.00
 026550,-0.00014150,-0.00124765,0.00040428,0.00017348,0.00022944,-0.000
 35829,-0.00003241,0.00004095,-0.00000675,-0.00000331,0.00005528,-0.000
 00805,0.00006300,-0.00006909,0.00019064,-0.00019588,-0.00021623,0.0001
 4132,0.00002458,0.00002061,-0.00004661,0.00005547,0.00006315,0.0000064
 6,0.00006020,0.00006405,-0.00002673,0.00078029,0.00082888,-0.00075742,
 -0.00124733,-0.00036555,0.00086113,0.00061658,-0.00027918,-0.00018142,
 0.00011130,0.00006548,-0.00009859,-0.00630222,-0.00064763,-0.00421877,
 0.00038252,-0.00349954,0.00023642,0.00023480,0.00006030,0.00027544,-0.
 02655476,-0.03138769,0.01995626,-0.00327955,-0.00374495,-0.00123001,0.
 00225548,0.00045124,0.00090232,-0.10800508,-0.30430044,0.09519066,0.13
 782319,0.35669943,-0.00013408,0.00002587,0.00028890,-0.00006556,0.0001
 8334,0.00052684,0.00010548,0.00011274,-0.00041527,-0.00002186,-0.00017
 290,-0.00031223,0.00001316,-0.00002096,0.00000480,0.00002186,-0.000051
 36,0.00001257,0.00024663,-0.00036528,0.00021859,-0.00001801,-0.0000175
 1,-0.00002964,-0.00001177,-0.00000050,0.00003230,-0.00001019,0.0000130
 8,-0.00001548,0.00000510,-0.00000628,0.00000299,-0.00005986,0.00015140
 ,-0.00027698,0.00007228,0.00022284,-0.00006939,-0.00003677,-0.00001607
 ,-0.00000337,-0.00004674,0.00001891,-0.00001213,-0.00085941,-0.0006304
 9,0.00138957,0.00002999,-0.00003327,0.00035654,-0.00001048,-0.00047794
 ,0.00058742,-0.00389292,-0.00320890,0.00884759,-0.00163526,-0.00123112
 ,0.00013273,0.00016609,-0.00041605,0.00327113,0.05200247,0.12715726,-0
 .15439655,-0.05702921,-0.19577295,0.22632716,0.00004734,0.00048605,0.0
 0020852,-0.00093262,0.00080896,0.00112937,0.00013380,0.00002752,-0.000
 68204,-0.00005104,0.00025223,0.00036118,0.00005158,-0.00004792,-0.0000
 0682,0.00002792,-0.00013155,-0.00001141,0.00003047,-0.00007733,0.00002
 855,0.00010344,0.00009602,-0.00005185,-0.00000738,-0.00001943,0.000015
 35,0.00000872,-0.00001390,-0.00001049,-0.00003433,-0.00001185,0.000004
 45,-0.00095981,0.00087338,0.00017508,-0.00088519,-0.00071418,-0.000371
 22,0.00034578,-0.00009831,-0.00001158,0.00014182,0.00002078,0.00004883
 ,-0.00105074,0.00071344,-0.00248677,0.00007344,-0.00087182,0.00019794,
 -0.00012076,-0.00012004,-0.00020866,0.00742281,-0.00658501,-0.03238973
 ,0.00243393,0.00191273,0.00144732,-0.00313488,-0.00495931,-0.00392194,
 -0.10664248,-0.00801587,-0.07981605,0.03008888,0.00247168,0.01116906,0
 .07290930,0.00011940,-0.00031674,-0.00004712,0.00050836,-0.00059593,-0
 .00169591,-0.00119674,-0.00074250,0.00073773,0.00040173,0.00036212,0.0
 0025405,-0.00000166,0.00002809,-0.00001529,-0.00004010,0.00014698,0.00
 000398,0.00000429,0.00002380,-0.00000548,-0.00015274,-0.00022301,0.000
 10438,0.00002667,0.00002471,-0.00002511,0.00004467,0.00006033,-0.00000
 541,0.00005660,0.00005960,-0.00002374,0.00159116,-0.00090040,-0.000369
 20,-0.00044779,0.00052657,0.00024746,0.00013639,-0.00013953,-0.0000519
 9,0.00024535,-0.00003034,-0.00010751,-0.00036825,0.00042972,-0.0003304
 7,-0.00011676,-0.00024444,-0.00113578,-0.00034184,-0.00022545,-0.00275
 655,-0.01075209,0.01005161,-0.01743788,-0.00196558,-0.00097409,-0.0019
 6237,-0.00295966,-0.00140650,-0.00335040,0.00049786,-0.09531177,0.0406
 8665,0.00070698,-0.01228723,0.07453614,0.01400375,0.10168439,-0.000182
 70,0.00044743,0.00038593,-0.00035598,0.00029777,0.00018572,-0.00074637
 ,-0.00042401,-0.00002267,0.00045786,0.00011648,-0.00010002,0.00005602,
 -0.00002813,-0.00001199,0.00002399,-0.00007047,0.00001383,0.00000789,-
 0.00004467,0.00013305,-0.00009692,-0.00010329,0.00004787,-0.00000174,0
 .00001262,0.00002210,-0.00000284,0.00004942,-0.00001711,0.00003062,0.0
 0001518,-0.00001162,0.00036102,0.00064739,-0.00043223,-0.00054654,-0.0
 0067739,0.00068970,0.00051680,-0.00024183,-0.00013562,-0.00005663,0.00
 013005,0.00003733,0.00032483,0.00436714,-0.00237365,0.00008511,-0.0010
 1132,0.00081576,0.00026548,-0.00080292,0.00142868,-0.01913223,-0.00103
 097,-0.03622722,-0.00136199,-0.00088816,-0.00167986,-0.00452784,-0.004
 72279,-0.00293616,-0.09610038,0.00682961,-0.39860476,0.01579959,0.0843
 8305,-0.08646807,0.10518293,-0.08725018,0.52526099\\-0.00000219,-0.000
 00331,0.00000969,0.00000631,-0.00000045,0.00000717,-0.00000617,0.00000
 597,-0.00001253,0.00001203,0.00000769,0.00000053,-0.00000147,0.0000031
 2,-0.00000027,0.00000008,0.00000173,-0.00000054,0.00000360,-0.00000308
 ,0.00000177,-0.00000655,-0.00000497,0.00000198,0.00000013,-0.00000163,
 0.00000219,-0.00000036,0.00000226,-0.00000020,0.00000011,0.00000316,0.
 00000224,-0.00000630,-0.00000722,0.00000017,0.00000458,0.00000300,0.00
 000102,0.00000428,0.00000010,-0.00000346,0.00000199,-0.00000099,0.0000
 0250,-0.00000370,-0.00001347,-0.00000164,0.00000381,0.00000275,0.00000
 455,-0.00000275,-0.00000246,-0.00000158,0.00000104,0.00001206,0.000006
 30,0.00000039,-0.00000299,-0.00000677,-0.00000104,-0.00000067,-0.00000
 143,-0.00000706,-0.00001260,-0.00002154,0.00000106,0.00000140,0.000008
 15,-0.00000182,0.00001062,0.00000172\\\@


 DO YOU KNOW THAT THE LETTERS IN "EPISCOPAL", WHEN
 REARRANGED, SPELL "PEPSI COLA"?
 Job cpu time:       0 days  2 hours 29 minutes 25.5 seconds.
 Elapsed time:       0 days  0 hours  6 minutes 17.5 seconds.
 File lengths (MBytes):  RWF=    378 Int=      0 D2E=      0 Chk=     21 Scr=      1
 Normal termination of Gaussian 16 at Wed Oct 11 21:18:56 2023.
