 Entering Gaussian System, Link 0=g16
 Initial command:
 /data0/home/software/g16/l1.exe "/data0/home/software/g16/scratch/Gau-2537708.inp" -scrdir="/data0/home/software/g16/scratch/"
 Default is to use a total of  22 processors:
                               22 via shared-memory
                                1 via Linda
 Entering Link 1 = /data0/home/software/g16/l1.exe PID=   2537709.
  
 Copyright (c) 1988,1990,1992,1993,1995,1998,2003,2009,2016,
            Gaussian, Inc.  All Rights Reserved.
  
 This is part of the Gaussian(R) 16 program.  It is based on
 the Gaussian(R) 09 system (copyright 2009, Gaussian, Inc.),
 the Gaussian(R) 03 system (copyright 2003, Gaussian, Inc.),
 the Gaussian(R) 98 system (copyright 1998, Gaussian, Inc.),
 the Gaussian(R) 94 system (copyright 1995, Gaussian, Inc.),
 the Gaussian 92(TM) system (copyright 1992, Gaussian, Inc.),
 the Gaussian 90(TM) system (copyright 1990, Gaussian, Inc.),
 the Gaussian 88(TM) system (copyright 1988, Gaussian, Inc.),
 the Gaussian 86(TM) system (copyright 1986, Carnegie Mellon
 University), and the Gaussian 82(TM) system (copyright 1983,
 Carnegie Mellon University). Gaussian is a federally registered
 trademark of Gaussian, Inc.
  
 This software contains proprietary and confidential information,
 including trade secrets, belonging to Gaussian, Inc.
  
 This software is provided under written license and may be
 used, copied, transmitted, or stored only in accord with that
 written license.
  
 The following legend is applicable only to US Government
 contracts under FAR:
  
                    RESTRICTED RIGHTS LEGEND
  
 Use, reproduction and disclosure by the US Government is
 subject to restrictions as set forth in subparagraphs (a)
 and (c) of the Commercial Computer Software - Restricted
 Rights clause in FAR 52.227-19.
  
 Gaussian, Inc.
 340 Quinnipiac St., Bldg. 40, Wallingford CT 06492
  
  
 ---------------------------------------------------------------
 Warning -- This program may not be used in any manner that
 competes with the business of Gaussian, Inc. or will provide
 assistance to any competitor of Gaussian, Inc.  The licensee
 of this program is prohibited from giving any competitor of
 Gaussian, Inc. access to this program.  By using this program,
 the user acknowledges that Gaussian, Inc. is engaged in the
 business of creating and licensing software in the field of
 computational chemistry and represents and warrants to the
 licensee that it is not a competitor of Gaussian, Inc. and that
 it will not use this program in any manner prohibited above.
 ---------------------------------------------------------------
  

 Cite this work as:
 Gaussian 16, Revision A.03,
 M. J. Frisch, G. W. Trucks, H. B. Schlegel, G. E. Scuseria, 
 M. A. Robb, J. R. Cheeseman, G. Scalmani, V. Barone, 
 G. A. Petersson, H. Nakatsuji, X. Li, M. Caricato, A. V. Marenich, 
 J. Bloino, B. G. Janesko, R. Gomperts, B. Mennucci, H. P. Hratchian, 
 J. V. Ortiz, A. F. Izmaylov, J. L. Sonnenberg, D. Williams-Young, 
 F. Ding, F. Lipparini, F. Egidi, J. Goings, B. Peng, A. Petrone, 
 T. Henderson, D. Ranasinghe, V. G. Zakrzewski, J. Gao, N. Rega, 
 G. Zheng, W. Liang, M. Hada, M. Ehara, K. Toyota, R. Fukuda, 
 J. Hasegawa, M. Ishida, T. Nakajima, Y. Honda, O. Kitao, H. Nakai, 
 T. Vreven, K. Throssell, J. A. Montgomery, Jr., J. E. Peralta, 
 F. Ogliaro, M. J. Bearpark, J. J. Heyd, E. N. Brothers, K. N. Kudin, 
 V. N. Staroverov, T. A. Keith, R. Kobayashi, J. Normand, 
 K. Raghavachari, A. P. Rendell, J. C. Burant, S. S. Iyengar, 
 J. Tomasi, M. Cossi, J. M. Millam, M. Klene, C. Adamo, R. Cammi, 
 J. W. Ochterski, R. L. Martin, K. Morokuma, O. Farkas, 
 J. B. Foresman, and D. J. Fox, Gaussian, Inc., Wallingford CT, 2016.
 
 ******************************************
 Gaussian 16:  ES64L-G16RevA.03 25-Dec-2016
                11-Oct-2023 
 ******************************************
 %mem=50GB
 %nprocshared=24
 Will use up to   24 processors via shared memory.
 ----------------------------------------
 #p M052X/6-31G* scrf=(smd,solvent=water)
 ----------------------------------------
 1/38=1,172=1/1;
 2/12=2,17=6,18=5,40=1/2;
 3/5=1,6=6,7=1,11=2,25=1,30=1,70=32201,72=1,74=-38/1,2,3;
 4//1;
 5/5=2,38=5,53=1/2;
 6/7=2,8=2,9=2,10=2,28=1/1;
 99/5=1,9=1/99;
 Leave Link    1 at Wed Oct 11 21:25:18 2023, MaxMem=  6710886400 cpu:               0.8 elap:               0.0
 (Enter /data0/home/software/g16/l101.exe)
 -------------------
 Title Card Required
 -------------------
 Symbolic Z-matrix:
 Charge =  0 Multiplicity = 1
 C                     2.01202  -0.6161    1.00653 
 C                     0.93372  -1.43819   0.95161 
 C                     0.99197  -0.27021  -0.91868 
 N                     2.03145   0.10281  -0.17356 
 H                     2.76173  -0.4794    1.76559 
 H                     0.5519   -2.1527    1.65897 
 H                     0.74484   0.11928  -1.89078 
 C                     3.01983   1.11451  -0.53941 
 H                     2.76745   1.50604  -1.52103 
 H                     2.99932   1.91784   0.19437 
 H                     4.00892   0.66164  -0.56418 
 N                     0.31668  -1.21534  -0.26345 
 C                    -0.95682  -1.80747  -0.69763 
 H                    -0.9158   -2.86604  -0.44651 
 H                    -0.99298  -1.71251  -1.78184 
 C                    -2.16793  -1.1442   -0.05164 
 H                    -3.03824  -1.71446  -0.38539 
 H                    -2.11168  -1.2534    1.03308 
 C                    -2.35248   0.3253   -0.43006 
 H                    -3.37445   0.62519  -0.17551 
 H                    -2.24667   0.4558   -1.50884 
 C                    -1.44218   1.33054   0.28759 
 O                    -1.04524   2.3323   -0.37834 
 O                    -1.18226   1.13211   1.50725 
 
 ITRead=  0  0  0  0  0  0  0  0  0  0  0  0  0  0  0  0  0  0  0  0
 ITRead=  0  0  0  0
 MicOpt= -1 -1 -1 -1 -1 -1 -1 -1 -1 -1 -1 -1 -1 -1 -1 -1 -1 -1 -1 -1
 MicOpt= -1 -1 -1 -1
 NAtoms=     24 NQM=       24 NQMF=       0 NMMI=      0 NMMIF=      0
                NMic=       0 NMicF=      0.
                    Isotopes and Nuclear Properties:
 (Nuclear quadrupole moments (NQMom) in fm**2, nuclear magnetic moments (NMagM)
  in nuclear magnetons)

  Atom         1           2           3           4           5           6           7           8           9          10
 IAtWgt=          12          12          12          14           1           1           1          12           1           1
 AtmWgt=  12.0000000  12.0000000  12.0000000  14.0030740   1.0078250   1.0078250   1.0078250  12.0000000   1.0078250   1.0078250
 NucSpn=           0           0           0           2           1           1           1           0           1           1
 AtZEff=  -0.0000000  -0.0000000  -0.0000000  -0.0000000  -0.0000000  -0.0000000  -0.0000000  -0.0000000  -0.0000000  -0.0000000
 NQMom=    0.0000000   0.0000000   0.0000000   2.0440000   0.0000000   0.0000000   0.0000000   0.0000000   0.0000000   0.0000000
 NMagM=    0.0000000   0.0000000   0.0000000   0.4037610   2.7928460   2.7928460   2.7928460   0.0000000   2.7928460   2.7928460
 AtZNuc=   6.0000000   6.0000000   6.0000000   7.0000000   1.0000000   1.0000000   1.0000000   6.0000000   1.0000000   1.0000000

  Atom        11          12          13          14          15          16          17          18          19          20
 IAtWgt=           1          14          12           1           1          12           1           1          12           1
 AtmWgt=   1.0078250  14.0030740  12.0000000   1.0078250   1.0078250  12.0000000   1.0078250   1.0078250  12.0000000   1.0078250
 NucSpn=           1           2           0           1           1           0           1           1           0           1
 AtZEff=  -0.0000000  -0.0000000  -0.0000000  -0.0000000  -0.0000000  -0.0000000  -0.0000000  -0.0000000  -0.0000000  -0.0000000
 NQMom=    0.0000000   2.0440000   0.0000000   0.0000000   0.0000000   0.0000000   0.0000000   0.0000000   0.0000000   0.0000000
 NMagM=    2.7928460   0.4037610   0.0000000   2.7928460   2.7928460   0.0000000   2.7928460   2.7928460   0.0000000   2.7928460
 AtZNuc=   1.0000000   7.0000000   6.0000000   1.0000000   1.0000000   6.0000000   1.0000000   1.0000000   6.0000000   1.0000000

  Atom        21          22          23          24
 IAtWgt=           1          12          16          16
 AtmWgt=   1.0078250  12.0000000  15.9949146  15.9949146
 NucSpn=           1           0           0           0
 AtZEff=  -0.0000000  -0.0000000  -0.0000000  -0.0000000
 NQMom=    0.0000000   0.0000000   0.0000000   0.0000000
 NMagM=    2.7928460   0.0000000   0.0000000   0.0000000
 AtZNuc=   1.0000000   6.0000000   8.0000000   8.0000000
 Leave Link  101 at Wed Oct 11 21:25:18 2023, MaxMem=  6710886400 cpu:               2.1 elap:               0.1
 (Enter /data0/home/software/g16/l202.exe)
                          Input orientation:                          
 ---------------------------------------------------------------------
 Center     Atomic      Atomic             Coordinates (Angstroms)
 Number     Number       Type             X           Y           Z
 ---------------------------------------------------------------------
      1          6           0        2.012025   -0.616100    1.006531
      2          6           0        0.933717   -1.438188    0.951606
      3          6           0        0.991965   -0.270210   -0.918677
      4          7           0        2.031452    0.102814   -0.173559
      5          1           0        2.761727   -0.479399    1.765585
      6          1           0        0.551903   -2.152703    1.658969
      7          1           0        0.744840    0.119282   -1.890781
      8          6           0        3.019831    1.114508   -0.539410
      9          1           0        2.767447    1.506038   -1.521030
     10          1           0        2.999318    1.917844    0.194366
     11          1           0        4.008916    0.661635   -0.564177
     12          7           0        0.316677   -1.215341   -0.263454
     13          6           0       -0.956819   -1.807469   -0.697630
     14          1           0       -0.915800   -2.866035   -0.446513
     15          1           0       -0.992981   -1.712506   -1.781836
     16          6           0       -2.167930   -1.144200   -0.051639
     17          1           0       -3.038236   -1.714459   -0.385385
     18          1           0       -2.111684   -1.253397    1.033077
     19          6           0       -2.352480    0.325304   -0.430056
     20          1           0       -3.374451    0.625194   -0.175506
     21          1           0       -2.246673    0.455798   -1.508841
     22          6           0       -1.442179    1.330543    0.287585
     23          8           0       -1.045237    2.332299   -0.378340
     24          8           0       -1.182263    1.132110    1.507253
 ---------------------------------------------------------------------
                    Distance matrix (angstroms):
                    1          2          3          4          5
     1  C    0.000000
     2  C    1.357053   0.000000
     3  C    2.206034   2.205793   0.000000
     4  N    1.381965   2.201296   1.332247   0.000000
     5  H    1.075594   2.218887   3.221968   2.152337   0.000000
     6  H    2.217832   1.075489   3.222064   3.261071   2.773921
     7  H    3.246685   3.246622   1.075993   2.145808   4.218443
     8  C    2.529943   3.618184   2.484659   1.460912   2.814278
     9  H    3.385660   4.259690   2.582677   2.080001   3.839770
    10  H    2.838174   4.012863   3.171106   2.089609   2.876100
    11  H    2.843819   4.020411   3.177420   2.091704   2.878408
    12  N    2.201399   1.380858   1.333643   2.164733   3.261423
    13  C    3.624577   2.535838   2.491944   3.585191   4.653900
    14  H    3.968086   2.722902   3.255889   4.192238   4.910561
    15  H    4.243484   3.355461   2.601014   3.876743   5.310610
    16  C    4.344035   3.273094   3.391246   4.382319   5.295827
    17  H    5.352472   4.200033   4.314253   5.389721   6.308060
    18  H    4.172748   3.052090   3.795871   4.523368   4.988564
    19  C    4.690301   3.977183   3.432011   4.397062   5.623478
    20  H    5.652623   4.907977   4.518810   5.431084   6.529980
    21  H    5.060886   4.444757   3.371077   4.495545   6.056445
    22  C    4.029619   3.708325   3.153179   3.712962   4.809699
    23  O    4.467413   4.461120   3.348912   3.805069   5.195675
    24  O    3.675655   3.375285   3.546675   3.769953   4.268343
                    6          7          8          9         10
     6  H    0.000000
     7  H    4.218989   0.000000
     8  C    4.647387   2.827059   0.000000
     9  H    5.329861   2.480070   1.086541   0.000000
    10  H    4.970338   3.558839   1.088208   1.779307   0.000000
    11  H    4.981347   3.564859   1.088116   1.780401   1.781218
    12  N    2.151671   2.147728   3.579300   3.872167   4.150061
    13  C    2.819395   2.834012   4.937279   5.052472   5.506781
    14  H    2.663841   3.708875   5.598441   5.816865   6.214851
    15  H    3.797312   2.527318   5.063427   4.956598   5.746587
    16  C    3.367603   3.669204   5.679133   5.791443   6.011413
    17  H    4.154580   4.465477   6.687821   6.735521   7.069780
    18  H    2.880137   4.311951   5.866186   6.159859   6.073100
    19  C    4.352009   3.430678   5.431070   5.366378   5.618525
    20  H    5.147647   4.490732   6.423293   6.348955   6.514037
    21  H    4.967024   3.034513   5.395346   5.122944   5.706042
    22  C    4.241469   3.315944   4.543140   4.585067   4.481128
    23  O    5.178487   3.223243   4.246615   4.065096   4.105873
    24  O    3.717573   4.035614   4.674049   4.991045   4.452715
                   11         12         13         14         15
    11  H    0.000000
    12  N    4.152843   0.000000
    13  C    5.547324   1.470006   0.000000
    14  H    6.058971   2.068164   1.088717   0.000000
    15  H    5.669057   2.065880   1.088957   1.766260   0.000000
    16  C    6.455785   2.494634   1.524474   2.165288   2.167270
    17  H    7.439095   3.394028   2.106762   2.415491   2.476519
    18  H    6.609108   2.753067   2.153150   2.493978   3.063660
    19  C    6.371693   3.086380   2.562847   3.499852   2.797895
    20  H    7.393680   4.125498   3.469208   4.278678   3.703584
    21  H    6.329862   3.303704   2.728400   3.732873   2.519486
    22  C    5.557641   3.143047   3.324657   4.292696   3.707348
    23  O    5.326360   3.801810   4.153004   5.200392   4.281703
    24  O    5.608967   3.300417   3.681502   4.457956   4.352674
                   16         17         18         19         20
    16  C    0.000000
    17  H    1.092710   0.000000
    18  H    1.091648   1.755879   0.000000
    19  C    1.528627   2.152415   2.165880   0.000000
    20  H    2.145179   2.372987   2.566000   1.095059   0.000000
    21  H    2.165556   2.568801   3.066091   1.091788   1.754526
    22  C    2.601181   3.503188   2.771415   1.534328   2.108470
    23  O    3.667863   4.510914   3.998328   2.395744   2.894924
    24  O    2.929722   3.889688   2.603711   2.402813   2.809685
                   21         22         23         24
    21  H    0.000000
    22  C    2.153958   0.000000
    23  O    2.498547   1.266702   0.000000
    24  O    3.269127   1.262744   2.239351   0.000000
 Stoichiometry    C8H12N2O2
 Framework group  C1[X(C8H12N2O2)]
 Deg. of freedom    66
 Full point group                 C1      NOp   1
 Largest Abelian subgroup         C1      NOp   1
 Largest concise Abelian subgroup C1      NOp   1
                         Standard orientation:                         
 ---------------------------------------------------------------------
 Center     Atomic      Atomic             Coordinates (Angstroms)
 Number     Number       Type             X           Y           Z
 ---------------------------------------------------------------------
      1          6           0        2.012025   -0.616100    1.006531
      2          6           0        0.933717   -1.438188    0.951606
      3          6           0        0.991965   -0.270210   -0.918677
      4          7           0        2.031452    0.102814   -0.173559
      5          1           0        2.761727   -0.479399    1.765585
      6          1           0        0.551903   -2.152703    1.658969
      7          1           0        0.744840    0.119282   -1.890781
      8          6           0        3.019831    1.114508   -0.539410
      9          1           0        2.767447    1.506038   -1.521030
     10          1           0        2.999318    1.917844    0.194366
     11          1           0        4.008916    0.661635   -0.564177
     12          7           0        0.316677   -1.215341   -0.263454
     13          6           0       -0.956819   -1.807469   -0.697630
     14          1           0       -0.915800   -2.866035   -0.446513
     15          1           0       -0.992981   -1.712506   -1.781836
     16          6           0       -2.167930   -1.144200   -0.051639
     17          1           0       -3.038236   -1.714459   -0.385385
     18          1           0       -2.111684   -1.253397    1.033077
     19          6           0       -2.352480    0.325304   -0.430056
     20          1           0       -3.374451    0.625194   -0.175506
     21          1           0       -2.246673    0.455798   -1.508841
     22          6           0       -1.442179    1.330543    0.287585
     23          8           0       -1.045237    2.332299   -0.378340
     24          8           0       -1.182263    1.132110    1.507253
 ---------------------------------------------------------------------
 Rotational constants (GHZ):           1.3237610           0.8176611           0.6393847
 Leave Link  202 at Wed Oct 11 21:25:18 2023, MaxMem=  6710886400 cpu:               0.1 elap:               0.0
 (Enter /data0/home/software/g16/l301.exe)
 Standard basis: 6-31G(d) (6D, 7F)
 Ernie: Thresh=  0.10000D-02 Tol=  0.10000D-05 Strict=F.
 There are   204 symmetry adapted cartesian basis functions of A   symmetry.
 There are   204 symmetry adapted basis functions of A   symmetry.
   204 basis functions,   384 primitive gaussians,   204 cartesian basis functions
    45 alpha electrons       45 beta electrons
       nuclear repulsion energy       737.0623106515 Hartrees.
 IExCor= 3428 DFT=T Ex+Corr=M052X ExCW=0 ScaHFX=  0.560000
 ScaDFX=  0.440000  0.440000  1.000000  1.000000 ScalE2=  1.000000  1.000000
 IRadAn=      5 IRanWt=     -1 IRanGd=            0 ICorTp=0 IEmpDi=  4
 NAtoms=   24 NActive=   24 NUniq=   24 SFac= 1.00D+00 NAtFMM=   60 NAOKFM=F Big=F
 Integral buffers will be    131072 words long.
 Raffenetti 2 integral format.
 Two-electron integral symmetry is turned on.
 ------------------------------------------------------------------------------
 Polarizable Continuum Model (PCM)
 =================================
 Model                : PCM.
 Atomic radii         : SMD-Coulomb.
 Polarization charges : Total charges.
 Charge compensation  : None.
 Solution method      : On-the-fly selection.
 Cavity type          : VdW (van der Waals Surface) (Alpha=1.000).
 Cavity algorithm     : GePol (No added spheres)
                        Default sphere list used, NSphG=   24.
                        Lebedev-Laikov grids with approx.  5.0 points / Ang**2.
                        Smoothing algorithm: York/Karplus (Gamma=1.0000).
                        Polarization charges: spherical gaussians, with
                                              point-specific exponents (IZeta= 3).
                        Self-potential: point-specific (ISelfS= 7).
                        Self-field    : sphere-specific E.n sum rule (ISelfD= 2).
 Solvent              : Water, Eps=  78.355300 Eps(inf)=   1.777849
 ------------------------------------------------------------------------------
 GePol: Number of generator spheres                  =      24
 GePol: Total number of spheres                      =      24
 GePol: Number of exposed spheres                    =      24 (100.00%)
 GePol: Number of points                             =    1751
 GePol: Average weight of points                     =       0.11
 GePol: Minimum weight of points                     =   0.38D-09
 GePol: Maximum weight of points                     =    0.21991
 GePol: Number of points with low weight             =     114
 GePol: Fraction of low-weight points (<1% of avg)   =       6.51%
 GePol: Cavity surface area                          =    200.880 Ang**2
 GePol: Cavity volume                                =    172.588 Ang**3
 ------------------------------------------------------------------------------
 Atomic radii for non-electrostatic terms: SMD-CDS.
 ------------------------------------------------------------------------------
 PCM non-electrostatic energy =         0.0099110619 Hartrees.
 Nuclear repulsion after PCM non-electrostatic terms =      737.0722217134 Hartrees.
 Leave Link  301 at Wed Oct 11 21:25:18 2023, MaxMem=  6710886400 cpu:               1.7 elap:               0.1
 (Enter /data0/home/software/g16/l302.exe)
 NPDir=0 NMtPBC=     1 NCelOv=     1 NCel=       1 NClECP=     1 NCelD=      1
         NCelK=      1 NCelE2=     1 NClLst=     1 CellRange=     0.0.
 One-electron integrals computed using PRISM.
 One-electron integral symmetry used in STVInt
 NBasis=   204 RedAO= T EigKep=  1.30D-03  NBF=   204
 NBsUse=   204 1.00D-06 EigRej= -1.00D+00 NBFU=   204
 Precomputing XC quadrature grid using
 IXCGrd= 4 IRadAn=           5 IRanWt=          -1 IRanGd=           0 AccXCQ= 0.00D+00.
 Generated NRdTot=       0 NPtTot=           0 NUsed=           0 NTot=          32
 NSgBfM=   204   204   204   204   204 MxSgAt=    24 MxSgA2=    24.
 Leave Link  302 at Wed Oct 11 21:25:18 2023, MaxMem=  6710886400 cpu:               3.8 elap:               0.2
 (Enter /data0/home/software/g16/l303.exe)
 DipDrv:  MaxL=1.
 Leave Link  303 at Wed Oct 11 21:25:18 2023, MaxMem=  6710886400 cpu:               0.6 elap:               0.0
 (Enter /data0/home/software/g16/l401.exe)
 ExpMin= 1.61D-01 ExpMax= 5.48D+03 ExpMxC= 8.25D+02 IAcc=3 IRadAn=         5 AccDes= 0.00D+00
 Harris functional with IExCor= 1009 and IRadAn=       5 diagonalized for initial guess.
 HarFok:  IExCor= 1009 AccDes= 0.00D+00 IRadAn=         5 IDoV= 1 UseB2=F ITyADJ=14
 ICtDFT=  3500011 ScaDFX=  1.000000  1.000000  1.000000  1.000000
 FoFCou: FMM=F IPFlag=           0 FMFlag=      100000 FMFlg1=           0
         NFxFlg=           0 DoJE=T BraDBF=F KetDBF=T FulRan=T
         wScrn=  0.000000 ICntrl=       500 IOpCl=  0 I1Cent=   200000004 NGrid=           0
         NMat0=    1 NMatS0=      1 NMatT0=    0 NMatD0=    1 NMtDS0=    0 NMtDT0=    0
 Petite list used in FoFCou.
 Harris En= -571.521199617696    
 JPrj=0 DoOrth=F DoCkMO=F.
 Leave Link  401 at Wed Oct 11 21:25:19 2023, MaxMem=  6710886400 cpu:              13.9 elap:               0.6
 (Enter /data0/home/software/g16/l502.exe)
 Integral symmetry usage will be decided dynamically.
 Closed shell SCF:
 Using DIIS extrapolation, IDIIS=  1040.
 NGot=  6710886400 LenX=  6710795856 LenY=  6710753799
 Requested convergence on RMS density matrix=1.00D-08 within 128 cycles.
 Requested convergence on MAX density matrix=1.00D-06.
 Requested convergence on             energy=1.00D-06.
 No special actions if energy rises.
 Fock matrices will be formed incrementally for  20 cycles.

 Cycle   1  Pass 1  IDiag  1:
 FoFJK:  IHMeth= 1 ICntrl=       0 DoSepK=F KAlg= 0 I1Cent=           0 FoldK=F
 IRaf= 930000000 NMat=       1 IRICut=       1 DoRegI=T DoRafI=F ISym2E= 0 IDoP0=0 IntGTp=1.
 FoFCou: FMM=F IPFlag=           0 FMFlag=      100000 FMFlg1=           0
         NFxFlg=           0 DoJE=F BraDBF=F KetDBF=F FulRan=T
         wScrn=  0.000000 ICntrl=         0 IOpCl=  0 I1Cent=           0 NGrid=           0
         NMat0=    1 NMatS0=      1 NMatT0=    0 NMatD0=    1 NMtDS0=    0 NMtDT0=    0
 Symmetry not used in FoFCou.
 Inv3:  Mode=1 IEnd=     9198003.
 Iteration    1 A*A^-1 deviation from unit magnitude is 5.33D-15 for   1740.
 Iteration    1 A*A^-1 deviation from orthogonality  is 2.22D-15 for   1135    762.
 Iteration    1 A^-1*A deviation from unit magnitude is 5.11D-15 for   1740.
 Iteration    1 A^-1*A deviation from orthogonality  is 3.11D-15 for    913    235.
 E= -571.703952017577    
 DIIS: error= 3.03D-02 at cycle   1 NSaved=   1.
 NSaved= 1 IEnMin= 1 EnMin= -571.703952017577     IErMin= 1 ErrMin= 3.03D-02
 ErrMax= 3.03D-02  0.00D+00 EMaxC= 1.00D-01 BMatC= 3.39D-01 BMatP= 3.39D-01
 IDIUse=3 WtCom= 6.97D-01 WtEn= 3.03D-01
 Coeff-Com:  0.100D+01
 Coeff-En:   0.100D+01
 Coeff:      0.100D+01
 Gap=     0.374 Goal=   None    Shift=    0.000
 GapD=    0.374 DampG=1.000 DampE=0.500 DampFc=0.5000 IDamp=-1.
 Damping current iteration by 5.00D-01
 RMSDP=4.50D-03 MaxDP=1.33D-01              OVMax= 1.22D-01

 Cycle   2  Pass 1  IDiag  1:
 RMSU=  2.23D-03    CP:  9.89D-01
 E= -571.846606008561     Delta-E=       -0.142653990985 Rises=F Damp=T
 DIIS: error= 8.94D-03 at cycle   2 NSaved=   2.
 NSaved= 2 IEnMin= 2 EnMin= -571.846606008561     IErMin= 2 ErrMin= 8.94D-03
 ErrMax= 8.94D-03  0.00D+00 EMaxC= 1.00D-01 BMatC= 2.33D-02 BMatP= 3.39D-01
 IDIUse=3 WtCom= 9.11D-01 WtEn= 8.94D-02
 Coeff-Com: -0.784D-01 0.108D+01
 Coeff-En:   0.000D+00 0.100D+01
 Coeff:     -0.714D-01 0.107D+01
 Gap=     0.344 Goal=   None    Shift=    0.000
 RMSDP=1.02D-03 MaxDP=2.44D-02 DE=-1.43D-01 OVMax= 6.78D-02

 Cycle   3  Pass 1  IDiag  1:
 RMSU=  9.22D-04    CP:  9.86D-01  1.19D+00
 E= -571.977143832610     Delta-E=       -0.130537824049 Rises=F Damp=F
 DIIS: error= 4.10D-03 at cycle   3 NSaved=   3.
 NSaved= 3 IEnMin= 3 EnMin= -571.977143832610     IErMin= 3 ErrMin= 4.10D-03
 ErrMax= 4.10D-03  0.00D+00 EMaxC= 1.00D-01 BMatC= 5.08D-03 BMatP= 2.33D-02
 IDIUse=3 WtCom= 9.59D-01 WtEn= 4.10D-02
 Coeff-Com: -0.640D-01 0.315D+00 0.749D+00
 Coeff-En:   0.000D+00 0.000D+00 0.100D+01
 Coeff:     -0.614D-01 0.302D+00 0.759D+00
 Gap=     0.337 Goal=   None    Shift=    0.000
 RMSDP=3.61D-04 MaxDP=1.31D-02 DE=-1.31D-01 OVMax= 1.59D-02

 Cycle   4  Pass 1  IDiag  1:
 RMSU=  3.09D-04    CP:  9.88D-01  1.21D+00  8.12D-01
 E= -571.980327358857     Delta-E=       -0.003183526247 Rises=F Damp=F
 DIIS: error= 1.89D-03 at cycle   4 NSaved=   4.
 NSaved= 4 IEnMin= 4 EnMin= -571.980327358857     IErMin= 4 ErrMin= 1.89D-03
 ErrMax= 1.89D-03  0.00D+00 EMaxC= 1.00D-01 BMatC= 9.78D-04 BMatP= 5.08D-03
 IDIUse=3 WtCom= 9.81D-01 WtEn= 1.89D-02
 Coeff-Com: -0.113D-01 0.252D-01 0.322D+00 0.664D+00
 Coeff-En:   0.000D+00 0.000D+00 0.114D+00 0.886D+00
 Coeff:     -0.111D-01 0.248D-01 0.318D+00 0.668D+00
 Gap=     0.336 Goal=   None    Shift=    0.000
 RMSDP=1.34D-04 MaxDP=4.40D-03 DE=-3.18D-03 OVMax= 5.33D-03

 Cycle   5  Pass 1  IDiag  1:
 RMSU=  6.28D-05    CP:  9.87D-01  1.21D+00  8.90D-01  7.00D-01
 E= -571.981144936509     Delta-E=       -0.000817577652 Rises=F Damp=F
 DIIS: error= 2.38D-04 at cycle   5 NSaved=   5.
 NSaved= 5 IEnMin= 5 EnMin= -571.981144936509     IErMin= 5 ErrMin= 2.38D-04
 ErrMax= 2.38D-04  0.00D+00 EMaxC= 1.00D-01 BMatC= 2.12D-05 BMatP= 9.78D-04
 IDIUse=3 WtCom= 9.98D-01 WtEn= 2.38D-03
 Coeff-Com: -0.183D-02-0.519D-03 0.858D-01 0.232D+00 0.685D+00
 Coeff-En:   0.000D+00 0.000D+00 0.000D+00 0.000D+00 0.100D+01
 Coeff:     -0.183D-02-0.518D-03 0.855D-01 0.231D+00 0.686D+00
 Gap=     0.336 Goal=   None    Shift=    0.000
 RMSDP=2.38D-05 MaxDP=7.20D-04 DE=-8.18D-04 OVMax= 1.02D-03

 Cycle   6  Pass 1  IDiag  1:
 RMSU=  1.86D-05    CP:  9.87D-01  1.21D+00  8.92D-01  7.27D-01  8.05D-01
 E= -571.981163290350     Delta-E=       -0.000018353841 Rises=F Damp=F
 DIIS: error= 6.63D-05 at cycle   6 NSaved=   6.
 NSaved= 6 IEnMin= 6 EnMin= -571.981163290350     IErMin= 6 ErrMin= 6.63D-05
 ErrMax= 6.63D-05  0.00D+00 EMaxC= 1.00D-01 BMatC= 1.82D-06 BMatP= 2.12D-05
 IDIUse=1 WtCom= 1.00D+00 WtEn= 0.00D+00
 Coeff-Com:  0.306D-03-0.226D-02 0.264D-02 0.262D-01 0.240D+00 0.733D+00
 Coeff:      0.306D-03-0.226D-02 0.264D-02 0.262D-01 0.240D+00 0.733D+00
 Gap=     0.336 Goal=   None    Shift=    0.000
 RMSDP=8.54D-06 MaxDP=2.77D-04 DE=-1.84D-05 OVMax= 4.86D-04

 Cycle   7  Pass 1  IDiag  1:
 RMSU=  5.81D-06    CP:  9.87D-01  1.21D+00  8.95D-01  7.36D-01  8.78D-01
                    CP:  8.85D-01
 E= -571.981164922004     Delta-E=       -0.000001631654 Rises=F Damp=F
 DIIS: error= 2.87D-05 at cycle   7 NSaved=   7.
 NSaved= 7 IEnMin= 7 EnMin= -571.981164922004     IErMin= 7 ErrMin= 2.87D-05
 ErrMax= 2.87D-05  0.00D+00 EMaxC= 1.00D-01 BMatC= 2.93D-07 BMatP= 1.82D-06
 IDIUse=1 WtCom= 1.00D+00 WtEn= 0.00D+00
 Coeff-Com:  0.306D-03-0.975D-03-0.762D-02-0.121D-01 0.352D-01 0.322D+00
 Coeff-Com:  0.663D+00
 Coeff:      0.306D-03-0.975D-03-0.762D-02-0.121D-01 0.352D-01 0.322D+00
 Coeff:      0.663D+00
 Gap=     0.336 Goal=   None    Shift=    0.000
 RMSDP=2.98D-06 MaxDP=9.58D-05 DE=-1.63D-06 OVMax= 1.65D-04

 Cycle   8  Pass 1  IDiag  1:
 RMSU=  2.10D-06    CP:  9.87D-01  1.21D+00  8.95D-01  7.37D-01  8.93D-01
                    CP:  9.63D-01  8.48D-01
 E= -571.981165175367     Delta-E=       -0.000000253363 Rises=F Damp=F
 DIIS: error= 1.12D-05 at cycle   8 NSaved=   8.
 NSaved= 8 IEnMin= 8 EnMin= -571.981165175367     IErMin= 8 ErrMin= 1.12D-05
 ErrMax= 1.12D-05  0.00D+00 EMaxC= 1.00D-01 BMatC= 3.34D-08 BMatP= 2.93D-07
 IDIUse=1 WtCom= 1.00D+00 WtEn= 0.00D+00
 Coeff-Com:  0.734D-04-0.787D-04-0.360D-02-0.901D-02-0.198D-01 0.334D-01
 Coeff-Com:  0.284D+00 0.715D+00
 Coeff:      0.734D-04-0.787D-04-0.360D-02-0.901D-02-0.198D-01 0.334D-01
 Coeff:      0.284D+00 0.715D+00
 Gap=     0.336 Goal=   None    Shift=    0.000
 RMSDP=1.06D-06 MaxDP=2.50D-05 DE=-2.53D-07 OVMax= 6.85D-05

 Cycle   9  Pass 1  IDiag  1:
 RMSU=  6.04D-07    CP:  9.87D-01  1.21D+00  8.95D-01  7.37D-01  8.97D-01
                    CP:  9.89D-01  9.44D-01  8.27D-01
 E= -571.981165210960     Delta-E=       -0.000000035593 Rises=F Damp=F
 DIIS: error= 1.90D-06 at cycle   9 NSaved=   9.
 NSaved= 9 IEnMin= 9 EnMin= -571.981165210960     IErMin= 9 ErrMin= 1.90D-06
 ErrMax= 1.90D-06  0.00D+00 EMaxC= 1.00D-01 BMatC= 1.48D-09 BMatP= 3.34D-08
 IDIUse=1 WtCom= 1.00D+00 WtEn= 0.00D+00
 Coeff-Com: -0.112D-05 0.386D-04-0.540D-03-0.177D-02-0.697D-02-0.839D-02
 Coeff-Com:  0.380D-01 0.200D+00 0.779D+00
 Coeff:     -0.112D-05 0.386D-04-0.540D-03-0.177D-02-0.697D-02-0.839D-02
 Coeff:      0.380D-01 0.200D+00 0.779D+00
 Gap=     0.336 Goal=   None    Shift=    0.000
 RMSDP=2.94D-07 MaxDP=6.89D-06 DE=-3.56D-08 OVMax= 2.35D-05

 Cycle  10  Pass 1  IDiag  1:
 RMSU=  2.07D-07    CP:  9.87D-01  1.21D+00  8.95D-01  7.38D-01  8.98D-01
                    CP:  9.92D-01  9.61D-01  8.98D-01  1.04D+00
 E= -571.981165213049     Delta-E=       -0.000000002089 Rises=F Damp=F
 DIIS: error= 1.43D-06 at cycle  10 NSaved=  10.
 NSaved=10 IEnMin=10 EnMin= -571.981165213049     IErMin=10 ErrMin= 1.43D-06
 ErrMax= 1.43D-06  0.00D+00 EMaxC= 1.00D-01 BMatC= 3.23D-10 BMatP= 1.48D-09
 IDIUse=1 WtCom= 1.00D+00 WtEn= 0.00D+00
 Coeff-Com: -0.142D-04 0.317D-04 0.413D-03 0.805D-03 0.329D-03-0.110D-01
 Coeff-Com: -0.361D-01-0.405D-01 0.298D+00 0.788D+00
 Coeff:     -0.142D-04 0.317D-04 0.413D-03 0.805D-03 0.329D-03-0.110D-01
 Coeff:     -0.361D-01-0.405D-01 0.298D+00 0.788D+00
 Gap=     0.336 Goal=   None    Shift=    0.000
 RMSDP=1.40D-07 MaxDP=2.98D-06 DE=-2.09D-09 OVMax= 1.33D-05

 Cycle  11  Pass 1  IDiag  1:
 RMSU=  7.62D-08    CP:  9.87D-01  1.21D+00  8.95D-01  7.38D-01  8.99D-01
                    CP:  9.94D-01  9.68D-01  9.18D-01  1.19D+00  1.01D+00
 E= -571.981165213551     Delta-E=       -0.000000000502 Rises=F Damp=F
 DIIS: error= 3.17D-07 at cycle  11 NSaved=  11.
 NSaved=11 IEnMin=11 EnMin= -571.981165213551     IErMin=11 ErrMin= 3.17D-07
 ErrMax= 3.17D-07  0.00D+00 EMaxC= 1.00D-01 BMatC= 1.75D-11 BMatP= 3.23D-10
 IDIUse=1 WtCom= 1.00D+00 WtEn= 0.00D+00
 Coeff-Com: -0.108D-05-0.618D-06 0.120D-03 0.302D-03 0.889D-03-0.848D-03
 Coeff-Com: -0.875D-02-0.233D-01-0.323D-01 0.158D+00 0.906D+00
 Coeff:     -0.108D-05-0.618D-06 0.120D-03 0.302D-03 0.889D-03-0.848D-03
 Coeff:     -0.875D-02-0.233D-01-0.323D-01 0.158D+00 0.906D+00
 Gap=     0.336 Goal=   None    Shift=    0.000
 RMSDP=4.17D-08 MaxDP=8.82D-07 DE=-5.02D-10 OVMax= 3.56D-06

 Cycle  12  Pass 1  IDiag  1:
 RMSU=  2.04D-08    CP:  9.87D-01  1.21D+00  8.95D-01  7.38D-01  8.99D-01
                    CP:  9.94D-01  9.69D-01  9.23D-01  1.23D+00  1.12D+00
                    CP:  1.09D+00
 E= -571.981165213583     Delta-E=       -0.000000000032 Rises=F Damp=F
 DIIS: error= 8.85D-08 at cycle  12 NSaved=  12.
 NSaved=12 IEnMin=12 EnMin= -571.981165213583     IErMin=12 ErrMin= 8.85D-08
 ErrMax= 8.85D-08  0.00D+00 EMaxC= 1.00D-01 BMatC= 2.99D-12 BMatP= 1.75D-11
 IDIUse=1 WtCom= 1.00D+00 WtEn= 0.00D+00
 Coeff-Com:  0.758D-06-0.289D-05 0.208D-04 0.677D-04 0.331D-03 0.280D-03
 Coeff-Com: -0.126D-02-0.697D-02-0.399D-01-0.573D-02 0.333D+00 0.720D+00
 Coeff:      0.758D-06-0.289D-05 0.208D-04 0.677D-04 0.331D-03 0.280D-03
 Coeff:     -0.126D-02-0.697D-02-0.399D-01-0.573D-02 0.333D+00 0.720D+00
 Gap=     0.336 Goal=   None    Shift=    0.000
 RMSDP=1.24D-08 MaxDP=3.12D-07 DE=-3.23D-11 OVMax= 5.51D-07

 Cycle  13  Pass 1  IDiag  1:
 RMSU=  6.89D-09    CP:  9.87D-01  1.21D+00  8.95D-01  7.38D-01  8.99D-01
                    CP:  9.94D-01  9.70D-01  9.24D-01  1.24D+00  1.15D+00
                    CP:  1.17D+00  9.49D-01
 E= -571.981165213577     Delta-E=        0.000000000006 Rises=F Damp=F
 DIIS: error= 3.74D-08 at cycle  13 NSaved=  13.
 NSaved=13 IEnMin=12 EnMin= -571.981165213583     IErMin=13 ErrMin= 3.74D-08
 ErrMax= 3.74D-08  0.00D+00 EMaxC= 1.00D-01 BMatC= 2.88D-13 BMatP= 2.99D-12
 IDIUse=1 WtCom= 1.00D+00 WtEn= 0.00D+00
 Coeff-Com:  0.521D-06-0.113D-05-0.103D-04-0.200D-04 0.233D-05 0.248D-03
 Coeff-Com:  0.960D-03 0.141D-02-0.862D-02-0.209D-01 0.347D-02 0.262D+00
 Coeff-Com:  0.761D+00
 Coeff:      0.521D-06-0.113D-05-0.103D-04-0.200D-04 0.233D-05 0.248D-03
 Coeff:      0.960D-03 0.141D-02-0.862D-02-0.209D-01 0.347D-02 0.262D+00
 Coeff:      0.761D+00
 Gap=     0.336 Goal=   None    Shift=    0.000
 RMSDP=3.52D-09 MaxDP=9.24D-08 DE= 6.14D-12 OVMax= 2.44D-07

 Error on total polarization charges =  0.03773
 SCF Done:  E(RM052X) =  -571.981165214     A.U. after   13 cycles
            NFock= 13  Conv=0.35D-08     -V/T= 2.0092
 KE= 5.667414151937D+02 PE=-2.806933292496D+03 EE= 9.311384903755D+02
 SMD-CDS (non-electrostatic) energy       (kcal/mol) =       6.22
 (included in total energy above)
 Leave Link  502 at Wed Oct 11 21:25:38 2023, MaxMem=  6710886400 cpu:             448.7 elap:              19.3
 (Enter /data0/home/software/g16/l601.exe)
 Copying SCF densities to generalized density rwf, IOpCl= 0 IROHF=0.

 **********************************************************************

            Population analysis using the SCF density.

 **********************************************************************

 Orbital symmetries:
       Occupied  (A) (A) (A) (A) (A) (A) (A) (A) (A) (A) (A) (A)
                 (A) (A) (A) (A) (A) (A) (A) (A) (A) (A) (A) (A)
                 (A) (A) (A) (A) (A) (A) (A) (A) (A) (A) (A) (A)
                 (A) (A) (A) (A) (A) (A) (A) (A) (A)
       Virtual   (A) (A) (A) (A) (A) (A) (A) (A) (A) (A) (A) (A)
                 (A) (A) (A) (A) (A) (A) (A) (A) (A) (A) (A) (A)
                 (A) (A) (A) (A) (A) (A) (A) (A) (A) (A) (A) (A)
                 (A) (A) (A) (A) (A) (A) (A) (A) (A) (A) (A) (A)
                 (A) (A) (A) (A) (A) (A) (A) (A) (A) (A) (A) (A)
                 (A) (A) (A) (A) (A) (A) (A) (A) (A) (A) (A) (A)
                 (A) (A) (A) (A) (A) (A) (A) (A) (A) (A) (A) (A)
                 (A) (A) (A) (A) (A) (A) (A) (A) (A) (A) (A) (A)
                 (A) (A) (A) (A) (A) (A) (A) (A) (A) (A) (A) (A)
                 (A) (A) (A) (A) (A) (A) (A) (A) (A) (A) (A) (A)
                 (A) (A) (A) (A) (A) (A) (A) (A) (A) (A) (A) (A)
                 (A) (A) (A) (A) (A) (A) (A) (A) (A) (A) (A) (A)
                 (A) (A) (A) (A) (A) (A) (A) (A) (A) (A) (A) (A)
                 (A) (A) (A)
 The electronic state is 1-A.
 Alpha  occ. eigenvalues --  -19.61205 -19.60936 -14.89962 -14.89630 -10.67846
 Alpha  occ. eigenvalues --  -10.65751 -10.62949 -10.62846 -10.62041 -10.61438
 Alpha  occ. eigenvalues --  -10.56976 -10.55642  -1.20135  -1.13418  -1.07299
 Alpha  occ. eigenvalues --   -1.03216  -0.92136  -0.89202  -0.85237  -0.80092
 Alpha  occ. eigenvalues --   -0.74108  -0.71135  -0.69527  -0.63487  -0.59380
 Alpha  occ. eigenvalues --   -0.57904  -0.55904  -0.54901  -0.54233  -0.53463
 Alpha  occ. eigenvalues --   -0.52045  -0.51540  -0.49533  -0.48956  -0.47666
 Alpha  occ. eigenvalues --   -0.46960  -0.45952  -0.43843  -0.40644  -0.40227
 Alpha  occ. eigenvalues --   -0.36064  -0.32793  -0.30864  -0.30320  -0.29930
 Alpha virt. eigenvalues --    0.03647   0.06600   0.11612   0.14652   0.15795
 Alpha virt. eigenvalues --    0.17004   0.17990   0.19795   0.20361   0.21357
 Alpha virt. eigenvalues --    0.22004   0.22823   0.23574   0.23804   0.24237
 Alpha virt. eigenvalues --    0.24994   0.26120   0.27961   0.28162   0.31434
 Alpha virt. eigenvalues --    0.32970   0.33540   0.35490   0.38047   0.42099
 Alpha virt. eigenvalues --    0.45366   0.49330   0.50906   0.52355   0.53299
 Alpha virt. eigenvalues --    0.56858   0.57978   0.58498   0.60606   0.62000
 Alpha virt. eigenvalues --    0.64537   0.66055   0.66339   0.68386   0.69732
 Alpha virt. eigenvalues --    0.70792   0.70811   0.75683   0.76135   0.77089
 Alpha virt. eigenvalues --    0.80162   0.81198   0.82760   0.83474   0.85369
 Alpha virt. eigenvalues --    0.88139   0.88660   0.90104   0.91385   0.92670
 Alpha virt. eigenvalues --    0.93713   0.94832   0.97178   0.97590   0.98271
 Alpha virt. eigenvalues --    0.99824   1.01055   1.02294   1.03745   1.04122
 Alpha virt. eigenvalues --    1.05017   1.06337   1.07328   1.08168   1.10154
 Alpha virt. eigenvalues --    1.12412   1.16018   1.16927   1.19429   1.20225
 Alpha virt. eigenvalues --    1.22759   1.26856   1.28249   1.33645   1.35496
 Alpha virt. eigenvalues --    1.38525   1.39835   1.40953   1.45242   1.46301
 Alpha virt. eigenvalues --    1.53113   1.56323   1.58664   1.60883   1.61865
 Alpha virt. eigenvalues --    1.63834   1.68752   1.72973   1.76183   1.80528
 Alpha virt. eigenvalues --    1.84611   1.86078   1.88879   1.92765   1.92917
 Alpha virt. eigenvalues --    1.93742   1.95013   1.96459   1.98707   1.99598
 Alpha virt. eigenvalues --    2.01749   2.02394   2.04291   2.07864   2.08284
 Alpha virt. eigenvalues --    2.08584   2.12693   2.14124   2.15211   2.18540
 Alpha virt. eigenvalues --    2.19111   2.21348   2.27194   2.29350   2.30691
 Alpha virt. eigenvalues --    2.31154   2.34348   2.37863   2.40680   2.42752
 Alpha virt. eigenvalues --    2.43451   2.48912   2.49644   2.50705   2.52843
 Alpha virt. eigenvalues --    2.55704   2.61291   2.64109   2.65029   2.72745
 Alpha virt. eigenvalues --    2.73394   2.77198   2.78549   2.83596   2.84560
 Alpha virt. eigenvalues --    2.91113   3.01536   3.04288   3.06029   3.13485
 Alpha virt. eigenvalues --    3.17997   3.19502   3.91912   3.96390   4.04781
 Alpha virt. eigenvalues --    4.17444   4.23941   4.29671   4.31467   4.34130
 Alpha virt. eigenvalues --    4.46445   4.48437   4.58621   4.64172
          Condensed to atoms (all electrons):
               1          2          3          4          5          6
     1  C    4.849839   0.616122  -0.100372   0.375099   0.377123  -0.027005
     2  C    0.616122   4.850184  -0.101046  -0.050555  -0.027120   0.376685
     3  C   -0.100372  -0.101046   4.753255   0.414002   0.005018   0.005020
     4  N    0.375099  -0.050555   0.414002   6.679324  -0.035464   0.002354
     5  H    0.377123  -0.027120   0.005018  -0.035464   0.399849  -0.000366
     6  H   -0.027005   0.376685   0.005020   0.002354  -0.000366   0.399023
     7  H    0.002873   0.002792   0.376175  -0.031904  -0.000048  -0.000049
     8  C   -0.038394   0.004480  -0.038898   0.241040  -0.001180  -0.000065
     9  H    0.003080  -0.000211  -0.001986  -0.027795   0.000002   0.000002
    10  H   -0.001581   0.000053   0.000827  -0.034400   0.000657  -0.000001
    11  H   -0.001679   0.000029   0.001139  -0.033995   0.000666  -0.000001
    12  N   -0.051054   0.371205   0.416281  -0.061261   0.002374  -0.035299
    13  C    0.004961  -0.038800  -0.037628   0.003844  -0.000062  -0.001517
    14  H    0.000124  -0.003039   0.002735  -0.000141  -0.000002   0.001236
    15  H   -0.000257   0.003470  -0.002449   0.000193   0.000002   0.000025
    16  C   -0.000021   0.000486  -0.002936  -0.000072   0.000001   0.000249
    17  H    0.000002   0.000027  -0.000017   0.000000  -0.000000  -0.000021
    18  H   -0.000232   0.003356  -0.000033   0.000026   0.000000   0.000527
    19  C    0.000206  -0.001429   0.002537  -0.000094   0.000001  -0.000032
    20  H   -0.000002  -0.000009   0.000026  -0.000001   0.000000   0.000000
    21  H   -0.000016   0.000029   0.000499   0.000024  -0.000000   0.000000
    22  C    0.000494   0.001136   0.005411  -0.001441   0.000006   0.000011
    23  O   -0.000033  -0.000022   0.002894  -0.000737   0.000000  -0.000000
    24  O    0.000310   0.004852   0.000952  -0.000612   0.000011   0.000148
               7          8          9         10         11         12
     1  C    0.002873  -0.038394   0.003080  -0.001581  -0.001679  -0.051054
     2  C    0.002792   0.004480  -0.000211   0.000053   0.000029   0.371205
     3  C    0.376175  -0.038898  -0.001986   0.000827   0.001139   0.416281
     4  N   -0.031904   0.241040  -0.027795  -0.034400  -0.033995  -0.061261
     5  H   -0.000048  -0.001180   0.000002   0.000657   0.000666   0.002374
     6  H   -0.000049  -0.000065   0.000002  -0.000001  -0.000001  -0.035299
     7  H    0.365693  -0.001211   0.001659   0.000028   0.000027  -0.032131
     8  C   -0.001211   5.052677   0.383277   0.384132   0.383229   0.004211
     9  H    0.001659   0.383277   0.441002  -0.020103  -0.020246   0.000189
    10  H    0.000028   0.384132  -0.020103   0.453396  -0.025136  -0.000084
    11  H    0.000027   0.383229  -0.020246  -0.025136   0.455496  -0.000103
    12  N   -0.032131   0.004211   0.000189  -0.000084  -0.000103   6.718467
    13  C   -0.000634  -0.000050  -0.000002   0.000001   0.000003   0.232068
    14  H   -0.000009   0.000002   0.000000  -0.000000  -0.000000  -0.034718
    15  H    0.001562  -0.000002   0.000001   0.000000  -0.000000  -0.035874
    16  C    0.000069  -0.000002  -0.000000  -0.000000   0.000000  -0.059051
    17  H   -0.000007  -0.000000  -0.000000   0.000000  -0.000000   0.004579
    18  H    0.000002   0.000000   0.000000  -0.000000  -0.000000  -0.004838
    19  C   -0.000183   0.000006   0.000000   0.000001   0.000000  -0.001609
    20  H    0.000007   0.000000   0.000000  -0.000000   0.000000   0.000022
    21  H    0.000398   0.000001  -0.000000  -0.000000  -0.000000  -0.000510
    22  C    0.000664   0.000017  -0.000001   0.000027   0.000001  -0.001587
    23  O    0.001036   0.000245  -0.000007   0.000050   0.000001  -0.000873
    24  O    0.000115  -0.000059   0.000000   0.000014  -0.000000  -0.001802
              13         14         15         16         17         18
     1  C    0.004961   0.000124  -0.000257  -0.000021   0.000002  -0.000232
     2  C   -0.038800  -0.003039   0.003470   0.000486   0.000027   0.003356
     3  C   -0.037628   0.002735  -0.002449  -0.002936  -0.000017  -0.000033
     4  N    0.003844  -0.000141   0.000193  -0.000072   0.000000   0.000026
     5  H   -0.000062  -0.000002   0.000002   0.000001  -0.000000   0.000000
     6  H   -0.001517   0.001236   0.000025   0.000249  -0.000021   0.000527
     7  H   -0.000634  -0.000009   0.001562   0.000069  -0.000007   0.000002
     8  C   -0.000050   0.000002  -0.000002  -0.000002  -0.000000   0.000000
     9  H   -0.000002   0.000000   0.000001  -0.000000  -0.000000   0.000000
    10  H    0.000001  -0.000000   0.000000  -0.000000   0.000000  -0.000000
    11  H    0.000003  -0.000000  -0.000000   0.000000  -0.000000  -0.000000
    12  N    0.232068  -0.034718  -0.035874  -0.059051   0.004579  -0.004838
    13  C    5.029593   0.390778   0.389032   0.352414  -0.037518  -0.032679
    14  H    0.390778   0.464231  -0.022416  -0.036013  -0.001892  -0.002906
    15  H    0.389032  -0.022416   0.465968  -0.035327  -0.002079   0.004056
    16  C    0.352414  -0.036013  -0.035327   5.148376   0.379168   0.370974
    17  H   -0.037518  -0.001892  -0.002079   0.379168   0.515935  -0.024323
    18  H   -0.032679  -0.002906   0.004056   0.370974  -0.024323   0.527397
    19  C   -0.044128   0.004198  -0.004642   0.296223  -0.028867  -0.042182
    20  H    0.004367  -0.000105   0.000021  -0.027272  -0.005696  -0.000742
    21  H   -0.003565   0.000034   0.003885  -0.040905  -0.001339   0.004932
    22  C   -0.005220  -0.000019  -0.000248  -0.023697   0.002955  -0.003999
    23  O    0.000403  -0.000001  -0.000020   0.003194  -0.000067   0.000260
    24  O   -0.001764  -0.000016  -0.000002   0.005347   0.000171   0.013364
              19         20         21         22         23         24
     1  C    0.000206  -0.000002  -0.000016   0.000494  -0.000033   0.000310
     2  C   -0.001429  -0.000009   0.000029   0.001136  -0.000022   0.004852
     3  C    0.002537   0.000026   0.000499   0.005411   0.002894   0.000952
     4  N   -0.000094  -0.000001   0.000024  -0.001441  -0.000737  -0.000612
     5  H    0.000001   0.000000  -0.000000   0.000006   0.000000   0.000011
     6  H   -0.000032   0.000000   0.000000   0.000011  -0.000000   0.000148
     7  H   -0.000183   0.000007   0.000398   0.000664   0.001036   0.000115
     8  C    0.000006   0.000000   0.000001   0.000017   0.000245  -0.000059
     9  H    0.000000   0.000000  -0.000000  -0.000001  -0.000007   0.000000
    10  H    0.000001  -0.000000  -0.000000   0.000027   0.000050   0.000014
    11  H    0.000000   0.000000  -0.000000   0.000001   0.000001  -0.000000
    12  N   -0.001609   0.000022  -0.000510  -0.001587  -0.000873  -0.001802
    13  C   -0.044128   0.004367  -0.003565  -0.005220   0.000403  -0.001764
    14  H    0.004198  -0.000105   0.000034  -0.000019  -0.000001  -0.000016
    15  H   -0.004642   0.000021   0.003885  -0.000248  -0.000020  -0.000002
    16  C    0.296223  -0.027272  -0.040905  -0.023697   0.003194   0.005347
    17  H   -0.028867  -0.005696  -0.001339   0.002955  -0.000067   0.000171
    18  H   -0.042182  -0.000742   0.004932  -0.003999   0.000260   0.013364
    19  C    5.474508   0.366585   0.351557   0.311234  -0.126035  -0.139633
    20  H    0.366585   0.500312  -0.022985  -0.022239   0.000864   0.000622
    21  H    0.351557  -0.022985   0.548485  -0.025141   0.007345   0.004134
    22  C    0.311234  -0.022239  -0.025141   4.263363   0.478040   0.468580
    23  O   -0.126035   0.000864   0.007345   0.478040   8.481169  -0.102643
    24  O   -0.139633   0.000622   0.004134   0.468580  -0.102643   8.470955
 Mulliken charges:
               1
     1  C   -0.009590
     2  C   -0.012674
     3  C    0.298592
     4  N   -0.437434
     5  H    0.278531
     6  H    0.279073
     7  H    0.313076
     8  C   -0.373455
     9  H    0.241139
    10  H    0.242121
    11  H    0.240569
    12  N   -0.428602
    13  C   -0.203898
    14  H    0.237938
    15  H    0.235101
    16  C   -0.331204
    17  H    0.198989
    18  H    0.187039
    19  C   -0.418221
    20  H    0.206225
    21  H    0.173136
    22  C    0.551655
    23  O   -0.745062
    24  O   -0.723044
 Sum of Mulliken charges =  -0.00000
 Mulliken charges with hydrogens summed into heavy atoms:
               1
     1  C    0.268941
     2  C    0.266399
     3  C    0.611668
     4  N   -0.437434
     8  C    0.350374
    12  N   -0.428602
    13  C    0.269141
    16  C    0.054824
    19  C   -0.038860
    22  C    0.551655
    23  O   -0.745062
    24  O   -0.723044
 Electronic spatial extent (au):  <R**2>=           1959.4273
 Charge=             -0.0000 electrons
 Dipole moment (field-independent basis, Debye):
    X=              9.1754    Y=            -11.3206    Z=             -4.9033  Tot=             15.3749
 Quadrupole moment (field-independent basis, Debye-Ang):
   XX=            -50.6810   YY=            -80.4057   ZZ=            -68.8168
   XY=             16.0556   XZ=              5.1675   YZ=             -4.7586
 Traceless Quadrupole moment (field-independent basis, Debye-Ang):
   XX=             15.9535   YY=            -13.7712   ZZ=             -2.1823
   XY=             16.0556   XZ=              5.1675   YZ=             -4.7586
 Octapole moment (field-independent basis, Debye-Ang**2):
  XXX=             51.5826  YYY=            -58.0115  ZZZ=            -18.1480  XYY=             20.0648
  XXY=              6.1098  XXZ=             -2.9203  XZZ=             22.9010  YZZ=            -15.5507
  YYZ=              4.5339  XYZ=             -6.1673
 Hexadecapole moment (field-independent basis, Debye-Ang**3):
 XXXX=          -1187.2264 YYYY=           -827.5073 ZZZZ=           -325.3512 XXXY=             56.9615
 XXXZ=              9.7762 YYYX=             75.2376 YYYZ=              3.8472 ZZZX=             20.0754
 ZZZY=            -26.1667 XXYY=           -358.0675 XXZZ=           -277.0271 YYZZ=           -181.8990
 XXYZ=            -10.0640 YYXZ=             -0.3605 ZZXY=             16.1483
 N-N= 7.370722217134D+02 E-N=-2.806933294695D+03  KE= 5.667414151937D+02
 No NMR shielding tensors so no spin-rotation constants.
 Leave Link  601 at Wed Oct 11 21:25:38 2023, MaxMem=  6710886400 cpu:               2.3 elap:               0.1
 (Enter /data0/home/software/g16/l9999.exe)
 1\1\GINC-LOCALHOST\SP\RM052X\6-31G(d)\C8H12N2O2\WUHANYU\11-Oct-2023\0\
 \#p M052X/6-31G* scrf=(smd,solvent=water)\\Title Card Required\\0,1\C,
 0,2.012025,-0.6161,1.006531\C,0,0.933717,-1.438188,0.951606\C,0,0.9919
 65,-0.27021,-0.918677\N,0,2.031452,0.102814,-0.173559\H,0,2.761727,-0.
 479399,1.765585\H,0,0.551903,-2.152703,1.658969\H,0,0.74484,0.119282,-
 1.890781\C,0,3.019831,1.114508,-0.53941\H,0,2.767447,1.506038,-1.52103
 \H,0,2.999318,1.917844,0.194366\H,0,4.008916,0.661635,-0.564177\N,0,0.
 316677,-1.215341,-0.263454\C,0,-0.956819,-1.807469,-0.69763\H,0,-0.915
 8,-2.866035,-0.446513\H,0,-0.992981,-1.712506,-1.781836\C,0,-2.16793,-
 1.1442,-0.051639\H,0,-3.038236,-1.714459,-0.385385\H,0,-2.111684,-1.25
 3397,1.033077\C,0,-2.35248,0.325304,-0.430056\H,0,-3.374451,0.625194,-
 0.175506\H,0,-2.246673,0.455798,-1.508841\C,0,-1.442179,1.330543,0.287
 585\O,0,-1.045237,2.332299,-0.37834\O,0,-1.182263,1.13211,1.507253\\Ve
 rsion=ES64L-G16RevA.03\State=1-A\HF=-571.9811652\RMSD=3.522e-09\Dipole
 =3.6098802,-4.4538644,-1.9291113\Quadrupole=11.8610212,-10.2385508,-1.
 6224704,11.9369363,3.8418876,-3.5378867\PG=C01 [X(C8H12N2O2)]\\@


 LOVE IS BLIND, THAT'S WHY ALL THE WORLD LOVES A LOUVER.
 Job cpu time:       0 days  0 hours  7 minutes 54.5 seconds.
 Elapsed time:       0 days  0 hours  0 minutes 20.6 seconds.
 File lengths (MBytes):  RWF=     76 Int=      0 D2E=      0 Chk=      4 Scr=      1
 Normal termination of Gaussian 16 at Wed Oct 11 21:25:38 2023.
