 Entering Gaussian System, Link 0=g16
 Initial command:
 /data0/home/software/g16/l1.exe "/data0/home/software/g16/scratch/Gau-354016.inp" -scrdir="/data0/home/software/g16/scratch/"
 Default is to use a total of  22 processors:
                               22 via shared-memory
                                1 via Linda
 Entering Link 1 = /data0/home/software/g16/l1.exe PID=    354017.
  
 Copyright (c) 1988,1990,1992,1993,1995,1998,2003,2009,2016,
            Gaussian, Inc.  All Rights Reserved.
  
 This is part of the Gaussian(R) 16 program.  It is based on
 the Gaussian(R) 09 system (copyright 2009, Gaussian, Inc.),
 the Gaussian(R) 03 system (copyright 2003, Gaussian, Inc.),
 the Gaussian(R) 98 system (copyright 1998, Gaussian, Inc.),
 the Gaussian(R) 94 system (copyright 1995, Gaussian, Inc.),
 the Gaussian 92(TM) system (copyright 1992, Gaussian, Inc.),
 the Gaussian 90(TM) system (copyright 1990, Gaussian, Inc.),
 the Gaussian 88(TM) system (copyright 1988, Gaussian, Inc.),
 the Gaussian 86(TM) system (copyright 1986, Carnegie Mellon
 University), and the Gaussian 82(TM) system (copyright 1983,
 Carnegie Mellon University). Gaussian is a federally registered
 trademark of Gaussian, Inc.
  
 This software contains proprietary and confidential information,
 including trade secrets, belonging to Gaussian, Inc.
  
 This software is provided under written license and may be
 used, copied, transmitted, or stored only in accord with that
 written license.
  
 The following legend is applicable only to US Government
 contracts under FAR:
  
                    RESTRICTED RIGHTS LEGEND
  
 Use, reproduction and disclosure by the US Government is
 subject to restrictions as set forth in subparagraphs (a)
 and (c) of the Commercial Computer Software - Restricted
 Rights clause in FAR 52.227-19.
  
 Gaussian, Inc.
 340 Quinnipiac St., Bldg. 40, Wallingford CT 06492
  
  
 ---------------------------------------------------------------
 Warning -- This program may not be used in any manner that
 competes with the business of Gaussian, Inc. or will provide
 assistance to any competitor of Gaussian, Inc.  The licensee
 of this program is prohibited from giving any competitor of
 Gaussian, Inc. access to this program.  By using this program,
 the user acknowledges that Gaussian, Inc. is engaged in the
 business of creating and licensing software in the field of
 computational chemistry and represents and warrants to the
 licensee that it is not a competitor of Gaussian, Inc. and that
 it will not use this program in any manner prohibited above.
 ---------------------------------------------------------------
  

 Cite this work as:
 Gaussian 16, Revision A.03,
 M. J. Frisch, G. W. Trucks, H. B. Schlegel, G. E. Scuseria, 
 M. A. Robb, J. R. Cheeseman, G. Scalmani, V. Barone, 
 G. A. Petersson, H. Nakatsuji, X. Li, M. Caricato, A. V. Marenich, 
 J. Bloino, B. G. Janesko, R. Gomperts, B. Mennucci, H. P. Hratchian, 
 J. V. Ortiz, A. F. Izmaylov, J. L. Sonnenberg, D. Williams-Young, 
 F. Ding, F. Lipparini, F. Egidi, J. Goings, B. Peng, A. Petrone, 
 T. Henderson, D. Ranasinghe, V. G. Zakrzewski, J. Gao, N. Rega, 
 G. Zheng, W. Liang, M. Hada, M. Ehara, K. Toyota, R. Fukuda, 
 J. Hasegawa, M. Ishida, T. Nakajima, Y. Honda, O. Kitao, H. Nakai, 
 T. Vreven, K. Throssell, J. A. Montgomery, Jr., J. E. Peralta, 
 F. Ogliaro, M. J. Bearpark, J. J. Heyd, E. N. Brothers, K. N. Kudin, 
 V. N. Staroverov, T. A. Keith, R. Kobayashi, J. Normand, 
 K. Raghavachari, A. P. Rendell, J. C. Burant, S. S. Iyengar, 
 J. Tomasi, M. Cossi, J. M. Millam, M. Klene, C. Adamo, R. Cammi, 
 J. W. Ochterski, R. L. Martin, K. Morokuma, O. Farkas, 
 J. B. Foresman, and D. J. Fox, Gaussian, Inc., Wallingford CT, 2016.
 
 ******************************************
 Gaussian 16:  ES64L-G16RevA.03 25-Dec-2016
                20-Feb-2023 
 ******************************************
 %nproc=24
 Will use up to   24 processors via shared memory.
 %mem=50GB
 ---------------------------------------------------
 #p M062X/6-311+G(2d,p) nosymm em=GD3 counterpoise=4
 ---------------------------------------------------
 1/38=1,62=4,172=1/1;
 2/12=2,15=1,17=6,18=5,40=1/2;
 1/38=1,53=2,62=4,63=1/22;
 3/5=4,6=6,7=112,11=2,25=1,30=1,74=-55,124=31/1,2,3;
 4//1;
 5/5=2,38=5/2;
 6/7=2,8=2,9=2,10=2,28=1/1;
 1/53=2,62=4,63=1/22;
 3/5=7,6=11,7=112,11=2,25=1,30=1,74=-55,82=7,124=31/1,2,3;
 4//1;
 5/5=2,38=5/2;
 6/7=2,8=2,9=2,10=2,28=1/1;
 1/53=2,62=4,63=1/22(-4);
 99/5=1,9=1/99;
 Leave Link    1 at Mon Feb 20 00:56:07 2023, MaxMem=  6710886400 cpu:               0.6 elap:               0.0
 (Enter /data0/home/software/g16/l101.exe)
 -------------------
 Title Card Required
 -------------------
 Symbolic Z-matrix:
 Charge =  0 Multiplicity = 1 in supermolecule
 Charge =  0 Multiplicity = 1 in fragment      1.
 Charge =  0 Multiplicity = 1 in fragment      2.
 Charge =  0 Multiplicity = 1 in fragment      3.
 Charge =  0 Multiplicity = 1 in fragment      4.
 P                     12.80904   8.96751   8.32281    
 O                     12.37231   9.04777   9.72189    
 O                     14.24342   8.2879    8.23047    
 H                     14.50426   8.26539   7.22881    
 O                     11.91062   8.12233   7.33518    
 H                     10.97382   8.63118   7.22143    
 O                     13.02902   10.38833   7.63656    
 H                     12.09787   10.76249   7.30488    
 O                     8.1608    8.12453   9.11298    
 H                     8.65983   8.62072   8.41019    
 H                     7.97976   7.27756   8.71882    
 O                     9.88988   8.12194   11.28444    
 H                     10.73149   8.08876   10.81738    
 H                     9.22744   7.99733   10.58101    
 O                     12.00119   12.99375   9.0036     
 H                     12.85871   12.61665   8.79194    
 H                     11.42043   12.6179   8.30716    
 
 ITRead=  0  0  0  0  0  0  0  0  0  0  0  0  0  0  0  0  0
 MicOpt= -1 -1 -1 -1 -1 -1 -1 -1 -1 -1 -1 -1 -1 -1 -1 -1 -1
 NAtoms=     17 NQM=       17 NQMF=       0 NMMI=      0 NMMIF=      0
                NMic=       0 NMicF=      0.
                    Isotopes and Nuclear Properties:
 (Nuclear quadrupole moments (NQMom) in fm**2, nuclear magnetic moments (NMagM)
  in nuclear magnetons)

  Atom         1           2           3           4           5           6           7           8           9          10
 IAtWgt=          31          16          16           1          16           1          16           1          16           1
 AtmWgt=  30.9737634  15.9949146  15.9949146   1.0078250  15.9949146   1.0078250  15.9949146   1.0078250  15.9949146   1.0078250
 NucSpn=           1           0           0           1           0           1           0           1           0           1
 AtZEff=  -0.0000000  -0.0000000  -0.0000000  -0.0000000  -0.0000000  -0.0000000  -0.0000000  -0.0000000  -0.0000000  -0.0000000
 NQMom=    0.0000000   0.0000000   0.0000000   0.0000000   0.0000000   0.0000000   0.0000000   0.0000000   0.0000000   0.0000000
 NMagM=    1.1316000   0.0000000   0.0000000   2.7928460   0.0000000   2.7928460   0.0000000   2.7928460   0.0000000   2.7928460
 AtZNuc=  15.0000000   8.0000000   8.0000000   1.0000000   8.0000000   1.0000000   8.0000000   1.0000000   8.0000000   1.0000000

  Atom        11          12          13          14          15          16          17
 IAtWgt=           1          16           1           1          16           1           1
 AtmWgt=   1.0078250  15.9949146   1.0078250   1.0078250  15.9949146   1.0078250   1.0078250
 NucSpn=           1           0           1           1           0           1           1
 AtZEff=  -0.0000000  -0.0000000  -0.0000000  -0.0000000  -0.0000000  -0.0000000  -0.0000000
 NQMom=    0.0000000   0.0000000   0.0000000   0.0000000   0.0000000   0.0000000   0.0000000
 NMagM=    2.7928460   0.0000000   2.7928460   2.7928460   0.0000000   2.7928460   2.7928460
 AtZNuc=   1.0000000   8.0000000   1.0000000   1.0000000   8.0000000   1.0000000   1.0000000
 Leave Link  101 at Mon Feb 20 00:56:07 2023, MaxMem=  6710886400 cpu:               2.0 elap:               0.1
 (Enter /data0/home/software/g16/l202.exe)
                          Input orientation:                          
 ---------------------------------------------------------------------
 Center     Atomic      Atomic             Coordinates (Angstroms)
 Number     Number       Type             X           Y           Z
 ---------------------------------------------------------------------
      1         15           0       12.809037    8.967506    8.322808
      2          8           0       12.372310    9.047767    9.721893
      3          8           0       14.243419    8.287898    8.230468
      4          1           0       14.504264    8.265394    7.228808
      5          8           0       11.910620    8.122325    7.335179
      6          1           0       10.973822    8.631180    7.221430
      7          8           0       13.029020   10.388335    7.636556
      8          1           0       12.097869   10.762486    7.304882
      9          8           0        8.160797    8.124526    9.112979
     10          1           0        8.659827    8.620721    8.410191
     11          1           0        7.979763    7.277555    8.718823
     12          8           0        9.889878    8.121935   11.284442
     13          1           0       10.731491    8.088760   10.817381
     14          1           0        9.227438    7.997330   10.581012
     15          8           0       12.001186   12.993747    9.003599
     16          1           0       12.858712   12.616645    8.791935
     17          1           0       11.420435   12.617903    8.307164
 ---------------------------------------------------------------------
                    Distance matrix (angstroms):
                    1          2          3          4          5
     1  P    0.000000
     2  O    1.467859   0.000000
     3  O    1.589920   2.510537   0.000000
     4  H    2.136257   3.372359   1.035311   0.000000
     5  O    1.580157   2.601154   2.504178   2.599764   0.000000
     6  H    2.166602   2.895104   3.438934   3.549348   1.072130
     7  O    1.593138   2.564570   2.497865   2.617151   2.544887
     8  H    2.182633   2.976159   3.403481   3.468716   2.646966
     9  O    4.789689   4.354307   6.148480   6.618876   4.149910
    10  H    4.164594   3.960487   5.596389   5.973221   3.460015
    11  H    5.131730   4.840895   6.363385   6.764990   4.252028
    12  O    4.243555   3.075905   5.320491   6.145023   4.436223
    13  H    3.363226   2.193644   4.366396   5.209882   3.676575
    14  H    4.343798   3.425160   5.547031   6.257318   4.213137
    15  O    4.162537   4.027957   5.269759   5.636719   5.150008
    16  H    3.679506   3.719986   4.579379   4.907606   4.818706
    17  H    3.905619   3.956437   5.169532   5.442168   4.625501
                    6          7          8          9         10
     6  H    0.000000
     7  O    2.735647   0.000000
     8  H    2.410998   1.056901   0.000000
     9  O    3.427501   5.568146   5.072335   0.000000
    10  H    2.601506   4.776277   4.198690   0.994561   0.000000
    11  H    3.610938   6.028536   5.576986   0.951574   1.536826
    12  O    4.235839   5.319573   5.261619   2.775784   3.165933
    13  H    3.644696   4.548003   4.620979   3.084596   3.220146
    14  H    3.839064   5.370172   5.159311   1.819072   2.328790
    15  O    4.823235   3.116636   2.805978   6.202408   5.535356
    16  H    4.680088   2.515804   2.495619   6.507888   5.808939
    17  H    4.155989   2.829882   2.214962   5.609368   4.858913
                   11         12         13         14         15
    11  H    0.000000
    12  O    3.308159   0.000000
    13  H    3.554435   0.963099   0.000000
    14  H    2.354255   0.974252   1.525256   0.000000
    15  O    6.994840   5.778790   5.381527   5.928414   0.000000
    16  H    7.232937   5.935401   5.397151   6.142070   0.960395
    17  H    6.366082   5.605401   5.223885   5.597260   0.981607
                   16         17
    16  H    0.000000
    17  H    1.517776   0.000000
 Symmetry turned off by external request.
 Stoichiometry    H9O7P
 Framework group  C1[X(H9O7P)]
 Deg. of freedom    45
 Full point group                 C1      NOp   1
 Rotational constants (GHZ):           1.1525534           0.7106831           0.5624266
 Leave Link  202 at Mon Feb 20 00:56:07 2023, MaxMem=  6710886400 cpu:               0.1 elap:               0.0
 (Enter /data0/home/software/g16/l122.exe)
 Counterpoise: doing full-system calculation.
 Leave Link  122 at Mon Feb 20 00:56:07 2023, MaxMem=  6710886400 cpu:               0.0 elap:               0.0
 (Enter /data0/home/software/g16/l301.exe)
 Standard basis: 6-311+G(2d,p) (5D, 7F)
 Ernie: Thresh=  0.10000D-02 Tol=  0.10000D-05 Strict=F.
   278 basis functions,   422 primitive gaussians,   294 cartesian basis functions
    40 alpha electrons       40 beta electrons
       nuclear repulsion energy       526.2555846639 Hartrees.
 IExCor= 4336 DFT=T Ex+Corr=M062X ExCW=0 ScaHFX=  0.540000
 ScaDFX=  1.000000  1.000000  1.000000  1.000000 ScalE2=  1.000000  1.000000
 IRadAn=      5 IRanWt=     -1 IRanGd=            0 ICorTp=0 IEmpDi=131
 NAtoms=   17 NActive=   17 NUniq=   17 SFac= 1.00D+00 NAtFMM=   60 NAOKFM=F Big=F
 Integral buffers will be    131072 words long.
 Raffenetti 2 integral format.
 Two-electron integral symmetry is turned off.
 R6Disp:  Grimme-D3 Dispersion energy=       -0.0005820185 Hartrees.
 Nuclear repulsion after empirical dispersion term =      526.2550026454 Hartrees.
 Leave Link  301 at Mon Feb 20 00:56:07 2023, MaxMem=  6710886400 cpu:               1.1 elap:               0.1
 (Enter /data0/home/software/g16/l302.exe)
 NPDir=0 NMtPBC=     1 NCelOv=     1 NCel=       1 NClECP=     1 NCelD=      1
         NCelK=      1 NCelE2=     1 NClLst=     1 CellRange=     0.0.
 One-electron integrals computed using PRISM.
 NBasis=   278 RedAO= T EigKep=  4.50D-04  NBF=   278
 NBsUse=   278 1.00D-06 EigRej= -1.00D+00 NBFU=   278
 Precomputing XC quadrature grid using
 IXCGrd= 4 IRadAn=           5 IRanWt=          -1 IRanGd=           0 AccXCQ= 0.00D+00.
 Generated NRdTot=       0 NPtTot=           0 NUsed=           0 NTot=          32
 NSgBfM=   292   292   292   292   292 MxSgAt=    17 MxSgA2=    17.
 Leave Link  302 at Mon Feb 20 00:56:07 2023, MaxMem=  6710886400 cpu:               4.3 elap:               0.2
 (Enter /data0/home/software/g16/l303.exe)
 DipDrv:  MaxL=1.
 Leave Link  303 at Mon Feb 20 00:56:07 2023, MaxMem=  6710886400 cpu:               0.7 elap:               0.0
 (Enter /data0/home/software/g16/l401.exe)
 ExpMin= 3.48D-02 ExpMax= 7.75D+04 ExpMxC= 2.65D+03 IAcc=3 IRadAn=         5 AccDes= 0.00D+00
 Harris functional with IExCor= 1009 and IRadAn=       5 diagonalized for initial guess.
 HarFok:  IExCor= 1009 AccDes= 0.00D+00 IRadAn=         5 IDoV= 1 UseB2=F ITyADJ=14
 ICtDFT=  3500011 ScaDFX=  1.000000  1.000000  1.000000  1.000000
 FoFCou: FMM=F IPFlag=           0 FMFlag=      100000 FMFlg1=           0
         NFxFlg=           0 DoJE=T BraDBF=F KetDBF=T FulRan=T
         wScrn=  0.000000 ICntrl=       500 IOpCl=  0 I1Cent=   200000004 NGrid=           0
         NMat0=    1 NMatS0=      1 NMatT0=    0 NMatD0=    1 NMtDS0=    0 NMtDT0=    0
 Symmetry not used in FoFCou.
 Harris En= -873.186116922592    
 JPrj=0 DoOrth=F DoCkMO=F.
 Leave Link  401 at Mon Feb 20 00:56:08 2023, MaxMem=  6710886400 cpu:              12.8 elap:               0.6
 (Enter /data0/home/software/g16/l502.exe)
 Two-electron integral symmetry not used.
 Closed shell SCF:
 Using DIIS extrapolation, IDIIS=  1040.
 NGot=  6710886400 LenX=  6710704303 LenY=  6710617426
 Requested convergence on RMS density matrix=1.00D-08 within 128 cycles.
 Requested convergence on MAX density matrix=1.00D-06.
 Requested convergence on             energy=1.00D-06.
 No special actions if energy rises.
 Fock matrices will be formed incrementally for  20 cycles.

 Cycle   1  Pass 1  IDiag  1:
 FoFJK:  IHMeth= 1 ICntrl=       0 DoSepK=F KAlg= 0 I1Cent=           0 FoldK=F
 IRaf= 860000000 NMat=       1 IRICut=       1 DoRegI=T DoRafI=F ISym2E= 0 IDoP0=0 IntGTp=1.
 FoFCou: FMM=F IPFlag=           0 FMFlag=      100000 FMFlg1=           0
         NFxFlg=           0 DoJE=F BraDBF=F KetDBF=F FulRan=T
         wScrn=  0.000000 ICntrl=         0 IOpCl=  0 I1Cent=           0 NGrid=           0
         NMat0=    1 NMatS0=      1 NMatT0=    0 NMatD0=    1 NMtDS0=    0 NMtDT0=    0
 Symmetry not used in FoFCou.
 E= -872.889564261018    
 DIIS: error= 4.00D-02 at cycle   1 NSaved=   1.
 NSaved= 1 IEnMin= 1 EnMin= -872.889564261018     IErMin= 1 ErrMin= 4.00D-02
 ErrMax= 4.00D-02  0.00D+00 EMaxC= 1.00D-01 BMatC= 8.58D-01 BMatP= 8.58D-01
 IDIUse=3 WtCom= 6.00D-01 WtEn= 4.00D-01
 Coeff-Com:  0.100D+01
 Coeff-En:   0.100D+01
 Coeff:      0.100D+01
 Gap=     0.223 Goal=   None    Shift=    0.000
 GapD=    0.223 DampG=1.000 DampE=0.500 DampFc=0.5000 IDamp=-1.
 Damping current iteration by 5.00D-01
 RMSDP=6.34D-03 MaxDP=2.70D-01              OVMax= 2.50D-01

 Cycle   2  Pass 1  IDiag  1:
 RMSU=  3.17D-03    CP:  1.00D+00
 E= -873.097651103966     Delta-E=       -0.208086842948 Rises=F Damp=T
 DIIS: error= 8.56D-03 at cycle   2 NSaved=   2.
 NSaved= 2 IEnMin= 2 EnMin= -873.097651103966     IErMin= 2 ErrMin= 8.56D-03
 ErrMax= 8.56D-03  0.00D+00 EMaxC= 1.00D-01 BMatC= 4.23D-02 BMatP= 8.58D-01
 IDIUse=3 WtCom= 9.14D-01 WtEn= 8.56D-02
 Coeff-Com:  0.781D-01 0.922D+00
 Coeff-En:   0.200D+00 0.800D+00
 Coeff:      0.885D-01 0.912D+00
 Gap=     0.263 Goal=   None    Shift=    0.000
 RMSDP=1.45D-03 MaxDP=8.77D-02 DE=-2.08D-01 OVMax= 1.78D-01

 Cycle   3  Pass 1  IDiag  1:
 RMSU=  9.52D-04    CP:  9.98D-01  6.57D-01
 E= -873.395470006547     Delta-E=       -0.297818902580 Rises=F Damp=F
 DIIS: error= 5.04D-03 at cycle   3 NSaved=   3.
 NSaved= 3 IEnMin= 3 EnMin= -873.395470006547     IErMin= 3 ErrMin= 5.04D-03
 ErrMax= 5.04D-03  0.00D+00 EMaxC= 1.00D-01 BMatC= 1.14D-02 BMatP= 4.23D-02
 IDIUse=3 WtCom= 9.50D-01 WtEn= 5.04D-02
 Coeff-Com: -0.134D-01 0.283D+00 0.731D+00
 Coeff-En:   0.000D+00 0.000D+00 0.100D+01
 Coeff:     -0.127D-01 0.268D+00 0.744D+00
 Gap=     0.267 Goal=   None    Shift=    0.000
 RMSDP=4.67D-04 MaxDP=1.75D-02 DE=-2.98D-01 OVMax= 3.98D-02

 Cycle   4  Pass 1  IDiag  1:
 RMSU=  4.13D-04    CP:  9.99D-01  7.15D-01  8.78D-01
 E= -873.399355046330     Delta-E=       -0.003885039784 Rises=F Damp=F
 DIIS: error= 3.67D-03 at cycle   4 NSaved=   4.
 NSaved= 4 IEnMin= 4 EnMin= -873.399355046330     IErMin= 4 ErrMin= 3.67D-03
 ErrMax= 3.67D-03  0.00D+00 EMaxC= 1.00D-01 BMatC= 6.29D-03 BMatP= 1.14D-02
 IDIUse=3 WtCom= 9.63D-01 WtEn= 3.67D-02
 Coeff-Com: -0.200D-01 0.403D-01 0.449D+00 0.531D+00
 Coeff-En:   0.000D+00 0.000D+00 0.354D+00 0.646D+00
 Coeff:     -0.192D-01 0.388D-01 0.445D+00 0.535D+00
 Gap=     0.266 Goal=   None    Shift=    0.000
 RMSDP=2.14D-04 MaxDP=8.57D-03 DE=-3.89D-03 OVMax= 1.43D-02

 Cycle   5  Pass 1  IDiag  1:
 RMSU=  6.69D-05    CP:  9.98D-01  6.92D-01  9.74D-01  5.96D-01
 E= -873.403580790756     Delta-E=       -0.004225744426 Rises=F Damp=F
 DIIS: error= 2.43D-04 at cycle   5 NSaved=   5.
 NSaved= 5 IEnMin= 5 EnMin= -873.403580790756     IErMin= 5 ErrMin= 2.43D-04
 ErrMax= 2.43D-04  0.00D+00 EMaxC= 1.00D-01 BMatC= 2.91D-05 BMatP= 6.29D-03
 IDIUse=3 WtCom= 9.98D-01 WtEn= 2.43D-03
 Coeff-Com: -0.311D-02 0.107D-02 0.812D-01 0.126D+00 0.795D+00
 Coeff-En:   0.000D+00 0.000D+00 0.000D+00 0.000D+00 0.100D+01
 Coeff:     -0.310D-02 0.107D-02 0.810D-01 0.125D+00 0.796D+00
 Gap=     0.268 Goal=   None    Shift=    0.000
 RMSDP=2.31D-05 MaxDP=6.96D-04 DE=-4.23D-03 OVMax= 1.04D-03

 Cycle   6  Pass 1  IDiag  1:
 RMSU=  1.69D-05    CP:  9.98D-01  6.89D-01  9.76D-01  6.20D-01  1.07D+00
 E= -873.403597870813     Delta-E=       -0.000017080057 Rises=F Damp=F
 DIIS: error= 1.39D-04 at cycle   6 NSaved=   6.
 NSaved= 6 IEnMin= 6 EnMin= -873.403597870813     IErMin= 6 ErrMin= 1.39D-04
 ErrMax= 1.39D-04  0.00D+00 EMaxC= 1.00D-01 BMatC= 5.73D-06 BMatP= 2.91D-05
 IDIUse=3 WtCom= 9.99D-01 WtEn= 1.39D-03
 Coeff-Com:  0.307D-04-0.206D-02 0.468D-02 0.174D-01 0.331D+00 0.649D+00
 Coeff-En:   0.000D+00 0.000D+00 0.000D+00 0.000D+00 0.000D+00 0.100D+01
 Coeff:      0.306D-04-0.206D-02 0.467D-02 0.174D-01 0.330D+00 0.649D+00
 Gap=     0.268 Goal=   None    Shift=    0.000
 RMSDP=1.04D-05 MaxDP=4.84D-04 DE=-1.71D-05 OVMax= 4.16D-04

 Cycle   7  Pass 1  IDiag  1:
 RMSU=  5.46D-06    CP:  9.98D-01  6.87D-01  9.78D-01  6.22D-01  1.15D+00
                    CP:  8.15D-01
 E= -873.403601708826     Delta-E=       -0.000003838013 Rises=F Damp=F
 DIIS: error= 3.45D-05 at cycle   7 NSaved=   7.
 NSaved= 7 IEnMin= 7 EnMin= -873.403601708826     IErMin= 7 ErrMin= 3.45D-05
 ErrMax= 3.45D-05  0.00D+00 EMaxC= 1.00D-01 BMatC= 5.83D-07 BMatP= 5.73D-06
 IDIUse=1 WtCom= 1.00D+00 WtEn= 0.00D+00
 Coeff-Com:  0.447D-03-0.743D-03-0.113D-01-0.140D-01-0.165D-01 0.231D+00
 Coeff-Com:  0.811D+00
 Coeff:      0.447D-03-0.743D-03-0.113D-01-0.140D-01-0.165D-01 0.231D+00
 Coeff:      0.811D+00
 Gap=     0.268 Goal=   None    Shift=    0.000
 RMSDP=4.46D-06 MaxDP=1.65D-04 DE=-3.84D-06 OVMax= 1.39D-04

 Cycle   8  Pass 1  IDiag  1:
 RMSU=  2.16D-06    CP:  9.98D-01  6.86D-01  9.78D-01  6.24D-01  1.18D+00
                    CP:  9.08D-01  8.67D-01
 E= -873.403602148094     Delta-E=       -0.000000439268 Rises=F Damp=F
 DIIS: error= 9.73D-06 at cycle   8 NSaved=   8.
 NSaved= 8 IEnMin= 8 EnMin= -873.403602148094     IErMin= 8 ErrMin= 9.73D-06
 ErrMax= 9.73D-06  0.00D+00 EMaxC= 1.00D-01 BMatC= 3.95D-08 BMatP= 5.83D-07
 IDIUse=1 WtCom= 1.00D+00 WtEn= 0.00D+00
 Coeff-Com:  0.153D-03-0.185D-03-0.449D-02-0.575D-02-0.158D-01 0.614D-01
 Coeff-Com:  0.310D+00 0.654D+00
 Coeff:      0.153D-03-0.185D-03-0.449D-02-0.575D-02-0.158D-01 0.614D-01
 Coeff:      0.310D+00 0.654D+00
 Gap=     0.268 Goal=   None    Shift=    0.000
 RMSDP=7.06D-07 MaxDP=3.25D-05 DE=-4.39D-07 OVMax= 4.06D-05

 Cycle   9  Pass 1  IDiag  1:
 RMSU=  5.27D-07    CP:  9.98D-01  6.86D-01  9.78D-01  6.24D-01  1.18D+00
                    CP:  9.21D-01  9.31D-01  9.13D-01
 E= -873.403602179183     Delta-E=       -0.000000031089 Rises=F Damp=F
 DIIS: error= 2.30D-06 at cycle   9 NSaved=   9.
 NSaved= 9 IEnMin= 9 EnMin= -873.403602179183     IErMin= 9 ErrMin= 2.30D-06
 ErrMax= 2.30D-06  0.00D+00 EMaxC= 1.00D-01 BMatC= 2.80D-09 BMatP= 3.95D-08
 IDIUse=1 WtCom= 1.00D+00 WtEn= 0.00D+00
 Coeff-Com: -0.627D-05 0.272D-04-0.252D-03-0.251D-03-0.253D-02-0.514D-02
 Coeff-Com:  0.111D-01 0.182D+00 0.815D+00
 Coeff:     -0.627D-05 0.272D-04-0.252D-03-0.251D-03-0.253D-02-0.514D-02
 Coeff:      0.111D-01 0.182D+00 0.815D+00
 Gap=     0.268 Goal=   None    Shift=    0.000
 RMSDP=2.70D-07 MaxDP=9.10D-06 DE=-3.11D-08 OVMax= 1.40D-05

 Cycle  10  Pass 1  IDiag  1:
 RMSU=  1.58D-07    CP:  9.98D-01  6.86D-01  9.78D-01  6.24D-01  1.19D+00
                    CP:  9.23D-01  9.40D-01  9.89D-01  9.81D-01
 E= -873.403602181436     Delta-E=       -0.000000002253 Rises=F Damp=F
 DIIS: error= 9.96D-07 at cycle  10 NSaved=  10.
 NSaved=10 IEnMin=10 EnMin= -873.403602181436     IErMin=10 ErrMin= 9.96D-07
 ErrMax= 9.96D-07  0.00D+00 EMaxC= 1.00D-01 BMatC= 7.20D-10 BMatP= 2.80D-09
 IDIUse=1 WtCom= 1.00D+00 WtEn= 0.00D+00
 Coeff-Com: -0.214D-04 0.368D-04 0.377D-03 0.513D-03 0.605D-04-0.104D-01
 Coeff-Com: -0.309D-01 0.148D-01 0.402D+00 0.623D+00
 Coeff:     -0.214D-04 0.368D-04 0.377D-03 0.513D-03 0.605D-04-0.104D-01
 Coeff:     -0.309D-01 0.148D-01 0.402D+00 0.623D+00
 Gap=     0.268 Goal=   None    Shift=    0.000
 RMSDP=1.13D-07 MaxDP=4.89D-06 DE=-2.25D-09 OVMax= 4.68D-06

 Cycle  11  Pass 1  IDiag  1:
 RMSU=  5.72D-08    CP:  9.98D-01  6.86D-01  9.78D-01  6.24D-01  1.19D+00
                    CP:  9.22D-01  9.44D-01  1.01D+00  1.10D+00  9.04D-01
 E= -873.403602181973     Delta-E=       -0.000000000537 Rises=F Damp=F
 DIIS: error= 1.79D-07 at cycle  11 NSaved=  11.
 NSaved=11 IEnMin=11 EnMin= -873.403602181973     IErMin=11 ErrMin= 1.79D-07
 ErrMax= 1.79D-07  0.00D+00 EMaxC= 1.00D-01 BMatC= 1.31D-11 BMatP= 7.20D-10
 IDIUse=1 WtCom= 1.00D+00 WtEn= 0.00D+00
 Coeff-Com:  0.451D-06-0.878D-06 0.367D-04 0.431D-04 0.214D-03-0.371D-03
 Coeff-Com: -0.395D-02-0.132D-01-0.313D-01 0.623D-01 0.986D+00
 Coeff:      0.451D-06-0.878D-06 0.367D-04 0.431D-04 0.214D-03-0.371D-03
 Coeff:     -0.395D-02-0.132D-01-0.313D-01 0.623D-01 0.986D+00
 Gap=     0.268 Goal=   None    Shift=    0.000
 RMSDP=3.22D-08 MaxDP=8.85D-07 DE=-5.37D-10 OVMax= 2.18D-06

 Cycle  12  Pass 1  IDiag  1:
 RMSU=  1.40D-08    CP:  9.98D-01  6.86D-01  9.78D-01  6.24D-01  1.19D+00
                    CP:  9.23D-01  9.44D-01  1.02D+00  1.12D+00  1.02D+00
                    CP:  1.13D+00
 E= -873.403602182046     Delta-E=       -0.000000000073 Rises=F Damp=F
 DIIS: error= 4.89D-08 at cycle  12 NSaved=  12.
 NSaved=12 IEnMin=12 EnMin= -873.403602182046     IErMin=12 ErrMin= 4.89D-08
 ErrMax= 4.89D-08  0.00D+00 EMaxC= 1.00D-01 BMatC= 1.41D-12 BMatP= 1.31D-11
 IDIUse=1 WtCom= 1.00D+00 WtEn= 0.00D+00
 Coeff-Com:  0.105D-05-0.187D-05-0.300D-05-0.506D-05 0.695D-04 0.335D-03
 Coeff-Com:  0.173D-03-0.420D-02-0.262D-01-0.118D-01 0.290D+00 0.752D+00
 Coeff:      0.105D-05-0.187D-05-0.300D-05-0.506D-05 0.695D-04 0.335D-03
 Coeff:      0.173D-03-0.420D-02-0.262D-01-0.118D-01 0.290D+00 0.752D+00
 Gap=     0.268 Goal=   None    Shift=    0.000
 RMSDP=6.55D-09 MaxDP=1.87D-07 DE=-7.32D-11 OVMax= 3.95D-07

 SCF Done:  E(RM062X) =  -873.403602182     A.U. after   12 cycles
            NFock= 12  Conv=0.65D-08     -V/T= 2.0026
 KE= 8.711079823631D+02 PE=-3.121593130193D+03 EE= 8.508265430022D+02
 Leave Link  502 at Mon Feb 20 00:56:24 2023, MaxMem=  6710886400 cpu:             385.2 elap:              16.1
 (Enter /data0/home/software/g16/l601.exe)
 Copying SCF densities to generalized density rwf, IOpCl= 0 IROHF=0.

 **********************************************************************

            Population analysis using the SCF density.

 **********************************************************************

 Alpha  occ. eigenvalues --  -78.19233 -19.72487 -19.71616 -19.70183 -19.66811
 Alpha  occ. eigenvalues --  -19.63438 -19.60307 -19.56201  -7.00028  -5.11949
 Alpha  occ. eigenvalues --   -5.11932  -5.11678  -1.27152  -1.20034  -1.19062
 Alpha  occ. eigenvalues --   -1.17403  -1.13948  -1.10721  -1.07216  -0.75252
 Alpha  occ. eigenvalues --   -0.68539  -0.66017  -0.64575  -0.61741  -0.60919
 Alpha  occ. eigenvalues --   -0.56493  -0.55916  -0.54271  -0.52259  -0.50861
 Alpha  occ. eigenvalues --   -0.49372  -0.48074  -0.47726  -0.47208  -0.45036
 Alpha  occ. eigenvalues --   -0.40784  -0.40521  -0.39996  -0.39067  -0.34134
 Alpha virt. eigenvalues --   -0.07342  -0.01333  -0.00603   0.03328   0.04500
 Alpha virt. eigenvalues --    0.05006   0.07512   0.08650   0.09681   0.11210
 Alpha virt. eigenvalues --    0.11678   0.12776   0.13925   0.14473   0.15736
 Alpha virt. eigenvalues --    0.16159   0.16607   0.16834   0.17979   0.18449
 Alpha virt. eigenvalues --    0.19342   0.19582   0.20177   0.20531   0.21480
 Alpha virt. eigenvalues --    0.21730   0.22006   0.23051   0.23495   0.24972
 Alpha virt. eigenvalues --    0.25589   0.26235   0.27287   0.27694   0.27915
 Alpha virt. eigenvalues --    0.29076   0.31083   0.31721   0.32807   0.34333
 Alpha virt. eigenvalues --    0.34822   0.35616   0.38076   0.38977   0.39519
 Alpha virt. eigenvalues --    0.41670   0.42964   0.44481   0.45756   0.47345
 Alpha virt. eigenvalues --    0.50386   0.51654   0.52546   0.54466   0.56406
 Alpha virt. eigenvalues --    0.57198   0.60604   0.62953   0.69629   0.72962
 Alpha virt. eigenvalues --    0.74730   0.74973   0.84628   0.94651   0.95809
 Alpha virt. eigenvalues --    0.97965   0.98938   1.00059   1.01617   1.02733
 Alpha virt. eigenvalues --    1.04301   1.05872   1.06646   1.09130   1.09744
 Alpha virt. eigenvalues --    1.09948   1.11704   1.12524   1.13614   1.14449
 Alpha virt. eigenvalues --    1.15335   1.16976   1.17624   1.18106   1.19278
 Alpha virt. eigenvalues --    1.19810   1.21532   1.21913   1.24252   1.25714
 Alpha virt. eigenvalues --    1.26014   1.27563   1.29673   1.30754   1.32751
 Alpha virt. eigenvalues --    1.33778   1.38545   1.39079   1.40366   1.40618
 Alpha virt. eigenvalues --    1.42520   1.43861   1.49033   1.51148   1.53168
 Alpha virt. eigenvalues --    1.54325   1.55633   1.57593   1.59386   1.63187
 Alpha virt. eigenvalues --    1.64978   1.65679   1.66355   1.68675   1.70226
 Alpha virt. eigenvalues --    1.71762   1.72398   1.73553   1.74867   1.76039
 Alpha virt. eigenvalues --    1.80121   1.81130   1.82001   1.84093   1.84978
 Alpha virt. eigenvalues --    1.87656   1.93192   1.96403   1.97437   2.00628
 Alpha virt. eigenvalues --    2.02703   2.04954   2.06465   2.07559   2.09610
 Alpha virt. eigenvalues --    2.10563   2.11077   2.12416   2.17541   2.19605
 Alpha virt. eigenvalues --    2.21841   2.24187   2.27884   2.34168   2.36456
 Alpha virt. eigenvalues --    2.38895   2.40998   2.41478   2.43985   2.47336
 Alpha virt. eigenvalues --    2.52066   2.53936   2.55730   2.58264   2.61243
 Alpha virt. eigenvalues --    2.62873   2.65593   2.67922   2.68908   2.72202
 Alpha virt. eigenvalues --    2.80721   2.85090   2.87216   2.88476   2.89663
 Alpha virt. eigenvalues --    2.94254   2.97737   3.01006   3.02276   3.18615
 Alpha virt. eigenvalues --    5.01269   5.03845   5.04647   5.05618   5.08076
 Alpha virt. eigenvalues --    5.08284   5.09612   5.13567   5.15267   5.18967
 Alpha virt. eigenvalues --    5.24276   5.35334   5.40660   5.44023   5.47442
 Alpha virt. eigenvalues --    5.49843   5.50368   5.56544   5.87137   5.90182
 Alpha virt. eigenvalues --    6.00798   6.69660   6.71681   6.72989   6.74540
 Alpha virt. eigenvalues --    6.76849   6.77178   6.78317   6.79019   6.79157
 Alpha virt. eigenvalues --    6.79556   6.80989   6.83787   6.85213   6.86844
 Alpha virt. eigenvalues --    6.87117   6.87414   6.88710   6.90159   6.90366
 Alpha virt. eigenvalues --    6.91500   6.92522   6.95885   6.97161   6.98612
 Alpha virt. eigenvalues --    6.99281   7.02277   7.06803   7.09124   7.10326
 Alpha virt. eigenvalues --    7.22494   7.22847   7.23731   7.25687   7.29779
 Alpha virt. eigenvalues --    7.39681   7.63110  14.21613  14.22251  14.32356
 Alpha virt. eigenvalues --   49.94375  49.95687  49.96305  49.97715  49.99117
 Alpha virt. eigenvalues --   50.06384  50.09206 163.85697
          Condensed to atoms (all electrons):
               1          2          3          4          5          6
     1  P   12.729748   0.481109   0.113402   0.036533   0.215222  -0.000067
     2  O    0.481109   8.188326  -0.022271  -0.002339  -0.022977  -0.022501
     3  O    0.113402  -0.022271   8.140492   0.213200   0.010221  -0.001789
     4  H    0.036533  -0.002339   0.213200   0.460639  -0.013864   0.002337
     5  O    0.215222  -0.022977   0.010221  -0.013864   8.062133   0.241103
     6  H   -0.000067  -0.022501  -0.001789   0.002337   0.241103   0.491006
     7  O    0.187288  -0.005256   0.013592  -0.007605   0.027434  -0.004138
     8  H    0.007227  -0.014141  -0.002044   0.002912  -0.005659  -0.001760
     9  O    0.001833  -0.002690   0.000122   0.000009  -0.002646   0.008547
    10  H   -0.000536   0.001910  -0.000003  -0.000006  -0.000035  -0.000983
    11  H   -0.001176   0.000551  -0.000019   0.000000   0.000283  -0.000576
    12  O    0.000379   0.002233   0.000348  -0.000050   0.000180  -0.000540
    13  H    0.006012   0.007084  -0.000627   0.000080  -0.002101   0.000204
    14  H    0.000640   0.001265  -0.000087  -0.000002  -0.000088  -0.001012
    15  O    0.001311   0.003983   0.000497  -0.000037  -0.000872  -0.000215
    16  H   -0.003269  -0.000630  -0.000299   0.000035   0.000266   0.000079
    17  H   -0.004572   0.002123   0.000222  -0.000005  -0.000616  -0.000276
               7          8          9         10         11         12
     1  P    0.187288   0.007227   0.001833  -0.000536  -0.001176   0.000379
     2  O   -0.005256  -0.014141  -0.002690   0.001910   0.000551   0.002233
     3  O    0.013592  -0.002044   0.000122  -0.000003  -0.000019   0.000348
     4  H   -0.007605   0.002912   0.000009  -0.000006   0.000000  -0.000050
     5  O    0.027434  -0.005659  -0.002646  -0.000035   0.000283   0.000180
     6  H   -0.004138  -0.001760   0.008547  -0.000983  -0.000576  -0.000540
     7  O    8.098176   0.228262  -0.000145  -0.000040   0.000023  -0.000773
     8  H    0.228262   0.500998  -0.000034  -0.000140   0.000007  -0.000055
     9  O   -0.000145  -0.000034   8.048463   0.293417   0.298879   0.029408
    10  H   -0.000040  -0.000140   0.293417   0.450939  -0.018971  -0.003849
    11  H    0.000023   0.000007   0.298879  -0.018971   0.425528  -0.005448
    12  O   -0.000773  -0.000055   0.029408  -0.003849  -0.005448   8.058917
    13  H    0.000386   0.000215   0.006907  -0.001292  -0.001604   0.289304
    14  H    0.000030   0.000028  -0.087408   0.005889   0.006437   0.294660
    15  O    0.012689   0.003297  -0.000036   0.000016   0.000000  -0.000065
    16  H    0.012460  -0.002930   0.000004  -0.000002   0.000000   0.000016
    17  H    0.011783  -0.000170   0.000008   0.000021   0.000000   0.000037
              13         14         15         16         17
     1  P    0.006012   0.000640   0.001311  -0.003269  -0.004572
     2  O    0.007084   0.001265   0.003983  -0.000630   0.002123
     3  O   -0.000627  -0.000087   0.000497  -0.000299   0.000222
     4  H    0.000080  -0.000002  -0.000037   0.000035  -0.000005
     5  O   -0.002101  -0.000088  -0.000872   0.000266  -0.000616
     6  H    0.000204  -0.001012  -0.000215   0.000079  -0.000276
     7  O    0.000386   0.000030   0.012689   0.012460   0.011783
     8  H    0.000215   0.000028   0.003297  -0.002930  -0.000170
     9  O    0.006907  -0.087408  -0.000036   0.000004   0.000008
    10  H   -0.001292   0.005889   0.000016  -0.000002   0.000021
    11  H   -0.001604   0.006437   0.000000   0.000000   0.000000
    12  O    0.289304   0.294660  -0.000065   0.000016   0.000037
    13  H    0.427411  -0.026879  -0.000023   0.000005   0.000001
    14  H   -0.026879   0.415721  -0.000003   0.000002  -0.000004
    15  O   -0.000023  -0.000003   7.834668   0.343436   0.304915
    16  H    0.000005   0.000002   0.343436   0.387385  -0.038194
    17  H    0.000001  -0.000004   0.304915  -0.038194   0.487697
 Mulliken charges:
               1
     1  P    1.228913
     2  O   -0.595779
     3  O   -0.464956
     4  H    0.308163
     5  O   -0.507985
     6  H    0.290579
     7  O   -0.574167
     8  H    0.283988
     9  O   -0.594639
    10  H    0.273666
    11  H    0.296086
    12  O   -0.664703
    13  H    0.294918
    14  H    0.390812
    15  O   -0.503561
    16  H    0.301635
    17  H    0.237030
 Sum of Mulliken charges =  -0.00000
 Mulliken charges with hydrogens summed into heavy atoms:
               1
     1  P    1.228913
     2  O   -0.595779
     3  O   -0.156793
     5  O   -0.217406
     7  O   -0.290179
     9  O   -0.024887
    12  O    0.021027
    15  O    0.035103
         Mulliken charges condensed to fragments:
      1     -0.031243
      2     -0.024887
      3      0.021027
      4      0.035103
 Electronic spatial extent (au):  <R**2>=          88389.0162
 Charge=              0.0000 electrons
 Dipole moment (field-independent basis, Debye):
    X=             -0.2284    Y=             -1.1070    Z=            -10.9967  Tot=             11.0546
 Quadrupole moment (field-independent basis, Debye-Ang):
   XX=            -56.8803   YY=            -84.0140   ZZ=           -257.8598
   XY=            -12.6685   XZ=           -121.9126   YZ=           -111.8337
 Traceless Quadrupole moment (field-independent basis, Debye-Ang):
   XX=             76.0377   YY=             48.9040   ZZ=           -124.9417
   XY=            -12.6685   XZ=           -121.9126   YZ=           -111.8337
 Octapole moment (field-independent basis, Debye-Ang**2):
  XXX=          -1907.2661  YYY=          -2104.0760  ZZZ=          -4296.6272  XYY=           -978.1190
  XXY=           -637.6439  XXZ=          -1842.9907  XZZ=          -2859.8051  YZZ=          -2464.3658
  YYZ=          -1709.9694  XYZ=          -1227.5234
 Hexadecapole moment (field-independent basis, Debye-Ang**3):
 XXXX=         -45105.7621 YYYY=         -39343.7309 ZZZZ=         -62004.3869 XXXY=         -19042.2205
 XXXZ=         -32080.5327 YYYX=         -24814.8863 YYYZ=         -27959.0623 ZZZX=         -47608.5240
 ZZZY=         -40161.9828 XXYY=         -16334.6747 XXZZ=         -36624.4461 YYZZ=         -29093.4346
 XXYZ=         -18078.0789 YYXZ=         -19184.6803 ZZXY=         -27316.8273
 N-N= 5.262550026454D+02 E-N=-3.121593131618D+03  KE= 8.711079823631D+02
 No NMR shielding tensors so no spin-rotation constants.
 Leave Link  601 at Mon Feb 20 00:56:24 2023, MaxMem=  6710886400 cpu:               2.3 elap:               0.1
 (Enter /data0/home/software/g16/l122.exe)
 CPIOFr:  IOpCl= 0 IRwI=-1 IRwCP=  731 ICalc= -1 LCPTot=      120517 Len1MO=      315166 IndFrg=      120517
 CPIOFr:  IOpCl= 0 IRwI=-1 IRwCP=  731 ICalc=  0 LCPTot=      120517 Len1MO=      315166 IndFrg=      435683
 Counterpoise: doing calculation for fragment   1 using the basis set of the full-system, NewBq=T
 Leave Link  122 at Mon Feb 20 00:56:24 2023, MaxMem=  6710886400 cpu:               0.2 elap:               0.0
 (Enter /data0/home/software/g16/l301.exe)
 Basis read from rwf:  (5D, 7F)
 No pseudopotential information found on rwf file.
   278 basis functions,   422 primitive gaussians,   294 cartesian basis functions
    25 alpha electrons       25 beta electrons
       nuclear repulsion energy       279.9419163840 Hartrees.
 IExCor= 4336 DFT=T Ex+Corr=M062X ExCW=0 ScaHFX=  0.540000
 ScaDFX=  1.000000  1.000000  1.000000  1.000000 ScalE2=  1.000000  1.000000
 IRadAn=      5 IRanWt=     -1 IRanGd=            0 ICorTp=0 IEmpDi=131
 NAtoms=   17 NActive=   17 NUniq=   17 SFac= 1.00D+00 NAtFMM=   60 NAOKFM=F Big=F
 Integral buffers will be    131072 words long.
 Raffenetti 2 integral format.
 Two-electron integral symmetry is turned off.
 R6Disp:  Grimme-D3 Dispersion energy=       -0.0000430826 Hartrees.
 Nuclear repulsion after empirical dispersion term =      279.9418733013 Hartrees.
 No density basis found on file   718.
 Leave Link  301 at Mon Feb 20 00:56:24 2023, MaxMem=  6710886400 cpu:               1.3 elap:               0.1
 (Enter /data0/home/software/g16/l302.exe)
 NPDir=0 NMtPBC=     1 NCelOv=     1 NCel=       1 NClECP=     1 NCelD=      1
         NCelK=      1 NCelE2=     1 NClLst=     1 CellRange=     0.0.
 One-electron integrals computed using PRISM.
 NBasis=   278 RedAO= T EigKep=  4.50D-04  NBF=   278
 NBsUse=   278 1.00D-06 EigRej= -1.00D+00 NBFU=   278
 Precomputing XC quadrature grid using
 IXCGrd= 4 IRadAn=           5 IRanWt=          -1 IRanGd=           0 AccXCQ= 0.00D+00.
 Generated NRdTot=       0 NPtTot=           0 NUsed=           0 NTot=          32
 NSgBfM=   292   292   292   292   292 MxSgAt=    17 MxSgA2=    17.
 Leave Link  302 at Mon Feb 20 00:56:25 2023, MaxMem=  6710886400 cpu:               4.4 elap:               0.2
 (Enter /data0/home/software/g16/l303.exe)
 DipDrv:  MaxL=1.
 Leave Link  303 at Mon Feb 20 00:56:25 2023, MaxMem=  6710886400 cpu:               0.7 elap:               0.0
 (Enter /data0/home/software/g16/l401.exe)
 ExpMin= 3.48D-02 ExpMax= 7.75D+04 ExpMxC= 2.65D+03 IAcc=3 IRadAn=         5 AccDes= 0.00D+00
 Harris functional with IExCor= 1009 and IRadAn=       5 diagonalized for initial guess.
 HarFok:  IExCor= 1009 AccDes= 0.00D+00 IRadAn=         5 IDoV= 1 UseB2=F ITyADJ=14
 ICtDFT=  3500011 ScaDFX=  1.000000  1.000000  1.000000  1.000000
 FoFCou: FMM=F IPFlag=           0 FMFlag=      100000 FMFlg1=           0
         NFxFlg=           0 DoJE=T BraDBF=F KetDBF=T FulRan=T
         wScrn=  0.000000 ICntrl=       500 IOpCl=  0 I1Cent=   200000004 NGrid=           0
         NMat0=    1 NMatS0=      1 NMatT0=    0 NMatD0=    1 NMtDS0=    0 NMtDT0=    0
 Symmetry not used in FoFCou.
 Harris En= -643.938567624655    
 JPrj=0 DoOrth=F DoCkMO=F.
 Leave Link  401 at Mon Feb 20 00:56:25 2023, MaxMem=  6710886400 cpu:              12.7 elap:               0.6
 (Enter /data0/home/software/g16/l502.exe)
 Two-electron integral symmetry not used.
 Closed shell SCF:
 Using DIIS extrapolation, IDIIS=  1040.
 NGot=  6710886400 LenX=  6710704303 LenY=  6710617426
 Requested convergence on RMS density matrix=1.00D-08 within 128 cycles.
 Requested convergence on MAX density matrix=1.00D-06.
 Requested convergence on             energy=1.00D-06.
 No special actions if energy rises.
 Fock matrices will be formed incrementally for  20 cycles.

 Cycle   1  Pass 1  IDiag  1:
 FoFJK:  IHMeth= 1 ICntrl=       0 DoSepK=F KAlg= 0 I1Cent=           0 FoldK=F
 IRaf= 860000000 NMat=       1 IRICut=       1 DoRegI=T DoRafI=F ISym2E= 0 IDoP0=0 IntGTp=1.
 FoFCou: FMM=F IPFlag=           0 FMFlag=      100000 FMFlg1=           0
         NFxFlg=           0 DoJE=F BraDBF=F KetDBF=F FulRan=T
         wScrn=  0.000000 ICntrl=         0 IOpCl=  0 I1Cent=           0 NGrid=           0
         NMat0=    1 NMatS0=      1 NMatT0=    0 NMatD0=    1 NMtDS0=    0 NMtDT0=    0
 Symmetry not used in FoFCou.
 E= -643.840083567925    
 DIIS: error= 3.42D-02 at cycle   1 NSaved=   1.
 NSaved= 1 IEnMin= 1 EnMin= -643.840083567925     IErMin= 1 ErrMin= 3.42D-02
 ErrMax= 3.42D-02  0.00D+00 EMaxC= 1.00D-01 BMatC= 5.13D-01 BMatP= 5.13D-01
 IDIUse=3 WtCom= 6.58D-01 WtEn= 3.42D-01
 Coeff-Com:  0.100D+01
 Coeff-En:   0.100D+01
 Coeff:      0.100D+01
 Gap=     0.225 Goal=   None    Shift=    0.000
 GapD=    0.225 DampG=1.000 DampE=0.500 DampFc=0.5000 IDamp=-1.
 Damping current iteration by 5.00D-01
 RMSDP=4.83D-03 MaxDP=2.24D-01              OVMax= 2.79D-01

 Cycle   2  Pass 1  IDiag  1:
 RMSU=  2.42D-03    CP:  1.01D+00
 E= -643.956769782373     Delta-E=       -0.116686214448 Rises=F Damp=T
 DIIS: error= 7.46D-03 at cycle   2 NSaved=   2.
 NSaved= 2 IEnMin= 2 EnMin= -643.956769782373     IErMin= 2 ErrMin= 7.46D-03
 ErrMax= 7.46D-03  0.00D+00 EMaxC= 1.00D-01 BMatC= 2.85D-02 BMatP= 5.13D-01
 IDIUse=3 WtCom= 9.25D-01 WtEn= 7.46D-02
 Coeff-Com:  0.798D-01 0.920D+00
 Coeff-En:   0.216D+00 0.784D+00
 Coeff:      0.900D-01 0.910D+00
 Gap=     0.332 Goal=   None    Shift=    0.000
 RMSDP=1.20D-03 MaxDP=7.72D-02 DE=-1.17D-01 OVMax= 1.85D-01

 Cycle   3  Pass 1  IDiag  1:
 RMSU=  7.83D-04    CP:  9.98D-01  6.28D-01
 E= -644.128778317073     Delta-E=       -0.172008534700 Rises=F Damp=F
 DIIS: error= 5.11D-03 at cycle   3 NSaved=   3.
 NSaved= 3 IEnMin= 3 EnMin= -644.128778317073     IErMin= 3 ErrMin= 5.11D-03
 ErrMax= 5.11D-03  0.00D+00 EMaxC= 1.00D-01 BMatC= 1.12D-02 BMatP= 2.85D-02
 IDIUse=3 WtCom= 9.49D-01 WtEn= 5.11D-02
 Coeff-Com: -0.144D-01 0.346D+00 0.668D+00
 Coeff-En:   0.000D+00 0.000D+00 0.100D+01
 Coeff:     -0.137D-01 0.328D+00 0.685D+00
 Gap=     0.322 Goal=   None    Shift=    0.000
 RMSDP=4.06D-04 MaxDP=1.56D-02 DE=-1.72D-01 OVMax= 3.61D-02

 Cycle   4  Pass 1  IDiag  1:
 RMSU=  3.47D-04    CP:  9.99D-01  7.03D-01  8.65D-01
 E= -644.134078661523     Delta-E=       -0.005300344451 Rises=F Damp=F
 DIIS: error= 2.72D-03 at cycle   4 NSaved=   4.
 NSaved= 4 IEnMin= 4 EnMin= -644.134078661523     IErMin= 4 ErrMin= 2.72D-03
 ErrMax= 2.72D-03  0.00D+00 EMaxC= 1.00D-01 BMatC= 3.87D-03 BMatP= 1.12D-02
 IDIUse=3 WtCom= 9.73D-01 WtEn= 2.72D-02
 Coeff-Com: -0.232D-01 0.516D-01 0.394D+00 0.578D+00
 Coeff-En:   0.000D+00 0.000D+00 0.253D+00 0.747D+00
 Coeff:     -0.226D-01 0.502D-01 0.390D+00 0.582D+00
 Gap=     0.327 Goal=   None    Shift=    0.000
 RMSDP=1.57D-04 MaxDP=6.09D-03 DE=-5.30D-03 OVMax= 1.10D-02

 Cycle   5  Pass 1  IDiag  1:
 RMSU=  4.94D-05    CP:  9.98D-01  6.85D-01  9.61D-01  6.51D-01
 E= -644.136633623454     Delta-E=       -0.002554961931 Rises=F Damp=F
 DIIS: error= 1.78D-04 at cycle   5 NSaved=   5.
 NSaved= 5 IEnMin= 5 EnMin= -644.136633623454     IErMin= 5 ErrMin= 1.78D-04
 ErrMax= 1.78D-04  0.00D+00 EMaxC= 1.00D-01 BMatC= 1.53D-05 BMatP= 3.87D-03
 IDIUse=3 WtCom= 9.98D-01 WtEn= 1.78D-03
 Coeff-Com: -0.289D-02 0.845D-03 0.546D-01 0.115D+00 0.832D+00
 Coeff-En:   0.000D+00 0.000D+00 0.000D+00 0.000D+00 0.100D+01
 Coeff:     -0.288D-02 0.843D-03 0.545D-01 0.115D+00 0.833D+00
 Gap=     0.326 Goal=   None    Shift=    0.000
 RMSDP=1.75D-05 MaxDP=6.90D-04 DE=-2.55D-03 OVMax= 7.85D-04

 Cycle   6  Pass 1  IDiag  1:
 RMSU=  1.19D-05    CP:  9.98D-01  6.81D-01  9.64D-01  6.75D-01  1.07D+00
 E= -644.136643704467     Delta-E=       -0.000010081013 Rises=F Damp=F
 DIIS: error= 6.61D-05 at cycle   6 NSaved=   6.
 NSaved= 6 IEnMin= 6 EnMin= -644.136643704467     IErMin= 6 ErrMin= 6.61D-05
 ErrMax= 6.61D-05  0.00D+00 EMaxC= 1.00D-01 BMatC= 1.64D-06 BMatP= 1.53D-05
 IDIUse=1 WtCom= 1.00D+00 WtEn= 0.00D+00
 Coeff-Com: -0.107D-03-0.148D-02 0.255D-02 0.134D-01 0.255D+00 0.731D+00
 Coeff:     -0.107D-03-0.148D-02 0.255D-02 0.134D-01 0.255D+00 0.731D+00
 Gap=     0.327 Goal=   None    Shift=    0.000
 RMSDP=6.75D-06 MaxDP=2.76D-04 DE=-1.01D-05 OVMax= 2.84D-04

 Cycle   7  Pass 1  IDiag  1:
 RMSU=  3.74D-06    CP:  9.98D-01  6.80D-01  9.66D-01  6.77D-01  1.15D+00
                    CP:  8.85D-01
 E= -644.136644768360     Delta-E=       -0.000001063893 Rises=F Damp=F
 DIIS: error= 3.66D-05 at cycle   7 NSaved=   7.
 NSaved= 7 IEnMin= 7 EnMin= -644.136644768360     IErMin= 7 ErrMin= 3.66D-05
 ErrMax= 3.66D-05  0.00D+00 EMaxC= 1.00D-01 BMatC= 4.07D-07 BMatP= 1.64D-06
 IDIUse=1 WtCom= 1.00D+00 WtEn= 0.00D+00
 Coeff-Com:  0.447D-03-0.761D-03-0.887D-02-0.146D-01-0.236D-01 0.332D+00
 Coeff-Com:  0.715D+00
 Coeff:      0.447D-03-0.761D-03-0.887D-02-0.146D-01-0.236D-01 0.332D+00
 Coeff:      0.715D+00
 Gap=     0.327 Goal=   None    Shift=    0.000
 RMSDP=2.80D-06 MaxDP=1.00D-04 DE=-1.06D-06 OVMax= 1.38D-04

 Cycle   8  Pass 1  IDiag  1:
 RMSU=  1.67D-06    CP:  9.98D-01  6.80D-01  9.66D-01  6.79D-01  1.17D+00
                    CP:  9.73D-01  8.01D-01
 E= -644.136645049000     Delta-E=       -0.000000280641 Rises=F Damp=F
 DIIS: error= 9.05D-06 at cycle   8 NSaved=   8.
 NSaved= 8 IEnMin= 8 EnMin= -644.136645049000     IErMin= 8 ErrMin= 9.05D-06
 ErrMax= 9.05D-06  0.00D+00 EMaxC= 1.00D-01 BMatC= 2.92D-08 BMatP= 4.07D-07
 IDIUse=1 WtCom= 1.00D+00 WtEn= 0.00D+00
 Coeff-Com:  0.167D-03-0.221D-03-0.366D-02-0.605D-02-0.168D-01 0.941D-01
 Coeff-Com:  0.296D+00 0.636D+00
 Coeff:      0.167D-03-0.221D-03-0.366D-02-0.605D-02-0.168D-01 0.941D-01
 Coeff:      0.296D+00 0.636D+00
 Gap=     0.327 Goal=   None    Shift=    0.000
 RMSDP=5.22D-07 MaxDP=2.63D-05 DE=-2.81D-07 OVMax= 3.47D-05

 Cycle   9  Pass 1  IDiag  1:
 RMSU=  3.37D-07    CP:  9.98D-01  6.80D-01  9.66D-01  6.79D-01  1.18D+00
                    CP:  9.84D-01  8.81D-01  8.82D-01
 E= -644.136645071729     Delta-E=       -0.000000022729 Rises=F Damp=F
 DIIS: error= 1.27D-06 at cycle   9 NSaved=   9.
 NSaved= 9 IEnMin= 9 EnMin= -644.136645071729     IErMin= 9 ErrMin= 1.27D-06
 ErrMax= 1.27D-06  0.00D+00 EMaxC= 1.00D-01 BMatC= 9.41D-10 BMatP= 2.92D-08
 IDIUse=1 WtCom= 1.00D+00 WtEn= 0.00D+00
 Coeff-Com: -0.295D-04 0.559D-04 0.289D-03 0.628D-03-0.661D-03-0.206D-01
 Coeff-Com: -0.302D-01 0.787D-01 0.972D+00
 Coeff:     -0.295D-04 0.559D-04 0.289D-03 0.628D-03-0.661D-03-0.206D-01
 Coeff:     -0.302D-01 0.787D-01 0.972D+00
 Gap=     0.327 Goal=   None    Shift=    0.000
 RMSDP=2.30D-07 MaxDP=1.00D-05 DE=-2.27D-08 OVMax= 1.32D-05

 Cycle  10  Pass 1  IDiag  1:
 RMSU=  9.58D-08    CP:  9.98D-01  6.80D-01  9.66D-01  6.79D-01  1.18D+00
                    CP:  9.83D-01  8.98D-01  9.63D-01  1.13D+00
 E= -644.136645072929     Delta-E=       -0.000000001199 Rises=F Damp=F
 DIIS: error= 2.28D-07 at cycle  10 NSaved=  10.
 NSaved=10 IEnMin=10 EnMin= -644.136645072929     IErMin=10 ErrMin= 2.28D-07
 ErrMax= 2.28D-07  0.00D+00 EMaxC= 1.00D-01 BMatC= 2.37D-11 BMatP= 9.41D-10
 IDIUse=1 WtCom= 1.00D+00 WtEn= 0.00D+00
 Coeff-Com: -0.527D-05 0.889D-05 0.119D-03 0.204D-03 0.482D-03-0.458D-02
 Coeff-Com: -0.130D-01-0.153D-01 0.614D-01 0.971D+00
 Coeff:     -0.527D-05 0.889D-05 0.119D-03 0.204D-03 0.482D-03-0.458D-02
 Coeff:     -0.130D-01-0.153D-01 0.614D-01 0.971D+00
 Gap=     0.327 Goal=   None    Shift=    0.000
 RMSDP=4.43D-08 MaxDP=1.20D-06 DE=-1.20D-09 OVMax= 3.27D-06

 Cycle  11  Pass 1  IDiag  1:
 RMSU=  2.47D-08    CP:  9.98D-01  6.80D-01  9.66D-01  6.79D-01  1.18D+00
                    CP:  9.83D-01  8.99D-01  9.76D-01  1.19D+00  1.14D+00
 E= -644.136645072959     Delta-E=       -0.000000000030 Rises=F Damp=F
 DIIS: error= 1.57D-07 at cycle  11 NSaved=  11.
 NSaved=11 IEnMin=11 EnMin= -644.136645072959     IErMin=11 ErrMin= 1.57D-07
 ErrMax= 1.57D-07  0.00D+00 EMaxC= 1.00D-01 BMatC= 1.34D-11 BMatP= 2.37D-11
 IDIUse=1 WtCom= 1.00D+00 WtEn= 0.00D+00
 Coeff-Com: -0.111D-06-0.166D-06 0.361D-04 0.512D-04 0.282D-03-0.742D-03
 Coeff-Com: -0.406D-02-0.128D-01-0.445D-01 0.489D+00 0.573D+00
 Coeff:     -0.111D-06-0.166D-06 0.361D-04 0.512D-04 0.282D-03-0.742D-03
 Coeff:     -0.406D-02-0.128D-01-0.445D-01 0.489D+00 0.573D+00
 Gap=     0.327 Goal=   None    Shift=    0.000
 RMSDP=1.25D-08 MaxDP=5.40D-07 DE=-2.98D-11 OVMax= 7.65D-07

 Cycle  12  Pass 1  IDiag  1:
 RMSU=  9.13D-09    CP:  9.98D-01  6.80D-01  9.66D-01  6.79D-01  1.18D+00
                    CP:  9.83D-01  9.00D-01  9.77D-01  1.20D+00  1.20D+00
                    CP:  8.75D-01
 E= -644.136645072973     Delta-E=       -0.000000000014 Rises=F Damp=F
 DIIS: error= 3.84D-08 at cycle  12 NSaved=  12.
 NSaved=12 IEnMin=12 EnMin= -644.136645072973     IErMin=12 ErrMin= 3.84D-08
 ErrMax= 3.84D-08  0.00D+00 EMaxC= 1.00D-01 BMatC= 7.58D-13 BMatP= 1.34D-11
 IDIUse=1 WtCom= 1.00D+00 WtEn= 0.00D+00
 Coeff-Com:  0.807D-06-0.145D-05-0.651D-05-0.141D-04 0.765D-05 0.452D-03
 Coeff-Com:  0.902D-03-0.112D-02-0.239D-01-0.144D-02 0.183D+00 0.843D+00
 Coeff:      0.807D-06-0.145D-05-0.651D-05-0.141D-04 0.765D-05 0.452D-03
 Coeff:      0.902D-03-0.112D-02-0.239D-01-0.144D-02 0.183D+00 0.843D+00
 Gap=     0.327 Goal=   None    Shift=    0.000
 RMSDP=5.27D-09 MaxDP=1.51D-07 DE=-1.41D-11 OVMax= 3.68D-07

 SCF Done:  E(RM062X) =  -644.136645073     A.U. after   12 cycles
            NFock= 12  Conv=0.53D-08     -V/T= 2.0025
 KE= 6.425014657724D+02 PE=-2.087487663569D+03 EE= 5.209076794224D+02
 Leave Link  502 at Mon Feb 20 00:56:40 2023, MaxMem=  6710886400 cpu:             347.5 elap:              14.6
 (Enter /data0/home/software/g16/l601.exe)
 Copying SCF densities to generalized density rwf, IOpCl= 0 IROHF=0.

 **********************************************************************

            Population analysis using the SCF density.

 **********************************************************************

 Alpha  occ. eigenvalues --  -78.16826 -19.69885 -19.68866 -19.68229 -19.57918
 Alpha  occ. eigenvalues --   -6.97622  -5.09541  -5.09527  -5.09272  -1.24698
 Alpha  occ. eigenvalues --   -1.17449  -1.16808  -1.08283  -0.72760  -0.65862
 Alpha  occ. eigenvalues --   -0.63894  -0.59001  -0.53614  -0.51710  -0.50005
 Alpha  occ. eigenvalues --   -0.46309  -0.45529  -0.45037  -0.37815  -0.36804
 Alpha virt. eigenvalues --   -0.04154   0.00622   0.02339   0.04271   0.06927
 Alpha virt. eigenvalues --    0.07163   0.08887   0.10055   0.10797   0.12713
 Alpha virt. eigenvalues --    0.13088   0.14337   0.15522   0.15791   0.16879
 Alpha virt. eigenvalues --    0.17007   0.17872   0.18411   0.19384   0.19807
 Alpha virt. eigenvalues --    0.20752   0.21201   0.21693   0.22218   0.23766
 Alpha virt. eigenvalues --    0.24137   0.25014   0.26508   0.27070   0.27465
 Alpha virt. eigenvalues --    0.28526   0.29421   0.29572   0.30373   0.30921
 Alpha virt. eigenvalues --    0.32379   0.32663   0.34084   0.34962   0.36424
 Alpha virt. eigenvalues --    0.37438   0.38747   0.39605   0.41226   0.42490
 Alpha virt. eigenvalues --    0.43741   0.44970   0.46789   0.48772   0.50638
 Alpha virt. eigenvalues --    0.52822   0.57109   0.57594   0.61520   0.63401
 Alpha virt. eigenvalues --    0.68488   0.74135   0.74532   0.76134   0.76788
 Alpha virt. eigenvalues --    0.77399   0.78745   0.79494   0.80272   0.82202
 Alpha virt. eigenvalues --    0.82908   0.84518   0.87132   0.91180   0.96089
 Alpha virt. eigenvalues --    0.97758   0.99713   1.00527   1.02323   1.05139
 Alpha virt. eigenvalues --    1.06532   1.08322   1.08836   1.11732   1.14419
 Alpha virt. eigenvalues --    1.15541   1.17535   1.18741   1.20427   1.21839
 Alpha virt. eigenvalues --    1.22303   1.23762   1.27624   1.28546   1.32359
 Alpha virt. eigenvalues --    1.34313   1.35371   1.42809   1.43785   1.51302
 Alpha virt. eigenvalues --    1.53654   1.54666   1.55627   1.58947   1.61658
 Alpha virt. eigenvalues --    1.65470   1.67480   1.68685   1.71247   1.72987
 Alpha virt. eigenvalues --    1.76121   1.78015   1.79858   1.82595   1.82811
 Alpha virt. eigenvalues --    1.84112   1.84872   1.85581   1.86305   1.89354
 Alpha virt. eigenvalues --    1.90352   1.94829   1.95342   1.97612   2.00398
 Alpha virt. eigenvalues --    2.04592   2.09313   2.10188   2.12088   2.14380
 Alpha virt. eigenvalues --    2.14701   2.17809   2.19302   2.21053   2.22165
 Alpha virt. eigenvalues --    2.22991   2.25609   2.27952   2.30804   2.37504
 Alpha virt. eigenvalues --    2.41849   2.43616   2.45182   2.45761   2.48843
 Alpha virt. eigenvalues --    2.50265   2.56292   2.57491   2.59029   2.59648
 Alpha virt. eigenvalues --    2.59891   2.60707   2.62157   2.63392   2.66289
 Alpha virt. eigenvalues --    2.68323   2.68886   2.70627   2.71289   2.72126
 Alpha virt. eigenvalues --    2.72925   2.75109   2.76794   2.79986   2.83521
 Alpha virt. eigenvalues --    2.86919   2.89499   2.91701   2.92365   2.93884
 Alpha virt. eigenvalues --    2.97984   2.99633   3.03102   3.05230   3.18272
 Alpha virt. eigenvalues --    3.50084   3.52628   3.58371   3.60329   3.65028
 Alpha virt. eigenvalues --    3.70742   4.49566   4.55293   4.62660   5.02908
 Alpha virt. eigenvalues --    5.04208   5.06358   5.06962   5.08689   5.11954
 Alpha virt. eigenvalues --    5.14097   5.18833   5.20419   5.21347   5.28096
 Alpha virt. eigenvalues --    5.39093   5.43331   5.47329   5.52105   6.72150
 Alpha virt. eigenvalues --    6.74217   6.75770   6.77148   6.79558   6.80915
 Alpha virt. eigenvalues --    6.83460   6.86055   6.91580   6.92606   6.94354
 Alpha virt. eigenvalues --    6.98419   6.99711   7.02824   7.12115   7.25375
 Alpha virt. eigenvalues --    7.26051   7.28210   7.32037   7.41950   7.65471
 Alpha virt. eigenvalues --    9.92640   9.94950   9.98098  10.00569  10.03864
 Alpha virt. eigenvalues --   10.07798  10.08297  10.13040  10.19730  10.21028
 Alpha virt. eigenvalues --   10.24522  10.29493  10.31783  10.41855  10.50113
 Alpha virt. eigenvalues --   13.00487  13.07554  13.36500  13.41597  13.46726
 Alpha virt. eigenvalues --   13.74565  13.90845  13.93047  14.19126  14.24070
 Alpha virt. eigenvalues --   14.24680  14.34769  17.91094  17.93081  18.31324
 Alpha virt. eigenvalues --   49.98291  50.00189  50.01093  50.11567 137.61717
 Alpha virt. eigenvalues --  137.69544 139.61652 163.88104
          Condensed to atoms (all electrons):
               1          2          3          4          5          6
     1  P   12.603785   0.524901   0.136285   0.035328   0.234576   0.002776
     2  O    0.524901   8.122275  -0.022976  -0.000682  -0.006563  -0.019000
     3  O    0.136285  -0.022976   8.132197   0.214399   0.008750  -0.000773
     4  H    0.035328  -0.000682   0.214399   0.465165  -0.014590   0.002022
     5  O    0.234576  -0.006563   0.008750  -0.014590   8.034444   0.250432
     6  H    0.002776  -0.019000  -0.000773   0.002022   0.250432   0.458877
     7  O    0.238992   0.001900   0.013875  -0.009965   0.022711  -0.005192
     8  H    0.004966  -0.018627  -0.000925   0.003173  -0.005970  -0.000409
     9  O    0.000629  -0.001110   0.000029   0.000008   0.001654   0.002941
    10  H   -0.000615   0.000752   0.000020  -0.000006   0.000051  -0.002307
    11  H   -0.000116   0.000024  -0.000010  -0.000000  -0.000375  -0.000429
    12  O    0.000166   0.003587   0.000215  -0.000051  -0.000309  -0.000426
    13  H    0.001952   0.001412  -0.000286   0.000099  -0.000378   0.000385
    14  H   -0.000499   0.001304  -0.000037  -0.000001  -0.000440  -0.000181
    15  O    0.003762   0.001900   0.000333  -0.000014  -0.000202  -0.000005
    16  H   -0.001745  -0.001510  -0.000256   0.000042   0.000188   0.000053
    17  H   -0.001560  -0.000106   0.000084   0.000000  -0.000160  -0.000109
               7          8          9         10         11         12
     1  P    0.238992   0.004966   0.000629  -0.000615  -0.000116   0.000166
     2  O    0.001900  -0.018627  -0.001110   0.000752   0.000024   0.003587
     3  O    0.013875  -0.000925   0.000029   0.000020  -0.000010   0.000215
     4  H   -0.009965   0.003173   0.000008  -0.000006  -0.000000  -0.000051
     5  O    0.022711  -0.005970   0.001654   0.000051  -0.000375  -0.000309
     6  H   -0.005192  -0.000409   0.002941  -0.002307  -0.000429  -0.000426
     7  O    7.997351   0.248425  -0.000032   0.000007   0.000009  -0.000068
     8  H    0.248425   0.479433   0.000051  -0.000151   0.000001  -0.000154
     9  O   -0.000032   0.000051   0.006391  -0.001758  -0.003201   0.000178
    10  H    0.000007  -0.000151  -0.001758   0.001486   0.000438   0.000169
    11  H    0.000009   0.000001  -0.003201   0.000438   0.002131  -0.000110
    12  O   -0.000068  -0.000154   0.000178   0.000169  -0.000110   0.009478
    13  H    0.000272   0.000199   0.000644  -0.000127  -0.000147  -0.008275
    14  H   -0.000005   0.000014  -0.002075   0.000115   0.000770  -0.002184
    15  O    0.000297   0.003323  -0.000003  -0.000000   0.000000   0.000039
    16  H    0.002577  -0.000495  -0.000000   0.000000   0.000000  -0.000010
    17  H    0.001034  -0.001334  -0.000001   0.000004  -0.000000  -0.000017
              13         14         15         16         17
     1  P    0.001952  -0.000499   0.003762  -0.001745  -0.001560
     2  O    0.001412   0.001304   0.001900  -0.001510  -0.000106
     3  O   -0.000286  -0.000037   0.000333  -0.000256   0.000084
     4  H    0.000099  -0.000001  -0.000014   0.000042   0.000000
     5  O   -0.000378  -0.000440  -0.000202   0.000188  -0.000160
     6  H    0.000385  -0.000181  -0.000005   0.000053  -0.000109
     7  O    0.000272  -0.000005   0.000297   0.002577   0.001034
     8  H    0.000199   0.000014   0.003323  -0.000495  -0.001334
     9  O    0.000644  -0.002075  -0.000003  -0.000000  -0.000001
    10  H   -0.000127   0.000115  -0.000000   0.000000   0.000004
    11  H   -0.000147   0.000770   0.000000   0.000000  -0.000000
    12  O   -0.008275  -0.002184   0.000039  -0.000010  -0.000017
    13  H    0.010160  -0.000094  -0.000033   0.000008   0.000013
    14  H   -0.000094   0.003416  -0.000002   0.000001   0.000002
    15  O   -0.000033  -0.000002   0.003981  -0.002118  -0.001412
    16  H    0.000008   0.000001  -0.002118   0.002341   0.000164
    17  H    0.000013   0.000002  -0.001412   0.000164   0.001667
 Mulliken charges:
               1
     1  P    1.216416
     2  O   -0.587479
     3  O   -0.480923
     4  H    0.305073
     5  O   -0.523818
     6  H    0.311345
     7  O   -0.512190
     8  H    0.288480
     9  O   -0.004346
    10  H    0.001921
    11  H    0.001015
    12  O   -0.002230
    13  H   -0.005804
    14  H   -0.000105
    15  O   -0.009846
    16  H    0.000759
    17  H    0.001730
 Sum of Mulliken charges =  -0.00000
 Mulliken charges with hydrogens summed into heavy atoms:
               1
     1  P    1.216416
     2  O   -0.587479
     3  O   -0.175850
     5  O   -0.212473
     7  O   -0.223710
     9  O   -0.001409
    12  O   -0.008139
    15  O   -0.007356
         Mulliken charges condensed to fragments:
      1      0.016905
      2     -0.001409
      3     -0.008139
      4     -0.007356
 Electronic spatial extent (au):  <R**2>=          56337.8085
 Charge=              0.0000 electrons
 Dipole moment (field-independent basis, Debye):
    X=             -1.7452    Y=              1.1048    Z=             -5.3655  Tot=              5.7493
 Quadrupole moment (field-independent basis, Debye-Ang):
   XX=            -73.8814   YY=            -15.9333   ZZ=           -127.2270
   XY=             -5.5349   XZ=            -80.9570   YZ=            -40.3037
 Traceless Quadrupole moment (field-independent basis, Debye-Ang):
   XX=             -1.5341   YY=             56.4139   ZZ=            -54.8798
   XY=             -5.5349   XZ=            -80.9570   YZ=            -40.3037
 Octapole moment (field-independent basis, Debye-Ang**2):
  XXX=          -1992.8538  YYY=           -690.8157  ZZZ=          -2061.6186  XYY=           -422.5464
  XXY=           -583.9598  XXZ=          -1446.9691  XZZ=          -1710.4106  YZZ=          -1087.0969
  YYZ=           -588.1007  XYZ=           -652.8031
 Hexadecapole moment (field-independent basis, Debye-Ang**3):
 XXXX=         -44174.9958 YYYY=         -14051.9565 ZZZZ=         -28300.8179 XXXY=         -17508.8765
 XXXZ=         -27133.3810 YYYX=         -11245.3984 YYYZ=          -9939.1661 ZZZX=         -26886.4509
 ZZZY=         -18131.6826 XXYY=         -10593.3680 XXZZ=         -25178.7906 YYZZ=         -11778.6892
 XXYZ=         -12373.3984 YYXZ=          -9042.8615 ZZXY=         -14823.2023
 N-N= 2.799418733013D+02 E-N=-2.087487667940D+03  KE= 6.425014657724D+02
 No NMR shielding tensors so no spin-rotation constants.
 Leave Link  601 at Mon Feb 20 00:56:40 2023, MaxMem=  6710886400 cpu:               2.3 elap:               0.1
 (Enter /data0/home/software/g16/l122.exe)
 CPIOFr:  IOpCl= 0 IRwI=-1 IRwCP=  731 ICalc=  1 LCPTot=      120517 Len1MO=      315166 IndFrg=      750849
 Counterpoise: doing calculation for fragment   2 using the basis set of the full-system, NewBq=T
 Leave Link  122 at Mon Feb 20 00:56:40 2023, MaxMem=  6710886400 cpu:               0.1 elap:               0.0
 (Enter /data0/home/software/g16/l301.exe)
 Basis read from rwf:  (5D, 7F)
 No pseudopotential information found on rwf file.
   278 basis functions,   422 primitive gaussians,   294 cartesian basis functions
     5 alpha electrons        5 beta electrons
       nuclear repulsion energy         9.0497611149 Hartrees.
 IExCor= 4336 DFT=T Ex+Corr=M062X ExCW=0 ScaHFX=  0.540000
 ScaDFX=  1.000000  1.000000  1.000000  1.000000 ScalE2=  1.000000  1.000000
 IRadAn=      5 IRanWt=     -1 IRanGd=            0 ICorTp=0 IEmpDi=131
 NAtoms=   17 NActive=   17 NUniq=   17 SFac= 1.00D+00 NAtFMM=   60 NAOKFM=F Big=F
 Integral buffers will be    131072 words long.
 Raffenetti 2 integral format.
 Two-electron integral symmetry is turned off.
 R6Disp:  Grimme-D3 Dispersion energy=       -0.0000000082 Hartrees.
 Nuclear repulsion after empirical dispersion term =        9.0497611067 Hartrees.
 No density basis found on file   718.
 Leave Link  301 at Mon Feb 20 00:56:40 2023, MaxMem=  6710886400 cpu:               1.2 elap:               0.1
 (Enter /data0/home/software/g16/l302.exe)
 NPDir=0 NMtPBC=     1 NCelOv=     1 NCel=       1 NClECP=     1 NCelD=      1
         NCelK=      1 NCelE2=     1 NClLst=     1 CellRange=     0.0.
 One-electron integrals computed using PRISM.
 NBasis=   278 RedAO= T EigKep=  4.50D-04  NBF=   278
 NBsUse=   278 1.00D-06 EigRej= -1.00D+00 NBFU=   278
 Precomputing XC quadrature grid using
 IXCGrd= 4 IRadAn=           5 IRanWt=          -1 IRanGd=           0 AccXCQ= 0.00D+00.
 Generated NRdTot=       0 NPtTot=           0 NUsed=           0 NTot=          32
 NSgBfM=   292   292   292   292   292 MxSgAt=    17 MxSgA2=    17.
 Leave Link  302 at Mon Feb 20 00:56:40 2023, MaxMem=  6710886400 cpu:               4.4 elap:               0.2
 (Enter /data0/home/software/g16/l303.exe)
 DipDrv:  MaxL=1.
 Leave Link  303 at Mon Feb 20 00:56:40 2023, MaxMem=  6710886400 cpu:               0.7 elap:               0.0
 (Enter /data0/home/software/g16/l401.exe)
 ExpMin= 3.48D-02 ExpMax= 7.75D+04 ExpMxC= 2.65D+03 IAcc=3 IRadAn=         5 AccDes= 0.00D+00
 Harris functional with IExCor= 1009 and IRadAn=       5 diagonalized for initial guess.
 HarFok:  IExCor= 1009 AccDes= 0.00D+00 IRadAn=         5 IDoV= 1 UseB2=F ITyADJ=14
 ICtDFT=  3500011 ScaDFX=  1.000000  1.000000  1.000000  1.000000
 FoFCou: FMM=F IPFlag=           0 FMFlag=      100000 FMFlg1=           0
         NFxFlg=           0 DoJE=T BraDBF=F KetDBF=T FulRan=T
         wScrn=  0.000000 ICntrl=       500 IOpCl=  0 I1Cent=   200000004 NGrid=           0
         NMat0=    1 NMatS0=      1 NMatT0=    0 NMatD0=    1 NMtDS0=    0 NMtDT0=    0
 Symmetry not used in FoFCou.
 Harris En= -76.4160822944966    
 JPrj=0 DoOrth=F DoCkMO=F.
 Leave Link  401 at Mon Feb 20 00:56:41 2023, MaxMem=  6710886400 cpu:              12.0 elap:               0.5
 (Enter /data0/home/software/g16/l502.exe)
 Two-electron integral symmetry not used.
 Closed shell SCF:
 Using DIIS extrapolation, IDIIS=  1040.
 NGot=  6710886400 LenX=  6710704303 LenY=  6710617426
 Requested convergence on RMS density matrix=1.00D-08 within 128 cycles.
 Requested convergence on MAX density matrix=1.00D-06.
 Requested convergence on             energy=1.00D-06.
 No special actions if energy rises.
 Fock matrices will be formed incrementally for  20 cycles.

 Cycle   1  Pass 1  IDiag  1:
 FoFJK:  IHMeth= 1 ICntrl=       0 DoSepK=F KAlg= 0 I1Cent=           0 FoldK=F
 IRaf= 860000000 NMat=       1 IRICut=       1 DoRegI=T DoRafI=F ISym2E= 0 IDoP0=0 IntGTp=1.
 FoFCou: FMM=F IPFlag=           0 FMFlag=      100000 FMFlg1=           0
         NFxFlg=           0 DoJE=F BraDBF=F KetDBF=F FulRan=T
         wScrn=  0.000000 ICntrl=         0 IOpCl=  0 I1Cent=           0 NGrid=           0
         NMat0=    1 NMatS0=      1 NMatT0=    0 NMatD0=    1 NMtDS0=    0 NMtDT0=    0
 Symmetry not used in FoFCou.
 E= -76.3468824035124    
 DIIS: error= 2.67D-02 at cycle   1 NSaved=   1.
 NSaved= 1 IEnMin= 1 EnMin= -76.3468824035124     IErMin= 1 ErrMin= 2.67D-02
 ErrMax= 2.67D-02  0.00D+00 EMaxC= 1.00D-01 BMatC= 1.20D-01 BMatP= 1.20D-01
 IDIUse=3 WtCom= 7.33D-01 WtEn= 2.67D-01
 Coeff-Com:  0.100D+01
 Coeff-En:   0.100D+01
 Coeff:      0.100D+01
 Gap=     0.282 Goal=   None    Shift=    0.000
 GapD=    0.282 DampG=1.000 DampE=0.500 DampFc=0.5000 IDamp=-1.
 Damping current iteration by 5.00D-01
 RMSDP=1.77D-03 MaxDP=9.92D-02              OVMax= 1.72D-01

 Cycle   2  Pass 1  IDiag  1:
 RMSU=  8.80D-04    CP:  9.81D-01
 E= -76.3775834948277     Delta-E=       -0.030701091315 Rises=F Damp=T
 DIIS: error= 6.18D-03 at cycle   2 NSaved=   2.
 NSaved= 2 IEnMin= 2 EnMin= -76.3775834948277     IErMin= 2 ErrMin= 6.18D-03
 ErrMax= 6.18D-03  0.00D+00 EMaxC= 1.00D-01 BMatC= 5.05D-03 BMatP= 1.20D-01
 IDIUse=3 WtCom= 9.38D-01 WtEn= 6.18D-02
 Coeff-Com:  0.889D-01 0.911D+00
 Coeff-En:   0.199D+00 0.801D+00
 Coeff:      0.958D-01 0.904D+00
 Gap=     0.402 Goal=   None    Shift=    0.000
 RMSDP=2.64D-04 MaxDP=1.70D-02 DE=-3.07D-02 OVMax= 1.04D-01

 Cycle   3  Pass 1  IDiag  1:
 RMSU=  1.70D-04    CP:  9.90D-01  7.75D-01
 E= -76.4217660304545     Delta-E=       -0.044182535627 Rises=F Damp=F
 DIIS: error= 1.06D-03 at cycle   3 NSaved=   3.
 NSaved= 3 IEnMin= 3 EnMin= -76.4217660304545     IErMin= 3 ErrMin= 1.06D-03
 ErrMax= 1.06D-03  0.00D+00 EMaxC= 1.00D-01 BMatC= 1.44D-04 BMatP= 5.05D-03
 IDIUse=3 WtCom= 9.89D-01 WtEn= 1.06D-02
 Coeff-Com: -0.267D-01 0.503D-01 0.976D+00
 Coeff-En:   0.000D+00 0.000D+00 0.100D+01
 Coeff:     -0.264D-01 0.498D-01 0.977D+00
 Gap=     0.405 Goal=   None    Shift=    0.000
 RMSDP=2.38D-05 MaxDP=1.18D-03 DE=-4.42D-02 OVMax= 3.87D-03

 Cycle   4  Pass 1  IDiag  1:
 RMSU=  2.14D-05    CP:  9.89D-01  7.79D-01  1.05D+00
 E= -76.4218822872134     Delta-E=       -0.000116256759 Rises=F Damp=F
 DIIS: error= 1.39D-04 at cycle   4 NSaved=   4.
 NSaved= 4 IEnMin= 4 EnMin= -76.4218822872134     IErMin= 4 ErrMin= 1.39D-04
 ErrMax= 1.39D-04  0.00D+00 EMaxC= 1.00D-01 BMatC= 2.87D-06 BMatP= 1.44D-04
 IDIUse=3 WtCom= 9.99D-01 WtEn= 1.39D-03
 Coeff-Com: -0.302D-02 0.219D-03 0.152D+00 0.851D+00
 Coeff-En:   0.000D+00 0.000D+00 0.000D+00 0.100D+01
 Coeff:     -0.302D-02 0.218D-03 0.151D+00 0.851D+00
 Gap=     0.405 Goal=   None    Shift=    0.000
 RMSDP=5.52D-06 MaxDP=3.23D-04 DE=-1.16D-04 OVMax= 5.31D-04

 Cycle   5  Pass 1  IDiag  1:
 RMSU=  2.98D-06    CP:  9.89D-01  7.75D-01  1.05D+00  1.11D+00
 E= -76.4218841310239     Delta-E=       -0.000001843810 Rises=F Damp=F
 DIIS: error= 3.06D-05 at cycle   5 NSaved=   5.
 NSaved= 5 IEnMin= 5 EnMin= -76.4218841310239     IErMin= 5 ErrMin= 3.06D-05
 ErrMax= 3.06D-05  0.00D+00 EMaxC= 1.00D-01 BMatC= 7.97D-08 BMatP= 2.87D-06
 IDIUse=1 WtCom= 1.00D+00 WtEn= 0.00D+00
 Coeff-Com:  0.144D-02-0.225D-02-0.373D-01-0.568D-01 0.109D+01
 Coeff:      0.144D-02-0.225D-02-0.373D-01-0.568D-01 0.109D+01
 Gap=     0.406 Goal=   None    Shift=    0.000
 RMSDP=3.82D-06 MaxDP=1.97D-04 DE=-1.84D-06 OVMax= 2.23D-04

 Cycle   6  Pass 1  IDiag  1:
 RMSU=  7.96D-07    CP:  9.89D-01  7.71D-01  1.05D+00  1.20D+00  1.32D+00
 E= -76.4218842732818     Delta-E=       -0.000000142258 Rises=F Damp=F
 DIIS: error= 3.87D-06 at cycle   6 NSaved=   6.
 NSaved= 6 IEnMin= 6 EnMin= -76.4218842732818     IErMin= 6 ErrMin= 3.87D-06
 ErrMax= 3.87D-06  0.00D+00 EMaxC= 1.00D-01 BMatC= 1.88D-09 BMatP= 7.97D-08
 IDIUse=1 WtCom= 1.00D+00 WtEn= 0.00D+00
 Coeff-Com: -0.256D-03 0.368D-03 0.326D-02-0.556D-02-0.148D+00 0.115D+01
 Coeff:     -0.256D-03 0.368D-03 0.326D-02-0.556D-02-0.148D+00 0.115D+01
 Gap=     0.406 Goal=   None    Shift=    0.000
 RMSDP=5.22D-07 MaxDP=2.77D-05 DE=-1.42D-07 OVMax= 4.02D-05

 Cycle   7  Pass 1  IDiag  1:
 RMSU=  9.78D-08    CP:  9.89D-01  7.71D-01  1.05D+00  1.21D+00  1.39D+00
                    CP:  1.24D+00
 E= -76.4218842770789     Delta-E=       -0.000000003797 Rises=F Damp=F
 DIIS: error= 4.63D-07 at cycle   7 NSaved=   7.
 NSaved= 7 IEnMin= 7 EnMin= -76.4218842770789     IErMin= 7 ErrMin= 4.63D-07
 ErrMax= 4.63D-07  0.00D+00 EMaxC= 1.00D-01 BMatC= 3.60D-11 BMatP= 1.88D-09
 IDIUse=1 WtCom= 1.00D+00 WtEn= 0.00D+00
 Coeff-Com: -0.155D-04 0.385D-04 0.360D-03 0.131D-02-0.225D-01 0.111D-01
 Coeff-Com:  0.101D+01
 Coeff:     -0.155D-04 0.385D-04 0.360D-03 0.131D-02-0.225D-01 0.111D-01
 Coeff:      0.101D+01
 Gap=     0.406 Goal=   None    Shift=    0.000
 RMSDP=7.01D-08 MaxDP=3.63D-06 DE=-3.80D-09 OVMax= 5.19D-06

 Cycle   8  Pass 1  IDiag  1:
 RMSU=  1.81D-08    CP:  9.89D-01  7.71D-01  1.05D+00  1.22D+00  1.39D+00
                    CP:  1.27D+00  1.19D+00
 E= -76.4218842771461     Delta-E=       -0.000000000067 Rises=F Damp=F
 DIIS: error= 1.23D-07 at cycle   8 NSaved=   8.
 NSaved= 8 IEnMin= 8 EnMin= -76.4218842771461     IErMin= 8 ErrMin= 1.23D-07
 ErrMax= 1.23D-07  0.00D+00 EMaxC= 1.00D-01 BMatC= 2.42D-12 BMatP= 3.60D-11
 IDIUse=1 WtCom= 1.00D+00 WtEn= 0.00D+00
 Coeff-Com:  0.138D-04-0.167D-04-0.145D-03 0.589D-03 0.489D-02-0.583D-01
 Coeff-Com:  0.128D+00 0.925D+00
 Coeff:      0.138D-04-0.167D-04-0.145D-03 0.589D-03 0.489D-02-0.583D-01
 Coeff:      0.128D+00 0.925D+00
 Gap=     0.406 Goal=   None    Shift=    0.000
 RMSDP=1.03D-08 MaxDP=5.56D-07 DE=-6.73D-11 OVMax= 9.90D-07

 Cycle   9  Pass 1  IDiag  1:
 RMSU=  3.54D-09    CP:  9.89D-01  7.71D-01  1.05D+00  1.22D+00  1.40D+00
                    CP:  1.27D+00  1.24D+00  1.10D+00
 E= -76.4218842771490     Delta-E=       -0.000000000003 Rises=F Damp=F
 DIIS: error= 2.17D-08 at cycle   9 NSaved=   9.
 NSaved= 9 IEnMin= 9 EnMin= -76.4218842771490     IErMin= 9 ErrMin= 2.17D-08
 ErrMax= 2.17D-08  0.00D+00 EMaxC= 1.00D-01 BMatC= 4.26D-14 BMatP= 2.42D-12
 IDIUse=1 WtCom= 1.00D+00 WtEn= 0.00D+00
 Coeff-Com: -0.122D-05 0.346D-06 0.209D-04-0.598D-04-0.506D-04 0.561D-02
 Coeff-Com: -0.385D-01-0.903D-01 0.112D+01
 Coeff:     -0.122D-05 0.346D-06 0.209D-04-0.598D-04-0.506D-04 0.561D-02
 Coeff:     -0.385D-01-0.903D-01 0.112D+01
 Gap=     0.406 Goal=   None    Shift=    0.000
 RMSDP=1.21D-09 MaxDP=5.90D-08 DE=-2.86D-12 OVMax= 1.58D-07

 SCF Done:  E(RM062X) =  -76.4218842771     A.U. after    9 cycles
            NFock=  9  Conv=0.12D-08     -V/T= 2.0033
 KE= 7.616963746525D+01 PE=-1.989350240110D+02 EE= 3.729374116190D+01
 Leave Link  502 at Mon Feb 20 00:56:52 2023, MaxMem=  6710886400 cpu:             259.1 elap:              10.9
 (Enter /data0/home/software/g16/l601.exe)
 Copying SCF densities to generalized density rwf, IOpCl= 0 IROHF=0.

 **********************************************************************

            Population analysis using the SCF density.

 **********************************************************************

 Alpha  occ. eigenvalues --  -19.62755  -1.13097  -0.60504  -0.47468  -0.39976
 Alpha virt. eigenvalues --    0.00580   0.04203   0.05059   0.05279   0.09082
 Alpha virt. eigenvalues --    0.10488   0.11300   0.13453   0.14296   0.15063
 Alpha virt. eigenvalues --    0.15629   0.16639   0.17600   0.18168   0.18461
 Alpha virt. eigenvalues --    0.19435   0.20389   0.21345   0.21727   0.22775
 Alpha virt. eigenvalues --    0.23501   0.24018   0.24430   0.26088   0.27119
 Alpha virt. eigenvalues --    0.28280   0.28970   0.29535   0.30477   0.32159
 Alpha virt. eigenvalues --    0.32972   0.34424   0.35640   0.37215   0.37857
 Alpha virt. eigenvalues --    0.38555   0.39081   0.39379   0.41375   0.42309
 Alpha virt. eigenvalues --    0.43222   0.43911   0.45155   0.45773   0.50440
 Alpha virt. eigenvalues --    0.54268   0.58381   0.63317   0.66011   0.69487
 Alpha virt. eigenvalues --    0.72883   0.73151   0.74128   0.74949   0.76013
 Alpha virt. eigenvalues --    0.77853   0.79410   0.80751   0.81437   0.82296
 Alpha virt. eigenvalues --    0.83636   0.84949   0.87021   0.88739   0.89540
 Alpha virt. eigenvalues --    0.91053   0.92745   0.95270   0.98040   0.98379
 Alpha virt. eigenvalues --    1.00499   1.01059   1.03620   1.05267   1.07741
 Alpha virt. eigenvalues --    1.08646   1.10009   1.11714   1.14096   1.14886
 Alpha virt. eigenvalues --    1.16102   1.19305   1.21254   1.22216   1.24079
 Alpha virt. eigenvalues --    1.26798   1.30131   1.33027   1.37735   1.46037
 Alpha virt. eigenvalues --    1.46626   1.47916   1.56870   1.58000   1.69399
 Alpha virt. eigenvalues --    1.76046   1.77136   1.80070   1.86644   1.88034
 Alpha virt. eigenvalues --    1.89943   1.91140   1.92225   1.94898   1.98132
 Alpha virt. eigenvalues --    2.00121   2.02935   2.05672   2.06658   2.10065
 Alpha virt. eigenvalues --    2.17573   2.20598   2.24617   2.26993   2.27942
 Alpha virt. eigenvalues --    2.29612   2.33614   2.34504   2.35891   2.37812
 Alpha virt. eigenvalues --    2.39853   2.42312   2.43925   2.44855   2.47433
 Alpha virt. eigenvalues --    2.48174   2.53062   2.53674   2.54546   2.55346
 Alpha virt. eigenvalues --    2.57535   2.58397   2.60439   2.61619   2.63416
 Alpha virt. eigenvalues --    2.64975   2.65723   2.67661   2.67700   2.69282
 Alpha virt. eigenvalues --    2.70368   2.71215   2.73608   2.74701   2.77313
 Alpha virt. eigenvalues --    2.78269   2.80146   2.81661   2.82872   2.85820
 Alpha virt. eigenvalues --    2.86805   2.88277   2.91024   2.92557   2.96209
 Alpha virt. eigenvalues --    2.98235   2.99934   3.01946   3.03495   3.04827
 Alpha virt. eigenvalues --    3.05394   3.07278   3.07900   3.10864   3.13220
 Alpha virt. eigenvalues --    3.14866   3.21581   3.23822   3.26844   3.29544
 Alpha virt. eigenvalues --    3.32589   3.35413   3.39904   3.45296   3.50161
 Alpha virt. eigenvalues --    3.57699   3.64023   3.66941   3.68377   3.71485
 Alpha virt. eigenvalues --    3.81042   3.86233   4.44428   4.51939   4.57271
 Alpha virt. eigenvalues --    4.59441   4.59779   4.67616   4.71679   4.77094
 Alpha virt. eigenvalues --    4.95168   4.98592   5.07846   5.11287   5.12922
 Alpha virt. eigenvalues --    5.25914   5.52056   5.91266   6.81650   6.83627
 Alpha virt. eigenvalues --    6.91396   6.98487   7.10632   9.66039   9.76811
 Alpha virt. eigenvalues --    9.80595   9.82875   9.98408  10.12613  10.15190
 Alpha virt. eigenvalues --   10.17567  10.18596  10.23441  10.25473  10.27125
 Alpha virt. eigenvalues --   10.28861  10.30015  10.32243  10.33813  10.36160
 Alpha virt. eigenvalues --   10.40419  10.41398  10.42384  10.43280  10.45744
 Alpha virt. eigenvalues --   10.50659  10.53114  10.55506  10.56925  10.59324
 Alpha virt. eigenvalues --   10.72318  10.73611  10.76551  10.79598  10.86754
 Alpha virt. eigenvalues --   10.91985  12.80167  13.16043  13.32017  13.37696
 Alpha virt. eigenvalues --   13.39572  13.41956  13.45507  13.46942  13.51557
 Alpha virt. eigenvalues --   13.55741  13.64787  13.68619  13.75126  13.77566
 Alpha virt. eigenvalues --   13.82281  13.94013  13.97328  14.29564  14.38067
 Alpha virt. eigenvalues --   17.67178  18.35077  18.41111  18.43292  18.54791
 Alpha virt. eigenvalues --   18.55700  49.98904  53.37593  53.38204  53.49177
 Alpha virt. eigenvalues --   71.28288 135.44511 139.23937 139.56688 139.75828
 Alpha virt. eigenvalues --  139.78350 139.78962 485.05880
          Condensed to atoms (all electrons):
               1          2          3          4          5          6
     1  P    0.004179  -0.000799  -0.001661  -0.000111  -0.000717   0.000031
     2  O   -0.000799   0.001914  -0.000551  -0.000027  -0.000499   0.000380
     3  O   -0.001661  -0.000551   0.001649   0.000054   0.000570  -0.000182
     4  H   -0.000111  -0.000027   0.000054   0.000015   0.000027  -0.000002
     5  O   -0.000717  -0.000499   0.000570   0.000027   0.002746  -0.002332
     6  H    0.000031   0.000380  -0.000182  -0.000002  -0.002332   0.002393
     7  O   -0.000683  -0.000236   0.000112   0.000041  -0.000080   0.000121
     8  H   -0.000208  -0.000102  -0.000002   0.000003   0.000168  -0.000145
     9  O    0.000125  -0.000045   0.000039   0.000000  -0.002549   0.004174
    10  H    0.000266   0.000468  -0.000022  -0.000000   0.000432   0.000085
    11  H   -0.000119   0.000074  -0.000007  -0.000000   0.000196  -0.000088
    12  O    0.000258  -0.000703   0.000118   0.000001  -0.000038   0.000087
    13  H   -0.000386   0.000518  -0.000071  -0.000000  -0.000129   0.000105
    14  H    0.000364   0.000088  -0.000040  -0.000000   0.000446  -0.000519
    15  O   -0.000025   0.000003  -0.000002  -0.000000   0.000002  -0.000004
    16  H   -0.000003  -0.000012   0.000002   0.000000   0.000002  -0.000001
    17  H    0.000004   0.000005   0.000001   0.000000  -0.000011   0.000010
               7          8          9         10         11         12
     1  P   -0.000683  -0.000208   0.000125   0.000266  -0.000119   0.000258
     2  O   -0.000236  -0.000102  -0.000045   0.000468   0.000074  -0.000703
     3  O    0.000112  -0.000002   0.000039  -0.000022  -0.000007   0.000118
     4  H    0.000041   0.000003   0.000000  -0.000000  -0.000000   0.000001
     5  O   -0.000080   0.000168  -0.002549   0.000432   0.000196  -0.000038
     6  H    0.000121  -0.000145   0.004174   0.000085  -0.000088   0.000087
     7  O    0.000636   0.000074   0.000031  -0.000037   0.000002  -0.000019
     8  H    0.000074   0.000187  -0.000084  -0.000007   0.000003  -0.000007
     9  O    0.000031  -0.000084   8.018595   0.309826   0.312701   0.057155
    10  H   -0.000037  -0.000007   0.309826   0.421553  -0.019528  -0.005006
    11  H    0.000002   0.000003   0.312701  -0.019528   0.434062  -0.003299
    12  O   -0.000019  -0.000007   0.057155  -0.005006  -0.003299   0.024398
    13  H    0.000013  -0.000002  -0.002270   0.000465   0.000254  -0.001830
    14  H   -0.000005   0.000014  -0.112919   0.009306   0.007445  -0.033082
    15  O    0.000003   0.000021  -0.000008  -0.000001   0.000000  -0.000003
    16  H   -0.000002   0.000009  -0.000000   0.000000  -0.000000   0.000000
[...]

 **********************************************************************

 Alpha  occ. eigenvalues --  -19.62643  -1.13290  -0.60620  -0.47548  -0.39978
 Alpha virt. eigenvalues --    0.06234   0.13297   0.17408   0.17947   0.18919
 Alpha virt. eigenvalues --    0.23329   0.51086   0.53207   0.98025   1.00241
 Alpha virt. eigenvalues --    1.06026   1.18204   1.19951   1.32235   1.33986
 Alpha virt. eigenvalues --    1.69868   1.74160   1.75479   2.07751   2.09067
 Alpha virt. eigenvalues --    2.35820   2.40832   2.54519   2.88087   3.00886
 Alpha virt. eigenvalues --    5.05645   5.48068   5.91430   6.78361   6.80194
 Alpha virt. eigenvalues --    6.87244   6.91482   7.09646  49.95568
          Condensed to atoms (all electrons):
              12         13         14
    12  O    7.917686   0.320094   0.318226
    13  H    0.320094   0.426860  -0.024124
    14  H    0.318226  -0.024124   0.427062
 Mulliken charges:
               1
     1  P    0.000000
     2  O    0.000000
     3  O    0.000000
     4  H    0.000000
     5  O    0.000000
     6  H    0.000000
     7  O    0.000000
     8  H    0.000000
     9  O    0.000000
    10  H    0.000000
    11  H    0.000000
    12  O   -0.556006
    13  H    0.277170
    14  H    0.278835
    15  O    0.000000
    16  H    0.000000
    17  H    0.000000
 Sum of Mulliken charges =   0.00000
 Mulliken charges with hydrogens summed into heavy atoms:
               1
     1  P    0.000000
     2  O    0.000000
     3  O    0.000000
     5  O    0.000000
     7  O    0.000000
     9  O    0.000000
    12  O    0.000000
    15  O    0.000000
         Mulliken charges condensed to fragments:
      1      0.000000
      2      0.000000
      3      0.000000
      4      0.000000
 Electronic spatial extent (au):  <R**2>=          10358.6137
 Charge=              0.0000 electrons
 Dipole moment (field-independent basis, Debye):
    X=              0.3251    Y=             -0.2800    Z=             -2.0793  Tot=              2.1231
 Quadrupole moment (field-independent basis, Debye-Ang):
   XX=              1.9890   YY=            -12.2476   ZZ=            -52.7820
   XY=              0.0304   XZ=            -16.6710   YZ=            -19.7735
 Traceless Quadrupole moment (field-independent basis, Debye-Ang):
   XX=             23.0025   YY=              8.7659   ZZ=            -31.7685
   XY=              0.0304   XZ=            -16.6710   YZ=            -19.7735
 Octapole moment (field-independent basis, Debye-Ang**2):
  XXX=            -35.9753  YYY=           -242.8015  ZZZ=           -991.8693  XYY=            -97.1841
  XXY=             -8.1745  XXZ=           -177.2866  XZZ=           -475.9099  YZZ=           -458.2215
  YYZ=           -270.4194  XYZ=           -162.2314
 Hexadecapole moment (field-independent basis, Debye-Ang**3):
 XXXX=          -1338.7993 YYYY=          -3647.8887 ZZZZ=         -16402.5597 XXXY=           -518.9839
 XXXZ=          -2375.2309 YYYX=          -2197.7930 YYYZ=          -3787.6542 ZZZX=          -9268.6968
 ZZZY=          -8355.6572 XXYY=          -1021.3593 XXZZ=          -4836.1329 YYZZ=          -4933.2942
 XXYZ=          -1689.3225 YYXZ=          -2390.9106 ZZXY=          -4139.0798
 N-N= 9.087865915454D+00 E-N=-1.990242290032D+02  KE= 7.618987994458D+01
 No NMR shielding tensors so no spin-rotation constants.
 Leave Link  601 at Mon Feb 20 00:57:20 2023, MaxMem=  6710886400 cpu:               1.8 elap:               0.1
 (Enter /data0/home/software/g16/l122.exe)
 CPIOFr:  IOpCl= 0 IRwI=-1 IRwCP=  731 ICalc=  7 LCPTot=      120517 Len1MO=      315166 IndFrg=     2641845
 Counterpoise: doing calculation for fragment   4 using the basis set of the fragment.
 Leave Link  122 at Mon Feb 20 00:57:20 2023, MaxMem=  6710886400 cpu:               0.1 elap:               0.0
 (Enter /data0/home/software/g16/l301.exe)
 Basis read from rwf:  (5D, 7F)
 No pseudopotential information found on rwf file.
    39 basis functions,    58 primitive gaussians,    41 cartesian basis functions
     5 alpha electrons        5 beta electrons
       nuclear repulsion energy         9.0693919810 Hartrees.
 IExCor= 4336 DFT=T Ex+Corr=M062X ExCW=0 ScaHFX=  0.540000
 ScaDFX=  1.000000  1.000000  1.000000  1.000000 ScalE2=  1.000000  1.000000
 IRadAn=      5 IRanWt=     -1 IRanGd=            0 ICorTp=0 IEmpDi=131
 NAtoms=   17 NActive=    3 NUniq=    3 SFac= 1.00D+00 NAtFMM=   60 NAOKFM=F Big=F
 Integral buffers will be    131072 words long.
 Raffenetti 2 integral format.
 Two-electron integral symmetry is turned off.
 R6Disp:  Grimme-D3 Dispersion energy=       -0.0000000074 Hartrees.
 Nuclear repulsion after empirical dispersion term =        9.0693919736 Hartrees.
 No density basis found on file   718.
 Leave Link  301 at Mon Feb 20 00:57:21 2023, MaxMem=  6710886400 cpu:               1.3 elap:               0.1
 (Enter /data0/home/software/g16/l302.exe)
 NPDir=0 NMtPBC=     1 NCelOv=     1 NCel=       1 NClECP=     1 NCelD=      1
         NCelK=      1 NCelE2=     1 NClLst=     1 CellRange=     0.0.
 One-electron integrals computed using PRISM.
 NBasis=    39 RedAO= T EigKep=  3.03D-03  NBF=    39
 NBsUse=    39 1.00D-06 EigRej= -1.00D+00 NBFU=    39
 Precomputing XC quadrature grid using
 IXCGrd= 4 IRadAn=           5 IRanWt=          -1 IRanGd=           0 AccXCQ= 0.00D+00.
 Generated NRdTot=       0 NPtTot=           0 NUsed=           0 NTot=          32
 NSgBfM=    41    41    41    41    41 MxSgAt=     3 MxSgA2=     3.
 Leave Link  302 at Mon Feb 20 00:57:21 2023, MaxMem=  6710886400 cpu:               2.3 elap:               0.1
 (Enter /data0/home/software/g16/l303.exe)
 DipDrv:  MaxL=1.
 Leave Link  303 at Mon Feb 20 00:57:21 2023, MaxMem=  6710886400 cpu:               0.4 elap:               0.0
 (Enter /data0/home/software/g16/l401.exe)
 ExpMin= 8.45D-02 ExpMax= 8.59D+03 ExpMxC= 1.30D+03 IAcc=3 IRadAn=         5 AccDes= 0.00D+00
 Harris functional with IExCor= 1009 and IRadAn=       5 diagonalized for initial guess.
 HarFok:  IExCor= 1009 AccDes= 0.00D+00 IRadAn=         5 IDoV= 1 UseB2=F ITyADJ=14
 ICtDFT=  3500011 ScaDFX=  1.000000  1.000000  1.000000  1.000000
 FoFCou: FMM=F IPFlag=           0 FMFlag=      100000 FMFlg1=           0
         NFxFlg=           0 DoJE=T BraDBF=F KetDBF=T FulRan=T
         wScrn=  0.000000 ICntrl=       500 IOpCl=  0 I1Cent=   200000004 NGrid=           0
         NMat0=    1 NMatS0=      1 NMatT0=    0 NMatD0=    1 NMtDS0=    0 NMtDT0=    0
 Symmetry not used in FoFCou.
 Harris En= -76.4159228934460    
 JPrj=0 DoOrth=F DoCkMO=F.
 Leave Link  401 at Mon Feb 20 00:57:21 2023, MaxMem=  6710886400 cpu:               2.9 elap:               0.1
 (Enter /data0/home/software/g16/l502.exe)
 Keep R1 ints in memory in canonical form, NReq=21038482.
 FoFCou: FMM=F IPFlag=           0 FMFlag=           0 FMFlg1=           0
         NFxFlg=           0 DoJE=F BraDBF=F KetDBF=F FulRan=T
         wScrn=  0.000000 ICntrl=       600 IOpCl=  0 I1Cent=           0 NGrid=           0
         NMat0=    1 NMatS0=    780 NMatT0=    0 NMatD0=    1 NMtDS0=    0 NMtDT0=    0
 Symmetry not used in FoFCou.
 Two-electron integral symmetry not used.
 Closed shell SCF:
 Using DIIS extrapolation, IDIIS=  1040.
 NGot=  6710886400 LenX=  6710576560 LenY=  6710574438
 Requested convergence on RMS density matrix=1.00D-08 within 128 cycles.
 Requested convergence on MAX density matrix=1.00D-06.
 Requested convergence on             energy=1.00D-06.
 No special actions if energy rises.
 Integral accuracy reduced to 1.0D-05 until final iterations.

 Cycle   1  Pass 0  IDiag  1:
 E= -76.3466284381311    
 DIIS: error= 6.96D-02 at cycle   1 NSaved=   1.
 NSaved= 1 IEnMin= 1 EnMin= -76.3466284381311     IErMin= 1 ErrMin= 6.96D-02
 ErrMax= 6.96D-02  0.00D+00 EMaxC= 1.00D-01 BMatC= 1.20D-01 BMatP= 1.20D-01
 IDIUse=3 WtCom= 3.04D-01 WtEn= 6.96D-01
 Coeff-Com:  0.100D+01
 Coeff-En:   0.100D+01
 Coeff:      0.100D+01
 Gap=     0.324 Goal=   None    Shift=    0.000
 GapD=    0.324 DampG=1.000 DampE=0.500 DampFc=0.5000 IDamp=-1.
 Damping current iteration by 5.00D-01
 RMSDP=7.97D-03 MaxDP=1.00D-01              OVMax= 1.67D-01

 Cycle   2  Pass 0  IDiag  1:
 E= -76.3777059360491     Delta-E=       -0.031077497918 Rises=F Damp=T
 DIIS: error= 1.12D-02 at cycle   2 NSaved=   2.
 NSaved= 2 IEnMin= 2 EnMin= -76.3777059360491     IErMin= 2 ErrMin= 1.12D-02
 ErrMax= 1.12D-02  0.00D+00 EMaxC= 1.00D-01 BMatC= 4.88D-03 BMatP= 1.20D-01
 IDIUse=3 WtCom= 8.88D-01 WtEn= 1.12D-01
 Coeff-Com:  0.844D-01 0.916D+00
 Coeff-En:   0.191D+00 0.809D+00
 Coeff:      0.963D-01 0.904D+00
 Gap=     0.456 Goal=   None    Shift=    0.000
 RMSDP=9.55D-04 MaxDP=1.42D-02 DE=-3.11D-02 OVMax= 1.00D-01

 Cycle   3  Pass 0  IDiag  1:
 E= -76.4214417913361     Delta-E=       -0.043735855287 Rises=F Damp=F
 DIIS: error= 2.17D-03 at cycle   3 NSaved=   3.
 NSaved= 3 IEnMin= 3 EnMin= -76.4214417913361     IErMin= 3 ErrMin= 2.17D-03
 ErrMax= 2.17D-03  0.00D+00 EMaxC= 1.00D-01 BMatC= 9.16D-05 BMatP= 4.88D-03
 IDIUse=3 WtCom= 9.78D-01 WtEn= 2.17D-02
 Coeff-Com: -0.200D-01 0.397D-01 0.980D+00
 Coeff-En:   0.000D+00 0.000D+00 0.100D+01
 Coeff:     -0.196D-01 0.389D-01 0.981D+00
 Gap=     0.461 Goal=   None    Shift=    0.000
 RMSDP=1.15D-04 MaxDP=1.03D-03 DE=-4.37D-02 OVMax= 3.34D-03

 Cycle   4  Pass 0  IDiag  1:
 E= -76.4215200402302     Delta-E=       -0.000078248894 Rises=F Damp=F
 DIIS: error= 4.18D-04 at cycle   4 NSaved=   4.
 NSaved= 4 IEnMin= 4 EnMin= -76.4215200402302     IErMin= 4 ErrMin= 4.18D-04
 ErrMax= 4.18D-04  0.00D+00 EMaxC= 1.00D-01 BMatC= 3.32D-06 BMatP= 9.16D-05
 IDIUse=3 WtCom= 9.96D-01 WtEn= 4.18D-03
 Coeff-Com: -0.193D-02-0.225D-02 0.163D+00 0.842D+00
 Coeff-En:   0.000D+00 0.000D+00 0.000D+00 0.100D+01
 Coeff:     -0.192D-02-0.224D-02 0.162D+00 0.842D+00
 Gap=     0.461 Goal=   None    Shift=    0.000
 RMSDP=2.23D-05 MaxDP=3.56D-04 DE=-7.82D-05 OVMax= 5.43D-04

 Cycle   5  Pass 0  IDiag  1:
 E= -76.4215221018858     Delta-E=       -0.000002061656 Rises=F Damp=F
 DIIS: error= 9.00D-05 at cycle   5 NSaved=   5.
 NSaved= 5 IEnMin= 5 EnMin= -76.4215221018858     IErMin= 5 ErrMin= 9.00D-05
 ErrMax= 9.00D-05  0.00D+00 EMaxC= 1.00D-01 BMatC= 8.40D-08 BMatP= 3.32D-06
 IDIUse=1 WtCom= 1.00D+00 WtEn= 0.00D+00
 Coeff-Com:  0.119D-02-0.182D-02-0.371D-01-0.653D-01 0.110D+01
 Coeff:      0.119D-02-0.182D-02-0.371D-01-0.653D-01 0.110D+01
 Gap=     0.461 Goal=   None    Shift=    0.000
 RMSDP=9.09D-06 MaxDP=1.02D-04 DE=-2.06D-06 OVMax= 2.06D-04

 Initial convergence to 1.0D-05 achieved.  Increase integral accuracy.
 Cycle   6  Pass 1  IDiag  1:
 E= -76.4215167370219     Delta-E=        0.000005364864 Rises=F Damp=F
 DIIS: error= 1.12D-05 at cycle   1 NSaved=   1.
 NSaved= 1 IEnMin= 1 EnMin= -76.4215167370219     IErMin= 1 ErrMin= 1.12D-05
 ErrMax= 1.12D-05  0.00D+00 EMaxC= 1.00D-01 BMatC= 1.18D-08 BMatP= 1.18D-08
 IDIUse=1 WtCom= 1.00D+00 WtEn= 0.00D+00
 Coeff-Com:  0.100D+01
 Coeff:      0.100D+01
 Gap=     0.461 Goal=   None    Shift=    0.000
 RMSDP=9.09D-06 MaxDP=1.02D-04 DE= 5.36D-06 OVMax= 4.77D-05

 Cycle   7  Pass 1  IDiag  1:
 E= -76.4215167462973     Delta-E=       -0.000000009275 Rises=F Damp=F
 DIIS: error= 9.73D-06 at cycle   2 NSaved=   2.
 NSaved= 2 IEnMin= 2 EnMin= -76.4215167462973     IErMin= 2 ErrMin= 9.73D-06
 ErrMax= 9.73D-06  0.00D+00 EMaxC= 1.00D-01 BMatC= 1.45D-09 BMatP= 1.18D-08
 IDIUse=1 WtCom= 1.00D+00 WtEn= 0.00D+00
 Coeff-Com:  0.102D+00 0.898D+00
 Coeff:      0.102D+00 0.898D+00
 Gap=     0.461 Goal=   None    Shift=    0.000
 RMSDP=7.92D-07 MaxDP=1.33D-05 DE=-9.28D-09 OVMax= 2.07D-05

 Cycle   8  Pass 1  IDiag  1:
 E= -76.4215167466800     Delta-E=       -0.000000000383 Rises=F Damp=F
 DIIS: error= 6.74D-06 at cycle   3 NSaved=   3.
 NSaved= 3 IEnMin= 3 EnMin= -76.4215167466800     IErMin= 3 ErrMin= 6.74D-06
 ErrMax= 6.74D-06  0.00D+00 EMaxC= 1.00D-01 BMatC= 1.20D-09 BMatP= 1.45D-09
 IDIUse=1 WtCom= 1.00D+00 WtEn= 0.00D+00
 Coeff-Com: -0.528D-01 0.489D+00 0.563D+00
 Coeff:     -0.528D-01 0.489D+00 0.563D+00
 Gap=     0.461 Goal=   None    Shift=    0.000
 RMSDP=3.97D-07 MaxDP=5.25D-06 DE=-3.83D-10 OVMax= 9.93D-06

 Cycle   9  Pass 1  IDiag  1:
 E= -76.4215167474828     Delta-E=       -0.000000000803 Rises=F Damp=F
 DIIS: error= 5.66D-07 at cycle   4 NSaved=   4.
 NSaved= 4 IEnMin= 4 EnMin= -76.4215167474828     IErMin= 4 ErrMin= 5.66D-07
 ErrMax= 5.66D-07  0.00D+00 EMaxC= 1.00D-01 BMatC= 4.10D-12 BMatP= 1.20D-09
 IDIUse=1 WtCom= 1.00D+00 WtEn= 0.00D+00
 Coeff-Com: -0.140D-02-0.377D-01-0.164D-01 0.106D+01
 Coeff:     -0.140D-02-0.377D-01-0.164D-01 0.106D+01
 Gap=     0.461 Goal=   None    Shift=    0.000
 RMSDP=7.92D-08 MaxDP=6.59D-07 DE=-8.03D-10 OVMax= 1.76D-06

 Cycle  10  Pass 1  IDiag  1:
 E= -76.4215167474913     Delta-E=       -0.000000000008 Rises=F Damp=F
 DIIS: error= 9.77D-08 at cycle   5 NSaved=   5.
 NSaved= 5 IEnMin= 5 EnMin= -76.4215167474913     IErMin= 5 ErrMin= 9.77D-08
 ErrMax= 9.77D-08  0.00D+00 EMaxC= 1.00D-01 BMatC= 2.85D-13 BMatP= 4.10D-12
 IDIUse=1 WtCom= 1.00D+00 WtEn= 0.00D+00
 Coeff-Com:  0.335D-02-0.393D-01-0.393D-01 0.107D+00 0.968D+00
 Coeff:      0.335D-02-0.393D-01-0.393D-01 0.107D+00 0.968D+00
 Gap=     0.461 Goal=   None    Shift=    0.000
 RMSDP=2.26D-08 MaxDP=1.80D-07 DE=-8.44D-12 OVMax= 5.18D-07

 Cycle  11  Pass 1  IDiag  1:
 E= -76.4215167474918     Delta-E=       -0.000000000001 Rises=F Damp=F
 DIIS: error= 1.25D-08 at cycle   6 NSaved=   6.
 NSaved= 6 IEnMin= 6 EnMin= -76.4215167474918     IErMin= 6 ErrMin= 1.25D-08
 ErrMax= 1.25D-08  0.00D+00 EMaxC= 1.00D-01 BMatC= 3.67D-15 BMatP= 2.85D-13
 IDIUse=1 WtCom= 1.00D+00 WtEn= 0.00D+00
 Coeff-Com:  0.774D-04 0.389D-03 0.701D-03-0.221D-01-0.155D-01 0.104D+01
 Coeff:      0.774D-04 0.389D-03 0.701D-03-0.221D-01-0.155D-01 0.104D+01
 Gap=     0.461 Goal=   None    Shift=    0.000
 RMSDP=3.08D-09 MaxDP=3.10D-08 DE=-5.68D-13 OVMax= 5.67D-08

 SCF Done:  E(RM062X) =  -76.4215167475     A.U. after   11 cycles
            NFock= 11  Conv=0.31D-08     -V/T= 2.0031
 KE= 7.618402813390D+01 PE=-1.989827298194D+02 EE= 3.730779296440D+01
 Leave Link  502 at Mon Feb 20 00:57:21 2023, MaxMem=  6710886400 cpu:               8.8 elap:               0.4
 (Enter /data0/home/software/g16/l601.exe)
 Copying SCF densities to generalized density rwf, IOpCl= 0 IROHF=0.

 **********************************************************************

            Population analysis using the SCF density.

 **********************************************************************

 Alpha  occ. eigenvalues --  -19.62721  -1.13268  -0.60328  -0.47716  -0.39985
 Alpha virt. eigenvalues --    0.06159   0.13267   0.17431   0.17944   0.18897
 Alpha virt. eigenvalues --    0.23436   0.50589   0.53369   0.98167   1.00329
 Alpha virt. eigenvalues --    1.05997   1.17393   1.20123   1.31843   1.34132
 Alpha virt. eigenvalues --    1.70427   1.74146   1.75173   2.06968   2.09640
 Alpha virt. eigenvalues --    2.36294   2.39136   2.54867   2.87304   3.01011
 Alpha virt. eigenvalues --    5.05601   5.48517   5.89768   6.78519   6.80026
 Alpha virt. eigenvalues --    6.87361   6.91630   7.09664  49.95289
          Condensed to atoms (all electrons):
              15         16         17
    15  O    7.920430   0.318150   0.314642
    16  H    0.318150   0.430351  -0.023563
    17  H    0.314642  -0.023563   0.430761
 Mulliken charges:
               1
     1  P    0.000000
     2  O    0.000000
     3  O    0.000000
     4  H    0.000000
     5  O    0.000000
     6  H    0.000000
     7  O    0.000000
     8  H    0.000000
     9  O    0.000000
    10  H    0.000000
    11  H    0.000000
    12  O    0.000000
    13  H    0.000000
    14  H    0.000000
    15  O   -0.553222
    16  H    0.275062
    17  H    0.278160
 Sum of Mulliken charges =   0.00000
 Mulliken charges with hydrogens summed into heavy atoms:
               1
     1  P    0.000000
     2  O    0.000000
     3  O    0.000000
     5  O    0.000000
     7  O    0.000000
     9  O    0.000000
    12  O    0.000000
    15  O    0.000000
         Mulliken charges condensed to fragments:
      1      0.000000
      2      0.000000
      3      0.000000
      4      0.000000
 Electronic spatial extent (au):  <R**2>=          14021.2831
 Charge=              0.0000 electrons
 Dipole moment (field-independent basis, Debye):
    X=              0.5016    Y=             -1.3308    Z=             -1.6008  Tot=              2.1413
 Quadrupole moment (field-independent basis, Debye-Ang):
   XX=              7.3733   YY=            -41.5840   ZZ=            -35.1586
   XY=             -9.7429   XZ=            -14.0384   YZ=            -31.8866
 Traceless Quadrupole moment (field-independent basis, Debye-Ang):
   XX=             30.4964   YY=            -18.4609   ZZ=            -12.0355
   XY=             -9.7429   XZ=            -14.0384   YZ=            -31.8866
 Octapole moment (field-independent basis, Debye-Ang**2):
  XXX=             49.2958  YYY=           -946.1384  ZZZ=           -559.8268  XYY=           -421.9116
  XXY=           -103.2942  XXZ=           -148.7872  XZZ=           -370.0501  YZZ=           -548.6473
  YYZ=           -621.2420  XYZ=           -318.2267
 Hexadecapole moment (field-independent basis, Debye-Ang**3):
 XXXX=           -543.8395 YYYY=         -18735.7085 ZZZZ=          -7742.0848 XXXY=          -1802.6600
 XXXZ=          -2053.2131 YYYX=         -10401.9192 YYYZ=         -11570.8534 ZZZX=          -6208.6169
 ZZZY=          -8029.2754 XXYY=          -4940.3395 XXZZ=          -4205.6943 YYZZ=          -8889.0129
 XXYZ=          -3600.6798 YYXZ=          -6654.4605 ZZXY=          -5936.4152
 N-N= 9.069391973585D+00 E-N=-1.989827299992D+02  KE= 7.618402813390D+01
 No NMR shielding tensors so no spin-rotation constants.
 Leave Link  601 at Mon Feb 20 00:57:21 2023, MaxMem=  6710886400 cpu:               1.8 elap:               0.1
 (Enter /data0/home/software/g16/l122.exe)
 CPIOFr:  IOpCl= 0 IRwI=-1 IRwCP=  731 ICalc=  8 LCPTot=      120517 Len1MO=      315166 IndFrg=     2957011
 Restoring MOs from calculation   1 to rwf.
 CPIOFr:  IOpCl= 0 IRwI=-2 IRwCP=  731 ICalc=  0 LCPTot=      120517 Len1MO=      315166 IndFrg=      435683
 Counterpoise corrected energy =    -873.400625588644
                   BSSE energy =       0.002976593402
              sum of fragments =    -873.400211361198
           complexation energy =      -2.13 kcal/mole (raw)
           complexation energy =      -0.26 kcal/mole (corrected)
 Leave Link  122 at Mon Feb 20 00:57:21 2023, MaxMem=  6710886400 cpu:               0.2 elap:               0.0
 (Enter /data0/home/software/g16/l9999.exe)
 1\1\GINC-LOCALHOST\SP\RM062X\6-311+G(2d,p)\H9O7P1\WUHANYU\20-Feb-2023\
 0\\#p M062X/6-311+G(2d,p) nosymm em=GD3 counterpoise=4\\Title Card Req
 uired\\0,1\P,0,12.809037,8.967506,8.322808\O,0,12.37231,9.047767,9.721
 893\O,0,14.243419,8.287898,8.230468\H,0,14.504264,8.265394,7.228808\O,
 0,11.91062,8.122325,7.335179\H,0,10.973822,8.63118,7.22143\O,0,13.0290
 2,10.388335,7.636556\H,0,12.097869,10.762486,7.304882\O,0,8.160797,8.1
 24526,9.112979\H,0,8.659827,8.620721,8.410191\H,0,7.979763,7.277555,8.
 718823\O,0,9.889878,8.121935,11.284442\H,0,10.731491,8.08876,10.817381
 \H,0,9.227438,7.99733,10.581012\O,0,12.001186,12.993747,9.003599\H,0,1
 2.858712,12.616645,8.791935\H,0,11.420435,12.617903,8.307164\\Version=
 ES64L-G16RevA.03\HF=-76.4215167\RMSD=3.076e-09\Dipole=-0.0762456,-0.46
 38609,-4.4151087\Quadrupole=58.3937271,36.4114637,-94.8051908,-9.73741
 25,-92.0521678,-85.1875909\PG=C01 [X(H9O7P1)]\\@


 WHAT THE SLIME CONTAINS, THE GLOWING REVEALS
 BY THE FLAME'S BRIGHT HUE WHEN YOU IGNITE IT.
   --  LEONARD THURNEYSSER, 1531-1596
 DESCRIBING HIS FLAME PHOTOLYSIS ANALYTIC METHOD
 Job cpu time:       0 days  0 hours 28 minutes 30.5 seconds.
 Elapsed time:       0 days  0 hours  1 minutes 14.2 seconds.
 File lengths (MBytes):  RWF=     75 Int=      0 D2E=      0 Chk=     28 Scr=      1
 Normal termination of Gaussian 16 at Mon Feb 20 00:57:21 2023.
