 Entering Gaussian System, Link 0=g16
 Initial command:
 /data0/home/software/g16/l1.exe "/data0/home/software/g16/scratch/Gau-3819005.inp" -scrdir="/data0/home/software/g16/scratch/"
 Default is to use a total of  22 processors:
                               22 via shared-memory
                                1 via Linda
 Entering Link 1 = /data0/home/software/g16/l1.exe PID=   3819006.
  
 Copyright (c) 1988,1990,1992,1993,1995,1998,2003,2009,2016,
            Gaussian, Inc.  All Rights Reserved.
  
 This is part of the Gaussian(R) 16 program.  It is based on
 the Gaussian(R) 09 system (copyright 2009, Gaussian, Inc.),
 the Gaussian(R) 03 system (copyright 2003, Gaussian, Inc.),
 the Gaussian(R) 98 system (copyright 1998, Gaussian, Inc.),
 the Gaussian(R) 94 system (copyright 1995, Gaussian, Inc.),
 the Gaussian 92(TM) system (copyright 1992, Gaussian, Inc.),
 the Gaussian 90(TM) system (copyright 1990, Gaussian, Inc.),
 the Gaussian 88(TM) system (copyright 1988, Gaussian, Inc.),
 the Gaussian 86(TM) system (copyright 1986, Carnegie Mellon
 University), and the Gaussian 82(TM) system (copyright 1983,
 Carnegie Mellon University). Gaussian is a federally registered
 trademark of Gaussian, Inc.
  
 This software contains proprietary and confidential information,
 including trade secrets, belonging to Gaussian, Inc.
  
 This software is provided under written license and may be
 used, copied, transmitted, or stored only in accord with that
 written license.
  
 The following legend is applicable only to US Government
 contracts under FAR:
  
                    RESTRICTED RIGHTS LEGEND
  
 Use, reproduction and disclosure by the US Government is
 subject to restrictions as set forth in subparagraphs (a)
 and (c) of the Commercial Computer Software - Restricted
 Rights clause in FAR 52.227-19.
  
 Gaussian, Inc.
 340 Quinnipiac St., Bldg. 40, Wallingford CT 06492
  
  
 ---------------------------------------------------------------
 Warning -- This program may not be used in any manner that
 competes with the business of Gaussian, Inc. or will provide
 assistance to any competitor of Gaussian, Inc.  The licensee
 of this program is prohibited from giving any competitor of
 Gaussian, Inc. access to this program.  By using this program,
 the user acknowledges that Gaussian, Inc. is engaged in the
 business of creating and licensing software in the field of
 computational chemistry and represents and warrants to the
 licensee that it is not a competitor of Gaussian, Inc. and that
 it will not use this program in any manner prohibited above.
 ---------------------------------------------------------------
  

 Cite this work as:
 Gaussian 16, Revision A.03,
 M. J. Frisch, G. W. Trucks, H. B. Schlegel, G. E. Scuseria, 
 M. A. Robb, J. R. Cheeseman, G. Scalmani, V. Barone, 
 G. A. Petersson, H. Nakatsuji, X. Li, M. Caricato, A. V. Marenich, 
 J. Bloino, B. G. Janesko, R. Gomperts, B. Mennucci, H. P. Hratchian, 
 J. V. Ortiz, A. F. Izmaylov, J. L. Sonnenberg, D. Williams-Young, 
 F. Ding, F. Lipparini, F. Egidi, J. Goings, B. Peng, A. Petrone, 
 T. Henderson, D. Ranasinghe, V. G. Zakrzewski, J. Gao, N. Rega, 
 G. Zheng, W. Liang, M. Hada, M. Ehara, K. Toyota, R. Fukuda, 
 J. Hasegawa, M. Ishida, T. Nakajima, Y. Honda, O. Kitao, H. Nakai, 
 T. Vreven, K. Throssell, J. A. Montgomery, Jr., J. E. Peralta, 
 F. Ogliaro, M. J. Bearpark, J. J. Heyd, E. N. Brothers, K. N. Kudin, 
 V. N. Staroverov, T. A. Keith, R. Kobayashi, J. Normand, 
 K. Raghavachari, A. P. Rendell, J. C. Burant, S. S. Iyengar, 
 J. Tomasi, M. Cossi, J. M. Millam, M. Klene, C. Adamo, R. Cammi, 
 J. W. Ochterski, R. L. Martin, K. Morokuma, O. Farkas, 
 J. B. Foresman, and D. J. Fox, Gaussian, Inc., Wallingford CT, 2016.
 
 ******************************************
 Gaussian 16:  ES64L-G16RevA.03 25-Dec-2016
                17-Dec-2022 
 ******************************************
 %nproc=24
 Will use up to   24 processors via shared memory.
 %mem=100GB
 ---------------------------------------------------
 #p M062X/6-311+G(2d,p) nosymm em=GD3 counterpoise=4
 ---------------------------------------------------
 1/38=1,62=4,172=1/1;
 2/12=2,15=1,17=6,18=5,40=1/2;
 1/38=1,53=2,62=4,63=1/22;
 3/5=4,6=6,7=112,11=2,25=1,30=1,74=-55,124=31/1,2,3;
 4//1;
 5/5=2,38=5/2;
 6/7=2,8=2,9=2,10=2,28=1/1;
 1/53=2,62=4,63=1/22;
 3/5=7,6=11,7=112,11=2,25=1,30=1,74=-55,82=7,124=31/1,2,3;
 4//1;
 5/5=2,38=5/2;
 6/7=2,8=2,9=2,10=2,28=1/1;
 1/53=2,62=4,63=1/22(-4);
 99/5=1,9=1/99;
 Leave Link    1 at Sat Dec 17 23:01:58 2022, MaxMem= 13421772800 cpu:               0.7 elap:               0.0
 (Enter /data0/home/software/g16/l101.exe)
 -------------------
 Title Card Required
 -------------------
 Symbolic Z-matrix:
 Charge =  0 Multiplicity = 1 in supermolecule
 Charge =  0 Multiplicity = 1 in fragment      1.
 Charge =  0 Multiplicity = 1 in fragment      2.
 Charge =  0 Multiplicity = 1 in fragment      3.
 Charge =  0 Multiplicity = 1 in fragment      4.
 P                     9.41381   8.81613   8.09069    
 O                     8.60825   10.04555   8.06453    
 O                     9.10924   7.77639   9.24323    
 H                     9.07446   8.30175   10.16682    
 O                     9.16513   7.9479    6.78004    
 H                     9.73589   7.08973   6.86635    
 O                     10.99585   8.96347   8.12533    
 H                     11.27348   9.94604   8.31308    
 O                     11.80004   11.64312   8.70156    
 H                     11.77757   11.74232   9.65857    
 H                     11.05076   12.16127   8.37783    
 O                     9.37141   12.77951   7.69817    
 H                     9.41235   12.89963   6.74985    
 H                     9.05899   11.85917   7.81793    
 O                     8.03245   14.18575   9.75806    
 H                     8.53969   13.7788   9.03609    
 H                     7.47397   14.83997   9.34887    
 
 ITRead=  0  0  0  0  0  0  0  0  0  0  0  0  0  0  0  0  0
 MicOpt= -1 -1 -1 -1 -1 -1 -1 -1 -1 -1 -1 -1 -1 -1 -1 -1 -1
 NAtoms=     17 NQM=       17 NQMF=       0 NMMI=      0 NMMIF=      0
                NMic=       0 NMicF=      0.
                    Isotopes and Nuclear Properties:
 (Nuclear quadrupole moments (NQMom) in fm**2, nuclear magnetic moments (NMagM)
  in nuclear magnetons)

  Atom         1           2           3           4           5           6           7           8           9          10
 IAtWgt=          31          16          16           1          16           1          16           1          16           1
 AtmWgt=  30.9737634  15.9949146  15.9949146   1.0078250  15.9949146   1.0078250  15.9949146   1.0078250  15.9949146   1.0078250
 NucSpn=           1           0           0           1           0           1           0           1           0           1
 AtZEff=  -0.0000000  -0.0000000  -0.0000000  -0.0000000  -0.0000000  -0.0000000  -0.0000000  -0.0000000  -0.0000000  -0.0000000
 NQMom=    0.0000000   0.0000000   0.0000000   0.0000000   0.0000000   0.0000000   0.0000000   0.0000000   0.0000000   0.0000000
 NMagM=    1.1316000   0.0000000   0.0000000   2.7928460   0.0000000   2.7928460   0.0000000   2.7928460   0.0000000   2.7928460
 AtZNuc=  15.0000000   8.0000000   8.0000000   1.0000000   8.0000000   1.0000000   8.0000000   1.0000000   8.0000000   1.0000000

  Atom        11          12          13          14          15          16          17
 IAtWgt=           1          16           1           1          16           1           1
 AtmWgt=   1.0078250  15.9949146   1.0078250   1.0078250  15.9949146   1.0078250   1.0078250
 NucSpn=           1           0           1           1           0           1           1
 AtZEff=  -0.0000000  -0.0000000  -0.0000000  -0.0000000  -0.0000000  -0.0000000  -0.0000000
 NQMom=    0.0000000   0.0000000   0.0000000   0.0000000   0.0000000   0.0000000   0.0000000
 NMagM=    2.7928460   0.0000000   2.7928460   2.7928460   0.0000000   2.7928460   2.7928460
 AtZNuc=   1.0000000   8.0000000   1.0000000   1.0000000   8.0000000   1.0000000   1.0000000
 Leave Link  101 at Sat Dec 17 23:01:58 2022, MaxMem= 13421772800 cpu:               2.1 elap:               0.1
 (Enter /data0/home/software/g16/l202.exe)
                          Input orientation:                          
 ---------------------------------------------------------------------
 Center     Atomic      Atomic             Coordinates (Angstroms)
 Number     Number       Type             X           Y           Z
 ---------------------------------------------------------------------
      1         15           0        9.413813    8.816127    8.090691
      2          8           0        8.608246   10.045547    8.064532
      3          8           0        9.109237    7.776393    9.243230
      4          1           0        9.074463    8.301755   10.166820
      5          8           0        9.165128    7.947900    6.780038
      6          1           0        9.735893    7.089734    6.866354
      7          8           0       10.995854    8.963474    8.125328
      8          1           0       11.273483    9.946037    8.313078
      9          8           0       11.800036   11.643124    8.701560
     10          1           0       11.777571   11.742316    9.658569
     11          1           0       11.050758   12.161268    8.377826
     12          8           0        9.371413   12.779511    7.698174
     13          1           0        9.412348   12.899635    6.749854
     14          1           0        9.058995   11.859174    7.817931
     15          8           0        8.032453   14.185749    9.758060
     16          1           0        8.539685   13.778797    9.036095
     17          1           0        7.473968   14.839972    9.348873
 ---------------------------------------------------------------------
                    Distance matrix (angstroms):
                    1          2          3          4          5
     1  P    0.000000
     2  O    1.470067   0.000000
     3  O    1.581822   2.605644   0.000000
     4  H    2.165652   2.770881   1.063124   0.000000
     5  O    1.591689   2.521937   2.469788   3.406424   0.000000
     6  H    2.140834   3.382905   2.552203   3.577647   1.034249
     7  O    1.589265   2.622070   2.493630   2.880504   2.488524
     8  H    2.187356   2.678650   3.202577   3.312961   3.284498
     9  O    3.749551   3.625683   4.741879   4.554172   4.928455
    10  H    4.075313   3.932506   4.798026   4.404835   5.432163
    11  H    3.735238   3.246582   4.872941   4.690638   4.884772
    12  O    3.982999   2.862027   5.242816   5.121786   4.922397
    13  H    4.298009   3.243575   5.705822   5.738495   4.957994
    14  H    3.075781   1.885001   4.324708   4.262951   4.048030
    15  O    5.789742   4.510083   6.519537   5.989512   7.004451
    16  H    5.126986   3.858211   6.032922   5.618053   6.283338
    17  H    6.452343   5.091427   7.251166   6.780775   7.547158
                    6          7          8          9         10
     6  H    0.000000
     7  O    2.585231   0.000000
     8  H    3.551853   1.038151   0.000000
     9  O    5.325601   2.856445   1.818868   0.000000
    10  H    5.797537   3.268619   2.300232   0.962398   0.000000
    11  H    5.452878   3.208217   2.227341   0.966796   1.531039
    12  O    5.761799   4.169341   3.467644   2.862930   3.272387
    13  H    5.820069   4.460133   3.825080   3.330020   3.923556
    14  H    4.910321   3.497284   2.968033   2.888041   3.285157
    15  O    7.849656   6.222517   5.528780   4.666456   4.472826
    16  H    7.133180   5.481751   4.763030   3.911892   3.875388
    17  H    8.446620   6.959452   6.281702   5.417907   5.311533
                   11         12         13         14         15
    11  H    0.000000
    12  O    1.914249   0.000000
    13  H    2.424843   0.956774   0.000000
    14  H    2.090900   0.979269   1.532386   0.000000
    15  O    3.887639   2.830804   3.550705   3.198568   0.000000
    16  H    3.058628   1.865577   2.600262   2.332072   0.971662
    17  H    4.572944   3.251247   3.778508   3.706919   0.952548
                   16         17
    16  H    0.000000
    17  H    1.536123   0.000000
 Symmetry turned off by external request.
 Stoichiometry    H9O7P
 Framework group  C1[X(H9O7P)]
 Deg. of freedom    45
 Full point group                 C1      NOp   1
 Rotational constants (GHZ):           1.8677023           0.6089798           0.5451996
 Leave Link  202 at Sat Dec 17 23:01:58 2022, MaxMem= 13421772800 cpu:               0.1 elap:               0.0
 (Enter /data0/home/software/g16/l122.exe)
 Counterpoise: doing full-system calculation.
 Leave Link  122 at Sat Dec 17 23:01:58 2022, MaxMem= 13421772800 cpu:               0.0 elap:               0.0
 (Enter /data0/home/software/g16/l301.exe)
 Standard basis: 6-311+G(2d,p) (5D, 7F)
 Ernie: Thresh=  0.10000D-02 Tol=  0.10000D-05 Strict=F.
   278 basis functions,   422 primitive gaussians,   294 cartesian basis functions
    40 alpha electrons       40 beta electrons
       nuclear repulsion energy       537.8156762415 Hartrees.
 IExCor= 4336 DFT=T Ex+Corr=M062X ExCW=0 ScaHFX=  0.540000
 ScaDFX=  1.000000  1.000000  1.000000  1.000000 ScalE2=  1.000000  1.000000
 IRadAn=      5 IRanWt=     -1 IRanGd=            0 ICorTp=0 IEmpDi=131
 NAtoms=   17 NActive=   17 NUniq=   17 SFac= 1.00D+00 NAtFMM=   60 NAOKFM=F Big=F
 Integral buffers will be    131072 words long.
 Raffenetti 2 integral format.
 Two-electron integral symmetry is turned off.
 R6Disp:  Grimme-D3 Dispersion energy=       -0.0005716569 Hartrees.
 Nuclear repulsion after empirical dispersion term =      537.8151045846 Hartrees.
 Leave Link  301 at Sat Dec 17 23:01:58 2022, MaxMem= 13421772800 cpu:               1.1 elap:               0.1
 (Enter /data0/home/software/g16/l302.exe)
 NPDir=0 NMtPBC=     1 NCelOv=     1 NCel=       1 NClECP=     1 NCelD=      1
         NCelK=      1 NCelE2=     1 NClLst=     1 CellRange=     0.0.
 One-electron integrals computed using PRISM.
 NBasis=   278 RedAO= T EigKep=  2.62D-04  NBF=   278
 NBsUse=   278 1.00D-06 EigRej= -1.00D+00 NBFU=   278
 Precomputing XC quadrature grid using
 IXCGrd= 4 IRadAn=           5 IRanWt=          -1 IRanGd=           0 AccXCQ= 0.00D+00.
 Generated NRdTot=       0 NPtTot=           0 NUsed=           0 NTot=          32
 NSgBfM=   293   293   293   293   293 MxSgAt=    17 MxSgA2=    17.
 Leave Link  302 at Sat Dec 17 23:01:58 2022, MaxMem= 13421772800 cpu:               4.4 elap:               0.2
 (Enter /data0/home/software/g16/l303.exe)
 DipDrv:  MaxL=1.
 Leave Link  303 at Sat Dec 17 23:01:58 2022, MaxMem= 13421772800 cpu:               0.7 elap:               0.0
 (Enter /data0/home/software/g16/l401.exe)
 ExpMin= 3.48D-02 ExpMax= 7.75D+04 ExpMxC= 2.65D+03 IAcc=3 IRadAn=         5 AccDes= 0.00D+00
 Harris functional with IExCor= 1009 and IRadAn=       5 diagonalized for initial guess.
 HarFok:  IExCor= 1009 AccDes= 0.00D+00 IRadAn=         5 IDoV= 1 UseB2=F ITyADJ=14
 ICtDFT=  3500011 ScaDFX=  1.000000  1.000000  1.000000  1.000000
 FoFCou: FMM=F IPFlag=           0 FMFlag=      100000 FMFlg1=           0
         NFxFlg=           0 DoJE=T BraDBF=F KetDBF=T FulRan=T
         wScrn=  0.000000 ICntrl=       500 IOpCl=  0 I1Cent=   200000004 NGrid=           0
         NMat0=    1 NMatS0=      1 NMatT0=    0 NMatD0=    1 NMtDS0=    0 NMtDT0=    0
 Symmetry not used in FoFCou.
 Harris En= -873.202658711567    
 JPrj=0 DoOrth=F DoCkMO=F.
 Leave Link  401 at Sat Dec 17 23:01:59 2022, MaxMem= 13421772800 cpu:              12.5 elap:               0.5
 (Enter /data0/home/software/g16/l502.exe)
 Two-electron integral symmetry not used.
 Closed shell SCF:
 Using DIIS extrapolation, IDIIS=  1040.
 NGot= 13421772800 LenX= 13421590703 LenY= 13421503826
 Requested convergence on RMS density matrix=1.00D-08 within 128 cycles.
 Requested convergence on MAX density matrix=1.00D-06.
 Requested convergence on             energy=1.00D-06.
 No special actions if energy rises.
 Fock matrices will be formed incrementally for  20 cycles.

 Cycle   1  Pass 1  IDiag  1:
 FoFJK:  IHMeth= 1 ICntrl=       0 DoSepK=F KAlg= 0 I1Cent=           0 FoldK=F
 IRaf= 870000000 NMat=       1 IRICut=       1 DoRegI=T DoRafI=F ISym2E= 0 IDoP0=0 IntGTp=1.
 FoFCou: FMM=F IPFlag=           0 FMFlag=      100000 FMFlg1=           0
         NFxFlg=           0 DoJE=F BraDBF=F KetDBF=F FulRan=T
         wScrn=  0.000000 ICntrl=         0 IOpCl=  0 I1Cent=           0 NGrid=           0
         NMat0=    1 NMatS0=      1 NMatT0=    0 NMatD0=    1 NMtDS0=    0 NMtDT0=    0
 Symmetry not used in FoFCou.
 E= -873.009093242110    
 DIIS: error= 4.04D-02 at cycle   1 NSaved=   1.
 NSaved= 1 IEnMin= 1 EnMin= -873.009093242110     IErMin= 1 ErrMin= 4.04D-02
 ErrMax= 4.04D-02  0.00D+00 EMaxC= 1.00D-01 BMatC= 8.09D-01 BMatP= 8.09D-01
 IDIUse=3 WtCom= 5.96D-01 WtEn= 4.04D-01
 Coeff-Com:  0.100D+01
 Coeff-En:   0.100D+01
 Coeff:      0.100D+01
 Gap=     0.316 Goal=   None    Shift=    0.000
 GapD=    0.316 DampG=1.000 DampE=0.500 DampFc=0.5000 IDamp=-1.
 Damping current iteration by 5.00D-01
 RMSDP=4.37D-03 MaxDP=1.42D-01              OVMax= 2.11D-01

 Cycle   2  Pass 1  IDiag  1:
 RMSU=  2.18D-03    CP:  9.93D-01
 E= -873.209815997247     Delta-E=       -0.200722755136 Rises=F Damp=T
 DIIS: error= 9.07D-03 at cycle   2 NSaved=   2.
 NSaved= 2 IEnMin= 2 EnMin= -873.209815997247     IErMin= 2 ErrMin= 9.07D-03
 ErrMax= 9.07D-03  0.00D+00 EMaxC= 1.00D-01 BMatC= 3.41D-02 BMatP= 8.09D-01
 IDIUse=3 WtCom= 9.09D-01 WtEn= 9.07D-02
 Coeff-Com:  0.444D-01 0.956D+00
 Coeff-En:   0.146D+00 0.854D+00
 Coeff:      0.536D-01 0.946D+00
 Gap=     0.353 Goal=   None    Shift=    0.000
 RMSDP=8.80D-04 MaxDP=3.71D-02 DE=-2.01D-01 OVMax= 1.23D-01

 Cycle   3  Pass 1  IDiag  1:
 RMSU=  7.83D-04    CP:  9.86D-01  8.20D-01
 E= -873.463128368474     Delta-E=       -0.253312371228 Rises=F Damp=F
 DIIS: error= 2.89D-03 at cycle   3 NSaved=   3.
 NSaved= 3 IEnMin= 3 EnMin= -873.463128368474     IErMin= 3 ErrMin= 2.89D-03
 ErrMax= 2.89D-03  0.00D+00 EMaxC= 1.00D-01 BMatC= 6.56D-03 BMatP= 3.41D-02
 IDIUse=3 WtCom= 9.71D-01 WtEn= 2.89D-02
 Coeff-Com: -0.261D-01 0.226D+00 0.800D+00
 Coeff-En:   0.000D+00 0.000D+00 0.100D+01
 Coeff:     -0.253D-01 0.219D+00 0.806D+00
 Gap=     0.347 Goal=   None    Shift=    0.000
 RMSDP=3.41D-04 MaxDP=1.41D-02 DE=-2.53D-01 OVMax= 3.08D-02

 Cycle   4  Pass 1  IDiag  1:
 RMSU=  3.10D-04    CP:  9.86D-01  8.71D-01  8.89D-01
 E= -873.464823381412     Delta-E=       -0.001695012938 Rises=F Damp=F
 DIIS: error= 2.71D-03 at cycle   4 NSaved=   4.
 NSaved= 4 IEnMin= 4 EnMin= -873.464823381412     IErMin= 4 ErrMin= 2.71D-03
 ErrMax= 2.71D-03  0.00D+00 EMaxC= 1.00D-01 BMatC= 4.31D-03 BMatP= 6.56D-03
 IDIUse=3 WtCom= 9.73D-01 WtEn= 2.71D-02
 Coeff-Com: -0.197D-01 0.423D-01 0.480D+00 0.497D+00
 Coeff-En:   0.000D+00 0.000D+00 0.394D+00 0.606D+00
 Coeff:     -0.192D-01 0.412D-01 0.478D+00 0.500D+00
 Gap=     0.348 Goal=   None    Shift=    0.000
 RMSDP=1.68D-04 MaxDP=7.21D-03 DE=-1.70D-03 OVMax= 1.30D-02

 Cycle   5  Pass 1  IDiag  1:
 RMSU=  4.65D-05    CP:  9.86D-01  8.60D-01  9.79D-01  5.39D-01
 E= -873.467706532888     Delta-E=       -0.002883151475 Rises=F Damp=F
 DIIS: error= 3.32D-04 at cycle   5 NSaved=   5.
 NSaved= 5 IEnMin= 5 EnMin= -873.467706532888     IErMin= 5 ErrMin= 3.32D-04
 ErrMax= 3.32D-04  0.00D+00 EMaxC= 1.00D-01 BMatC= 2.30D-05 BMatP= 4.31D-03
 IDIUse=3 WtCom= 9.97D-01 WtEn= 3.32D-03
 Coeff-Com: -0.338D-02 0.343D-02 0.101D+00 0.133D+00 0.766D+00
 Coeff-En:   0.000D+00 0.000D+00 0.000D+00 0.000D+00 0.100D+01
 Coeff:     -0.337D-02 0.342D-02 0.101D+00 0.133D+00 0.766D+00
 Gap=     0.350 Goal=   None    Shift=    0.000
 RMSDP=1.65D-05 MaxDP=8.37D-04 DE=-2.88D-03 OVMax= 9.50D-04

 Cycle   6  Pass 1  IDiag  1:
 RMSU=  1.41D-05    CP:  9.85D-01  8.59D-01  9.82D-01  5.61D-01  9.37D-01
 E= -873.467721156806     Delta-E=       -0.000014623918 Rises=F Damp=F
 DIIS: error= 9.86D-05 at cycle   6 NSaved=   6.
 NSaved= 6 IEnMin= 6 EnMin= -873.467721156806     IErMin= 6 ErrMin= 9.86D-05
 ErrMax= 9.86D-05  0.00D+00 EMaxC= 1.00D-01 BMatC= 3.02D-06 BMatP= 2.30D-05
 IDIUse=1 WtCom= 1.00D+00 WtEn= 0.00D+00
 Coeff-Com: -0.220D-03-0.928D-03 0.133D-01 0.245D-01 0.298D+00 0.665D+00
 Coeff:     -0.220D-03-0.928D-03 0.133D-01 0.245D-01 0.298D+00 0.665D+00
 Gap=     0.350 Goal=   None    Shift=    0.000
 RMSDP=5.99D-06 MaxDP=2.18D-04 DE=-1.46D-05 OVMax= 3.01D-04

 Cycle   7  Pass 1  IDiag  1:
 RMSU=  3.55D-06    CP:  9.85D-01  8.58D-01  9.84D-01  5.62D-01  1.02D+00
                    CP:  8.89D-01
 E= -873.467723179417     Delta-E=       -0.000002022611 Rises=F Damp=F
 DIIS: error= 4.38D-05 at cycle   7 NSaved=   7.
 NSaved= 7 IEnMin= 7 EnMin= -873.467723179417     IErMin= 7 ErrMin= 4.38D-05
 ErrMax= 4.38D-05  0.00D+00 EMaxC= 1.00D-01 BMatC= 2.85D-07 BMatP= 3.02D-06
 IDIUse=1 WtCom= 1.00D+00 WtEn= 0.00D+00
 Coeff-Com:  0.385D-03-0.749D-03-0.102D-01-0.113D-01-0.101D-01 0.212D+00
 Coeff-Com:  0.820D+00
 Coeff:      0.385D-03-0.749D-03-0.102D-01-0.113D-01-0.101D-01 0.212D+00
 Coeff:      0.820D+00
 Gap=     0.350 Goal=   None    Shift=    0.000
 RMSDP=2.42D-06 MaxDP=9.46D-05 DE=-2.02D-06 OVMax= 1.54D-04

 Cycle   8  Pass 1  IDiag  1:
 RMSU=  1.62D-06    CP:  9.85D-01  8.57D-01  9.84D-01  5.63D-01  1.05D+00
                    CP:  9.42D-01  9.13D-01
 E= -873.467723386008     Delta-E=       -0.000000206591 Rises=F Damp=F
 DIIS: error= 9.76D-06 at cycle   8 NSaved=   8.
 NSaved= 8 IEnMin= 8 EnMin= -873.467723386008     IErMin= 8 ErrMin= 9.76D-06
 ErrMax= 9.76D-06  0.00D+00 EMaxC= 1.00D-01 BMatC= 3.92D-08 BMatP= 2.85D-07
 IDIUse=1 WtCom= 1.00D+00 WtEn= 0.00D+00
 Coeff-Com:  0.162D-03-0.231D-03-0.496D-02-0.587D-02-0.190D-01 0.425D-01
 Coeff-Com:  0.345D+00 0.642D+00
 Coeff:      0.162D-03-0.231D-03-0.496D-02-0.587D-02-0.190D-01 0.425D-01
 Coeff:      0.345D+00 0.642D+00
 Gap=     0.350 Goal=   None    Shift=    0.000
 RMSDP=5.63D-07 MaxDP=3.72D-05 DE=-2.07D-07 OVMax= 2.67D-05

 Cycle   9  Pass 1  IDiag  1:
 RMSU=  3.28D-07    CP:  9.85D-01  8.57D-01  9.84D-01  5.63D-01  1.05D+00
                    CP:  9.60D-01  1.01D+00  9.09D-01
 E= -873.467723416225     Delta-E=       -0.000000030218 Rises=F Damp=F
 DIIS: error= 1.51D-06 at cycle   9 NSaved=   9.
 NSaved= 9 IEnMin= 9 EnMin= -873.467723416225     IErMin= 9 ErrMin= 1.51D-06
 ErrMax= 1.51D-06  0.00D+00 EMaxC= 1.00D-01 BMatC= 8.66D-10 BMatP= 3.92D-08
 IDIUse=1 WtCom= 1.00D+00 WtEn= 0.00D+00
 Coeff-Com: -0.150D-04 0.302D-04 0.109D-03 0.103D-03-0.168D-02-0.110D-01
 Coeff-Com: -0.167D-01 0.654D-01 0.964D+00
 Coeff:     -0.150D-04 0.302D-04 0.109D-03 0.103D-03-0.168D-02-0.110D-01
 Coeff:     -0.167D-01 0.654D-01 0.964D+00
 Gap=     0.350 Goal=   None    Shift=    0.000
 RMSDP=2.05D-07 MaxDP=8.03D-06 DE=-3.02D-08 OVMax= 1.04D-05

 Cycle  10  Pass 1  IDiag  1:
 RMSU=  1.05D-07    CP:  9.85D-01  8.57D-01  9.84D-01  5.63D-01  1.05D+00
                    CP:  9.60D-01  1.03D+00  9.90D-01  1.13D+00
 E= -873.467723417120     Delta-E=       -0.000000000895 Rises=F Damp=F
 DIIS: error= 8.75D-07 at cycle  10 NSaved=  10.
 NSaved=10 IEnMin=10 EnMin= -873.467723417120     IErMin=10 ErrMin= 8.75D-07
 ErrMax= 8.75D-07  0.00D+00 EMaxC= 1.00D-01 BMatC= 3.87D-10 BMatP= 8.66D-10
 IDIUse=1 WtCom= 1.00D+00 WtEn= 0.00D+00
 Coeff-Com: -0.195D-04 0.324D-04 0.416D-03 0.471D-03 0.392D-03-0.916D-02
 Coeff-Com: -0.348D-01-0.149D-01 0.500D+00 0.557D+00
 Coeff:     -0.195D-04 0.324D-04 0.416D-03 0.471D-03 0.392D-03-0.916D-02
 Coeff:     -0.348D-01-0.149D-01 0.500D+00 0.557D+00
 Gap=     0.350 Goal=   None    Shift=    0.000
 RMSDP=5.95D-08 MaxDP=1.84D-06 DE=-8.95D-10 OVMax= 2.81D-06

 Cycle  11  Pass 1  IDiag  1:
 RMSU=  4.26D-08    CP:  9.85D-01  8.57D-01  9.84D-01  5.63D-01  1.05D+00
                    CP:  9.60D-01  1.03D+00  9.99D-01  1.21D+00  7.78D-01
 E= -873.467723417375     Delta-E=       -0.000000000254 Rises=F Damp=F
 DIIS: error= 2.06D-07 at cycle  11 NSaved=  11.
 NSaved=11 IEnMin=11 EnMin= -873.467723417375     IErMin=11 ErrMin= 2.06D-07
 ErrMax= 2.06D-07  0.00D+00 EMaxC= 1.00D-01 BMatC= 1.10D-11 BMatP= 3.87D-10
 IDIUse=1 WtCom= 1.00D+00 WtEn= 0.00D+00
 Coeff-Com: -0.592D-06 0.106D-05 0.537D-04 0.562D-04 0.214D-03-0.426D-03
 Coeff-Com: -0.480D-02-0.111D-01-0.160D-01 0.116D+00 0.916D+00
 Coeff:     -0.592D-06 0.106D-05 0.537D-04 0.562D-04 0.214D-03-0.426D-03
 Coeff:     -0.480D-02-0.111D-01-0.160D-01 0.116D+00 0.916D+00
 Gap=     0.350 Goal=   None    Shift=    0.000
 RMSDP=1.70D-08 MaxDP=5.02D-07 DE=-2.54D-10 OVMax= 1.13D-06

 Cycle  12  Pass 1  IDiag  1:
 RMSU=  1.02D-08    CP:  9.85D-01  8.57D-01  9.84D-01  5.63D-01  1.05D+00
                    CP:  9.60D-01  1.03D+00  1.00D+00  1.23D+00  8.57D-01
                    CP:  1.00D+00
 E= -873.467723417394     Delta-E=       -0.000000000019 Rises=F Damp=F
 DIIS: error= 3.67D-08 at cycle  12 NSaved=  12.
 NSaved=12 IEnMin=12 EnMin= -873.467723417394     IErMin=12 ErrMin= 3.67D-08
 ErrMax= 3.67D-08  0.00D+00 EMaxC= 1.00D-01 BMatC= 7.73D-13 BMatP= 1.10D-11
 IDIUse=1 WtCom= 1.00D+00 WtEn= 0.00D+00
 Coeff-Com:  0.896D-06-0.148D-05-0.334D-05-0.534D-05 0.529D-04 0.365D-03
 Coeff-Com:  0.449D-03-0.222D-02-0.309D-01 0.336D-02 0.269D+00 0.760D+00
 Coeff:      0.896D-06-0.148D-05-0.334D-05-0.534D-05 0.529D-04 0.365D-03
 Coeff:      0.449D-03-0.222D-02-0.309D-01 0.336D-02 0.269D+00 0.760D+00
 Gap=     0.350 Goal=   None    Shift=    0.000
 RMSDP=4.37D-09 MaxDP=1.55D-07 DE=-1.93D-11 OVMax= 1.87D-07

 SCF Done:  E(RM062X) =  -873.467723417     A.U. after   12 cycles
            NFock= 12  Conv=0.44D-08     -V/T= 2.0026
 KE= 8.711862228043D+02 PE=-3.145495947902D+03 EE= 8.630268970960D+02
 Leave Link  502 at Sat Dec 17 23:02:14 2022, MaxMem= 13421772800 cpu:             350.9 elap:              14.7
 (Enter /data0/home/software/g16/l601.exe)
 Copying SCF densities to generalized density rwf, IOpCl= 0 IROHF=0.

 **********************************************************************

            Population analysis using the SCF density.

 **********************************************************************

 Alpha  occ. eigenvalues --  -78.17719 -19.68977 -19.67826 -19.66362 -19.65114
 Alpha  occ. eigenvalues --  -19.65100 -19.61163 -19.59064  -6.98445  -5.10344
 Alpha  occ. eigenvalues --   -5.10305  -5.10207  -1.24299  -1.16963  -1.16722
 Alpha  occ. eigenvalues --   -1.15974  -1.15340  -1.11235  -1.10269  -0.72950
 Alpha  occ. eigenvalues --   -0.64994  -0.64308  -0.64028  -0.63134  -0.59027
 Alpha  occ. eigenvalues --   -0.58068  -0.53836  -0.52396  -0.51477  -0.50118
 Alpha  occ. eigenvalues --   -0.49368  -0.47513  -0.46843  -0.44849  -0.43067
 Alpha  occ. eigenvalues --   -0.42445  -0.42158  -0.40852  -0.39976  -0.36998
 Alpha virt. eigenvalues --   -0.02014   0.00962   0.01819   0.03711   0.07118
 Alpha virt. eigenvalues --    0.08022   0.09768   0.10397   0.11041   0.12416
 Alpha virt. eigenvalues --    0.13762   0.13997   0.14808   0.15919   0.16213
 Alpha virt. eigenvalues --    0.16646   0.17639   0.17798   0.18390   0.19266
 Alpha virt. eigenvalues --    0.19839   0.20600   0.21107   0.21637   0.22237
 Alpha virt. eigenvalues --    0.23897   0.24328   0.25081   0.25814   0.26601
 Alpha virt. eigenvalues --    0.26641   0.27864   0.28482   0.29060   0.29148
 Alpha virt. eigenvalues --    0.30150   0.30827   0.32063   0.32437   0.35213
 Alpha virt. eigenvalues --    0.36577   0.37293   0.38003   0.39258   0.42926
 Alpha virt. eigenvalues --    0.44224   0.45513   0.47214   0.48732   0.49509
 Alpha virt. eigenvalues --    0.52714   0.55012   0.56072   0.56926   0.59607
 Alpha virt. eigenvalues --    0.61597   0.64558   0.66163   0.66926   0.75555
 Alpha virt. eigenvalues --    0.76435   0.78005   0.86716   0.96845   0.98280
 Alpha virt. eigenvalues --    0.99553   1.00837   1.02022   1.04098   1.04610
 Alpha virt. eigenvalues --    1.06549   1.07861   1.09894   1.10567   1.11011
 Alpha virt. eigenvalues --    1.11808   1.12491   1.13005   1.13912   1.16358
 Alpha virt. eigenvalues --    1.17316   1.17939   1.18557   1.19982   1.20339
 Alpha virt. eigenvalues --    1.21312   1.23758   1.24687   1.25755   1.26609
 Alpha virt. eigenvalues --    1.27864   1.29129   1.31660   1.32671   1.33551
 Alpha virt. eigenvalues --    1.36321   1.36960   1.37907   1.40135   1.43665
 Alpha virt. eigenvalues --    1.44868   1.46828   1.48785   1.49949   1.51989
 Alpha virt. eigenvalues --    1.55517   1.57430   1.61443   1.62716   1.64742
 Alpha virt. eigenvalues --    1.65690   1.67813   1.68801   1.70944   1.72232
 Alpha virt. eigenvalues --    1.75773   1.76190   1.77002   1.80190   1.80376
 Alpha virt. eigenvalues --    1.81973   1.85401   1.86920   1.90336   1.93592
 Alpha virt. eigenvalues --    1.96530   1.98379   2.00284   2.01051   2.05344
 Alpha virt. eigenvalues --    2.06585   2.06993   2.08952   2.11368   2.12131
 Alpha virt. eigenvalues --    2.15083   2.16005   2.19113   2.20110   2.24102
 Alpha virt. eigenvalues --    2.25783   2.28651   2.32726   2.37937   2.39016
 Alpha virt. eigenvalues --    2.43068   2.44468   2.45498   2.51043   2.55195
 Alpha virt. eigenvalues --    2.55736   2.56973   2.58792   2.61372   2.61994
 Alpha virt. eigenvalues --    2.62973   2.65652   2.68843   2.72692   2.78124
 Alpha virt. eigenvalues --    2.83163   2.86135   2.89769   2.94378   2.95500
 Alpha virt. eigenvalues --    2.97175   2.99546   3.10178   3.12868   3.16239
 Alpha virt. eigenvalues --    5.02643   5.06770   5.07537   5.09515   5.09876
 Alpha virt. eigenvalues --    5.11475   5.12686   5.15249   5.17249   5.19337
 Alpha virt. eigenvalues --    5.26000   5.37685   5.45827   5.51254   5.51637
 Alpha virt. eigenvalues --    5.52359   5.58129   5.61242   5.93837   5.94306
 Alpha virt. eigenvalues --    6.00843   6.71307   6.73724   6.76156   6.76851
 Alpha virt. eigenvalues --    6.77626   6.78099   6.78782   6.80206   6.80480
 Alpha virt. eigenvalues --    6.81339   6.82143   6.84520   6.84878   6.86972
 Alpha virt. eigenvalues --    6.89036   6.89387   6.90160   6.91463   6.92251
 Alpha virt. eigenvalues --    6.94656   6.95262   6.97162   6.98017   7.00359
 Alpha virt. eigenvalues --    7.01804   7.08395   7.12273   7.12997   7.14093
 Alpha virt. eigenvalues --    7.19099   7.22880   7.24968   7.28892   7.32762
 Alpha virt. eigenvalues --    7.40095   7.64966  14.22493  14.24575  14.35186
 Alpha virt. eigenvalues --   49.98362  49.99780  50.00410  50.01552  50.03398
 Alpha virt. eigenvalues --   50.04190  50.08735 163.87734
          Condensed to atoms (all electrons):
               1          2          3          4          5          6
     1  P   12.424305   0.540697   0.239678   0.000162   0.204456   0.031390
     2  O    0.540697   8.130527   0.000175  -0.006688  -0.015316  -0.000802
     3  O    0.239678   0.000175   8.048447   0.264475  -0.013148  -0.011122
     4  H    0.000162  -0.006688   0.264475   0.416122   0.002536   0.001142
     5  O    0.204456  -0.015316  -0.013148   0.002536   8.078772   0.236102
     6  H    0.031390  -0.000802  -0.011122   0.001142   0.236102   0.440963
     7  O    0.362927  -0.066505  -0.011926  -0.009128   0.009048  -0.013428
     8  H    0.003935  -0.002043   0.004741  -0.000014   0.005325  -0.000338
     9  O   -0.011332   0.011212  -0.005611   0.000104  -0.002454   0.000105
    10  H    0.001752  -0.002284   0.000589   0.000050   0.000112  -0.000007
    11  H    0.004344  -0.002370   0.000443   0.000059   0.000272   0.000003
    12  O   -0.010436  -0.013899  -0.000307  -0.000213  -0.001171   0.000014
    13  H    0.002281   0.000330   0.000020   0.000001   0.000120  -0.000015
    14  H    0.006788   0.062910   0.001338   0.000453  -0.000648   0.000044
    15  O    0.000220   0.001015   0.000002  -0.000003   0.000002  -0.000000
    16  H   -0.000307  -0.001522  -0.000001   0.000007  -0.000002   0.000001
    17  H   -0.000063  -0.000004   0.000000  -0.000000   0.000000   0.000000
               7          8          9         10         11         12
     1  P    0.362927   0.003935  -0.011332   0.001752   0.004344  -0.010436
     2  O   -0.066505  -0.002043   0.011212  -0.002284  -0.002370  -0.013899
     3  O   -0.011926   0.004741  -0.005611   0.000589   0.000443  -0.000307
     4  H   -0.009128  -0.000014   0.000104   0.000050   0.000059  -0.000213
     5  O    0.009048   0.005325  -0.002454   0.000112   0.000272  -0.001171
     6  H   -0.013428  -0.000338   0.000105  -0.000007   0.000003   0.000014
     7  O    8.062029   0.256964   0.025298  -0.005068  -0.003275  -0.000421
     8  H    0.256964   0.310957  -0.036060   0.004181   0.014651  -0.002438
     9  O    0.025298  -0.036060   8.133921   0.292399   0.271166   0.003272
    10  H   -0.005068   0.004181   0.292399   0.419917  -0.012521   0.002258
    11  H   -0.003275   0.014651   0.271166  -0.012521   0.329417   0.016915
    12  O   -0.000421  -0.002438   0.003272   0.002258   0.016915   8.164171
    13  H   -0.000320   0.000014  -0.000135   0.000526   0.000031   0.309536
    14  H   -0.003962   0.004260  -0.003226  -0.000957  -0.002713   0.271800
    15  O   -0.000026  -0.000000   0.001031   0.000149  -0.001401   0.020548
    16  H    0.000066   0.000025  -0.002782  -0.000394   0.001981  -0.045118
    17  H    0.000002  -0.000001  -0.000085   0.000002   0.000250  -0.001049
              13         14         15         16         17
     1  P    0.002281   0.006788   0.000220  -0.000307  -0.000063
     2  O    0.000330   0.062910   0.001015  -0.001522  -0.000004
     3  O    0.000020   0.001338   0.000002  -0.000001   0.000000
     4  H    0.000001   0.000453  -0.000003   0.000007  -0.000000
     5  O    0.000120  -0.000648   0.000002  -0.000002   0.000000
     6  H   -0.000015   0.000044  -0.000000   0.000001   0.000000
     7  O   -0.000320  -0.003962  -0.000026   0.000066   0.000002
     8  H    0.000014   0.004260  -0.000000   0.000025  -0.000001
     9  O   -0.000135  -0.003226   0.001031  -0.002782  -0.000085
    10  H    0.000526  -0.000957   0.000149  -0.000394   0.000002
    11  H    0.000031  -0.002713  -0.001401   0.001981   0.000250
    12  O    0.309536   0.271800   0.020548  -0.045118  -0.001049
    13  H    0.399130  -0.021552  -0.000682  -0.003089  -0.000899
    14  H   -0.021552   0.319420  -0.008017   0.009382   0.000904
    15  O   -0.000682  -0.008017   8.103581   0.252732   0.283435
    16  H   -0.003089   0.009382   0.252732   0.401907  -0.005238
    17  H   -0.000899   0.000904   0.283435  -0.005238   0.455173
 Mulliken charges:
               1
     1  P    1.199202
     2  O   -0.635433
     3  O   -0.517794
     4  H    0.330933
     5  O   -0.504004
     6  H    0.315950
     7  O   -0.602273
     8  H    0.435842
     9  O   -0.676823
    10  H    0.299295
    11  H    0.382748
    12  O   -0.713462
    13  H    0.314701
    14  H    0.363778
    15  O   -0.652586
    16  H    0.392353
    17  H    0.267573
 Sum of Mulliken charges =  -0.00000
 Mulliken charges with hydrogens summed into heavy atoms:
               1
     1  P    1.199202
     2  O   -0.635433
     3  O   -0.186861
     5  O   -0.188055
     7  O   -0.166431
     9  O    0.005220
    12  O   -0.034983
    15  O    0.007340
         Mulliken charges condensed to fragments:
      1      0.022423
      2      0.005220
      3     -0.034983
      4      0.007340
 Electronic spatial extent (au):  <R**2>=          78090.9123
 Charge=              0.0000 electrons
 Dipole moment (field-independent basis, Debye):
    X=              1.4456    Y=             -1.4158    Z=             -0.4484  Tot=              2.0725
 Quadrupole moment (field-independent basis, Debye-Ang):
   XX=            -35.2149   YY=            -80.4768   ZZ=            -58.7611
   XY=             -0.3025   XZ=             11.6003   YZ=            -26.6685
 Traceless Quadrupole moment (field-independent basis, Debye-Ang):
   XX=             22.9361   YY=            -22.3259   ZZ=             -0.6102
   XY=             -0.3025   XZ=             11.6003   YZ=            -26.6685
 Octapole moment (field-independent basis, Debye-Ang**2):
  XXX=          -1419.8661  YYY=          -2039.2373  ZZZ=          -1369.0253  XYY=           -657.6479
  XXY=           -510.8527  XXZ=           -254.3297  XZZ=           -383.6432  YZZ=           -885.6308
  YYZ=           -975.7678  XYZ=            -85.5872
 Hexadecapole moment (field-independent basis, Debye-Ang**3):
 XXXX=         -30441.4385 YYYY=         -40444.7066 ZZZZ=         -22462.3772 XXXY=         -15923.4468
 XXXZ=         -10941.3464 YYYX=         -18742.2764 YYYZ=         -22364.6884 ZZZX=         -11073.4842
 ZZZY=         -17541.2301 XXYY=         -11939.8062 XXZZ=          -6342.7357 YYZZ=         -16689.0911
 XXYZ=          -4459.7914 YYXZ=          -7564.4872 ZZXY=          -6370.6801
 N-N= 5.378151045846D+02 E-N=-3.145495948623D+03  KE= 8.711862228043D+02
 No NMR shielding tensors so no spin-rotation constants.
 Leave Link  601 at Sat Dec 17 23:02:14 2022, MaxMem= 13421772800 cpu:               2.3 elap:               0.1
 (Enter /data0/home/software/g16/l122.exe)
 CPIOFr:  IOpCl= 0 IRwI=-1 IRwCP=  731 ICalc= -1 LCPTot=      120517 Len1MO=      315166 IndFrg=      120517
 CPIOFr:  IOpCl= 0 IRwI=-1 IRwCP=  731 ICalc=  0 LCPTot=      120517 Len1MO=      315166 IndFrg=      435683
 Counterpoise: doing calculation for fragment   1 using the basis set of the full-system, NewBq=T
 Leave Link  122 at Sat Dec 17 23:02:14 2022, MaxMem= 13421772800 cpu:               0.2 elap:               0.0
 (Enter /data0/home/software/g16/l301.exe)
 Basis read from rwf:  (5D, 7F)
 No pseudopotential information found on rwf file.
   278 basis functions,   422 primitive gaussians,   294 cartesian basis functions
    25 alpha electrons       25 beta electrons
       nuclear repulsion energy       280.0299153277 Hartrees.
 IExCor= 4336 DFT=T Ex+Corr=M062X ExCW=0 ScaHFX=  0.540000
 ScaDFX=  1.000000  1.000000  1.000000  1.000000 ScalE2=  1.000000  1.000000
 IRadAn=      5 IRanWt=     -1 IRanGd=            0 ICorTp=0 IEmpDi=131
 NAtoms=   17 NActive=   17 NUniq=   17 SFac= 1.00D+00 NAtFMM=   60 NAOKFM=F Big=F
 Integral buffers will be    131072 words long.
 Raffenetti 2 integral format.
 Two-electron integral symmetry is turned off.
 R6Disp:  Grimme-D3 Dispersion energy=       -0.0000467693 Hartrees.
 Nuclear repulsion after empirical dispersion term =      280.0298685584 Hartrees.
 No density basis found on file   718.
 Leave Link  301 at Sat Dec 17 23:02:14 2022, MaxMem= 13421772800 cpu:               1.3 elap:               0.1
 (Enter /data0/home/software/g16/l302.exe)
 NPDir=0 NMtPBC=     1 NCelOv=     1 NCel=       1 NClECP=     1 NCelD=      1
         NCelK=      1 NCelE2=     1 NClLst=     1 CellRange=     0.0.
 One-electron integrals computed using PRISM.
 NBasis=   278 RedAO= T EigKep=  2.62D-04  NBF=   278
 NBsUse=   278 1.00D-06 EigRej= -1.00D+00 NBFU=   278
 Precomputing XC quadrature grid using
 IXCGrd= 4 IRadAn=           5 IRanWt=          -1 IRanGd=           0 AccXCQ= 0.00D+00.
 Generated NRdTot=       0 NPtTot=           0 NUsed=           0 NTot=          32
 NSgBfM=   293   293   293   293   293 MxSgAt=    17 MxSgA2=    17.
 Leave Link  302 at Sat Dec 17 23:02:14 2022, MaxMem= 13421772800 cpu:               4.3 elap:               0.2
 (Enter /data0/home/software/g16/l303.exe)
 DipDrv:  MaxL=1.
 Leave Link  303 at Sat Dec 17 23:02:14 2022, MaxMem= 13421772800 cpu:               0.7 elap:               0.0
 (Enter /data0/home/software/g16/l401.exe)
 ExpMin= 3.48D-02 ExpMax= 7.75D+04 ExpMxC= 2.65D+03 IAcc=3 IRadAn=         5 AccDes= 0.00D+00
 Harris functional with IExCor= 1009 and IRadAn=       5 diagonalized for initial guess.
 HarFok:  IExCor= 1009 AccDes= 0.00D+00 IRadAn=         5 IDoV= 1 UseB2=F ITyADJ=14
 ICtDFT=  3500011 ScaDFX=  1.000000  1.000000  1.000000  1.000000
 FoFCou: FMM=F IPFlag=           0 FMFlag=      100000 FMFlg1=           0
         NFxFlg=           0 DoJE=T BraDBF=F KetDBF=T FulRan=T
         wScrn=  0.000000 ICntrl=       500 IOpCl=  0 I1Cent=   200000004 NGrid=           0
         NMat0=    1 NMatS0=      1 NMatT0=    0 NMatD0=    1 NMtDS0=    0 NMtDT0=    0
 Symmetry not used in FoFCou.
 Harris En= -643.941966181628    
 JPrj=0 DoOrth=F DoCkMO=F.
 Leave Link  401 at Sat Dec 17 23:02:15 2022, MaxMem= 13421772800 cpu:              12.1 elap:               0.5
 (Enter /data0/home/software/g16/l502.exe)
 Two-electron integral symmetry not used.
 Closed shell SCF:
 Using DIIS extrapolation, IDIIS=  1040.
 NGot= 13421772800 LenX= 13421590703 LenY= 13421503826
 Requested convergence on RMS density matrix=1.00D-08 within 128 cycles.
 Requested convergence on MAX density matrix=1.00D-06.
 Requested convergence on             energy=1.00D-06.
 No special actions if energy rises.
 Fock matrices will be formed incrementally for  20 cycles.

 Cycle   1  Pass 1  IDiag  1:
 FoFJK:  IHMeth= 1 ICntrl=       0 DoSepK=F KAlg= 0 I1Cent=           0 FoldK=F
 IRaf= 870000000 NMat=       1 IRICut=       1 DoRegI=T DoRafI=F ISym2E= 0 IDoP0=0 IntGTp=1.
 FoFCou: FMM=F IPFlag=           0 FMFlag=      100000 FMFlg1=           0
         NFxFlg=           0 DoJE=F BraDBF=F KetDBF=F FulRan=T
         wScrn=  0.000000 ICntrl=         0 IOpCl=  0 I1Cent=           0 NGrid=           0
         NMat0=    1 NMatS0=      1 NMatT0=    0 NMatD0=    1 NMtDS0=    0 NMtDT0=    0
 Symmetry not used in FoFCou.
 E= -643.864464217067    
 DIIS: error= 2.99D-02 at cycle   1 NSaved=   1.
 NSaved= 1 IEnMin= 1 EnMin= -643.864464217067     IErMin= 1 ErrMin= 2.99D-02
 ErrMax= 2.99D-02  0.00D+00 EMaxC= 1.00D-01 BMatC= 5.04D-01 BMatP= 5.04D-01
 IDIUse=3 WtCom= 7.01D-01 WtEn= 2.99D-01
 Coeff-Com:  0.100D+01
 Coeff-En:   0.100D+01
 Coeff:      0.100D+01
 Gap=     0.309 Goal=   None    Shift=    0.000
 GapD=    0.309 DampG=1.000 DampE=0.500 DampFc=0.5000 IDamp=-1.
 Damping current iteration by 5.00D-01
 RMSDP=4.00D-03 MaxDP=1.52D-01              OVMax= 2.55D-01

 Cycle   2  Pass 1  IDiag  1:
 RMSU=  2.00D-03    CP:  9.99D-01
 E= -643.980722574124     Delta-E=       -0.116258357057 Rises=F Damp=T
 DIIS: error= 9.31D-03 at cycle   2 NSaved=   2.
 NSaved= 2 IEnMin= 2 EnMin= -643.980722574124     IErMin= 2 ErrMin= 9.31D-03
 ErrMax= 9.31D-03  0.00D+00 EMaxC= 1.00D-01 BMatC= 2.65D-02 BMatP= 5.04D-01
 IDIUse=3 WtCom= 9.07D-01 WtEn= 9.31D-02
 Coeff-Com:  0.684D-01 0.932D+00
 Coeff-En:   0.197D+00 0.803D+00
 Coeff:      0.804D-01 0.920D+00
 Gap=     0.364 Goal=   None    Shift=    0.000
 RMSDP=9.43D-04 MaxDP=4.76D-02 DE=-1.16D-01 OVMax= 1.62D-01

 Cycle   3  Pass 1  IDiag  1:
 RMSU=  7.28D-04    CP:  9.90D-01  7.05D-01
 E= -644.143095165376     Delta-E=       -0.162372591252 Rises=F Damp=F
 DIIS: error= 3.68D-03 at cycle   3 NSaved=   3.
 NSaved= 3 IEnMin= 3 EnMin= -644.143095165376     IErMin= 3 ErrMin= 3.68D-03
 ErrMax= 3.68D-03  0.00D+00 EMaxC= 1.00D-01 BMatC= 9.73D-03 BMatP= 2.65D-02
 IDIUse=3 WtCom= 9.63D-01 WtEn= 3.68D-02
 Coeff-Com: -0.161D-01 0.335D+00 0.681D+00
 Coeff-En:   0.000D+00 0.000D+00 0.100D+01
 Coeff:     -0.155D-01 0.323D+00 0.693D+00
 Gap=     0.355 Goal=   None    Shift=    0.000
 RMSDP=3.76D-04 MaxDP=1.46D-02 DE=-1.62D-01 OVMax= 3.39D-02

 Cycle   4  Pass 1  IDiag  1:
 RMSU=  3.19D-04    CP:  9.90D-01  7.90D-01  8.63D-01
 E= -644.147494400653     Delta-E=       -0.004399235278 Rises=F Damp=F
 DIIS: error= 2.79D-03 at cycle   4 NSaved=   4.
 NSaved= 4 IEnMin= 4 EnMin= -644.147494400653     IErMin= 4 ErrMin= 2.79D-03
 ErrMax= 2.79D-03  0.00D+00 EMaxC= 1.00D-01 BMatC= 3.67D-03 BMatP= 9.73D-03
 IDIUse=3 WtCom= 9.72D-01 WtEn= 2.79D-02
 Coeff-Com: -0.217D-01 0.500D-01 0.402D+00 0.570D+00
 Coeff-En:   0.000D+00 0.000D+00 0.274D+00 0.726D+00
 Coeff:     -0.211D-01 0.486D-01 0.398D+00 0.574D+00
 Gap=     0.359 Goal=   None    Shift=    0.000
 RMSDP=1.50D-04 MaxDP=5.92D-03 DE=-4.40D-03 OVMax= 1.09D-02

 Cycle   5  Pass 1  IDiag  1:
 RMSU=  4.40D-05    CP:  9.89D-01  7.70D-01  9.59D-01  6.29D-01
 E= -644.149927938587     Delta-E=       -0.002433537933 Rises=F Damp=F
 DIIS: error= 1.86D-04 at cycle   5 NSaved=   5.
 NSaved= 5 IEnMin= 5 EnMin= -644.149927938587     IErMin= 5 ErrMin= 1.86D-04
 ErrMax= 1.86D-04  0.00D+00 EMaxC= 1.00D-01 BMatC= 1.40D-05 BMatP= 3.67D-03
 IDIUse=3 WtCom= 9.98D-01 WtEn= 1.86D-03
 Coeff-Com: -0.263D-02 0.984D-03 0.599D-01 0.118D+00 0.824D+00
 Coeff-En:   0.000D+00 0.000D+00 0.000D+00 0.000D+00 0.100D+01
 Coeff:     -0.263D-02 0.982D-03 0.597D-01 0.118D+00 0.824D+00
 Gap=     0.358 Goal=   None    Shift=    0.000
 RMSDP=1.52D-05 MaxDP=8.29D-04 DE=-2.43D-03 OVMax= 7.38D-04

 Cycle   6  Pass 1  IDiag  1:
 RMSU=  1.14D-05    CP:  9.89D-01  7.67D-01  9.64D-01  6.50D-01  1.03D+00
 E= -644.149937532996     Delta-E=       -0.000009594409 Rises=F Damp=F
 DIIS: error= 4.81D-05 at cycle   6 NSaved=   6.
 NSaved= 6 IEnMin= 6 EnMin= -644.149937532996     IErMin= 6 ErrMin= 4.81D-05
 ErrMax= 4.81D-05  0.00D+00 EMaxC= 1.00D-01 BMatC= 9.70D-07 BMatP= 1.40D-05
 IDIUse=1 WtCom= 1.00D+00 WtEn= 0.00D+00
 Coeff-Com:  0.285D-04-0.135D-02 0.130D-02 0.891D-02 0.200D+00 0.791D+00
 Coeff:      0.285D-04-0.135D-02 0.130D-02 0.891D-02 0.200D+00 0.791D+00
 Gap=     0.358 Goal=   None    Shift=    0.000
 RMSDP=5.57D-06 MaxDP=2.31D-04 DE=-9.59D-06 OVMax= 2.22D-04

 Cycle   7  Pass 1  IDiag  1:
 RMSU=  2.98D-06    CP:  9.89D-01  7.66D-01  9.65D-01  6.52D-01  1.12D+00
                    CP:  9.33D-01
 E= -644.149938257409     Delta-E=       -0.000000724413 Rises=F Damp=F
 DIIS: error= 1.69D-05 at cycle   7 NSaved=   7.
 NSaved= 7 IEnMin= 7 EnMin= -644.149938257409     IErMin= 7 ErrMin= 1.69D-05
 ErrMax= 1.69D-05  0.00D+00 EMaxC= 1.00D-01 BMatC= 1.77D-07 BMatP= 9.70D-07
 IDIUse=1 WtCom= 1.00D+00 WtEn= 0.00D+00
 Coeff-Com:  0.365D-03-0.624D-03-0.799D-02-0.128D-01-0.255D-01 0.289D+00
 Coeff-Com:  0.758D+00
 Coeff:      0.365D-03-0.624D-03-0.799D-02-0.128D-01-0.255D-01 0.289D+00
 Coeff:      0.758D+00
 Gap=     0.358 Goal=   None    Shift=    0.000
 RMSDP=1.85D-06 MaxDP=6.17D-05 DE=-7.24D-07 OVMax= 8.71D-05

 Cycle   8  Pass 1  IDiag  1:
 RMSU=  1.27D-06    CP:  9.89D-01  7.65D-01  9.65D-01  6.53D-01  1.14D+00
                    CP:  1.00D+00  9.34D-01
 E= -644.149938376515     Delta-E=       -0.000000119106 Rises=F Damp=F
 DIIS: error= 7.49D-06 at cycle   8 NSaved=   8.
 NSaved= 8 IEnMin= 8 EnMin= -644.149938376515     IErMin= 8 ErrMin= 7.49D-06
 ErrMax= 7.49D-06  0.00D+00 EMaxC= 1.00D-01 BMatC= 3.12D-08 BMatP= 1.77D-07
 IDIUse=1 WtCom= 1.00D+00 WtEn= 0.00D+00
 Coeff-Com:  0.160D-03-0.218D-03-0.381D-02-0.616D-02-0.187D-01 0.956D-01
 Coeff-Com:  0.377D+00 0.557D+00
 Coeff:      0.160D-03-0.218D-03-0.381D-02-0.616D-02-0.187D-01 0.956D-01
 Coeff:      0.377D+00 0.557D+00
 Gap=     0.358 Goal=   None    Shift=    0.000
 RMSDP=4.81D-07 MaxDP=1.91D-05 DE=-1.19D-07 OVMax= 3.04D-05

 Cycle   9  Pass 1  IDiag  1:
 RMSU=  3.01D-07    CP:  9.89D-01  7.65D-01  9.65D-01  6.53D-01  1.14D+00
                    CP:  1.01D+00  1.02D+00  8.03D-01
 E= -644.149938398217     Delta-E=       -0.000000021702 Rises=F Damp=F
 DIIS: error= 8.50D-07 at cycle   9 NSaved=   9.
 NSaved= 9 IEnMin= 9 EnMin= -644.149938398217     IErMin= 9 ErrMin= 8.50D-07
 ErrMax= 8.50D-07  0.00D+00 EMaxC= 1.00D-01 BMatC= 7.44D-10 BMatP= 3.12D-08
 IDIUse=1 WtCom= 1.00D+00 WtEn= 0.00D+00
 Coeff-Com: -0.239D-04 0.453D-04 0.245D-03 0.518D-03-0.433D-03-0.189D-01
 Coeff-Com: -0.265D-01 0.854D-01 0.960D+00
 Coeff:     -0.239D-04 0.453D-04 0.245D-03 0.518D-03-0.433D-03-0.189D-01
 Coeff:     -0.265D-01 0.854D-01 0.960D+00
 Gap=     0.358 Goal=   None    Shift=    0.000
 RMSDP=1.85D-07 MaxDP=7.22D-06 DE=-2.17D-08 OVMax= 8.09D-06

 Cycle  10  Pass 1  IDiag  1:
 RMSU=  7.57D-08    CP:  9.89D-01  7.65D-01  9.65D-01  6.53D-01  1.14D+00
                    CP:  1.01D+00  1.05D+00  8.81D-01  1.12D+00
 E= -644.149938399060     Delta-E=       -0.000000000843 Rises=F Damp=F
 DIIS: error= 1.82D-07 at cycle  10 NSaved=  10.
 NSaved=10 IEnMin=10 EnMin= -644.149938399060     IErMin=10 ErrMin= 1.82D-07
 ErrMax= 1.82D-07  0.00D+00 EMaxC= 1.00D-01 BMatC= 1.10D-11 BMatP= 7.44D-10
 IDIUse=1 WtCom= 1.00D+00 WtEn= 0.00D+00
 Coeff-Com: -0.361D-05 0.574D-05 0.104D-03 0.165D-03 0.482D-03-0.376D-02
 Coeff-Com: -0.138D-01-0.142D-01 0.226D-01 0.101D+01
 Coeff:     -0.361D-05 0.574D-05 0.104D-03 0.165D-03 0.482D-03-0.376D-02
 Coeff:     -0.138D-01-0.142D-01 0.226D-01 0.101D+01
 Gap=     0.358 Goal=   None    Shift=    0.000
 RMSDP=3.49D-08 MaxDP=8.52D-07 DE=-8.43D-10 OVMax= 1.89D-06

 Cycle  11  Pass 1  IDiag  1:
 RMSU=  1.78D-08    CP:  9.89D-01  7.65D-01  9.65D-01  6.53D-01  1.14D+00
                    CP:  1.01D+00  1.05D+00  8.94D-01  1.18D+00  1.14D+00
 E= -644.149938399086     Delta-E=       -0.000000000026 Rises=F Damp=F
 DIIS: error= 6.52D-08 at cycle  11 NSaved=  11.
 NSaved=11 IEnMin=11 EnMin= -644.149938399086     IErMin=11 ErrMin= 6.52D-08
 ErrMax= 6.52D-08  0.00D+00 EMaxC= 1.00D-01 BMatC= 1.09D-12 BMatP= 1.10D-11
 IDIUse=1 WtCom= 1.00D+00 WtEn= 0.00D+00
 Coeff-Com:  0.849D-06-0.159D-05 0.504D-05 0.153D-05 0.913D-04 0.252D-03
 Coeff-Com: -0.586D-03-0.548D-02-0.430D-01 0.169D+00 0.880D+00
 Coeff:      0.849D-06-0.159D-05 0.504D-05 0.153D-05 0.913D-04 0.252D-03
 Coeff:     -0.586D-03-0.548D-02-0.430D-01 0.169D+00 0.880D+00
 Gap=     0.358 Goal=   None    Shift=    0.000
 RMSDP=7.39D-09 MaxDP=2.36D-07 DE=-2.59D-11 OVMax= 4.43D-07

 SCF Done:  E(RM062X) =  -644.149938399     A.U. after   11 cycles
            NFock= 11  Conv=0.74D-08     -V/T= 2.0025
 KE= 6.425185434612D+02 PE=-2.087785217209D+03 EE= 5.210868667899D+02
 Leave Link  502 at Sat Dec 17 23:02:27 2022, MaxMem= 13421772800 cpu:             304.8 elap:              12.8
 (Enter /data0/home/software/g16/l601.exe)
 Copying SCF densities to generalized density rwf, IOpCl= 0 IROHF=0.

 **********************************************************************

            Population analysis using the SCF density.

 **********************************************************************

 Alpha  occ. eigenvalues --  -78.16849 -19.68548 -19.68348 -19.67455 -19.59079
 Alpha  occ. eigenvalues --   -6.97618  -5.09512  -5.09490  -5.09344  -1.24206
 Alpha  occ. eigenvalues --   -1.16892  -1.16181  -1.09136  -0.72969  -0.64800
 Alpha  occ. eigenvalues --   -0.63925  -0.57675  -0.53775  -0.51393  -0.49125
 Alpha  occ. eigenvalues --   -0.47223  -0.46020  -0.42643  -0.38809  -0.38102
 Alpha virt. eigenvalues --   -0.02292   0.01204   0.01480   0.04417   0.06888
 Alpha virt. eigenvalues --    0.07331   0.09962   0.10307   0.11950   0.12267
 Alpha virt. eigenvalues --    0.13132   0.14492   0.14862   0.16901   0.17017
 Alpha virt. eigenvalues --    0.17689   0.18345   0.19656   0.19791   0.20321
 Alpha virt. eigenvalues --    0.20428   0.21154   0.22756   0.24073   0.24331
 Alpha virt. eigenvalues --    0.25791   0.26367   0.27176   0.27850   0.28147
 Alpha virt. eigenvalues --    0.28782   0.30011   0.30314   0.30696   0.32353
 Alpha virt. eigenvalues --    0.33633   0.33765   0.35467   0.36079   0.37797
 Alpha virt. eigenvalues --    0.38617   0.39193   0.40196   0.41355   0.44915
 Alpha virt. eigenvalues --    0.45305   0.46162   0.47782   0.48613   0.49699
 Alpha virt. eigenvalues --    0.55753   0.58184   0.63785   0.64381   0.66994
 Alpha virt. eigenvalues --    0.71937   0.74242   0.75649   0.77007   0.77347
 Alpha virt. eigenvalues --    0.78683   0.80359   0.80824   0.82783   0.82856
 Alpha virt. eigenvalues --    0.88120   0.88783   0.92923   0.95612   0.97282
 Alpha virt. eigenvalues --    0.99318   1.01771   1.03536   1.05167   1.06198
 Alpha virt. eigenvalues --    1.07115   1.08345   1.11445   1.13348   1.13607
 Alpha virt. eigenvalues --    1.17147   1.17378   1.19599   1.20873   1.21404
 Alpha virt. eigenvalues --    1.22937   1.25399   1.25927   1.30488   1.34701
 Alpha virt. eigenvalues --    1.38572   1.41042   1.42314   1.45646   1.49019
 Alpha virt. eigenvalues --    1.51359   1.53875   1.58393   1.60457   1.63995
 Alpha virt. eigenvalues --    1.66266   1.67452   1.71836   1.73368   1.74922
 Alpha virt. eigenvalues --    1.76535   1.77760   1.79951   1.81653   1.84348
 Alpha virt. eigenvalues --    1.86492   1.87942   1.90236   1.90695   1.92671
 Alpha virt. eigenvalues --    1.93575   1.95747   1.98946   2.00805   2.02838
 Alpha virt. eigenvalues --    2.05902   2.07226   2.09226   2.10991   2.14496
 Alpha virt. eigenvalues --    2.15858   2.20321   2.22781   2.23201   2.26099
 Alpha virt. eigenvalues --    2.27030   2.27155   2.35464   2.37105   2.37701
 Alpha virt. eigenvalues --    2.43853   2.45611   2.48052   2.51291   2.51730
 Alpha virt. eigenvalues --    2.52169   2.56058   2.58302   2.60055   2.60962
 Alpha virt. eigenvalues --    2.62478   2.63702   2.63877   2.66133   2.67101
 Alpha virt. eigenvalues --    2.68670   2.70762   2.73369   2.75294   2.76360
 Alpha virt. eigenvalues --    2.77471   2.79647   2.81362   2.84543   2.86892
 Alpha virt. eigenvalues --    2.88707   2.94168   2.96430   2.97572   2.99967
 Alpha virt. eigenvalues --    3.02009   3.05110   3.09705   3.14363   3.19392
 Alpha virt. eigenvalues --    3.51295   3.57114   3.61662   3.65733   3.74109
 Alpha virt. eigenvalues --    3.78083   4.57684   4.60371   4.75098   5.02295
 Alpha virt. eigenvalues --    5.06858   5.07897   5.09934   5.12101   5.12874
 Alpha virt. eigenvalues --    5.14541   5.16641   5.20390   5.27718   5.35287
 Alpha virt. eigenvalues --    5.41690   5.46266   5.53017   5.61816   6.70943
 Alpha virt. eigenvalues --    6.74750   6.76981   6.79338   6.79470   6.81037
 Alpha virt. eigenvalues --    6.85729   6.87100   6.90942   6.92709   6.95679
 Alpha virt. eigenvalues --    6.98599   7.01594   7.08224   7.12652   7.23750
 Alpha virt. eigenvalues --    7.25815   7.28472   7.32386   7.41901   7.65503
 Alpha virt. eigenvalues --    9.81251   9.82536   9.89338   9.91308   9.94566
 Alpha virt. eigenvalues --    9.95320  10.01447  10.03699  10.17238  10.21720
 Alpha virt. eigenvalues --   10.22917  10.26287  10.33888  10.41497  10.60621
 Alpha virt. eigenvalues --   12.93885  13.04054  13.29306  13.38076  13.42395
 Alpha virt. eigenvalues --   13.76549  13.77365  13.84044  14.23331  14.25431
 Alpha virt. eigenvalues --   14.34477  14.36080  17.75434  17.83457  18.43554
 Alpha virt. eigenvalues --   49.99886  50.01321  50.02256  50.10599 136.77746
 Alpha virt. eigenvalues --  136.86465 139.71060 163.88598
          Condensed to atoms (all electrons):
               1          2          3          4          5          6
     1  P   12.500191   0.557387   0.234561  -0.001240   0.186170   0.040548
     2  O    0.557387   8.082948  -0.004860  -0.009237  -0.016772   0.000802
     3  O    0.234561  -0.004860   8.050243   0.266118  -0.007384  -0.012389
     4  H   -0.001240  -0.009237   0.266118   0.417401   0.002809   0.001303
     5  O    0.186170  -0.016772  -0.007384   0.002809   8.090362   0.224172
     6  H    0.040548   0.000802  -0.012389   0.001303   0.224172   0.452309
     7  O    0.309028  -0.050929   0.000086  -0.008319   0.015296  -0.015049
     8  H   -0.005360   0.003936   0.001365   0.000309   0.003829  -0.000139
     9  O   -0.001683   0.006791  -0.001753  -0.000505  -0.000548   0.000082
    10  H   -0.000114  -0.001675   0.000372   0.000121  -0.000017  -0.000005
    11  H    0.001969  -0.005031   0.000067   0.000071   0.000064   0.000004
    12  O   -0.005850   0.018825  -0.000117  -0.000061   0.000150  -0.000034
    13  H    0.001205  -0.001169   0.000037   0.000003  -0.000023  -0.000006
    14  H    0.005355  -0.007760   0.000808   0.000207  -0.000662   0.000135
    15  O    0.000055   0.000552   0.000002  -0.000005   0.000001  -0.000000
    16  H   -0.000153  -0.001015  -0.000013   0.000003   0.000005   0.000001
    17  H    0.000003  -0.000021   0.000000  -0.000000   0.000000   0.000000
               7          8          9         10         11         12
     1  P    0.309028  -0.005360  -0.001683  -0.000114   0.001969  -0.005850
     2  O   -0.050929   0.003936   0.006791  -0.001675  -0.005031   0.018825
     3  O    0.000086   0.001365  -0.001753   0.000372   0.000067  -0.000117
     4  H   -0.008319   0.000309  -0.000505   0.000121   0.000071  -0.000061
     5  O    0.015296   0.003829  -0.000548  -0.000017   0.000064   0.000150
     6  H   -0.015049  -0.000139   0.000082  -0.000005   0.000004  -0.000034
     7  O    8.021693   0.293314   0.024291  -0.005295  -0.000647  -0.003371
     8  H    0.293314   0.298706  -0.002109   0.001855   0.004347  -0.001994
     9  O    0.024291  -0.002109   0.049579  -0.019366  -0.018054   0.004170
    10  H   -0.005295   0.001855  -0.019366   0.010582   0.005503  -0.000922
    11  H   -0.000647   0.004347  -0.018054   0.005503   0.010682  -0.004746
    12  O   -0.003371  -0.001994   0.004170  -0.000922  -0.004746   0.015812
    13  H   -0.000104   0.000110  -0.001082   0.000200   0.000980  -0.002938
    14  H    0.000865   0.002481  -0.002017   0.000527   0.002129  -0.010407
    15  O   -0.000033   0.000004  -0.000087   0.000050  -0.000014   0.001010
    16  H    0.000079  -0.000023   0.000355  -0.000123  -0.000082  -0.001784
    17  H   -0.000000   0.000000  -0.000009   0.000002   0.000009  -0.000105
              13         14         15         16         17
     1  P    0.001205   0.005355   0.000055  -0.000153   0.000003
     2  O   -0.001169  -0.007760   0.000552  -0.001015  -0.000021
     3  O    0.000037   0.000808   0.000002  -0.000013   0.000000
     4  H    0.000003   0.000207  -0.000005   0.000003  -0.000000
     5  O   -0.000023  -0.000662   0.000001   0.000005   0.000000
     6  H   -0.000006   0.000135  -0.000000   0.000001   0.000000
     7  O   -0.000104   0.000865  -0.000033   0.000079  -0.000000
     8  H    0.000110   0.002481   0.000004  -0.000023   0.000000
     9  O   -0.001082  -0.002017  -0.000087   0.000355  -0.000009
    10  H    0.000200   0.000527   0.000050  -0.000123   0.000002
    11  H    0.000980   0.002129  -0.000014  -0.000082   0.000009
    12  O   -0.002938  -0.010407   0.001010  -0.001784  -0.000105
    13  H    0.002280   0.000212   0.000127  -0.000399   0.000006
    14  H    0.000212   0.012426  -0.000374   0.000822   0.000039
    15  O    0.000127  -0.000374   0.001323  -0.001671  -0.000224
    16  H   -0.000399   0.000822  -0.001671   0.002580   0.000183
    17  H    0.000006   0.000039  -0.000224   0.000183   0.000089
 Mulliken charges:
               1
     1  P    1.177928
     2  O   -0.572774
     3  O   -0.527144
     4  H    0.331022
     5  O   -0.497451
     6  H    0.308266
     7  O   -0.580904
     8  H    0.399370
     9  O   -0.038053
    10  H    0.008305
    11  H    0.002750
    12  O   -0.007638
    13  H    0.000559
    14  H   -0.004788
    15  O   -0.000715
    16  H    0.001238
    17  H    0.000028
 Sum of Mulliken charges =  -0.00000
 Mulliken charges with hydrogens summed into heavy atoms:
               1
     1  P    1.177928
     2  O   -0.572774
     3  O   -0.196121
     5  O   -0.189185
     7  O   -0.181534
     9  O   -0.026998
    12  O   -0.011866
    15  O    0.000551
         Mulliken charges condensed to fragments:
      1      0.038314
      2     -0.026998
      3     -0.011866
      4      0.000551
 Electronic spatial extent (au):  <R**2>=          41642.0309
 Charge=             -0.0000 electrons
 Dipole moment (field-independent basis, Debye):
    X=              3.0123    Y=             -1.3417    Z=              2.1711  Tot=              3.9482
 Quadrupole moment (field-independent basis, Debye-Ang):
   XX=             20.0908   YY=            -58.5039   ZZ=              4.0588
   XY=             18.2044   XZ=             43.4596   YZ=             11.2325
 Traceless Quadrupole moment (field-independent basis, Debye-Ang):
   XX=             31.5422   YY=            -47.0525   ZZ=             15.5103
   XY=             18.2044   XZ=             43.4596   YZ=             11.2325
 Octapole moment (field-independent basis, Debye-Ang**2):
  XXX=           -235.6763  YYY=          -1233.5572  ZZZ=           -309.2739  XYY=           -231.0000
  XXY=            147.6588  XXZ=            330.9207  XZZ=            211.0602  YZZ=             -2.9472
  YYZ=           -259.3570  XYZ=            346.6269
 Hexadecapole moment (field-independent basis, Debye-Ang**3):
 XXXX=          -9658.0286 YYYY=         -20048.0971 ZZZZ=          -7124.1790 XXXY=          -1790.0708
 XXXZ=           -412.2925 YYYX=          -8274.8948 YYYZ=          -7968.1473 ZZZX=          -1649.3479
 ZZZY=          -2828.3096 XXYY=          -1900.3776 XXZZ=           1186.7604 YYZZ=          -2806.6294
 XXYZ=           3005.1298 YYXZ=             97.2356 ZZXY=           1828.8530
 N-N= 2.800298685584D+02 E-N=-2.087785220849D+03  KE= 6.425185434613D+02
 No NMR shielding tensors so no spin-rotation constants.
 Leave Link  601 at Sat Dec 17 23:02:28 2022, MaxMem= 13421772800 cpu:               2.4 elap:               0.1
 (Enter /data0/home/software/g16/l122.exe)
 CPIOFr:  IOpCl= 0 IRwI=-1 IRwCP=  731 ICalc=  1 LCPTot=      120517 Len1MO=      315166 IndFrg=      750849
 Counterpoise: doing calculation for fragment   2 using the basis set of the full-system, NewBq=T
 Leave Link  122 at Sat Dec 17 23:02:28 2022, MaxMem= 13421772800 cpu:               0.1 elap:               0.0
 (Enter /data0/home/software/g16/l301.exe)
 Basis read from rwf:  (5D, 7F)
 No pseudopotential information found on rwf file.
   278 basis functions,   422 primitive gaussians,   294 cartesian basis functions
     5 alpha electrons        5 beta electrons
       nuclear repulsion energy         9.1232667609 Hartrees.
 IExCor= 4336 DFT=T Ex+Corr=M062X ExCW=0 ScaHFX=  0.540000
 ScaDFX=  1.000000  1.000000  1.000000  1.000000 ScalE2=  1.000000  1.000000
 IRadAn=      5 IRanWt=     -1 IRanGd=            0 ICorTp=0 IEmpDi=131
 NAtoms=   17 NActive=   17 NUniq=   17 SFac= 1.00D+00 NAtFMM=   60 NAOKFM=F Big=F
 Integral buffers will be    131072 words long.
 Raffenetti 2 integral format.
 Two-electron integral symmetry is turned off.
 R6Disp:  Grimme-D3 Dispersion energy=       -0.0000000079 Hartrees.
 Nuclear repulsion after empirical dispersion term =        9.1232667530 Hartrees.
 No density basis found on file   718.
 Leave Link  301 at Sat Dec 17 23:02:28 2022, MaxMem= 13421772800 cpu:               1.3 elap:               0.1
 (Enter /data0/home/software/g16/l302.exe)
 NPDir=0 NMtPBC=     1 NCelOv=     1 NCel=       1 NClECP=     1 NCelD=      1
         NCelK=      1 NCelE2=     1 NClLst=     1 CellRange=     0.0.
 One-electron integrals computed using PRISM.
 NBasis=   278 RedAO= T EigKep=  2.62D-04  NBF=   278
 NBsUse=   278 1.00D-06 EigRej= -1.00D+00 NBFU=   278
 Precomputing XC quadrature grid using
 IXCGrd= 4 IRadAn=           5 IRanWt=          -1 IRanGd=           0 AccXCQ= 0.00D+00.
 Generated NRdTot=       0 NPtTot=           0 NUsed=           0 NTot=          32
 NSgBfM=   293   293   293   293   293 MxSgAt=    17 MxSgA2=    17.
 Leave Link  302 at Sat Dec 17 23:02:28 2022, MaxMem= 13421772800 cpu:               4.4 elap:               0.2
 (Enter /data0/home/software/g16/l303.exe)
 DipDrv:  MaxL=1.
 Leave Link  303 at Sat Dec 17 23:02:28 2022, MaxMem= 13421772800 cpu:               0.7 elap:               0.0
 (Enter /data0/home/software/g16/l401.exe)
 ExpMin= 3.48D-02 ExpMax= 7.75D+04 ExpMxC= 2.65D+03 IAcc=3 IRadAn=         5 AccDes= 0.00D+00
 Harris functional with IExCor= 1009 and IRadAn=       5 diagonalized for initial guess.
 HarFok:  IExCor= 1009 AccDes= 0.00D+00 IRadAn=         5 IDoV= 1 UseB2=F ITyADJ=14
 ICtDFT=  3500011 ScaDFX=  1.000000  1.000000  1.000000  1.000000
 FoFCou: FMM=F IPFlag=           0 FMFlag=      100000 FMFlg1=           0
         NFxFlg=           0 DoJE=T BraDBF=F KetDBF=T FulRan=T
         wScrn=  0.000000 ICntrl=       500 IOpCl=  0 I1Cent=   200000004 NGrid=           0
         NMat0=    1 NMatS0=      1 NMatT0=    0 NMatD0=    1 NMtDS0=    0 NMtDT0=    0
 Symmetry not used in FoFCou.
 Harris En= -76.4178334230598    
 JPrj=0 DoOrth=F DoCkMO=F.
 Leave Link  401 at Sat Dec 17 23:02:28 2022, MaxMem= 13421772800 cpu:              11.7 elap:               0.5
 (Enter /data0/home/software/g16/l502.exe)
 Two-electron integral symmetry not used.
 Closed shell SCF:
 Using DIIS extrapolation, IDIIS=  1040.
 NGot= 13421772800 LenX= 13421590703 LenY= 13421503826
 Requested convergence on RMS density matrix=1.00D-08 within 128 cycles.
 Requested convergence on MAX density matrix=1.00D-06.
 Requested convergence on             energy=1.00D-06.
 No special actions if energy rises.
 Fock matrices will be formed incrementally for  20 cycles.

 Cycle   1  Pass 1  IDiag  1:
 FoFJK:  IHMeth= 1 ICntrl=       0 DoSepK=F KAlg= 0 I1Cent=           0 FoldK=F
 IRaf= 870000000 NMat=       1 IRICut=       1 DoRegI=T DoRafI=F ISym2E= 0 IDoP0=0 IntGTp=1.
 FoFCou: FMM=F IPFlag=           0 FMFlag=      100000 FMFlg1=           0
         NFxFlg=           0 DoJE=F BraDBF=F KetDBF=F FulRan=T
         wScrn=  0.000000 ICntrl=         0 IOpCl=  0 I1Cent=           0 NGrid=           0
         NMat0=    1 NMatS0=      1 NMatT0=    0 NMatD0=    1 NMtDS0=    0 NMtDT0=    0
 Symmetry not used in FoFCou.
 E= -76.3476270829545    
 DIIS: error= 2.03D-02 at cycle   1 NSaved=   1.
 NSaved= 1 IEnMin= 1 EnMin= -76.3476270829545     IErMin= 1 ErrMin= 2.03D-02
 ErrMax= 2.03D-02  0.00D+00 EMaxC= 1.00D-01 BMatC= 1.21D-01 BMatP= 1.21D-01
 IDIUse=3 WtCom= 7.97D-01 WtEn= 2.03D-01
 Coeff-Com:  0.100D+01
 Coeff-En:   0.100D+01
 Coeff:      0.100D+01
 Gap=     0.273 Goal=   None    Shift=    0.000
 GapD=    0.273 DampG=1.000 DampE=0.500 DampFc=0.5000 IDamp=-1.
 Damping current iteration by 5.00D-01
 RMSDP=2.50D-03 MaxDP=1.52D-01              OVMax= 1.73D-01

 Cycle   2  Pass 1  IDiag  1:
 RMSU=  1.25D-03    CP:  1.00D+00
 E= -76.3788091694724     Delta-E=       -0.031182086518 Rises=F Damp=T
 DIIS: error= 3.20D-03 at cycle   2 NSaved=   2.
 NSaved= 2 IEnMin= 2 EnMin= -76.3788091694724     IErMin= 2 ErrMin= 3.20D-03
 ErrMax= 3.20D-03  0.00D+00 EMaxC= 1.00D-01 BMatC= 4.97D-03 BMatP= 1.21D-01
 IDIUse=3 WtCom= 9.68D-01 WtEn= 3.20D-02
 Coeff-Com:  0.854D-01 0.915D+00
 Coeff-En:   0.194D+00 0.806D+00
 Coeff:      0.889D-01 0.911D+00
 Gap=     0.400 Goal=   None    Shift=    0.000
 RMSDP=3.93D-04 MaxDP=3.16D-02 DE=-3.12D-02 OVMax= 1.04D-01

 Cycle   3  Pass 1  IDiag  1:
 RMSU=  2.72D-04    CP:  1.00D+00  7.73D-01
 E= -76.4231133211921     Delta-E=       -0.044304151720 Rises=F Damp=F
 DIIS: error= 7.94D-04 at cycle   3 NSaved=   3.
 NSaved= 3 IEnMin= 3 EnMin= -76.4231133211921     IErMin= 3 ErrMin= 7.94D-04
 ErrMax= 7.94D-04  0.00D+00 EMaxC= 1.00D-01 BMatC= 1.79D-04 BMatP= 4.97D-03
 IDIUse=3 WtCom= 9.92D-01 WtEn= 7.94D-03
 Coeff-Com: -0.304D-01 0.556D-01 0.975D+00
 Coeff-En:   0.000D+00 0.000D+00 0.100D+01
 Coeff:     -0.302D-01 0.551D-01 0.975D+00
 Gap=     0.401 Goal=   None    Shift=    0.000
 RMSDP=3.07D-05 MaxDP=1.33D-03 DE=-4.43D-02 OVMax= 4.08D-03

 Cycle   4  Pass 1  IDiag  1:
 RMSU=  2.45D-05    CP:  9.98D-01  7.79D-01  1.05D+00
 E= -76.4232524050130     Delta-E=       -0.000139083821 Rises=F Damp=F
 DIIS: error= 1.14D-04 at cycle   4 NSaved=   4.
 NSaved= 4 IEnMin= 4 EnMin= -76.4232524050130     IErMin= 4 ErrMin= 1.14D-04
 ErrMax= 1.14D-04  0.00D+00 EMaxC= 1.00D-01 BMatC= 2.50D-06 BMatP= 1.79D-04
 IDIUse=3 WtCom= 9.99D-01 WtEn= 1.14D-03
 Coeff-Com: -0.334D-02 0.131D-02 0.141D+00 0.861D+00
 Coeff-En:   0.000D+00 0.000D+00 0.000D+00 0.100D+01
 Coeff:     -0.333D-02 0.131D-02 0.140D+00 0.862D+00
 Gap=     0.402 Goal=   None    Shift=    0.000
 RMSDP=7.15D-06 MaxDP=4.87D-04 DE=-1.39D-04 OVMax= 4.99D-04

 Cycle   5  Pass 1  IDiag  1:
 RMSU=  3.65D-06    CP:  9.98D-01  7.75D-01  1.06D+00  1.10D+00
 E= -76.4232540168921     Delta-E=       -0.000001611879 Rises=F Damp=F
 DIIS: error= 2.01D-05 at cycle   5 NSaved=   5.
 NSaved= 5 IEnMin= 5 EnMin= -76.4232540168921     IErMin= 5 ErrMin= 2.01D-05
 ErrMax= 2.01D-05  0.00D+00 EMaxC= 1.00D-01 BMatC= 6.94D-08 BMatP= 2.50D-06
 IDIUse=1 WtCom= 1.00D+00 WtEn= 0.00D+00
 Coeff-Com:  0.153D-02-0.239D-02-0.362D-01-0.442D-01 0.108D+01
 Coeff:      0.153D-02-0.239D-02-0.362D-01-0.442D-01 0.108D+01
 Gap=     0.402 Goal=   None    Shift=    0.000
 RMSDP=5.64D-06 MaxDP=4.06D-04 DE=-1.61D-06 OVMax= 2.05D-04

 Cycle   6  Pass 1  IDiag  1:
 RMSU=  1.11D-06    CP:  9.98D-01  7.71D-01  1.06D+00  1.19D+00  1.31D+00
 E= -76.4232541435778     Delta-E=       -0.000000126686 Rises=F Damp=F
 DIIS: error= 2.59D-06 at cycle   6 NSaved=   6.
 NSaved= 6 IEnMin= 6 EnMin= -76.4232541435778     IErMin= 6 ErrMin= 2.59D-06
 ErrMax= 2.59D-06  0.00D+00 EMaxC= 1.00D-01 BMatC= 1.69D-09 BMatP= 6.94D-08
 IDIUse=1 WtCom= 1.00D+00 WtEn= 0.00D+00
 Coeff-Com: -0.287D-03 0.403D-03 0.397D-02-0.826D-02-0.162D+00 0.117D+01
 Coeff:     -0.287D-03 0.403D-03 0.397D-02-0.826D-02-0.162D+00 0.117D+01
 Gap=     0.402 Goal=   None    Shift=    0.000
 RMSDP=8.04D-07 MaxDP=5.92D-05 DE=-1.27D-07 OVMax= 3.88D-05

 Cycle   7  Pass 1  IDiag  1:
 RMSU=  1.23D-07    CP:  9.98D-01  7.70D-01  1.06D+00  1.20D+00  1.37D+00
                    CP:  1.22D+00
 E= -76.4232541470901     Delta-E=       -0.000000003512 Rises=F Damp=F
 DIIS: error= 2.74D-07 at cycle   7 NSaved=   7.
 NSaved= 7 IEnMin= 7 EnMin= -76.4232541470901     IErMin= 7 ErrMin= 2.74D-07
 ErrMax= 2.74D-07  0.00D+00 EMaxC= 1.00D-01 BMatC= 1.92D-11 BMatP= 1.69D-09
 IDIUse=1 WtCom= 1.00D+00 WtEn= 0.00D+00
 Coeff-Com:  0.343D-04-0.291D-04-0.421D-03 0.226D-02 0.605D-02-0.162D+00
 Coeff-Com:  0.115D+01
 Coeff:      0.343D-04-0.291D-04-0.421D-03 0.226D-02 0.605D-02-0.162D+00
 Coeff:      0.115D+01
 Gap=     0.402 Goal=   None    Shift=    0.000
 RMSDP=1.05D-07 MaxDP=7.99D-06 DE=-3.51D-09 OVMax= 5.16D-06

 Cycle   8  Pass 1  IDiag  1:
 RMSU=  1.71D-08    CP:  9.98D-01  7.70D-01  1.06D+00  1.20D+00  1.38D+00
                    CP:  1.25D+00  1.19D+00
 E= -76.4232541471369     Delta-E=       -0.000000000047 Rises=F Damp=F
 DIIS: error= 4.47D-08 at cycle   8 NSaved=   8.
 NSaved= 8 IEnMin= 8 EnMin= -76.4232541471369     IErMin= 8 ErrMin= 4.47D-08
 ErrMax= 4.47D-08  0.00D+00 EMaxC= 1.00D-01 BMatC= 4.84D-13 BMatP= 1.92D-11
 IDIUse=1 WtCom= 1.00D+00 WtEn= 0.00D+00
 Coeff-Com:  0.257D-05-0.605D-05-0.311D-05 0.893D-04 0.198D-02-0.875D-02
 Coeff-Com: -0.690D-01 0.108D+01
 Coeff:      0.257D-05-0.605D-05-0.311D-05 0.893D-04 0.198D-02-0.875D-02
 Coeff:     -0.690D-01 0.108D+01
 Gap=     0.402 Goal=   None    Shift=    0.000
 RMSDP=4.18D-09 MaxDP=1.91D-07 DE=-4.68D-11 OVMax= 4.47D-07

 SCF Done:  E(RM062X) =  -76.4232541471     A.U. after    8 cycles
            NFock=  8  Conv=0.42D-08     -V/T= 2.0030
 KE= 7.619280288925D+01 PE=-1.990917846796D+02 EE= 3.735246089019D+01
 Leave Link  502 at Sat Dec 17 23:02:37 2022, MaxMem= 13421772800 cpu:             209.0 elap:               8.8
 (Enter /data0/home/software/g16/l601.exe)
 Copying SCF densities to generalized density rwf, IOpCl= 0 IROHF=0.

 **********************************************************************

            Population analysis using the SCF density.

 **********************************************************************

 Alpha  occ. eigenvalues --  -19.62618  -1.13380  -0.61000  -0.47441  -0.40032
 Alpha virt. eigenvalues --    0.00177   0.03704   0.04679   0.05265   0.07806
 Alpha virt. eigenvalues --    0.09715   0.10264   0.12599   0.13910   0.15191
 Alpha virt. eigenvalues --    0.15847   0.16181   0.18149   0.18518   0.19079
 Alpha virt. eigenvalues --    0.19441   0.19802   0.20617   0.21413   0.22887
 Alpha virt. eigenvalues --    0.23225   0.24602   0.25838   0.26250   0.27729
 Alpha virt. eigenvalues --    0.28933   0.29305   0.30440   0.30614   0.31361
 Alpha virt. eigenvalues --    0.32915   0.33234   0.35290   0.36906   0.37312
 Alpha virt. eigenvalues --    0.38190   0.39128   0.39279   0.41183   0.41457
 Alpha virt. eigenvalues --    0.43088   0.45256   0.45925   0.48364   0.51353
 Alpha virt. eigenvalues --    0.55524   0.61362   0.62231   0.68834   0.70980
 Alpha virt. eigenvalues --    0.71582   0.72134   0.74525   0.74878   0.75806
 Alpha virt. eigenvalues --    0.76711   0.77550   0.78915   0.80072   0.82361
 Alpha virt. eigenvalues --    0.83235   0.84129   0.87131   0.87490   0.89303
 Alpha virt. eigenvalues --    0.89437   0.92204   0.94490   0.98369   0.98941
 Alpha virt. eigenvalues --    1.01558   1.03002   1.05676   1.06941   1.08104
 Alpha virt. eigenvalues --    1.08486   1.11256   1.12723   1.14423   1.16285
 Alpha virt. eigenvalues --    1.17142   1.18110   1.20434   1.24492   1.25905
 Alpha virt. eigenvalues --    1.27263   1.29123   1.32230   1.34548   1.45864
 Alpha virt. eigenvalues --    1.46755   1.48398   1.53726   1.67410   1.68640
 Alpha virt. eigenvalues --    1.74172   1.77546   1.79542   1.84548   1.87412
 Alpha virt. eigenvalues --    1.89882   1.90847   1.94405   1.96161   1.97741
 Alpha virt. eigenvalues --    2.01572   2.06530   2.08238   2.10397   2.12003
 Alpha virt. eigenvalues --    2.15983   2.18222   2.21032   2.22459   2.23843
 Alpha virt. eigenvalues --    2.28238   2.30202   2.30475   2.33058   2.36313
 Alpha virt. eigenvalues --    2.38679   2.40387   2.42585   2.46668   2.47940
 Alpha virt. eigenvalues --    2.50071   2.50197   2.52640   2.55307   2.56488
 Alpha virt. eigenvalues --    2.57255   2.57558   2.61147   2.62003   2.62794
 Alpha virt. eigenvalues --    2.65772   2.67256   2.68294   2.68524   2.69438
 Alpha virt. eigenvalues --    2.71223   2.72484   2.73478   2.74678   2.75647
 Alpha virt. eigenvalues --    2.77503   2.79130   2.81080   2.83786   2.84822
 Alpha virt. eigenvalues --    2.85563   2.88442   2.91287   2.93207   2.94732
 Alpha virt. eigenvalues --    2.97195   2.98399   2.99510   3.01924   3.03614
 Alpha virt. eigenvalues --    3.07634   3.08023   3.08454   3.09598   3.12446
 Alpha virt. eigenvalues --    3.16062   3.19295   3.21133   3.24208   3.25140
 Alpha virt. eigenvalues --    3.29688   3.31534   3.35699   3.42165   3.49029
 Alpha virt. eigenvalues --    3.55239   3.59692   3.70837   3.74181   3.74765
 Alpha virt. eigenvalues --    3.80160   3.81444   4.45948   4.47220   4.50042
 Alpha virt. eigenvalues --    4.55404   4.61301   4.63521   4.71668   4.77374
 Alpha virt. eigenvalues --    4.91951   4.92748   4.96836   5.12895   5.16373
 Alpha virt. eigenvalues --    5.31577   5.55409   5.97904   6.81952   6.82853
 Alpha virt. eigenvalues --    6.92338   7.00111   7.13254   9.73835   9.82765
 Alpha virt. eigenvalues --    9.86265   9.86948   9.87741   9.91007   9.94061
 Alpha virt. eigenvalues --    9.96412  10.00410  10.00718  10.11876  10.13228
 Alpha virt. eigenvalues --   10.19022  10.19825  10.23552  10.25107  10.26864
 Alpha virt. eigenvalues --   10.29785  10.30819  10.32208  10.36040  10.38928
 Alpha virt. eigenvalues --   10.39925  10.41576  10.43816  10.44221  10.51091
 Alpha virt. eigenvalues --   10.57931  10.58261  10.63597  10.71098  10.82291
 Alpha virt. eigenvalues --   10.85941  12.85321  12.96101  12.98152  13.18188
 Alpha virt. eigenvalues --   13.27082  13.31870  13.34450  13.35659  13.44701
 Alpha virt. eigenvalues --   13.45793  13.49950  13.60073  13.65145  13.74597
 Alpha virt. eigenvalues --   13.77131  13.90900  13.95044  14.13555  14.32349
 Alpha virt. eigenvalues --   17.73645  17.74994  18.15142  18.41125  18.52353
 Alpha virt. eigenvalues --   18.55531  50.02353  52.51369  52.56380  52.66829
 Alpha virt. eigenvalues --   70.16035 136.06094 137.04745 138.86867 139.58223
 Alpha virt. eigenvalues --  139.73728 139.77495 481.32397
          Condensed to atoms (all electrons):
               1          2          3          4          5          6
     1  P    0.007402  -0.002701  -0.000474  -0.000193  -0.000604  -0.000237
     2  O   -0.002701   0.006217  -0.000998   0.000089  -0.001805  -0.000040
     3  O   -0.000474  -0.000998   0.004428  -0.000829   0.000957  -0.000203
     4  H   -0.000193   0.000089  -0.000829   0.000478  -0.000265   0.000038
     5  O   -0.000604  -0.001805   0.000957  -0.000265   0.004184  -0.000636
     6  H   -0.000237  -0.000040  -0.000203   0.000038  -0.000636   0.000388
     7  O   -0.009888   0.003245  -0.005304   0.001208  -0.005439   0.001043
     8  H    0.010643  -0.004582   0.002788  -0.000707   0.004435  -0.000401
     9  O   -0.019583   0.009421  -0.003050   0.000674  -0.002617   0.000154
    10  H    0.002638  -0.000435   0.000233  -0.000094   0.000110  -0.000005
    11  H    0.001359  -0.000175   0.000309  -0.000062   0.000366  -0.000011
    12  O   -0.003107   0.003353  -0.000047   0.000009  -0.000286   0.000003
    13  H   -0.000222   0.000505   0.000035  -0.000001  -0.000034  -0.000002
    14  H    0.002668  -0.003891  -0.000075  -0.000000   0.000362   0.000007
    15  O   -0.000078   0.000087   0.000005  -0.000001  -0.000002  -0.000000
    16  H    0.000273  -0.000297  -0.000011   0.000001   0.000007   0.000000
    17  H    0.000004  -0.000002   0.000000  -0.000000   0.000000  -0.000000
               7          8          9         10         11         12
     1  P   -0.009888   0.010643  -0.019583   0.002638   0.001359  -0.003107
     2  O    0.003245  -0.004582   0.009421  -0.000435  -0.000175   0.003353
     3  O   -0.005304   0.002788  -0.003050   0.000233   0.000309  -0.000047
     4  H    0.001208  -0.000707   0.000674  -0.000094  -0.000062   0.000009
     5  O   -0.005439   0.004435  -0.002617   0.000110   0.000366  -0.000286
     6  H    0.001043  -0.000401   0.000154  -0.000005  -0.000011   0.000003
     7  O    0.057921  -0.064920   0.091418  -0.006314  -0.010517   0.002347
     8  H   -0.064920   0.089810  -0.153393   0.011355   0.020293  -0.003743
     9  O    0.091418  -0.153393   8.101760   0.296237   0.284247   0.040202
    10  H   -0.006314   0.011355   0.296237   0.446223  -0.014001  -0.001434
    11  H   -0.010517   0.020293   0.284247  -0.014001   0.360683   0.009668
    12  O    0.002347  -0.003743   0.040202  -0.001434   0.009668   0.021302
    13  H   -0.000154  -0.000088  -0.000194   0.000533   0.000013  -0.002583
    14  H   -0.000870   0.001870  -0.014465   0.000485  -0.004953  -0.010433
    15  O   -0.000006  -0.000005   0.000876   0.000083   0.000013   0.002078
    16  H   -0.000022   0.000096  -0.003335  -0.000187   0.000052  -0.005010
    17  H   -0.000001   0.000001  -0.000043   0.000005   0.000034  -0.000129
              13         14         15         16         17
     1  P   -0.000222   0.002668  -0.000078   0.000273   0.000004
     2  O    0.000505  -0.003891   0.000087  -0.000297  -0.000002
     3  O    0.000035  -0.000075   0.000005  -0.000011   0.000000
     4  H   -0.000001  -0.000000  -0.000001   0.000001  -0.000000
     5  O   -0.000034   0.000362  -0.000002   0.000007   0.000000
     6  H   -0.000002   0.000007  -0.000000   0.000000  -0.000000
     7  O   -0.000154  -0.000870  -0.000006  -0.000022  -0.000001
     8  H   -0.000088   0.001870  -0.000005   0.000096   0.000001
     9  O   -0.000194  -0.014465   0.000876  -0.003335  -0.000043
    10  H    0.000533   0.000485   0.000083  -0.000187   0.000005
    11  H    0.000013  -0.004953   0.000013   0.000052   0.000034
    12  O   -0.002583  -0.010433   0.002078  -0.005010  -0.000129
    13  H    0.004861  -0.001611   0.000377  -0.001186  -0.000010
    14  H   -0.001611   0.008960  -0.000810   0.002345   0.000034
    15  O    0.000377  -0.000810   0.001976  -0.003044  -0.000252
    16  H   -0.001186   0.002345  -0.003044   0.005631   0.000270
    17  H   -0.000010   0.000034  -0.000252   0.000270   0.000070
 Mulliken charges:
               1
     1  P    0.012100
     2  O   -0.007992
     3  O    0.002238
     4  H   -0.000344
     5  O    0.001265
     6  H   -0.000099
     7  O   -0.053747
     8  H    0.086548
     9  O   -0.628308
    10  H    0.264568
    11  H    0.352684
    12  O   -0.052189
    13  H   -0.000241
    14  H    0.020377
    15  O   -0.001295
    16  H    0.004418
    17  H    0.000019
 Sum of Mulliken charges =  -0.00000
 Mulliken charges with hydrogens summed into heavy atoms:
               1
     1  P    0.012100
     2  O   -0.007992
[...]

 **********************************************************************

            Population analysis using the SCF density.

 **********************************************************************

 Alpha  occ. eigenvalues --  -19.62599  -1.13272  -0.60789  -0.47409  -0.39964
 Alpha virt. eigenvalues --    0.06253   0.13304   0.17395   0.17951   0.18942
 Alpha virt. eigenvalues --    0.23257   0.50988   0.53415   0.97885   1.00265
 Alpha virt. eigenvalues --    1.06039   1.18795   1.19802   1.32518   1.33929
 Alpha virt. eigenvalues --    1.69351   1.73992   1.75774   2.07438   2.09369
 Alpha virt. eigenvalues --    2.35126   2.42248   2.54253   2.88277   3.00961
 Alpha virt. eigenvalues --    5.05677   5.47423   5.92400   6.78239   6.80319
 Alpha virt. eigenvalues --    6.87046   6.91461   7.09691  49.95743
          Condensed to atoms (all electrons):
              12         13         14
    12  O    7.916768   0.322674   0.318874
    13  H    0.322674   0.424300  -0.024424
    14  H    0.318874  -0.024424   0.424684
 Mulliken charges:
               1
     1  P    0.000000
     2  O    0.000000
     3  O    0.000000
     4  H    0.000000
     5  O    0.000000
     6  H    0.000000
     7  O    0.000000
     8  H    0.000000
     9  O    0.000000
    10  H    0.000000
    11  H    0.000000
    12  O   -0.558316
    13  H    0.277450
    14  H    0.280865
    15  O    0.000000
    16  H    0.000000
    17  H    0.000000
 Sum of Mulliken charges =   0.00000
 Mulliken charges with hydrogens summed into heavy atoms:
               1
     1  P    0.000000
     2  O    0.000000
     3  O    0.000000
     5  O    0.000000
     7  O    0.000000
     9  O    0.000000
    12  O    0.000000
    15  O    0.000000
         Mulliken charges condensed to fragments:
      1      0.000000
      2      0.000000
      3      0.000000
      4      0.000000
 Electronic spatial extent (au):  <R**2>=          11018.6094
 Charge=              0.0000 electrons
 Dipole moment (field-independent basis, Debye):
    X=             -0.4811    Y=             -1.4182    Z=             -1.4872  Tot=              2.1105
 Quadrupole moment (field-independent basis, Debye-Ang):
   XX=            -16.4862   YY=            -41.6008   ZZ=            -28.0666
   XY=            -18.6276   XZ=            -17.8865   YZ=            -30.6452
 Traceless Quadrupole moment (field-independent basis, Debye-Ang):
   XX=             12.2317   YY=            -12.8829   ZZ=              0.6512
   XY=            -18.6276   XZ=            -17.8865   YZ=            -30.6452
 Octapole moment (field-independent basis, Debye-Ang**2):
  XXX=           -336.4264  YYY=           -900.5995  ZZZ=           -384.4697  XYY=           -448.1172
  XXY=           -319.8495  XXZ=           -261.7527  XZZ=           -295.1289  YZZ=           -453.2843
  YYZ=           -581.0541  XYZ=           -331.3515
 Hexadecapole moment (field-independent basis, Debye-Ang**3):
 XXXX=          -5515.2041 YYYY=         -17118.2289 ZZZZ=          -4579.0509 XXXY=          -5247.9076
 XXXZ=          -3868.0718 YYYX=          -9062.1663 YYYZ=         -10370.3096 ZZZX=          -3861.8921
 ZZZY=          -5676.0919 XXYY=          -5963.0106 XXZZ=          -3506.0230 YYZZ=          -7313.3140
 XXYZ=          -4247.7073 YYXZ=          -5932.3488 ZZXY=          -4609.1448
 N-N= 9.093048844791D+00 E-N=-1.990365092392D+02  KE= 7.619139583328D+01
 No NMR shielding tensors so no spin-rotation constants.
 Leave Link  601 at Sat Dec 17 23:03:05 2022, MaxMem= 13421772800 cpu:               1.8 elap:               0.1
 (Enter /data0/home/software/g16/l122.exe)
 CPIOFr:  IOpCl= 0 IRwI=-1 IRwCP=  731 ICalc=  7 LCPTot=      120517 Len1MO=      315166 IndFrg=     2641845
 Counterpoise: doing calculation for fragment   4 using the basis set of the fragment.
 Leave Link  122 at Sat Dec 17 23:03:05 2022, MaxMem= 13421772800 cpu:               0.1 elap:               0.0
 (Enter /data0/home/software/g16/l301.exe)
 Basis read from rwf:  (5D, 7F)
 No pseudopotential information found on rwf file.
    39 basis functions,    58 primitive gaussians,    41 cartesian basis functions
     5 alpha electrons        5 beta electrons
       nuclear repulsion energy         9.1456804406 Hartrees.
 IExCor= 4336 DFT=T Ex+Corr=M062X ExCW=0 ScaHFX=  0.540000
 ScaDFX=  1.000000  1.000000  1.000000  1.000000 ScalE2=  1.000000  1.000000
 IRadAn=      5 IRanWt=     -1 IRanGd=            0 ICorTp=0 IEmpDi=131
 NAtoms=   17 NActive=    3 NUniq=    3 SFac= 1.00D+00 NAtFMM=   60 NAOKFM=F Big=F
 Integral buffers will be    131072 words long.
 Raffenetti 2 integral format.
 Two-electron integral symmetry is turned off.
 R6Disp:  Grimme-D3 Dispersion energy=       -0.0000000081 Hartrees.
 Nuclear repulsion after empirical dispersion term =        9.1456804325 Hartrees.
 No density basis found on file   718.
 Leave Link  301 at Sat Dec 17 23:03:05 2022, MaxMem= 13421772800 cpu:               1.3 elap:               0.1
 (Enter /data0/home/software/g16/l302.exe)
 NPDir=0 NMtPBC=     1 NCelOv=     1 NCel=       1 NClECP=     1 NCelD=      1
         NCelK=      1 NCelE2=     1 NClLst=     1 CellRange=     0.0.
 One-electron integrals computed using PRISM.
 NBasis=    39 RedAO= T EigKep=  3.07D-03  NBF=    39
 NBsUse=    39 1.00D-06 EigRej= -1.00D+00 NBFU=    39
 Precomputing XC quadrature grid using
 IXCGrd= 4 IRadAn=           5 IRanWt=          -1 IRanGd=           0 AccXCQ= 0.00D+00.
 Generated NRdTot=       0 NPtTot=           0 NUsed=           0 NTot=          32
 NSgBfM=    41    41    41    41    41 MxSgAt=     3 MxSgA2=     3.
 Leave Link  302 at Sat Dec 17 23:03:06 2022, MaxMem= 13421772800 cpu:               2.3 elap:               0.1
 (Enter /data0/home/software/g16/l303.exe)
 DipDrv:  MaxL=1.
 Leave Link  303 at Sat Dec 17 23:03:06 2022, MaxMem= 13421772800 cpu:               0.4 elap:               0.0
 (Enter /data0/home/software/g16/l401.exe)
 ExpMin= 8.45D-02 ExpMax= 8.59D+03 ExpMxC= 1.30D+03 IAcc=3 IRadAn=         5 AccDes= 0.00D+00
 Harris functional with IExCor= 1009 and IRadAn=       5 diagonalized for initial guess.
 HarFok:  IExCor= 1009 AccDes= 0.00D+00 IRadAn=         5 IDoV= 1 UseB2=F ITyADJ=14
 ICtDFT=  3500011 ScaDFX=  1.000000  1.000000  1.000000  1.000000
 FoFCou: FMM=F IPFlag=           0 FMFlag=      100000 FMFlg1=           0
         NFxFlg=           0 DoJE=T BraDBF=F KetDBF=T FulRan=T
         wScrn=  0.000000 ICntrl=       500 IOpCl=  0 I1Cent=   200000004 NGrid=           0
         NMat0=    1 NMatS0=      1 NMatT0=    0 NMatD0=    1 NMtDS0=    0 NMtDT0=    0
 Symmetry not used in FoFCou.
 Harris En= -76.4171037288971    
 JPrj=0 DoOrth=F DoCkMO=F.
 Leave Link  401 at Sat Dec 17 23:03:06 2022, MaxMem= 13421772800 cpu:               2.9 elap:               0.1
 (Enter /data0/home/software/g16/l502.exe)
 Keep R1 ints in memory in canonical form, NReq=21038482.
 FoFCou: FMM=F IPFlag=           0 FMFlag=           0 FMFlg1=           0
         NFxFlg=           0 DoJE=F BraDBF=F KetDBF=F FulRan=T
         wScrn=  0.000000 ICntrl=       600 IOpCl=  0 I1Cent=           0 NGrid=           0
         NMat0=    1 NMatS0=    780 NMatT0=    0 NMatD0=    1 NMtDS0=    0 NMtDT0=    0
 Symmetry not used in FoFCou.
 Two-electron integral symmetry not used.
 Closed shell SCF:
 Using DIIS extrapolation, IDIIS=  1040.
 NGot= 13421772800 LenX= 13421462960 LenY= 13421460838
 Requested convergence on RMS density matrix=1.00D-08 within 128 cycles.
 Requested convergence on MAX density matrix=1.00D-06.
 Requested convergence on             energy=1.00D-06.
 No special actions if energy rises.
 Integral accuracy reduced to 1.0D-05 until final iterations.

 Cycle   1  Pass 0  IDiag  1:
 E= -76.3456609678024    
 DIIS: error= 7.09D-02 at cycle   1 NSaved=   1.
 NSaved= 1 IEnMin= 1 EnMin= -76.3456609678024     IErMin= 1 ErrMin= 7.09D-02
 ErrMax= 7.09D-02  0.00D+00 EMaxC= 1.00D-01 BMatC= 1.22D-01 BMatP= 1.22D-01
 IDIUse=3 WtCom= 2.91D-01 WtEn= 7.09D-01
 Coeff-Com:  0.100D+01
 Coeff-En:   0.100D+01
 Coeff:      0.100D+01
 Gap=     0.326 Goal=   None    Shift=    0.000
 GapD=    0.326 DampG=1.000 DampE=0.500 DampFc=0.5000 IDamp=-1.
 Damping current iteration by 5.00D-01
 RMSDP=7.84D-03 MaxDP=1.02D-01              OVMax= 1.69D-01

 Cycle   2  Pass 0  IDiag  1:
 E= -76.3775723643442     Delta-E=       -0.031911396542 Rises=F Damp=T
 DIIS: error= 1.16D-02 at cycle   2 NSaved=   2.
 NSaved= 2 IEnMin= 2 EnMin= -76.3775723643442     IErMin= 2 ErrMin= 1.16D-02
 ErrMax= 1.16D-02  0.00D+00 EMaxC= 1.00D-01 BMatC= 4.77D-03 BMatP= 1.22D-01
 IDIUse=3 WtCom= 8.84D-01 WtEn= 1.16D-01
 Coeff-Com:  0.796D-01 0.920D+00
 Coeff-En:   0.183D+00 0.817D+00
 Coeff:      0.917D-01 0.908D+00
 Gap=     0.459 Goal=   None    Shift=    0.000
 RMSDP=9.26D-04 MaxDP=1.37D-02 DE=-3.19D-02 OVMax= 1.01D-01

 Cycle   3  Pass 0  IDiag  1:
 E= -76.4217683708837     Delta-E=       -0.044196006539 Rises=F Damp=F
 DIIS: error= 2.19D-03 at cycle   3 NSaved=   3.
 NSaved= 3 IEnMin= 3 EnMin= -76.4217683708837     IErMin= 3 ErrMin= 2.19D-03
 ErrMax= 2.19D-03  0.00D+00 EMaxC= 1.00D-01 BMatC= 9.13D-05 BMatP= 4.77D-03
 IDIUse=3 WtCom= 9.78D-01 WtEn= 2.19D-02
 Coeff-Com: -0.200D-01 0.398D-01 0.980D+00
 Coeff-En:   0.000D+00 0.000D+00 0.100D+01
 Coeff:     -0.195D-01 0.389D-01 0.981D+00
 Gap=     0.463 Goal=   None    Shift=    0.000
 RMSDP=1.15D-04 MaxDP=9.88D-04 DE=-4.42D-02 OVMax= 3.28D-03

 Cycle   4  Pass 0  IDiag  1:
 E= -76.4218458243223     Delta-E=       -0.000077453439 Rises=F Damp=F
 DIIS: error= 4.07D-04 at cycle   4 NSaved=   4.
 NSaved= 4 IEnMin= 4 EnMin= -76.4218458243223     IErMin= 4 ErrMin= 4.07D-04
 ErrMax= 4.07D-04  0.00D+00 EMaxC= 1.00D-01 BMatC= 3.27D-06 BMatP= 9.13D-05
 IDIUse=3 WtCom= 9.96D-01 WtEn= 4.07D-03
 Coeff-Com: -0.190D-02-0.209D-02 0.164D+00 0.840D+00
 Coeff-En:   0.000D+00 0.000D+00 0.000D+00 0.100D+01
 Coeff:     -0.189D-02-0.208D-02 0.163D+00 0.841D+00
 Gap=     0.464 Goal=   None    Shift=    0.000
 RMSDP=2.19D-05 MaxDP=3.49D-04 DE=-7.75D-05 OVMax= 5.23D-04

 Cycle   5  Pass 0  IDiag  1:
 E= -76.4218478254518     Delta-E=       -0.000002001130 Rises=F Damp=F
 DIIS: error= 8.78D-05 at cycle   5 NSaved=   5.
 NSaved= 5 IEnMin= 5 EnMin= -76.4218478254518     IErMin= 5 ErrMin= 8.78D-05
 ErrMax= 8.78D-05  0.00D+00 EMaxC= 1.00D-01 BMatC= 8.14D-08 BMatP= 3.27D-06
 IDIUse=1 WtCom= 1.00D+00 WtEn= 0.00D+00
 Coeff-Com:  0.115D-02-0.176D-02-0.358D-01-0.674D-01 0.110D+01
 Coeff:      0.115D-02-0.176D-02-0.358D-01-0.674D-01 0.110D+01
 Gap=     0.464 Goal=   None    Shift=    0.000
 RMSDP=8.89D-06 MaxDP=1.03D-04 DE=-2.00D-06 OVMax= 1.97D-04

 Initial convergence to 1.0D-05 achieved.  Increase integral accuracy.
 Cycle   6  Pass 1  IDiag  1:
 E= -76.4218475805229     Delta-E=        0.000000244929 Rises=F Damp=F
 DIIS: error= 1.63D-05 at cycle   1 NSaved=   1.
 NSaved= 1 IEnMin= 1 EnMin= -76.4218475805229     IErMin= 1 ErrMin= 1.63D-05
 ErrMax= 1.63D-05  0.00D+00 EMaxC= 1.00D-01 BMatC= 8.95D-09 BMatP= 8.95D-09
 IDIUse=1 WtCom= 1.00D+00 WtEn= 0.00D+00
 Coeff-Com:  0.100D+01
 Coeff:      0.100D+01
 Gap=     0.464 Goal=   None    Shift=    0.000
 RMSDP=8.89D-06 MaxDP=1.03D-04 DE= 2.45D-07 OVMax= 4.10D-05

 Cycle   7  Pass 1  IDiag  1:
 E= -76.4218475881171     Delta-E=       -0.000000007594 Rises=F Damp=F
 DIIS: error= 6.24D-06 at cycle   2 NSaved=   2.
 NSaved= 2 IEnMin= 2 EnMin= -76.4218475881171     IErMin= 2 ErrMin= 6.24D-06
 ErrMax= 6.24D-06  0.00D+00 EMaxC= 1.00D-01 BMatC= 6.07D-10 BMatP= 8.95D-09
 IDIUse=1 WtCom= 1.00D+00 WtEn= 0.00D+00
 Coeff-Com:  0.301D-01 0.970D+00
 Coeff:      0.301D-01 0.970D+00
 Gap=     0.464 Goal=   None    Shift=    0.000
 RMSDP=5.99D-07 MaxDP=9.30D-06 DE=-7.59D-09 OVMax= 1.49D-05

 Cycle   8  Pass 1  IDiag  1:
 E= -76.4218475883402     Delta-E=       -0.000000000223 Rises=F Damp=F
 DIIS: error= 4.63D-06 at cycle   3 NSaved=   3.
 NSaved= 3 IEnMin= 3 EnMin= -76.4218475883402     IErMin= 3 ErrMin= 4.63D-06
 ErrMax= 4.63D-06  0.00D+00 EMaxC= 1.00D-01 BMatC= 5.71D-10 BMatP= 6.07D-10
 IDIUse=1 WtCom= 1.00D+00 WtEn= 0.00D+00
 Coeff-Com: -0.487D-01 0.511D+00 0.538D+00
 Coeff:     -0.487D-01 0.511D+00 0.538D+00
 Gap=     0.464 Goal=   None    Shift=    0.000
 RMSDP=2.89D-07 MaxDP=3.55D-06 DE=-2.23D-10 OVMax= 7.13D-06

 Cycle   9  Pass 1  IDiag  1:
 E= -76.4218475887253     Delta-E=       -0.000000000385 Rises=F Damp=F
 DIIS: error= 6.21D-07 at cycle   4 NSaved=   4.
 NSaved= 4 IEnMin= 4 EnMin= -76.4218475887253     IErMin= 4 ErrMin= 6.21D-07
 ErrMax= 6.21D-07  0.00D+00 EMaxC= 1.00D-01 BMatC= 4.72D-12 BMatP= 5.71D-10
 IDIUse=1 WtCom= 1.00D+00 WtEn= 0.00D+00
 Coeff-Com: -0.114D-02-0.619D-01 0.253D-02 0.106D+01
 Coeff:     -0.114D-02-0.619D-01 0.253D-02 0.106D+01
 Gap=     0.464 Goal=   None    Shift=    0.000
 RMSDP=8.68D-08 MaxDP=6.30D-07 DE=-3.85D-10 OVMax= 1.66D-06

 Cycle  10  Pass 1  IDiag  1:
 E= -76.4218475887341     Delta-E=       -0.000000000009 Rises=F Damp=F
 DIIS: error= 8.19D-08 at cycle   5 NSaved=   5.
 NSaved= 5 IEnMin= 5 EnMin= -76.4218475887341     IErMin= 5 ErrMin= 8.19D-08
 ErrMax= 8.19D-08  0.00D+00 EMaxC= 1.00D-01 BMatC= 2.24D-13 BMatP= 4.72D-12
 IDIUse=1 WtCom= 1.00D+00 WtEn= 0.00D+00
 Coeff-Com:  0.342D-02-0.452D-01-0.367D-01 0.120D+00 0.959D+00
 Coeff:      0.342D-02-0.452D-01-0.367D-01 0.120D+00 0.959D+00
 Gap=     0.464 Goal=   None    Shift=    0.000
 RMSDP=2.18D-08 MaxDP=1.62D-07 DE=-8.78D-12 OVMax= 4.46D-07

 Cycle  11  Pass 1  IDiag  1:
 E= -76.4218475887346     Delta-E=       -0.000000000001 Rises=F Damp=F
 DIIS: error= 6.27D-09 at cycle   6 NSaved=   6.
 NSaved= 6 IEnMin= 6 EnMin= -76.4218475887346     IErMin= 6 ErrMin= 6.27D-09
 ErrMax= 6.27D-09  0.00D+00 EMaxC= 1.00D-01 BMatC= 1.49D-15 BMatP= 2.24D-13
 IDIUse=1 WtCom= 1.00D+00 WtEn= 0.00D+00
 Coeff-Com: -0.122D-03 0.268D-02 0.143D-02-0.193D-01-0.509D-01 0.107D+01
 Coeff:     -0.122D-03 0.268D-02 0.143D-02-0.193D-01-0.509D-01 0.107D+01
 Gap=     0.464 Goal=   None    Shift=    0.000
 RMSDP=2.42D-09 MaxDP=2.56D-08 DE=-5.83D-13 OVMax= 4.75D-08

 SCF Done:  E(RM062X) =  -76.4218475887     A.U. after   11 cycles
            NFock= 11  Conv=0.24D-08     -V/T= 2.0028
 KE= 7.621027840354D+01 PE=-1.991515563297D+02 EE= 3.737374990498D+01
 Leave Link  502 at Sat Dec 17 23:03:06 2022, MaxMem= 13421772800 cpu:               8.7 elap:               0.4
 (Enter /data0/home/software/g16/l601.exe)
 Copying SCF densities to generalized density rwf, IOpCl= 0 IROHF=0.

 **********************************************************************

            Population analysis using the SCF density.

 **********************************************************************

 Alpha  occ. eigenvalues --  -19.62454  -1.13446  -0.61278  -0.47244  -0.39984
 Alpha virt. eigenvalues --    0.06396   0.13387   0.17356   0.17950   0.18984
 Alpha virt. eigenvalues --    0.23106   0.51628   0.53647   0.97620   1.00139
 Alpha virt. eigenvalues --    1.06073   1.19696   1.19738   1.33045   1.33610
 Alpha virt. eigenvalues --    1.68901   1.74037   1.76414   2.07748   2.09787
 Alpha virt. eigenvalues --    2.34123   2.45103   2.54061   2.89561   3.01452
 Alpha virt. eigenvalues --    5.05764   5.47232   5.95681   6.78029   6.80489
 Alpha virt. eigenvalues --    6.86518   6.91706   7.09367  49.96494
          Condensed to atoms (all electrons):
              15         16         17
    15  O    7.910848   0.323213   0.326495
    16  H    0.323213   0.420193  -0.025186
    17  H    0.326495  -0.025186   0.419914
 Mulliken charges:
               1
     1  P    0.000000
     2  O    0.000000
     3  O    0.000000
     4  H    0.000000
     5  O    0.000000
     6  H    0.000000
     7  O    0.000000
     8  H    0.000000
     9  O    0.000000
    10  H    0.000000
    11  H    0.000000
    12  O    0.000000
    13  H    0.000000
    14  H    0.000000
    15  O   -0.560556
    16  H    0.281780
    17  H    0.278776
 Sum of Mulliken charges =   0.00000
 Mulliken charges with hydrogens summed into heavy atoms:
               1
     1  P    0.000000
     2  O    0.000000
     3  O    0.000000
     5  O    0.000000
     7  O    0.000000
     9  O    0.000000
    12  O    0.000000
    15  O    0.000000
         Mulliken charges condensed to fragments:
      1      0.000000
      2      0.000000
      3      0.000000
      4      0.000000
 Electronic spatial extent (au):  <R**2>=          12875.0814
 Charge=              0.0000 electrons
 Dipole moment (field-independent basis, Debye):
    X=             -0.0999    Y=              0.4526    Z=             -2.0332  Tot=              2.0854
 Quadrupole moment (field-independent basis, Debye-Ang):
   XX=             -7.6885   YY=              6.8267   ZZ=            -45.5709
   XY=              0.5605   XZ=            -17.7007   YZ=            -24.3298
 Traceless Quadrupole moment (field-independent basis, Debye-Ang):
   XX=              7.7891   YY=             22.3042   ZZ=            -30.0933
   XY=              0.5605   XZ=            -17.7007   YZ=            -24.3298
 Octapole moment (field-independent basis, Debye-Ang**2):
  XXX=           -165.9781  YYY=             17.4160  ZZZ=           -752.6687  XYY=            -12.6087
  XXY=           -106.3875  XXZ=           -212.6938  XZZ=           -382.8773  YZZ=           -601.7909
  YYZ=           -339.9269  XYZ=           -230.4033
 Hexadecapole moment (field-independent basis, Debye-Ang**3):
 XXXX=          -2570.8317 YYYY=          -2093.1042 ZZZZ=         -10906.9914 XXXY=          -2438.4848
 XXXZ=          -2753.3963 YYYX=          -1159.3565 YYYZ=          -5581.2853 ZZZX=          -6240.6315
 ZZZY=         -10238.0076 XXYY=          -1866.2434 XXZZ=          -3795.1306 YYZZ=          -8480.5341
 XXYZ=          -2974.9334 YYXZ=          -3450.1646 ZZXY=          -5218.7498
 N-N= 9.145680432479D+00 E-N=-1.991515563323D+02  KE= 7.621027840354D+01
 No NMR shielding tensors so no spin-rotation constants.
 Leave Link  601 at Sat Dec 17 23:03:06 2022, MaxMem= 13421772800 cpu:               1.8 elap:               0.1
 (Enter /data0/home/software/g16/l122.exe)
 CPIOFr:  IOpCl= 0 IRwI=-1 IRwCP=  731 ICalc=  8 LCPTot=      120517 Len1MO=      315166 IndFrg=     2957011
 Restoring MOs from calculation   1 to rwf.
 CPIOFr:  IOpCl= 0 IRwI=-2 IRwCP=  731 ICalc=  0 LCPTot=      120517 Len1MO=      315166 IndFrg=      435683
 Counterpoise corrected energy =    -873.463987505760
                   BSSE energy =       0.003735911634
              sum of fragments =    -873.414763196542
           complexation energy =     -33.23 kcal/mole (raw)
           complexation energy =     -30.89 kcal/mole (corrected)
 Leave Link  122 at Sat Dec 17 23:03:06 2022, MaxMem= 13421772800 cpu:               0.2 elap:               0.0
 (Enter /data0/home/software/g16/l9999.exe)
 1\1\GINC-LOCALHOST\SP\RM062X\6-311+G(2d,p)\H9O7P1\WUHANYU\17-Dec-2022\
 0\\#p M062X/6-311+G(2d,p) nosymm em=GD3 counterpoise=4\\Title Card Req
 uired\\0,1\P,0,9.413813,8.816127,8.090691\O,0,8.608246,10.045547,8.064
 532\O,0,9.109237,7.776393,9.24323\H,0,9.074463,8.301755,10.16682\O,0,9
 .165128,7.9479,6.780038\H,0,9.735893,7.089734,6.866354\O,0,10.995854,8
 .963474,8.125328\H,0,11.273483,9.946037,8.313078\O,0,11.800036,11.6431
 24,8.70156\H,0,11.777571,11.742316,9.658569\H,0,11.050758,12.161268,8.
 377826\O,0,9.371413,12.779511,7.698174\H,0,9.412348,12.899635,6.749854
 \H,0,9.058995,11.859174,7.817931\O,0,8.032453,14.185749,9.75806\H,0,8.
 539685,13.778797,9.036095\H,0,7.473968,14.839972,9.348873\\Version=ES6
 4L-G16RevA.03\HF=-76.4218476\RMSD=2.424e-09\Dipole=0.5393727,-0.555846
 7,-0.2014132\Quadrupole=16.5078505,-15.9999578,-0.5078927,-0.7308889,7
 .8535395,-20.4954871\PG=C01 [X(H9O7P1)]\\@


 Statistics are no substitute for judgment.
                            -- Henry Clay
 Job cpu time:       0 days  0 hours 25 minutes 59.0 seconds.
 Elapsed time:       0 days  0 hours  1 minutes  8.2 seconds.
 File lengths (MBytes):  RWF=     75 Int=      0 D2E=      0 Chk=     28 Scr=      1
 Normal termination of Gaussian 16 at Sat Dec 17 23:03:06 2022.
