 Entering Gaussian System, Link 0=g16
 Initial command:
 /data0/hywu0/study/g16/l1.exe "/data0/hywu0/study/g16/scratch/Gau-873323.inp" -scrdir="/data0/hywu0/study/g16/scratch/"
 Default is to use a total of   8 processors:
                                8 via shared-memory
                                1 via Linda
 Entering Link 1 = /data0/hywu0/study/g16/l1.exe PID=    873324.
  
 Copyright (c) 1988,1990,1992,1993,1995,1998,2003,2009,2016,
            Gaussian, Inc.  All Rights Reserved.
  
 This is part of the Gaussian(R) 16 program.  It is based on
 the Gaussian(R) 09 system (copyright 2009, Gaussian, Inc.),
 the Gaussian(R) 03 system (copyright 2003, Gaussian, Inc.),
 the Gaussian(R) 98 system (copyright 1998, Gaussian, Inc.),
 the Gaussian(R) 94 system (copyright 1995, Gaussian, Inc.),
 the Gaussian 92(TM) system (copyright 1992, Gaussian, Inc.),
 the Gaussian 90(TM) system (copyright 1990, Gaussian, Inc.),
 the Gaussian 88(TM) system (copyright 1988, Gaussian, Inc.),
 the Gaussian 86(TM) system (copyright 1986, Carnegie Mellon
 University), and the Gaussian 82(TM) system (copyright 1983,
 Carnegie Mellon University). Gaussian is a federally registered
 trademark of Gaussian, Inc.
  
 This software contains proprietary and confidential information,
 including trade secrets, belonging to Gaussian, Inc.
  
 This software is provided under written license and may be
 used, copied, transmitted, or stored only in accord with that
 written license.
  
 The following legend is applicable only to US Government
 contracts under FAR:
  
                    RESTRICTED RIGHTS LEGEND
  
 Use, reproduction and disclosure by the US Government is
 subject to restrictions as set forth in subparagraphs (a)
 and (c) of the Commercial Computer Software - Restricted
 Rights clause in FAR 52.227-19.
  
 Gaussian, Inc.
 340 Quinnipiac St., Bldg. 40, Wallingford CT 06492
  
  
 ---------------------------------------------------------------
 Warning -- This program may not be used in any manner that
 competes with the business of Gaussian, Inc. or will provide
 assistance to any competitor of Gaussian, Inc.  The licensee
 of this program is prohibited from giving any competitor of
 Gaussian, Inc. access to this program.  By using this program,
 the user acknowledges that Gaussian, Inc. is engaged in the
 business of creating and licensing software in the field of
 computational chemistry and represents and warrants to the
 licensee that it is not a competitor of Gaussian, Inc. and that
 it will not use this program in any manner prohibited above.
 ---------------------------------------------------------------
  

 Cite this work as:
 Gaussian 16, Revision A.03,
 M. J. Frisch, G. W. Trucks, H. B. Schlegel, G. E. Scuseria, 
 M. A. Robb, J. R. Cheeseman, G. Scalmani, V. Barone, 
 G. A. Petersson, H. Nakatsuji, X. Li, M. Caricato, A. V. Marenich, 
 J. Bloino, B. G. Janesko, R. Gomperts, B. Mennucci, H. P. Hratchian, 
 J. V. Ortiz, A. F. Izmaylov, J. L. Sonnenberg, D. Williams-Young, 
 F. Ding, F. Lipparini, F. Egidi, J. Goings, B. Peng, A. Petrone, 
 T. Henderson, D. Ranasinghe, V. G. Zakrzewski, J. Gao, N. Rega, 
 G. Zheng, W. Liang, M. Hada, M. Ehara, K. Toyota, R. Fukuda, 
 J. Hasegawa, M. Ishida, T. Nakajima, Y. Honda, O. Kitao, H. Nakai, 
 T. Vreven, K. Throssell, J. A. Montgomery, Jr., J. E. Peralta, 
 F. Ogliaro, M. J. Bearpark, J. J. Heyd, E. N. Brothers, K. N. Kudin, 
 V. N. Staroverov, T. A. Keith, R. Kobayashi, J. Normand, 
 K. Raghavachari, A. P. Rendell, J. C. Burant, S. S. Iyengar, 
 J. Tomasi, M. Cossi, J. M. Millam, M. Klene, C. Adamo, R. Cammi, 
 J. W. Ochterski, R. L. Martin, K. Morokuma, O. Farkas, 
 J. B. Foresman, and D. J. Fox, Gaussian, Inc., Wallingford CT, 2016.
 
 ******************************************
 Gaussian 16:  ES64L-G16RevA.03 25-Dec-2016
                10-Jul-2023 
 ******************************************
 %chk=PA.chk
 %nprocshared=16
 Will use up to   16 processors via shared memory.
 %mem=50GB
 ------------------------------------
 #p 6-311+g(2d,p) nosymm em=gd3 m062x
 ------------------------------------
 1/38=1,172=1/1;
 2/12=2,15=1,17=6,18=5,40=1/2;
 3/5=4,6=6,7=112,11=2,25=1,30=1,74=-55,124=31/1,2,3;
 4//1;
 5/5=2,38=5/2;
 6/7=2,8=2,9=2,10=2,28=1/1;
 99/5=1,9=1/99;
 Leave Link    1 at Mon Jul 10 19:13:33 2023, MaxMem=  6710886400 cpu:               0.5 elap:               0.0
 (Enter /data0/hywu0/study/g16/l101.exe)
 -------------------
 Title Card Required
 -------------------
 Symbolic Z-matrix:
 Charge =  0 Multiplicity = 1
 P                     6.32953   12.86153   12.47149 
 O                     7.10412   11.63432   12.25567 
 O                     4.76357   12.69224   12.26888 
 H                     4.56121   12.59895   11.22061 
 O                     6.46136   13.35025   13.98322 
 H                     5.90513   14.21654   14.07041 
 O                     6.76536   14.13395   11.63288 
 H                     6.47288   13.99228   10.61833 
 
 ITRead=  0  0  0  0  0  0  0  0
 MicOpt= -1 -1 -1 -1 -1 -1 -1 -1
 NAtoms=      8 NQM=        8 NQMF=       0 NMMI=      0 NMMIF=      0
                NMic=       0 NMicF=      0.
                    Isotopes and Nuclear Properties:
 (Nuclear quadrupole moments (NQMom) in fm**2, nuclear magnetic moments (NMagM)
  in nuclear magnetons)

  Atom         1           2           3           4           5           6           7           8
 IAtWgt=          31          16          16           1          16           1          16           1
 AtmWgt=  30.9737634  15.9949146  15.9949146   1.0078250  15.9949146   1.0078250  15.9949146   1.0078250
 NucSpn=           1           0           0           1           0           1           0           1
 AtZEff=  -0.0000000  -0.0000000  -0.0000000  -0.0000000  -0.0000000  -0.0000000  -0.0000000  -0.0000000
 NQMom=    0.0000000   0.0000000   0.0000000   0.0000000   0.0000000   0.0000000   0.0000000   0.0000000
 NMagM=    1.1316000   0.0000000   0.0000000   2.7928460   0.0000000   2.7928460   0.0000000   2.7928460
 AtZNuc=  15.0000000   8.0000000   8.0000000   1.0000000   8.0000000   1.0000000   8.0000000   1.0000000
 Leave Link  101 at Mon Jul 10 19:13:33 2023, MaxMem=  6710886400 cpu:               1.9 elap:               0.1
 (Enter /data0/hywu0/study/g16/l202.exe)
                          Input orientation:                          
 ---------------------------------------------------------------------
 Center     Atomic      Atomic             Coordinates (Angstroms)
 Number     Number       Type             X           Y           Z
 ---------------------------------------------------------------------
      1         15           0        6.329534   12.861526   12.471492
      2          8           0        7.104123   11.634319   12.255673
      3          8           0        4.763566   12.692243   12.268883
      4          1           0        4.561212   12.598947   11.220606
      5          8           0        6.461359   13.350253   13.983215
      6          1           0        5.905125   14.216538   14.070411
      7          8           0        6.765357   14.133946   11.632884
      8          1           0        6.472877   13.992277   10.618332
 ---------------------------------------------------------------------
                    Distance matrix (angstroms):
                    1          2          3          4          5
     1  P    0.000000
     2  O    1.467175   0.000000
     3  O    1.588069   2.568576   0.000000
     4  H    2.181886   2.910029   1.071698   0.000000
     5  O    1.594220   2.518328   2.500882   3.436136   0.000000
     6  H    2.138393   3.376200   2.621476   3.541764   1.033174
     7  O    1.585010   2.598223   2.547581   2.717434   2.496126
     8  H    2.175626   2.939273   2.708533   2.441017   3.425604
                    6          7          8
     6  H    0.000000
     7  O    2.586186   0.000000
     8  H    3.505636   1.065331   0.000000
 Symmetry turned off by external request.
 Stoichiometry    H3O4P
 Framework group  C1[X(H3O4P)]
 Deg. of freedom    18
 Full point group                 C1      NOp   1
 Rotational constants (GHZ):           4.5507752           4.5058486           4.4240696
 Leave Link  202 at Mon Jul 10 19:13:33 2023, MaxMem=  6710886400 cpu:               0.0 elap:               0.0
 (Enter /data0/hywu0/study/g16/l301.exe)
 Standard basis: 6-311+G(2d,p) (5D, 7F)
 Ernie: Thresh=  0.10000D-02 Tol=  0.10000D-05 Strict=F.
   161 basis functions,   248 primitive gaussians,   171 cartesian basis functions
    25 alpha electrons       25 beta electrons
       nuclear repulsion energy       279.7625784540 Hartrees.
 IExCor= 4336 DFT=T Ex+Corr=M062X ExCW=0 ScaHFX=  0.540000
 ScaDFX=  1.000000  1.000000  1.000000  1.000000 ScalE2=  1.000000  1.000000
 IRadAn=      5 IRanWt=     -1 IRanGd=            0 ICorTp=0 IEmpDi=131
 NAtoms=    8 NActive=    8 NUniq=    8 SFac= 1.00D+00 NAtFMM=   60 NAOKFM=F Big=F
 Integral buffers will be    131072 words long.
 Raffenetti 2 integral format.
 Two-electron integral symmetry is turned off.
 R6Disp:  Grimme-D3 Dispersion energy=       -0.0000436349 Hartrees.
 Nuclear repulsion after empirical dispersion term =      279.7625348190 Hartrees.
 Leave Link  301 at Mon Jul 10 19:13:33 2023, MaxMem=  6710886400 cpu:               0.7 elap:               0.1
 (Enter /data0/hywu0/study/g16/l302.exe)
 NPDir=0 NMtPBC=     1 NCelOv=     1 NCel=       1 NClECP=     1 NCelD=      1
         NCelK=      1 NCelE2=     1 NClLst=     1 CellRange=     0.0.
 One-electron integrals computed using PRISM.
 NBasis=   161 RedAO= T EigKep=  5.96D-04  NBF=   161
 NBsUse=   161 1.00D-06 EigRej= -1.00D+00 NBFU=   161
 Precomputing XC quadrature grid using
 IXCGrd= 4 IRadAn=           5 IRanWt=          -1 IRanGd=           0 AccXCQ= 0.00D+00.
 Generated NRdTot=       0 NPtTot=           0 NUsed=           0 NTot=          32
 NSgBfM=   171   171   171   171   171 MxSgAt=     8 MxSgA2=     8.
 Leave Link  302 at Mon Jul 10 19:13:33 2023, MaxMem=  6710886400 cpu:               2.1 elap:               0.1
 (Enter /data0/hywu0/study/g16/l303.exe)
 DipDrv:  MaxL=1.
 Leave Link  303 at Mon Jul 10 19:13:33 2023, MaxMem=  6710886400 cpu:               0.5 elap:               0.0
 (Enter /data0/hywu0/study/g16/l401.exe)
 ExpMin= 3.48D-02 ExpMax= 7.75D+04 ExpMxC= 2.65D+03 IAcc=3 IRadAn=         5 AccDes= 0.00D+00
 Harris functional with IExCor= 1009 and IRadAn=       5 diagonalized for initial guess.
 HarFok:  IExCor= 1009 AccDes= 0.00D+00 IRadAn=         5 IDoV= 1 UseB2=F ITyADJ=14
 ICtDFT=  3500011 ScaDFX=  1.000000  1.000000  1.000000  1.000000
 FoFCou: FMM=F IPFlag=           0 FMFlag=      100000 FMFlg1=           0
         NFxFlg=           0 DoJE=T BraDBF=F KetDBF=T FulRan=T
         wScrn=  0.000000 ICntrl=       500 IOpCl=  0 I1Cent=   200000004 NGrid=           0
         NMat0=    1 NMatS0=      1 NMatT0=    0 NMatD0=    1 NMtDS0=    0 NMtDT0=    0
 Symmetry not used in FoFCou.
 Harris En= -643.937460496016    
 JPrj=0 DoOrth=F DoCkMO=F.
 Leave Link  401 at Mon Jul 10 19:13:34 2023, MaxMem=  6710886400 cpu:               4.5 elap:               0.3
 (Enter /data0/hywu0/study/g16/l502.exe)
 Keep R1 ints in memory in canonical form, NReq=100986924.
 FoFCou: FMM=F IPFlag=           0 FMFlag=           0 FMFlg1=           0
         NFxFlg=           0 DoJE=F BraDBF=F KetDBF=F FulRan=T
         wScrn=  0.000000 ICntrl=       600 IOpCl=  0 I1Cent=           0 NGrid=           0
         NMat0=    1 NMatS0=  13041 NMatT0=    0 NMatD0=    1 NMtDS0=    0 NMtDT0=    0
 Symmetry not used in FoFCou.
 Two-electron integral symmetry not used.
 Closed shell SCF:
 Using DIIS extrapolation, IDIIS=  1040.
 NGot=  6710886400 LenX=  6625783546 LenY=  6625753864
 Requested convergence on RMS density matrix=1.00D-08 within 128 cycles.
 Requested convergence on MAX density matrix=1.00D-06.
 Requested convergence on             energy=1.00D-06.
 No special actions if energy rises.

 Cycle   1  Pass 1  IDiag  1:
 E= -643.839972694350    
 DIIS: error= 5.06D-02 at cycle   1 NSaved=   1.
 NSaved= 1 IEnMin= 1 EnMin= -643.839972694350     IErMin= 1 ErrMin= 5.06D-02
 ErrMax= 5.06D-02  0.00D+00 EMaxC= 1.00D-01 BMatC= 5.12D-01 BMatP= 5.12D-01
 IDIUse=3 WtCom= 4.94D-01 WtEn= 5.06D-01
 Coeff-Com:  0.100D+01
 Coeff-En:   0.100D+01
 Coeff:      0.100D+01
 Gap=     0.229 Goal=   None    Shift=    0.000
 GapD=    0.229 DampG=1.000 DampE=0.500 DampFc=0.5000 IDamp=-1.
 Damping current iteration by 5.00D-01
 RMSDP=8.09D-03 MaxDP=2.26D-01              OVMax= 2.78D-01

 Cycle   2  Pass 1  IDiag  1:
 E= -643.956768500502     Delta-E=       -0.116795806152 Rises=F Damp=T
 DIIS: error= 1.06D-02 at cycle   2 NSaved=   2.
 NSaved= 2 IEnMin= 2 EnMin= -643.956768500502     IErMin= 2 ErrMin= 1.06D-02
 ErrMax= 1.06D-02  0.00D+00 EMaxC= 1.00D-01 BMatC= 2.82D-02 BMatP= 5.12D-01
 IDIUse=3 WtCom= 8.94D-01 WtEn= 1.06D-01
 Coeff-Com:  0.791D-01 0.921D+00
 Coeff-En:   0.215D+00 0.785D+00
 Coeff:      0.935D-01 0.907D+00
 Gap=     0.333 Goal=   None    Shift=    0.000
 RMSDP=1.96D-03 MaxDP=7.39D-02 DE=-1.17D-01 OVMax= 1.83D-01

 Cycle   3  Pass 1  IDiag  1:
 E= -644.128538591606     Delta-E=       -0.171770091104 Rises=F Damp=F
 DIIS: error= 7.09D-03 at cycle   3 NSaved=   3.
 NSaved= 3 IEnMin= 3 EnMin= -644.128538591606     IErMin= 3 ErrMin= 7.09D-03
 ErrMax= 7.09D-03  0.00D+00 EMaxC= 1.00D-01 BMatC= 1.04D-02 BMatP= 2.82D-02
 IDIUse=3 WtCom= 9.29D-01 WtEn= 7.09D-02
 Coeff-Com: -0.116D-01 0.337D+00 0.675D+00
 Coeff-En:   0.000D+00 0.000D+00 0.100D+01
 Coeff:     -0.108D-01 0.313D+00 0.698D+00
 Gap=     0.323 Goal=   None    Shift=    0.000
 RMSDP=6.85D-04 MaxDP=1.52D-02 DE=-1.72D-01 OVMax= 3.57D-02

 Cycle   4  Pass 1  IDiag  1:
 E= -644.133160603387     Delta-E=       -0.004622011781 Rises=F Damp=F
 DIIS: error= 4.35D-03 at cycle   4 NSaved=   4.
 NSaved= 4 IEnMin= 4 EnMin= -644.133160603387     IErMin= 4 ErrMin= 4.35D-03
 ErrMax= 4.35D-03  0.00D+00 EMaxC= 1.00D-01 BMatC= 4.08D-03 BMatP= 1.04D-02
 IDIUse=3 WtCom= 9.56D-01 WtEn= 4.35D-02
 Coeff-Com: -0.206D-01 0.467D-01 0.405D+00 0.569D+00
 Coeff-En:   0.000D+00 0.000D+00 0.282D+00 0.718D+00
 Coeff:     -0.197D-01 0.447D-01 0.400D+00 0.575D+00
 Gap=     0.329 Goal=   None    Shift=    0.000
 RMSDP=2.72D-04 MaxDP=6.34D-03 DE=-4.62D-03 OVMax= 1.16D-02

 Cycle   5  Pass 1  IDiag  1:
 E= -644.135865080337     Delta-E=       -0.002704476950 Rises=F Damp=F
 DIIS: error= 2.39D-04 at cycle   5 NSaved=   5.
 NSaved= 5 IEnMin= 5 EnMin= -644.135865080337     IErMin= 5 ErrMin= 2.39D-04
 ErrMax= 2.39D-04  0.00D+00 EMaxC= 1.00D-01 BMatC= 1.72D-05 BMatP= 4.08D-03
 IDIUse=3 WtCom= 9.98D-01 WtEn= 2.39D-03
 Coeff-Com: -0.222D-02-0.470D-03 0.570D-01 0.117D+00 0.828D+00
 Coeff-En:   0.000D+00 0.000D+00 0.000D+00 0.000D+00 0.100D+01
 Coeff:     -0.222D-02-0.469D-03 0.569D-01 0.117D+00 0.829D+00
 Gap=     0.328 Goal=   None    Shift=    0.000
 RMSDP=2.93D-05 MaxDP=7.36D-04 DE=-2.70D-03 OVMax= 8.03D-04

 Cycle   6  Pass 1  IDiag  1:
 E= -644.135876392800     Delta-E=       -0.000011312463 Rises=F Damp=F
 DIIS: error= 8.37D-05 at cycle   6 NSaved=   6.
 NSaved= 6 IEnMin= 6 EnMin= -644.135876392800     IErMin= 6 ErrMin= 8.37D-05
 ErrMax= 8.37D-05  0.00D+00 EMaxC= 1.00D-01 BMatC= 1.69D-06 BMatP= 1.72D-05
 IDIUse=1 WtCom= 1.00D+00 WtEn= 0.00D+00
 Coeff-Com: -0.613D-05-0.176D-02 0.342D-02 0.153D-01 0.261D+00 0.722D+00
 Coeff:     -0.613D-05-0.176D-02 0.342D-02 0.153D-01 0.261D+00 0.722D+00
 Gap=     0.328 Goal=   None    Shift=    0.000
 RMSDP=1.10D-05 MaxDP=2.79D-04 DE=-1.13D-05 OVMax= 2.92D-04

 Cycle   7  Pass 1  IDiag  1:
 E= -644.135877492030     Delta-E=       -0.000001099230 Rises=F Damp=F
 DIIS: error= 4.55D-05 at cycle   7 NSaved=   7.
 NSaved= 7 IEnMin= 7 EnMin= -644.135877492030     IErMin= 7 ErrMin= 4.55D-05
 ErrMax= 4.55D-05  0.00D+00 EMaxC= 1.00D-01 BMatC= 3.97D-07 BMatP= 1.69D-06
 IDIUse=1 WtCom= 1.00D+00 WtEn= 0.00D+00
 Coeff-Com:  0.381D-03-0.651D-03-0.904D-02-0.144D-01-0.232D-01 0.325D+00
 Coeff-Com:  0.722D+00
 Coeff:      0.381D-03-0.651D-03-0.904D-02-0.144D-01-0.232D-01 0.325D+00
 Coeff:      0.722D+00
 Gap=     0.328 Goal=   None    Shift=    0.000
 RMSDP=4.68D-06 MaxDP=9.87D-05 DE=-1.10D-06 OVMax= 1.35D-04

 Cycle   8  Pass 1  IDiag  1:
 E= -644.135877767003     Delta-E=       -0.000000274973 Rises=F Damp=F
 DIIS: error= 9.66D-06 at cycle   8 NSaved=   8.
 NSaved= 8 IEnMin= 8 EnMin= -644.135877767003     IErMin= 8 ErrMin= 9.66D-06
 ErrMax= 9.66D-06  0.00D+00 EMaxC= 1.00D-01 BMatC= 2.98D-08 BMatP= 3.97D-07
 IDIUse=1 WtCom= 1.00D+00 WtEn= 0.00D+00
 Coeff-Com:  0.138D-03-0.165D-03-0.379D-02-0.606D-02-0.173D-01 0.916D-01
 Coeff-Com:  0.300D+00 0.636D+00
 Coeff:      0.138D-03-0.165D-03-0.379D-02-0.606D-02-0.173D-01 0.916D-01
 Coeff:      0.300D+00 0.636D+00
 Gap=     0.328 Goal=   None    Shift=    0.000
 RMSDP=8.83D-07 MaxDP=2.69D-05 DE=-2.75D-07 OVMax= 3.55D-05

 Cycle   9  Pass 1  IDiag  1:
 E= -644.135877790218     Delta-E=       -0.000000023215 Rises=F Damp=F
 DIIS: error= 1.84D-06 at cycle   9 NSaved=   9.
 NSaved= 9 IEnMin= 9 EnMin= -644.135877790218     IErMin= 9 ErrMin= 1.84D-06
 ErrMax= 1.84D-06  0.00D+00 EMaxC= 1.00D-01 BMatC= 9.50D-10 BMatP= 2.98D-08
 IDIUse=1 WtCom= 1.00D+00 WtEn= 0.00D+00
 Coeff-Com: -0.270D-04 0.535D-04 0.264D-03 0.576D-03-0.792D-03-0.194D-01
 Coeff-Com: -0.288D-01 0.778D-01 0.970D+00
 Coeff:     -0.270D-04 0.535D-04 0.264D-03 0.576D-03-0.792D-03-0.194D-01
 Coeff:     -0.288D-01 0.778D-01 0.970D+00
 Gap=     0.328 Goal=   None    Shift=    0.000
 RMSDP=3.73D-07 MaxDP=9.72D-06 DE=-2.32D-08 OVMax= 1.31D-05

 Cycle  10  Pass 1  IDiag  1:
 E= -644.135877791398     Delta-E=       -0.000000001180 Rises=F Damp=F
 DIIS: error= 2.82D-07 at cycle  10 NSaved=  10.
 NSaved=10 IEnMin=10 EnMin= -644.135877791398     IErMin=10 ErrMin= 2.82D-07
 ErrMax= 2.82D-07  0.00D+00 EMaxC= 1.00D-01 BMatC= 2.95D-11 BMatP= 9.50D-10
 IDIUse=1 WtCom= 1.00D+00 WtEn= 0.00D+00
 Coeff-Com: -0.527D-05 0.918D-05 0.130D-03 0.221D-03 0.442D-03-0.518D-02
 Coeff-Com: -0.140D-01-0.116D-01 0.100D+00 0.930D+00
 Coeff:     -0.527D-05 0.918D-05 0.130D-03 0.221D-03 0.442D-03-0.518D-02
 Coeff:     -0.140D-01-0.116D-01 0.100D+00 0.930D+00
 Gap=     0.328 Goal=   None    Shift=    0.000
 RMSDP=7.47D-08 MaxDP=1.18D-06 DE=-1.18D-09 OVMax= 3.25D-06

 Cycle  11  Pass 1  IDiag  1:
 E= -644.135877791442     Delta-E=       -0.000000000044 Rises=F Damp=F
 DIIS: error= 3.46D-07 at cycle  11 NSaved=  11.
 NSaved=11 IEnMin=11 EnMin= -644.135877791442     IErMin=10 ErrMin= 2.82D-07
 ErrMax= 3.46D-07  0.00D+00 EMaxC= 1.00D-01 BMatC= 1.97D-11 BMatP= 2.95D-11
 IDIUse=1 WtCom= 1.00D+00 WtEn= 0.00D+00
 Coeff-Com:  0.246D-06-0.961D-06 0.410D-04 0.563D-04 0.310D-03-0.828D-03
 Coeff-Com: -0.447D-02-0.134D-01-0.465D-01 0.503D+00 0.562D+00
 Coeff:      0.246D-06-0.961D-06 0.410D-04 0.563D-04 0.310D-03-0.828D-03
 Coeff:     -0.447D-02-0.134D-01-0.465D-01 0.503D+00 0.562D+00
 Gap=     0.328 Goal=   None    Shift=    0.000
 RMSDP=2.35D-08 MaxDP=6.31D-07 DE=-4.42D-11 OVMax= 8.60D-07

 Cycle  12  Pass 1  IDiag  1:
 E= -644.135877791454     Delta-E=       -0.000000000012 Rises=F Damp=F
 DIIS: error= 4.50D-08 at cycle  12 NSaved=  12.
 NSaved=12 IEnMin=12 EnMin= -644.135877791454     IErMin=12 ErrMin= 4.50D-08
 ErrMax= 4.50D-08  0.00D+00 EMaxC= 1.00D-01 BMatC= 5.36D-13 BMatP= 1.97D-11
 IDIUse=1 WtCom= 1.00D+00 WtEn= 0.00D+00
 Coeff-Com:  0.725D-06-0.137D-05-0.597D-05-0.126D-04 0.939D-05 0.417D-03
 Coeff-Com:  0.875D-03-0.985D-03-0.230D-01-0.406D-02 0.124D+00 0.903D+00
 Coeff:      0.725D-06-0.137D-05-0.597D-05-0.126D-04 0.939D-05 0.417D-03
 Coeff:      0.875D-03-0.985D-03-0.230D-01-0.406D-02 0.124D+00 0.903D+00
 Gap=     0.328 Goal=   None    Shift=    0.000
 RMSDP=9.13D-09 MaxDP=1.79D-07 DE=-1.21D-11 OVMax= 3.96D-07

 SCF Done:  E(RM062X) =  -644.135877791     A.U. after   12 cycles
            NFock= 12  Conv=0.91D-08     -V/T= 2.0026
 KE= 6.424888814181D+02 PE=-2.087128390755D+03 EE= 5.207410967262D+02
 Leave Link  502 at Mon Jul 10 19:13:40 2023, MaxMem=  6710886400 cpu:              78.5 elap:               6.0
 (Enter /data0/hywu0/study/g16/l601.exe)
 Copying SCF densities to generalized density rwf, IOpCl= 0 IROHF=0.

 **********************************************************************

            Population analysis using the SCF density.

 **********************************************************************

 Alpha  occ. eigenvalues --  -78.16844 -19.69547 -19.69195 -19.68136 -19.58015
 Alpha  occ. eigenvalues --   -6.97634  -5.09549  -5.09542  -5.09286  -1.24579
 Alpha  occ. eigenvalues --   -1.17276  -1.16770  -1.08386  -0.72714  -0.65740
 Alpha  occ. eigenvalues --   -0.63801  -0.58918  -0.53350  -0.51801  -0.50003
 Alpha  occ. eigenvalues --   -0.46281  -0.45376  -0.45118  -0.37924  -0.36883
 Alpha virt. eigenvalues --   -0.04077   0.00903   0.02881   0.04624   0.08177
 Alpha virt. eigenvalues --    0.08889   0.10596   0.12829   0.15896   0.17333
 Alpha virt. eigenvalues --    0.17451   0.18398   0.19468   0.19876   0.21186
 Alpha virt. eigenvalues --    0.22421   0.24293   0.25709   0.25876   0.27503
 Alpha virt. eigenvalues --    0.28366   0.28611   0.30195   0.31930   0.33059
 Alpha virt. eigenvalues --    0.34062   0.36499   0.38210   0.40216   0.43133
 Alpha virt. eigenvalues --    0.44224   0.44729   0.52339   0.55923   0.57297
 Alpha virt. eigenvalues --    0.73478   0.76035   0.76376   0.86009   0.97873
 Alpha virt. eigenvalues --    0.99802   1.00270   1.05018   1.06014   1.11728
 Alpha virt. eigenvalues --    1.14089   1.15174   1.18574   1.19363   1.20163
 Alpha virt. eigenvalues --    1.21912   1.22734   1.26397   1.26634   1.32427
 Alpha virt. eigenvalues --    1.33001   1.42308   1.42554   1.49760   1.51505
 Alpha virt. eigenvalues --    1.52504   1.55162   1.57938   1.59270   1.64230
 Alpha virt. eigenvalues --    1.66193   1.67643   1.70293   1.72491   1.82455
 Alpha virt. eigenvalues --    1.83263   1.84747   1.87411   1.89438   1.97121
 Alpha virt. eigenvalues --    1.99164   2.04197   2.09480   2.11787   2.13847
 Alpha virt. eigenvalues --    2.18336   2.21287   2.25491   2.36924   2.42246
 Alpha virt. eigenvalues --    2.44337   2.57004   2.61606   2.61766   2.70515
 Alpha virt. eigenvalues --    2.72588   2.80765   2.86508   2.90304   2.94271
 Alpha virt. eigenvalues --    5.01134   5.03162   5.06233   5.06438   5.10500
 Alpha virt. eigenvalues --    5.13548   5.17207   5.23458   5.35166   5.43472
 Alpha virt. eigenvalues --    5.44673   5.51654   6.71683   6.73818   6.74842
 Alpha virt. eigenvalues --    6.76530   6.79521   6.80502   6.82762   6.85234
 Alpha virt. eigenvalues --    6.91561   6.92213   6.93981   6.98180   7.00303
 Alpha virt. eigenvalues --    7.00779   7.10529   7.24664   7.25734   7.27862
 Alpha virt. eigenvalues --    7.31441   7.40371   7.64196  14.23380  14.23655
 Alpha virt. eigenvalues --   14.34128  49.97397  49.98955  50.00458  50.10487
 Alpha virt. eigenvalues --  163.85400
          Condensed to atoms (all electrons):
               1          2          3          4          5          6
     1  P   12.473834   0.558700   0.231300   0.000573   0.172544   0.043484
     2  O    0.558700   8.130319  -0.008592  -0.015201  -0.033290   0.002241
     3  O    0.231300  -0.008592   8.054034   0.254769   0.006830  -0.013265
     4  H    0.000573  -0.015201   0.254769   0.457389  -0.000672   0.001821
     5  O    0.172544  -0.033290   0.006830  -0.000672   8.114203   0.222629
     6  H    0.043484   0.002241  -0.013265   0.001821   0.222629   0.451098
     7  O    0.231498  -0.006451   0.036184  -0.004328   0.003727  -0.013821
     8  H    0.000861  -0.014426  -0.003300  -0.003594  -0.000146   0.001739
               7          8
     1  P    0.231498   0.000861
     2  O   -0.006451  -0.014426
     3  O    0.036184  -0.003300
     4  H   -0.004328  -0.003594
     5  O    0.003727  -0.000146
     6  H   -0.013821   0.001739
     7  O    8.052843   0.254434
     8  H    0.254434   0.453786
 Mulliken charges:
               1
     1  P    1.287206
     2  O   -0.613301
     3  O   -0.557960
     4  H    0.309244
     5  O   -0.485825
     6  H    0.304074
     7  O   -0.554085
     8  H    0.310646
 Sum of Mulliken charges =  -0.00000
 Mulliken charges with hydrogens summed into heavy atoms:
               1
     1  P    1.287206
     2  O   -0.613301
     3  O   -0.248716
     5  O   -0.181751
     7  O   -0.243439
 Electronic spatial extent (au):  <R**2>=          65225.4988
 Charge=             -0.0000 electrons
 Dipole moment (field-independent basis, Debye):
    X=             -3.3323    Y=              3.6636    Z=             -2.8197  Tot=              5.6988
 Quadrupole moment (field-independent basis, Debye-Ang):
   XX=            -79.4367   YY=             56.0698   ZZ=            -97.6863
   XY=            -18.9293   XZ=            -56.6413   YZ=             10.2389
 Traceless Quadrupole moment (field-independent basis, Debye-Ang):
   XX=            -39.0856   YY=             96.4209   ZZ=            -57.3353
   XY=            -18.9293   XZ=            -56.6413   YZ=             10.2389
 Octapole moment (field-independent basis, Debye-Ang**2):
  XXX=          -1103.6631  YYY=            343.9012  ZZZ=          -2357.7308  XYY=           -181.0498
  XXY=           -867.5258  XXZ=          -1074.2260  XZZ=          -1074.4559  YZZ=           -659.8529
  YYZ=            258.7293  XYZ=           -428.4943
 Hexadecapole moment (field-independent basis, Debye-Ang**3):
 XXXX=         -12383.2923 YYYY=          -6946.4898 ZZZZ=         -48461.1305 XXXY=         -13209.7251
 XXXZ=         -14240.8306 YYYX=          -4689.9191 YYYZ=          -1108.8915 ZZZX=         -20350.7698
 ZZZY=         -22603.5839 XXYY=         -10807.7933 XXZZ=         -15663.2137 YYZZ=          -6666.7789
 XXYZ=         -11903.3525 YYXZ=          -4683.4960 ZZXY=         -10018.7241
 N-N= 2.797625348190D+02 E-N=-2.087128395322D+03  KE= 6.424888814181D+02
 No NMR shielding tensors so no spin-rotation constants.
 Leave Link  601 at Mon Jul 10 19:13:40 2023, MaxMem=  6710886400 cpu:               1.2 elap:               0.1
 (Enter /data0/hywu0/study/g16/l9999.exe)
 1\1\GINC-LOCALHOST\SP\RM062X\6-311+G(2d,p)\H3O4P1\HYWU0\10-Jul-2023\0\
 \#p 6-311+g(2d,p) nosymm em=gd3 m062x\\Title Card Required\\0,1\P,0,6.
 329534,12.861526,12.471492\O,0,7.104123,11.634319,12.255673\O,0,4.7635
 66,12.692243,12.268883\H,0,4.561212,12.598947,11.220606\O,0,6.461359,1
 3.350253,13.983215\H,0,5.905125,14.216538,14.070411\O,0,6.765357,14.13
 3946,11.632884\H,0,6.472877,13.992277,10.618332\\Version=ES64L-G16RevA
 .03\HF=-644.1358778\RMSD=9.125e-09\Dipole=-1.3110223,1.4413532,-1.1093
 574\Quadrupole=-29.0591924,71.6865676,-42.6273751,-14.0734784,-42.1114
 349,7.6123741\PG=C01 [X(H3O4P1)]\\@


 Boundary, n.  In political geography, an imaginary
 line between two nations, separating the imaginary
 rights of one from the imaginary rights of another.
                               -- Ambrose Bierce
 Job cpu time:       0 days  0 hours  1 minutes 30.4 seconds.
 Elapsed time:       0 days  0 hours  0 minutes  6.9 seconds.
 File lengths (MBytes):  RWF=     15 Int=      0 D2E=      0 Chk=      3 Scr=      1
 Normal termination of Gaussian 16 at Mon Jul 10 19:13:40 2023.
