 Entering Gaussian System, Link 0=g16
 Initial command:
 /data0/home/software/g16/l1.exe "/data0/home/software/g16/scratch/Gau-3355237.inp" -scrdir="/data0/home/software/g16/scratch/"
 Default is to use a total of  22 processors:
                               22 via shared-memory
                                1 via Linda
 Entering Link 1 = /data0/home/software/g16/l1.exe PID=   3355238.
  
 Copyright (c) 1988,1990,1992,1993,1995,1998,2003,2009,2016,
            Gaussian, Inc.  All Rights Reserved.
  
 This is part of the Gaussian(R) 16 program.  It is based on
 the Gaussian(R) 09 system (copyright 2009, Gaussian, Inc.),
 the Gaussian(R) 03 system (copyright 2003, Gaussian, Inc.),
 the Gaussian(R) 98 system (copyright 1998, Gaussian, Inc.),
 the Gaussian(R) 94 system (copyright 1995, Gaussian, Inc.),
 the Gaussian 92(TM) system (copyright 1992, Gaussian, Inc.),
 the Gaussian 90(TM) system (copyright 1990, Gaussian, Inc.),
 the Gaussian 88(TM) system (copyright 1988, Gaussian, Inc.),
 the Gaussian 86(TM) system (copyright 1986, Carnegie Mellon
 University), and the Gaussian 82(TM) system (copyright 1983,
 Carnegie Mellon University). Gaussian is a federally registered
 trademark of Gaussian, Inc.
  
 This software contains proprietary and confidential information,
 including trade secrets, belonging to Gaussian, Inc.
  
 This software is provided under written license and may be
 used, copied, transmitted, or stored only in accord with that
 written license.
  
 The following legend is applicable only to US Government
 contracts under FAR:
  
                    RESTRICTED RIGHTS LEGEND
  
 Use, reproduction and disclosure by the US Government is
 subject to restrictions as set forth in subparagraphs (a)
 and (c) of the Commercial Computer Software - Restricted
 Rights clause in FAR 52.227-19.
  
 Gaussian, Inc.
 340 Quinnipiac St., Bldg. 40, Wallingford CT 06492
  
  
 ---------------------------------------------------------------
 Warning -- This program may not be used in any manner that
 competes with the business of Gaussian, Inc. or will provide
 assistance to any competitor of Gaussian, Inc.  The licensee
 of this program is prohibited from giving any competitor of
 Gaussian, Inc. access to this program.  By using this program,
 the user acknowledges that Gaussian, Inc. is engaged in the
 business of creating and licensing software in the field of
 computational chemistry and represents and warrants to the
 licensee that it is not a competitor of Gaussian, Inc. and that
 it will not use this program in any manner prohibited above.
 ---------------------------------------------------------------
  

 Cite this work as:
 Gaussian 16, Revision A.03,
 M. J. Frisch, G. W. Trucks, H. B. Schlegel, G. E. Scuseria, 
 M. A. Robb, J. R. Cheeseman, G. Scalmani, V. Barone, 
 G. A. Petersson, H. Nakatsuji, X. Li, M. Caricato, A. V. Marenich, 
 J. Bloino, B. G. Janesko, R. Gomperts, B. Mennucci, H. P. Hratchian, 
 J. V. Ortiz, A. F. Izmaylov, J. L. Sonnenberg, D. Williams-Young, 
 F. Ding, F. Lipparini, F. Egidi, J. Goings, B. Peng, A. Petrone, 
 T. Henderson, D. Ranasinghe, V. G. Zakrzewski, J. Gao, N. Rega, 
 G. Zheng, W. Liang, M. Hada, M. Ehara, K. Toyota, R. Fukuda, 
 J. Hasegawa, M. Ishida, T. Nakajima, Y. Honda, O. Kitao, H. Nakai, 
 T. Vreven, K. Throssell, J. A. Montgomery, Jr., J. E. Peralta, 
 F. Ogliaro, M. J. Bearpark, J. J. Heyd, E. N. Brothers, K. N. Kudin, 
 V. N. Staroverov, T. A. Keith, R. Kobayashi, J. Normand, 
 K. Raghavachari, A. P. Rendell, J. C. Burant, S. S. Iyengar, 
 J. Tomasi, M. Cossi, J. M. Millam, M. Klene, C. Adamo, R. Cammi, 
 J. W. Ochterski, R. L. Martin, K. Morokuma, O. Farkas, 
 J. B. Foresman, and D. J. Fox, Gaussian, Inc., Wallingford CT, 2016.
 
 ******************************************
 Gaussian 16:  ES64L-G16RevA.03 25-Dec-2016
                15-Dec-2022 
 ******************************************
 %nproc=24
 Will use up to   24 processors via shared memory.
 %mem=100GB
 ---------------------------------------------------
 #p M062X/6-311+G(2d,p) nosymm em=GD3 counterpoise=4
 ---------------------------------------------------
 1/38=1,62=4,172=1/1;
 2/12=2,15=1,17=6,18=5,40=1/2;
 1/38=1,53=2,62=4,63=1/22;
 3/5=4,6=6,7=112,11=2,25=1,30=1,74=-55,124=31/1,2,3;
 4//1;
 5/5=2,38=5/2;
 6/7=2,8=2,9=2,10=2,28=1/1;
 1/53=2,62=4,63=1/22;
 3/5=7,6=11,7=112,11=2,25=1,30=1,74=-55,82=7,124=31/1,2,3;
 4//1;
 5/5=2,38=5/2;
 6/7=2,8=2,9=2,10=2,28=1/1;
 1/53=2,62=4,63=1/22(-4);
 99/5=1,9=1/99;
 Leave Link    1 at Thu Dec 15 11:53:21 2022, MaxMem= 13421772800 cpu:               0.7 elap:               0.0
 (Enter /data0/home/software/g16/l101.exe)
 -------------------
 Title Card Required
 -------------------
 Symbolic Z-matrix:
 Charge =  0 Multiplicity = 1 in supermolecule
 Charge =  0 Multiplicity = 1 in fragment      1.
 Charge =  0 Multiplicity = 1 in fragment      2.
 Charge =  0 Multiplicity = 1 in fragment      3.
 Charge =  0 Multiplicity = 1 in fragment      4.
 C                     17.69833   11.30489   8.64136    
 C                     18.85223   11.11518   7.87705    
 C                     18.76561   10.39551   6.67784    
 C                     17.53141   9.87466   6.28834    
 C                     16.40667   10.06855   7.0849     
 H                     19.65114   10.25582   6.04748    
 H                     17.72668   11.8995   9.57433    
 H                     17.42751   9.35421   5.3327     
 H                     15.42042   9.67296   6.7993     
 C                     20.12659   11.72449   8.33153    
 H                     20.89063   11.74257   7.53647    
 H                     19.98577   12.7876   8.61074    
 H                     20.55247   11.20702   9.20038    
 N                     16.5058   10.77725   8.24664    
 C                     15.29848   10.98239   9.08114    
 H                     14.8953   9.98333   9.36379    
 H                     15.58722   11.49089   10.03838    
 C                     14.22011   11.81362   8.36616    
 H                     14.14241   11.53429   7.29106    
 H                     13.23187   11.56055   8.80331    
 C                     14.45399   13.3174   8.48516    
 H                     13.55727   13.87612   8.15022    
 H                     14.63416   13.62301   9.53279    
 C                     15.63538   13.71578   7.59922    
 O                     15.41251   13.90605   6.39437    
 O                     16.7624   13.78044   8.15075    
 P                     18.59197   13.52786   5.12532    
 O                     18.34415   12.0928   4.92727    
 O                     18.99607   13.93835   6.60723    
 H                     18.12116   13.93474   7.21121    
 O                     19.85204   13.99244   4.26765    
 H                     19.97061   15.00719   4.42725    
 O                     17.43593   14.51441   4.68619    
 H                     16.60206   14.34462   5.33737    
 O                     16.85168   13.4263   10.79038    
 H                     16.80323   13.64601   9.82243    
 H                     17.20893   14.20179   11.2026    
 O                     15.30982   11.37528   5.11148    
 H                     15.16866   12.27278   5.46157    
 H                     16.17138   11.45138   4.68665    
 
 ITRead=  0  0  0  0  0  0  0  0  0  0  0  0  0  0  0  0  0  0  0  0
 ITRead=  0  0  0  0  0  0  0  0  0  0  0  0  0  0  0  0  0  0  0  0
 MicOpt= -1 -1 -1 -1 -1 -1 -1 -1 -1 -1 -1 -1 -1 -1 -1 -1 -1 -1 -1 -1
 MicOpt= -1 -1 -1 -1 -1 -1 -1 -1 -1 -1 -1 -1 -1 -1 -1 -1 -1 -1 -1 -1
 NAtoms=     40 NQM=       40 NQMF=       0 NMMI=      0 NMMIF=      0
                NMic=       0 NMicF=      0.
                    Isotopes and Nuclear Properties:
 (Nuclear quadrupole moments (NQMom) in fm**2, nuclear magnetic moments (NMagM)
  in nuclear magnetons)

  Atom         1           2           3           4           5           6           7           8           9          10
 IAtWgt=          12          12          12          12          12           1           1           1           1          12
 AtmWgt=  12.0000000  12.0000000  12.0000000  12.0000000  12.0000000   1.0078250   1.0078250   1.0078250   1.0078250  12.0000000
 NucSpn=           0           0           0           0           0           1           1           1           1           0
 AtZEff=  -0.0000000  -0.0000000  -0.0000000  -0.0000000  -0.0000000  -0.0000000  -0.0000000  -0.0000000  -0.0000000  -0.0000000
 NQMom=    0.0000000   0.0000000   0.0000000   0.0000000   0.0000000   0.0000000   0.0000000   0.0000000   0.0000000   0.0000000
 NMagM=    0.0000000   0.0000000   0.0000000   0.0000000   0.0000000   2.7928460   2.7928460   2.7928460   2.7928460   0.0000000
 AtZNuc=   6.0000000   6.0000000   6.0000000   6.0000000   6.0000000   1.0000000   1.0000000   1.0000000   1.0000000   6.0000000

  Atom        11          12          13          14          15          16          17          18          19          20
 IAtWgt=           1           1           1          14          12           1           1          12           1           1
 AtmWgt=   1.0078250   1.0078250   1.0078250  14.0030740  12.0000000   1.0078250   1.0078250  12.0000000   1.0078250   1.0078250
 NucSpn=           1           1           1           2           0           1           1           0           1           1
 AtZEff=  -0.0000000  -0.0000000  -0.0000000  -0.0000000  -0.0000000  -0.0000000  -0.0000000  -0.0000000  -0.0000000  -0.0000000
 NQMom=    0.0000000   0.0000000   0.0000000   2.0440000   0.0000000   0.0000000   0.0000000   0.0000000   0.0000000   0.0000000
 NMagM=    2.7928460   2.7928460   2.7928460   0.4037610   0.0000000   2.7928460   2.7928460   0.0000000   2.7928460   2.7928460
 AtZNuc=   1.0000000   1.0000000   1.0000000   7.0000000   6.0000000   1.0000000   1.0000000   6.0000000   1.0000000   1.0000000

  Atom        21          22          23          24          25          26          27          28          29          30
 IAtWgt=          12           1           1          12          16          16          31          16          16           1
 AtmWgt=  12.0000000   1.0078250   1.0078250  12.0000000  15.9949146  15.9949146  30.9737634  15.9949146  15.9949146   1.0078250
 NucSpn=           0           1           1           0           0           0           1           0           0           1
 AtZEff=  -0.0000000  -0.0000000  -0.0000000  -0.0000000  -0.0000000  -0.0000000  -0.0000000  -0.0000000  -0.0000000  -0.0000000
 NQMom=    0.0000000   0.0000000   0.0000000   0.0000000   0.0000000   0.0000000   0.0000000   0.0000000   0.0000000   0.0000000
 NMagM=    0.0000000   2.7928460   2.7928460   0.0000000   0.0000000   0.0000000   1.1316000   0.0000000   0.0000000   2.7928460
 AtZNuc=   6.0000000   1.0000000   1.0000000   6.0000000   8.0000000   8.0000000  15.0000000   8.0000000   8.0000000   1.0000000

  Atom        31          32          33          34          35          36          37          38          39          40
 IAtWgt=          16           1          16           1          16           1           1          16           1           1
 AtmWgt=  15.9949146   1.0078250  15.9949146   1.0078250  15.9949146   1.0078250   1.0078250  15.9949146   1.0078250   1.0078250
 NucSpn=           0           1           0           1           0           1           1           0           1           1
 AtZEff=  -0.0000000  -0.0000000  -0.0000000  -0.0000000  -0.0000000  -0.0000000  -0.0000000  -0.0000000  -0.0000000  -0.0000000
 NQMom=    0.0000000   0.0000000   0.0000000   0.0000000   0.0000000   0.0000000   0.0000000   0.0000000   0.0000000   0.0000000
 NMagM=    0.0000000   2.7928460   0.0000000   2.7928460   0.0000000   2.7928460   2.7928460   0.0000000   2.7928460   2.7928460
 AtZNuc=   8.0000000   1.0000000   8.0000000   1.0000000   8.0000000   1.0000000   1.0000000   8.0000000   1.0000000   1.0000000
 Leave Link  101 at Thu Dec 15 11:53:21 2022, MaxMem= 13421772800 cpu:               2.3 elap:               0.1
 (Enter /data0/home/software/g16/l202.exe)
                          Input orientation:                          
 ---------------------------------------------------------------------
 Center     Atomic      Atomic             Coordinates (Angstroms)
 Number     Number       Type             X           Y           Z
 ---------------------------------------------------------------------
      1          6           0       17.698330   11.304887    8.641360
      2          6           0       18.852226   11.115176    7.877045
      3          6           0       18.765613   10.395510    6.677841
      4          6           0       17.531410    9.874655    6.288343
      5          6           0       16.406672   10.068548    7.084896
      6          1           0       19.651136   10.255820    6.047479
      7          1           0       17.726684   11.899502    9.574330
      8          1           0       17.427512    9.354212    5.332698
      9          1           0       15.420415    9.672965    6.799303
     10          6           0       20.126590   11.724487    8.331533
     11          1           0       20.890634   11.742567    7.536466
     12          1           0       19.985768   12.787599    8.610745
     13          1           0       20.552471   11.207020    9.200382
     14          7           0       16.505802   10.777254    8.246642
     15          6           0       15.298476   10.982387    9.081138
     16          1           0       14.895303    9.983334    9.363791
     17          1           0       15.587223   11.490888   10.038375
     18          6           0       14.220107   11.813615    8.366160
     19          1           0       14.142405   11.534292    7.291062
     20          1           0       13.231872   11.560552    8.803314
     21          6           0       14.453988   13.317403    8.485163
     22          1           0       13.557266   13.876121    8.150224
     23          1           0       14.634157   13.623007    9.532791
     24          6           0       15.635381   13.715783    7.599223
     25          8           0       15.412511   13.906046    6.394368
     26          8           0       16.762398   13.780444    8.150751
     27         15           0       18.591969   13.527860    5.125319
     28          8           0       18.344150   12.092802    4.927269
     29          8           0       18.996074   13.938351    6.607229
     30          1           0       18.121157   13.934739    7.211210
     31          8           0       19.852041   13.992442    4.267651
     32          1           0       19.970607   15.007191    4.427250
     33          8           0       17.435933   14.514413    4.686189
     34          1           0       16.602060   14.344620    5.337366
     35          8           0       16.851678   13.426299   10.790383
     36          1           0       16.803231   13.646007    9.822427
     37          1           0       17.208931   14.201785   11.202601
     38          8           0       15.309820   11.375279    5.111479
     39          1           0       15.168660   12.272782    5.461565
     40          1           0       16.171375   11.451377    4.686646
 ---------------------------------------------------------------------
                    Distance matrix (angstroms):
                    1          2          3          4          5
     1  C    0.000000
     2  C    1.397012   0.000000
     3  C    2.412772   1.401253   0.000000
     4  C    2.758644   2.409859   1.395083   0.000000
     5  C    2.370547   2.775548   2.416030   1.391807   0.000000
     6  H    3.412069   2.173491   1.095911   2.167150   3.411430
     7  H    1.106709   2.182381   3.425057   3.864692   3.360373
     8  H    3.850418   3.406539   2.164307   1.093121   2.150020
     9  H    3.353392   3.875413   3.424496   2.181298   1.100342
    10  C    2.483647   1.483854   2.520543   3.785692   4.258407
    11  H    3.406341   2.159796   2.658480   4.041199   4.807512
    12  H    2.726123   2.149472   3.308623   4.461241   4.746723
    13  H    2.910018   2.156499   3.196032   4.402497   4.791560
    14  N    1.362469   2.399270   2.777339   2.387780   1.364458
    15  C    2.461038   3.754546   4.259261   3.743363   2.459305
    16  H    3.182039   4.375925   4.729008   4.052068   2.735847
    17  H    2.538310   3.933542   4.753441   4.522700   3.378992
    18  C    3.525986   4.709944   5.052036   4.363670   3.077005
    19  H    3.810582   4.764604   4.800720   3.904510   2.705146
    20  H    4.476700   5.713555   6.041295   5.258646   3.906199
    21  C    3.821043   4.956219   5.513074   5.113615   4.040889
    22  H    4.899068   5.977796   6.435017   5.939036   4.873567
    23  H    3.944298   5.179075   5.969624   5.742008   4.665638
    24  C    3.339795   4.145894   4.655267   4.479687   3.763209
    25  O    4.127950   4.671073   4.862871   4.555556   4.023876
    26  O    2.691663   3.397933   4.200013   4.394898   3.878242
    27  P    4.254732   3.668893   3.500299   3.977853   4.536772
    28  O    3.851281   3.148821   2.474456   2.726398   3.536493
    29  O    3.571689   3.098942   3.551031   4.331346   4.680656
    30  H    3.023282   2.987931   3.636750   4.205207   4.231176
    31  O    5.566934   4.722924   4.463996   5.140496   5.933328
    32  H    6.052191   5.319741   5.271126   5.979655   6.644916
    33  O    5.100322   4.872603   4.764461   4.909518   5.155472
    34  H    4.621489   4.684285   4.698224   4.663543   4.623508
    35  O    3.136161   4.222679   5.455440   5.774476   5.020274
    36  H    2.770734   3.793151   4.930020   5.219491   4.522118
    37  H    3.897626   4.825650   6.114282   6.555759   5.889207
    38  O    4.262628   4.501627   3.918666   2.927856   2.608640
    39  H    4.176978   4.554476   4.235746   3.466578   3.004418
    40  H    4.241794   4.180746   3.436537   2.627010   2.778342
                    6          7          8          9         10
     6  H    0.000000
     7  H    4.340954   0.000000
     8  H    2.503660   4.955749   0.000000
     9  H    4.336353   4.239943   2.506187   0.000000
    10  C    2.756799   2.708269   4.679342   5.357663   0.000000
    11  H    2.442100   3.766709   4.749110   5.894909   1.102824
    12  H    3.618317   2.611642   5.392440   5.815902   1.108150
    13  H    3.414379   2.933333   5.306340   5.869966   1.097290
    14  N    3.873156   2.124323   3.371301   2.119507   3.743603
    15  C    5.355057   2.642070   4.608096   2.633672   4.941994
    16  H    5.804319   3.425309   4.801832   2.636033   5.609236
    17  H    5.828210   2.227015   5.485931   3.718098   4.855279
    18  C    6.107298   3.709870   5.053514   2.911728   5.907257
    19  H    5.790260   4.265413   4.402257   2.310774   6.076942
    20  H    7.106610   4.573039   5.875075   3.516926   6.912784
    21  C    6.505839   3.729245   5.872543   4.130137   5.894014
    22  H    7.393468   4.828990   6.585204   4.791955   6.915086
    23  H    6.975344   3.540610   6.608042   4.867545   5.934157
    24  C    5.523182   3.401981   5.231842   4.126798   4.967142
    25  O    5.604500   4.415175   5.089849   4.252412   5.543857
    26  O    5.019117   2.548405   5.289171   4.527551   3.946825
    27  P    3.560682   4.816012   4.338007   5.265092   3.985853
    28  O    2.517456   4.691887   2.916243   4.231826   3.860280
    29  O    3.781992   3.817322   5.009905   5.569178   3.025307
    30  H    4.150849   3.143586   4.999118   5.062252   3.187805
    31  O    4.143730   6.087560   5.340959   6.686288   4.661988
    32  H    5.030182   6.417582   6.264450   7.401679   5.103323
    33  O    4.989574   5.551236   5.200550   5.653953   5.320889
    34  H    5.149700   5.019487   5.058218   5.035663   5.315303
    35  O    6.354844   2.139049   6.833725   5.662574   4.434767
    36  H    5.818433   1.991130   6.242347   5.180398   4.118218
    37  H    6.936158   2.867027   7.615937   6.564909   4.784639
    38  O    4.579990   5.102262   2.935689   2.399761   5.804478
    39  H    4.950154   4.857742   3.692840   2.934616   5.754860
    40  H    3.923004   5.148714   2.528510   2.861819   5.385491
                   11         12         13         14         15
    11  H    0.000000
    12  H    1.750700   0.000000
    13  H    1.780388   1.779622   0.000000
    14  N    4.545650   4.035371   4.179695   0.000000
    15  C    5.851164   5.044875   5.260147   1.481924   0.000000
    16  H    6.509840   5.860360   5.790307   2.114719   1.113799
    17  H    5.869332   4.802789   5.043461   2.136204   1.121718
    18  C    6.722304   5.852462   6.415818   2.512515   1.537860
    19  H    6.755901   6.120231   6.696384   2.659302   2.201243
    20  H    7.764964   6.867156   7.339879   3.412046   2.163865
    21  C    6.694068   5.558512   6.492823   3.274017   2.553556
    22  H    7.662052   6.536253   7.560412   4.278567   3.503157
    23  H    6.831169   5.494344   6.401088   3.640816   2.760106
    24  C    5.613840   4.561860   5.747641   3.132369   3.127464
    25  O    5.999572   5.203646   6.448073   3.796781   3.972344
    26  O    4.644634   3.404034   4.699882   3.015657   3.292083
    27  P    3.779519   3.826076   5.082913   4.654093   5.742389
    28  O    3.662670   4.092145   4.890888   4.016021   5.269135
    29  O    3.045375   2.513524   4.075167   4.345304   5.341365
    30  H    3.547029   2.598346   4.160354   3.694753   4.492276
    31  O    4.101922   4.509101   5.707978   6.112865   7.277709
    32  H    4.601244   4.735868   6.128838   6.669707   7.725706
    33  O    5.267083   4.988555   6.405435   5.244838   6.029884
    34  H    5.477097   4.958710   6.353989   4.604265   5.198055
    35  O    5.453081   3.870566   4.598823   3.688860   3.362538
    36  H    5.055251   3.511920   4.515794   3.286534   3.147804
    37  H    5.748325   4.053204   4.914952   4.578154   4.302902
    38  O    6.095978   6.008660   6.650777   3.408409   3.989071
    39  H    6.109610   5.778140   6.640785   3.432376   3.844903
    40  H    5.520659   5.633262   6.295040   3.638661   4.504827
                   16         17         18         19         20
    16  H    0.000000
    17  H    1.790680   0.000000
    18  C    2.191138   2.183910   0.000000
    19  H    2.696021   3.104370   1.113506   0.000000
    20  H    2.359821   2.660434   1.109844   1.765408   0.000000
    21  C    3.476027   2.651951   1.526512   2.168512   2.163634
    22  H    4.291489   3.657209   2.177135   2.562169   2.427811
    23  H    3.652941   2.389536   2.192342   3.103208   2.598511
    24  C    4.194352   3.301809   2.491874   2.661361   3.445535
    25  O    4.946984   4.375191   3.112565   2.835921   4.007437
    26  O    4.401767   3.191587   3.221500   3.556491   4.221181
    27  P    6.647830   6.108672   5.705687   5.335108   6.791803
    28  O    6.002260   5.838352   5.376955   4.853258   6.437577
    29  O    6.329069   5.420618   5.515270   5.459417   6.610805
    30  H    5.536546   4.515096   4.588166   4.647471   5.663627
    31  O    8.161669   7.599191   7.298201   6.912558   8.385283
    32  H    8.681433   7.941232   7.666954   7.364128   8.742986
    33  O    6.990382   6.419138   5.583729   5.149156   6.584082
    34  H    6.176239   5.592242   4.610128   4.214828   5.578709
    35  O    4.209106   2.431086   3.924637   4.813013   4.531275
    36  H    4.155203   2.483918   3.485815   4.236407   4.259380
    37  H    5.150672   3.366648   4.762544   5.640854   5.343191
    38  O    4.493494   4.936053   3.460139   2.477645   4.240500
    39  H    4.532512   4.661946   3.089864   2.223876   3.927557
    40  H    5.065491   5.383660   4.180608   3.302511   5.059600
                   21         22         23         24         25
    21  C    0.000000
    22  H    1.108359   0.000000
    23  H    1.106065   1.770664   0.000000
    24  C    1.529472   2.155892   2.179390   0.000000
    25  O    2.374172   2.554576   3.245866   1.239978   0.000000
    26  O    2.378023   3.206560   2.542485   1.256396   2.218750
    27  P    5.334391   5.883840   5.924453   3.859654   3.444193
    28  O    5.412173   6.040027   6.108716   4.136525   3.746297
    29  O    4.954065   5.653790   5.261623   3.511103   3.590025
    30  H    3.930927   4.659859   4.200724   2.525387   2.829279
    31  O    6.883463   7.396763   7.421893   5.381090   4.923395
    32  H    7.053731   7.501386   7.514001   5.524792   5.085107
    33  O    4.975644   5.239371   5.668695   3.516470   2.717025
    34  H    3.946899   4.171622   4.689878   2.538878   1.650644
    35  O    3.327884   4.245695   2.556879   3.427343   4.650409
    36  H    2.723086   3.658621   2.188447   2.512246   3.708546
    37  H    3.969422   4.770505   3.122933   3.961892   5.141371
    38  O    3.985729   4.308089   5.005677   3.431154   2.839213
    39  H    3.277825   3.520820   4.322463   2.621004   1.896612
    40  H    4.567297   4.970847   5.528484   3.727993   3.085059
                   26         27         28         29         30
    26  O    0.000000
    27  P    3.544625   0.000000
    28  O    3.967482   1.469704   0.000000
    29  O    2.719688   1.589925   2.579403   0.000000
    30  H    1.659147   2.176731   2.942591   1.063149   0.000000
    31  O    4.966820   1.593491   2.513456   2.491833   3.415235
    32  H    5.065765   2.139244   3.374766   2.616188   3.510136
    33  O    3.604934   1.581942   2.597533   2.540921   2.679792
    34  H    2.873872   2.161434   2.876411   2.740239   2.446824
    35  O    2.664779   5.927215   6.195304   4.728574   3.831523
    36  H    1.677570   5.027561   5.361851   3.902758   2.939175
    37  H    3.112990   6.268997   6.716869   4.937684   4.103008
    38  O    4.139079   3.925086   3.123449   4.732343   4.343193
    39  H    3.470557   3.661602   3.225151   4.328483   3.813214
    40  H    4.215909   3.219238   2.278218   4.225234   4.042544
                   31         32         33         34         35
    31  O    0.000000
    32  H    1.034043   0.000000
    33  O    2.507031   2.595082   0.000000
    34  H    3.439578   3.551679   1.071543   0.000000
    35  O    7.201995   7.260606   6.227883   5.535433   0.000000
    36  H    6.345928   6.402580   5.247417   4.543600   0.993759
    37  H    7.424513   7.360769   6.527855   5.898277   0.948120
    38  O    5.309742   5.948268   3.815153   3.246212   6.231690
    39  H    5.129982   5.621876   3.281257   2.522414   5.706089
    40  H    4.492201   5.210112   3.313804   2.996628   6.451258
                   36         37         38         39         40
    36  H    0.000000
    37  H    1.542194   0.000000
    38  O    5.438705   6.978361   0.000000
    39  H    4.855377   6.390873   0.973652   0.000000
    40  H    5.620666   7.148352   0.963614   1.510180   0.000000
 Symmetry turned off by external request.
 Stoichiometry    C10H20NO8P
 Framework group  C1[X(C10H20NO8P)]
 Deg. of freedom   114
 Full point group                 C1      NOp   1
 Rotational constants (GHZ):           0.4067065           0.2667142           0.2508801
 Leave Link  202 at Thu Dec 15 11:53:21 2022, MaxMem= 13421772800 cpu:               0.1 elap:               0.0
 (Enter /data0/home/software/g16/l122.exe)
 Counterpoise: doing full-system calculation.
 Leave Link  122 at Thu Dec 15 11:53:21 2022, MaxMem= 13421772800 cpu:               0.0 elap:               0.0
 (Enter /data0/home/software/g16/l301.exe)
 Standard basis: 6-311+G(2d,p) (5D, 7F)
 Ernie: Thresh=  0.10000D-02 Tol=  0.10000D-05 Strict=F.
   668 basis functions,  1014 primitive gaussians,   708 cartesian basis functions
    83 alpha electrons       83 beta electrons
       nuclear repulsion energy      2086.8800651305 Hartrees.
 IExCor= 4336 DFT=T Ex+Corr=M062X ExCW=0 ScaHFX=  0.540000
 ScaDFX=  1.000000  1.000000  1.000000  1.000000 ScalE2=  1.000000  1.000000
 IRadAn=      5 IRanWt=     -1 IRanGd=            0 ICorTp=0 IEmpDi=131
 NAtoms=   40 NActive=   40 NUniq=   40 SFac= 1.00D+00 NAtFMM=   60 NAOKFM=F Big=F
 Integral buffers will be    131072 words long.
 Raffenetti 2 integral format.
 Two-electron integral symmetry is turned off.
 R6Disp:  Grimme-D3 Dispersion energy=       -0.0036019426 Hartrees.
 Nuclear repulsion after empirical dispersion term =     2086.8764631879 Hartrees.
 Leave Link  301 at Thu Dec 15 11:53:21 2022, MaxMem= 13421772800 cpu:               1.1 elap:               0.1
 (Enter /data0/home/software/g16/l302.exe)
 NPDir=0 NMtPBC=     1 NCelOv=     1 NCel=       1 NClECP=     1 NCelD=      1
         NCelK=      1 NCelE2=     1 NClLst=     1 CellRange=     0.0.
 One-electron integrals computed using PRISM.
 NBasis=   668 RedAO= T EigKep=  1.55D-06  NBF=   668
 NBsUse=   668 1.00D-06 EigRej= -1.00D+00 NBFU=   668
 Precomputing XC quadrature grid using
 IXCGrd= 4 IRadAn=           5 IRanWt=          -1 IRanGd=           0 AccXCQ= 0.00D+00.
 Generated NRdTot=       0 NPtTot=           0 NUsed=           0 NTot=          32
 NSgBfM=   707   707   707   707   707 MxSgAt=    40 MxSgA2=    40.
 Leave Link  302 at Thu Dec 15 11:53:22 2022, MaxMem= 13421772800 cpu:              20.2 elap:               0.9
 (Enter /data0/home/software/g16/l303.exe)
 DipDrv:  MaxL=1.
 Leave Link  303 at Thu Dec 15 11:53:22 2022, MaxMem= 13421772800 cpu:               1.8 elap:               0.1
 (Enter /data0/home/software/g16/l401.exe)
 ExpMin= 3.48D-02 ExpMax= 7.75D+04 ExpMxC= 2.65D+03 IAcc=3 IRadAn=         5 AccDes= 0.00D+00
 Harris functional with IExCor= 1009 and IRadAn=       5 diagonalized for initial guess.
 HarFok:  IExCor= 1009 AccDes= 0.00D+00 IRadAn=         5 IDoV= 1 UseB2=F ITyADJ=14
 ICtDFT=  3500011 ScaDFX=  1.000000  1.000000  1.000000  1.000000
 FoFCou: FMM=F IPFlag=           0 FMFlag=      100000 FMFlg1=           0
         NFxFlg=           0 DoJE=T BraDBF=F KetDBF=T FulRan=T
         wScrn=  0.000000 ICntrl=       500 IOpCl=  0 I1Cent=   200000004 NGrid=           0
         NMat0=    1 NMatS0=      1 NMatT0=    0 NMatD0=    1 NMtDS0=    0 NMtDT0=    0
 Symmetry not used in FoFCou.
 Harris En= -1390.54070474343    
 JPrj=0 DoOrth=F DoCkMO=F.
 Leave Link  401 at Thu Dec 15 11:53:25 2022, MaxMem= 13421772800 cpu:              81.7 elap:               3.4
 (Enter /data0/home/software/g16/l502.exe)
 Two-electron integral symmetry not used.
 Closed shell SCF:
 Using DIIS extrapolation, IDIIS=  1040.
 NGot= 13421772800 LenX= 13420748328 LenY= 13420246356
 Requested convergence on RMS density matrix=1.00D-08 within 128 cycles.
 Requested convergence on MAX density matrix=1.00D-06.
 Requested convergence on             energy=1.00D-06.
 No special actions if energy rises.
 Fock matrices will be formed incrementally for  20 cycles.

 Cycle   1  Pass 1  IDiag  1:
 FoFJK:  IHMeth= 1 ICntrl=       0 DoSepK=F KAlg= 0 I1Cent=           0 FoldK=F
 IRaf= 860000000 NMat=       1 IRICut=       1 DoRegI=T DoRafI=F ISym2E= 0 IDoP0=0 IntGTp=1.
 FoFCou: FMM=F IPFlag=           0 FMFlag=      100000 FMFlg1=           0
         NFxFlg=           0 DoJE=F BraDBF=F KetDBF=F FulRan=T
         wScrn=  0.000000 ICntrl=         0 IOpCl=  0 I1Cent=           0 NGrid=           0
         NMat0=    1 NMatS0=      1 NMatT0=    0 NMatD0=    1 NMtDS0=    0 NMtDT0=    0
 Symmetry not used in FoFCou.
 E= -1390.34897831165    
 DIIS: error= 1.69D-02 at cycle   1 NSaved=   1.
 NSaved= 1 IEnMin= 1 EnMin= -1390.34897831165     IErMin= 1 ErrMin= 1.69D-02
 ErrMax= 1.69D-02  0.00D+00 EMaxC= 1.00D-01 BMatC= 1.19D+00 BMatP= 1.19D+00
 IDIUse=3 WtCom= 8.31D-01 WtEn= 1.69D-01
 Coeff-Com:  0.100D+01
 Coeff-En:   0.100D+01
 Coeff:      0.100D+01
 Gap=     0.254 Goal=   None    Shift=    0.000
 GapD=    0.254 DampG=1.000 DampE=0.500 DampFc=0.5000 IDamp=-1.
 Damping current iteration by 5.00D-01
 RMSDP=1.39D-02 MaxDP=3.14D+00              OVMax= 2.31D-01

 Cycle   2  Pass 1  IDiag  1:
 RMSU=  6.62D-03    CP:  1.08D+00
 E= -1390.67780209596     Delta-E=       -0.328823784315 Rises=F Damp=T
 DIIS: error= 5.34D-03 at cycle   2 NSaved=   2.
 NSaved= 2 IEnMin= 2 EnMin= -1390.67780209596     IErMin= 2 ErrMin= 5.34D-03
 ErrMax= 5.34D-03  0.00D+00 EMaxC= 1.00D-01 BMatC= 7.76D-02 BMatP= 1.19D+00
 IDIUse=3 WtCom= 9.47D-01 WtEn= 5.34D-02
 Coeff-Com:  0.280D-01 0.972D+00
 Coeff-En:   0.116D+00 0.884D+00
 Coeff:      0.327D-01 0.967D+00
 Gap=     0.342 Goal=   None    Shift=    0.000
 RMSDP=9.02D-03 MaxDP=2.35D+00 DE=-3.29D-01 OVMax= 1.56D-01

 Cycle   3  Pass 1  IDiag  1:
 RMSU=  3.52D-03    CP:  7.97D-01  7.03D-01
 E= -1391.06583099686     Delta-E=       -0.388028900897 Rises=F Damp=F
 DIIS: error= 4.43D-03 at cycle   3 NSaved=   3.
 NSaved= 3 IEnMin= 3 EnMin= -1391.06583099686     IErMin= 3 ErrMin= 4.43D-03
 ErrMax= 4.43D-03  0.00D+00 EMaxC= 1.00D-01 BMatC= 3.93D-02 BMatP= 7.76D-02
 IDIUse=3 WtCom= 9.56D-01 WtEn= 4.43D-02
 Coeff-Com: -0.470D-01 0.401D+00 0.646D+00
 Coeff-En:   0.000D+00 0.000D+00 0.100D+01
 Coeff:     -0.449D-01 0.383D+00 0.662D+00
 Gap=     0.278 Goal=   None    Shift=    0.000
 RMSDP=1.30D-03 MaxDP=1.12D-01 DE=-3.88D-01 OVMax= 6.56D-02

 Cycle   4  Pass 1  IDiag  1:
 RMSU=  1.24D-03    CP:  8.02D-01  7.52D-01  9.38D-01
 E= -1391.08982735447     Delta-E=       -0.023996357612 Rises=F Damp=F
 DIIS: error= 2.05D-03 at cycle   4 NSaved=   4.
 NSaved= 4 IEnMin= 4 EnMin= -1391.08982735447     IErMin= 4 ErrMin= 2.05D-03
 ErrMax= 2.05D-03  0.00D+00 EMaxC= 1.00D-01 BMatC= 1.11D-02 BMatP= 3.93D-02
 IDIUse=3 WtCom= 9.80D-01 WtEn= 2.05D-02
 Coeff-Com: -0.297D-01 0.875D-01 0.379D+00 0.563D+00
 Coeff-En:   0.000D+00 0.000D+00 0.227D+00 0.773D+00
 Coeff:     -0.291D-01 0.857D-01 0.376D+00 0.567D+00
 Gap=     0.288 Goal=   None    Shift=    0.000
 RMSDP=6.49D-04 MaxDP=1.12D-01 DE=-2.40D-02 OVMax= 2.53D-02

 Cycle   5  Pass 1  IDiag  1:
 RMSU=  3.16D-04    CP:  7.99D-01  7.66D-01  9.51D-01  5.54D-01
 E= -1391.09890208283     Delta-E=       -0.009074728353 Rises=F Damp=F
 DIIS: error= 3.18D-04 at cycle   5 NSaved=   5.
 NSaved= 5 IEnMin= 5 EnMin= -1391.09890208283     IErMin= 5 ErrMin= 3.18D-04
 ErrMax= 3.18D-04  0.00D+00 EMaxC= 1.00D-01 BMatC= 3.22D-04 BMatP= 1.11D-02
 IDIUse=3 WtCom= 9.97D-01 WtEn= 3.18D-03
 Coeff-Com: -0.996D-02 0.192D-01 0.131D+00 0.248D+00 0.612D+00
 Coeff-En:   0.000D+00 0.000D+00 0.000D+00 0.000D+00 0.100D+01
 Coeff:     -0.993D-02 0.191D-01 0.131D+00 0.247D+00 0.613D+00
 Gap=     0.276 Goal=   None    Shift=    0.000
 RMSDP=1.45D-04 MaxDP=3.20D-02 DE=-9.07D-03 OVMax= 4.17D-03

 Cycle   6  Pass 1  IDiag  1:
 RMSU=  7.41D-05    CP:  7.97D-01  7.52D-01  9.53D-01  6.07D-01  8.99D-01
 E= -1391.09916849965     Delta-E=       -0.000266416828 Rises=F Damp=F
 DIIS: error= 7.89D-05 at cycle   6 NSaved=   6.
 NSaved= 6 IEnMin= 6 EnMin= -1391.09916849965     IErMin= 6 ErrMin= 7.89D-05
 ErrMax= 7.89D-05  0.00D+00 EMaxC= 1.00D-01 BMatC= 2.47D-05 BMatP= 3.22D-04
 IDIUse=1 WtCom= 1.00D+00 WtEn= 0.00D+00
 Coeff-Com: -0.171D-02 0.104D-02 0.247D-01 0.569D-01 0.262D+00 0.657D+00
 Coeff:     -0.171D-02 0.104D-02 0.247D-01 0.569D-01 0.262D+00 0.657D+00
 Gap=     0.276 Goal=   None    Shift=    0.000
 RMSDP=2.73D-05 MaxDP=2.36D-03 DE=-2.66D-04 OVMax= 9.26D-04

 Cycle   7  Pass 1  IDiag  1:
 RMSU=  2.51D-05    CP:  7.97D-01  7.53D-01  9.54D-01  6.08D-01  9.21D-01
                    CP:  9.43D-01
 E= -1391.09918706357     Delta-E=       -0.000018563915 Rises=F Damp=F
 DIIS: error= 3.29D-05 at cycle   7 NSaved=   7.
 NSaved= 7 IEnMin= 7 EnMin= -1391.09918706357     IErMin= 7 ErrMin= 3.29D-05
 ErrMax= 3.29D-05  0.00D+00 EMaxC= 1.00D-01 BMatC= 3.22D-06 BMatP= 2.47D-05
 IDIUse=1 WtCom= 1.00D+00 WtEn= 0.00D+00
 Coeff-Com:  0.305D-03-0.141D-02-0.289D-02-0.174D-02 0.579D-01 0.302D+00
 Coeff-Com:  0.646D+00
 Coeff:      0.305D-03-0.141D-02-0.289D-02-0.174D-02 0.579D-01 0.302D+00
 Coeff:      0.646D+00
 Gap=     0.276 Goal=   None    Shift=    0.000
 RMSDP=1.17D-05 MaxDP=2.01D-03 DE=-1.86D-05 OVMax= 4.31D-04

 Cycle   8  Pass 1  IDiag  1:
 RMSU=  9.44D-06    CP:  7.97D-01  7.52D-01  9.55D-01  6.09D-01  9.30D-01
                    CP:  9.92D-01  1.06D+00
 E= -1391.09918933670     Delta-E=       -0.000002273135 Rises=F Damp=F
 DIIS: error= 1.49D-05 at cycle   8 NSaved=   8.
 NSaved= 8 IEnMin= 8 EnMin= -1391.09918933670     IErMin= 8 ErrMin= 1.49D-05
 ErrMax= 1.49D-05  0.00D+00 EMaxC= 1.00D-01 BMatC= 5.37D-07 BMatP= 3.22D-06
 IDIUse=1 WtCom= 1.00D+00 WtEn= 0.00D+00
 Coeff-Com:  0.419D-03-0.879D-03-0.532D-02-0.101D-01-0.110D-01 0.406D-01
 Coeff-Com:  0.323D+00 0.663D+00
 Coeff:      0.419D-03-0.879D-03-0.532D-02-0.101D-01-0.110D-01 0.406D-01
 Coeff:      0.323D+00 0.663D+00
 Gap=     0.276 Goal=   None    Shift=    0.000
 RMSDP=6.45D-06 MaxDP=1.32D-03 DE=-2.27D-06 OVMax= 1.43D-04

 Cycle   9  Pass 1  IDiag  1:
 RMSU=  3.47D-06    CP:  7.97D-01  7.52D-01  9.54D-01  6.09D-01  9.37D-01
                    CP:  1.00D+00  1.05D+00  8.66D-01
 E= -1391.09918975876     Delta-E=       -0.000000422054 Rises=F Damp=F
 DIIS: error= 3.36D-06 at cycle   9 NSaved=   9.
 NSaved= 9 IEnMin= 9 EnMin= -1391.09918975876     IErMin= 9 ErrMin= 3.36D-06
 ErrMax= 3.36D-06  0.00D+00 EMaxC= 1.00D-01 BMatC= 3.79D-08 BMatP= 5.37D-07
 IDIUse=1 WtCom= 1.00D+00 WtEn= 0.00D+00
 Coeff-Com:  0.142D-03-0.250D-03-0.197D-02-0.412D-02-0.893D-02-0.884D-02
 Coeff-Com:  0.836D-01 0.278D+00 0.663D+00
 Coeff:      0.142D-03-0.250D-03-0.197D-02-0.412D-02-0.893D-02-0.884D-02
 Coeff:      0.836D-01 0.278D+00 0.663D+00
 Gap=     0.276 Goal=   None    Shift=    0.000
 RMSDP=1.56D-06 MaxDP=2.74D-04 DE=-4.22D-07 OVMax= 4.19D-05

 Cycle  10  Pass 1  IDiag  1:
 RMSU=  1.16D-06    CP:  7.97D-01  7.52D-01  9.55D-01  6.09D-01  9.36D-01
                    CP:  1.00D+00  1.07D+00  8.70D-01  8.80D-01
 E= -1391.09918979087     Delta-E=       -0.000000032110 Rises=F Damp=F
 DIIS: error= 1.28D-06 at cycle  10 NSaved=  10.
 NSaved=10 IEnMin=10 EnMin= -1391.09918979087     IErMin=10 ErrMin= 1.28D-06
 ErrMax= 1.28D-06  0.00D+00 EMaxC= 1.00D-01 BMatC= 4.30D-09 BMatP= 3.79D-08
 IDIUse=1 WtCom= 1.00D+00 WtEn= 0.00D+00
 Coeff-Com:  0.887D-05 0.255D-05-0.216D-03-0.603D-03-0.240D-02-0.831D-02
 Coeff-Com: -0.725D-03 0.340D-01 0.263D+00 0.715D+00
 Coeff:      0.887D-05 0.255D-05-0.216D-03-0.603D-03-0.240D-02-0.831D-02
 Coeff:     -0.725D-03 0.340D-01 0.263D+00 0.715D+00
 Gap=     0.276 Goal=   None    Shift=    0.000
 RMSDP=7.30D-07 MaxDP=2.16D-04 DE=-3.21D-08 OVMax= 1.71D-05

 Cycle  11  Pass 1  IDiag  1:
 RMSU=  4.79D-07    CP:  7.97D-01  7.52D-01  9.55D-01  6.09D-01  9.36D-01
                    CP:  1.00D+00  1.08D+00  8.87D-01  9.20D-01  8.91D-01
 E= -1391.09918979440     Delta-E=       -0.000000003532 Rises=F Damp=F
 DIIS: error= 5.07D-07 at cycle  11 NSaved=  11.
 NSaved=11 IEnMin=11 EnMin= -1391.09918979440     IErMin=11 ErrMin= 5.07D-07
 ErrMax= 5.07D-07  0.00D+00 EMaxC= 1.00D-01 BMatC= 9.40D-10 BMatP= 4.30D-09
 IDIUse=1 WtCom= 1.00D+00 WtEn= 0.00D+00
 Coeff-Com: -0.170D-04 0.361D-04 0.193D-03 0.321D-03 0.135D-03-0.323D-02
 Coeff-Com: -0.137D-01-0.282D-01 0.290D-01 0.360D+00 0.655D+00
 Coeff:     -0.170D-04 0.361D-04 0.193D-03 0.321D-03 0.135D-03-0.323D-02
 Coeff:     -0.137D-01-0.282D-01 0.290D-01 0.360D+00 0.655D+00
 Gap=     0.276 Goal=   None    Shift=    0.000
 RMSDP=2.95D-07 MaxDP=7.15D-05 DE=-3.53D-09 OVMax= 9.62D-06

 Cycle  12  Pass 1  IDiag  1:
 RMSU=  1.24D-07    CP:  7.97D-01  7.52D-01  9.55D-01  6.09D-01  9.36D-01
                    CP:  1.00D+00  1.07D+00  8.83D-01  9.58D-01  9.71D-01
                    CP:  8.68D-01
 E= -1391.09918979519     Delta-E=       -0.000000000790 Rises=F Damp=F
 DIIS: error= 1.53D-07 at cycle  12 NSaved=  12.
 NSaved=12 IEnMin=12 EnMin= -1391.09918979519     IErMin=12 ErrMin= 1.53D-07
 ErrMax= 1.53D-07  0.00D+00 EMaxC= 1.00D-01 BMatC= 6.42D-11 BMatP= 9.40D-10
 IDIUse=1 WtCom= 1.00D+00 WtEn= 0.00D+00
 Coeff-Com: -0.660D-05 0.131D-04 0.932D-04 0.170D-03 0.284D-03-0.371D-03
 Coeff-Com: -0.457D-02-0.134D-01-0.131D-01 0.650D-01 0.256D+00 0.710D+00
 Coeff:     -0.660D-05 0.131D-04 0.932D-04 0.170D-03 0.284D-03-0.371D-03
 Coeff:     -0.457D-02-0.134D-01-0.131D-01 0.650D-01 0.256D+00 0.710D+00
 Gap=     0.276 Goal=   None    Shift=    0.000
 RMSDP=8.47D-08 MaxDP=1.82D-05 DE=-7.90D-10 OVMax= 2.59D-06

 Cycle  13  Pass 1  IDiag  1:
 RMSU=  4.78D-08    CP:  7.97D-01  7.52D-01  9.55D-01  6.09D-01  9.36D-01
                    CP:  1.00D+00  1.07D+00  8.83D-01  9.62D-01  9.61D-01
                    CP:  9.32D-01  9.44D-01
 E= -1391.09918979533     Delta-E=       -0.000000000137 Rises=F Damp=F
 DIIS: error= 5.95D-08 at cycle  13 NSaved=  13.
 NSaved=13 IEnMin=13 EnMin= -1391.09918979533     IErMin=13 ErrMin= 5.95D-08
 ErrMax= 5.95D-08  0.00D+00 EMaxC= 1.00D-01 BMatC= 8.41D-12 BMatP= 6.42D-11
 IDIUse=1 WtCom= 1.00D+00 WtEn= 0.00D+00
 Coeff-Com: -0.179D-06 0.543D-07 0.127D-04 0.245D-04 0.855D-04 0.232D-03
 Coeff-Com: -0.982D-04-0.176D-02-0.863D-02-0.239D-01 0.139D-01 0.276D+00
 Coeff-Com:  0.744D+00
 Coeff:     -0.179D-06 0.543D-07 0.127D-04 0.245D-04 0.855D-04 0.232D-03
 Coeff:     -0.982D-04-0.176D-02-0.863D-02-0.239D-01 0.139D-01 0.276D+00
 Coeff:      0.744D+00
 Gap=     0.276 Goal=   None    Shift=    0.000
 RMSDP=2.52D-08 MaxDP=3.83D-06 DE=-1.37D-10 OVMax= 1.87D-06

 Cycle  14  Pass 1  IDiag  1:
 RMSU=  1.77D-08    CP:  7.97D-01  7.52D-01  9.55D-01  6.09D-01  9.36D-01
                    CP:  1.00D+00  1.07D+00  8.82D-01  9.63D-01  9.61D-01
                    CP:  9.43D-01  1.01D+00  1.06D+00
 E= -1391.09918979532     Delta-E=        0.000000000011 Rises=F Damp=F
 DIIS: error= 2.21D-08 at cycle  14 NSaved=  14.
 NSaved=14 IEnMin=13 EnMin= -1391.09918979533     IErMin=14 ErrMin= 2.21D-08
 ErrMax= 2.21D-08  0.00D+00 EMaxC= 1.00D-01 BMatC= 9.86D-13 BMatP= 8.41D-12
 IDIUse=1 WtCom= 1.00D+00 WtEn= 0.00D+00
 Coeff-Com:  0.788D-06-0.164D-05-0.593D-05-0.107D-04 0.189D-05 0.148D-03
 Coeff-Com:  0.548D-03 0.936D-03-0.155D-02-0.179D-01-0.267D-01 0.940D-02
 Coeff-Com:  0.266D+00 0.769D+00
 Coeff:      0.788D-06-0.164D-05-0.593D-05-0.107D-04 0.189D-05 0.148D-03
 Coeff:      0.548D-03 0.936D-03-0.155D-02-0.179D-01-0.267D-01 0.940D-02
 Coeff:      0.266D+00 0.769D+00
 Gap=     0.276 Goal=   None    Shift=    0.000
 RMSDP=1.88D-08 MaxDP=4.24D-06 DE= 1.09D-11 OVMax= 5.32D-07

 Cycle  15  Pass 1  IDiag  1:
 RMSU=  6.10D-09    CP:  7.97D-01  7.52D-01  9.55D-01  6.09D-01  9.36D-01
                    CP:  1.00D+00  1.07D+00  8.82D-01  9.64D-01  9.56D-01
                    CP:  9.52D-01  1.04D+00  1.15D+00  9.78D-01
 E= -1391.09918979521     Delta-E=        0.000000000105 Rises=F Damp=F
 DIIS: error= 9.47D-09 at cycle  15 NSaved=  15.
 NSaved=15 IEnMin=13 EnMin= -1391.09918979533     IErMin=15 ErrMin= 9.47D-09
 ErrMax= 9.47D-09  0.00D+00 EMaxC= 1.00D-01 BMatC= 1.06D-13 BMatP= 9.86D-13
 IDIUse=1 WtCom= 1.00D+00 WtEn= 0.00D+00
 Coeff-Com:  0.238D-06-0.472D-06-0.304D-05-0.576D-05-0.899D-05 0.160D-04
 Coeff-Com:  0.175D-03 0.457D-03 0.625D-03-0.246D-02-0.904D-02-0.307D-01
 Coeff-Com: -0.560D-02 0.244D+00 0.803D+00
 Coeff:      0.238D-06-0.472D-06-0.304D-05-0.576D-05-0.899D-05 0.160D-04
 Coeff:      0.175D-03 0.457D-03 0.625D-03-0.246D-02-0.904D-02-0.307D-01
 Coeff:     -0.560D-02 0.244D+00 0.803D+00
 Gap=     0.276 Goal=   None    Shift=    0.000
 RMSDP=3.51D-09 MaxDP=5.31D-07 DE= 1.05D-10 OVMax= 4.33D-07

 SCF Done:  E(RM062X) =  -1391.09918980     A.U. after   15 cycles
            NFock= 15  Conv=0.35D-08     -V/T= 2.0034
 KE= 1.386452433625D+03 PE=-7.447936348027D+03 EE= 2.583508261419D+03
 Leave Link  502 at Thu Dec 15 11:57:14 2022, MaxMem= 13421772800 cpu:            5479.8 elap:             229.1
 (Enter /data0/home/software/g16/l601.exe)
 Copying SCF densities to generalized density rwf, IOpCl= 0 IROHF=0.

 **********************************************************************

            Population analysis using the SCF density.

 **********************************************************************

 Alpha  occ. eigenvalues --  -78.13781 -19.65126 -19.62718 -19.62502 -19.61188
 Alpha  occ. eigenvalues --  -19.61136 -19.60585 -19.59576 -19.57057 -14.87432
 Alpha  occ. eigenvalues --  -10.66281 -10.63419 -10.62811 -10.62149 -10.59415
 Alpha  occ. eigenvalues --  -10.58718 -10.58154 -10.57269 -10.55253 -10.54911
 Alpha  occ. eigenvalues --   -6.94497  -5.06437  -5.06364  -5.06216  -1.20825
 Alpha  occ. eigenvalues --   -1.19928  -1.14990  -1.12816  -1.12636  -1.11672
 Alpha  occ. eigenvalues --   -1.10884  -1.09974  -1.07505  -0.97089  -0.91970
 Alpha  occ. eigenvalues --   -0.91306  -0.83674  -0.82273  -0.76023  -0.74514
 Alpha  occ. eigenvalues --   -0.70762  -0.68671  -0.64538  -0.64042  -0.61898
 Alpha  occ. eigenvalues --   -0.61349  -0.61170  -0.59967  -0.59332  -0.58524
 Alpha  occ. eigenvalues --   -0.57460  -0.55664  -0.55095  -0.54197  -0.53962
 Alpha  occ. eigenvalues --   -0.53299  -0.52218  -0.51676  -0.50270  -0.49134
 Alpha  occ. eigenvalues --   -0.48586  -0.47954  -0.47739  -0.47044  -0.46957
 Alpha  occ. eigenvalues --   -0.46144  -0.45769  -0.44966  -0.44033  -0.43600
 Alpha  occ. eigenvalues --   -0.43035  -0.42910  -0.42205  -0.40309  -0.39166
 Alpha  occ. eigenvalues --   -0.39017  -0.37461  -0.36923  -0.36278  -0.35802
 Alpha  occ. eigenvalues --   -0.34843  -0.33923  -0.32651
 Alpha virt. eigenvalues --   -0.05055  -0.01784  -0.00261   0.00829   0.01278
 Alpha virt. eigenvalues --    0.01715   0.02412   0.02898   0.03323   0.03852
 Alpha virt. eigenvalues --    0.04877   0.05235   0.05456   0.05950   0.06148
 Alpha virt. eigenvalues --    0.06447   0.07037   0.07382   0.07860   0.08733
 Alpha virt. eigenvalues --    0.08930   0.09096   0.09771   0.10104   0.10904
 Alpha virt. eigenvalues --    0.11053   0.11992   0.12256   0.12614   0.12740
 Alpha virt. eigenvalues --    0.13350   0.13425   0.13839   0.14321   0.15014
 Alpha virt. eigenvalues --    0.15407   0.15826   0.16015   0.16127   0.16558
 Alpha virt. eigenvalues --    0.16704   0.17133   0.17618   0.17746   0.18539
 Alpha virt. eigenvalues --    0.18768   0.19217   0.19597   0.20052   0.20324
 Alpha virt. eigenvalues --    0.20389   0.20906   0.21294   0.21980   0.22002
 Alpha virt. eigenvalues --    0.22273   0.22660   0.22753   0.22880   0.23273
 Alpha virt. eigenvalues --    0.23575   0.24002   0.24264   0.24584   0.24631
 Alpha virt. eigenvalues --    0.25493   0.25833   0.26013   0.26478   0.26596
 Alpha virt. eigenvalues --    0.26938   0.27452   0.27801   0.27991   0.28474
 Alpha virt. eigenvalues --    0.28716   0.29118   0.30024   0.30205   0.30353
 Alpha virt. eigenvalues --    0.30652   0.31098   0.31201   0.31494   0.32101
 Alpha virt. eigenvalues --    0.32419   0.32608   0.32649   0.33330   0.33667
 Alpha virt. eigenvalues --    0.33974   0.34527   0.34728   0.35121   0.35884
 Alpha virt. eigenvalues --    0.36000   0.36393   0.36993   0.37222   0.37460
 Alpha virt. eigenvalues --    0.38027   0.38473   0.39096   0.39951   0.40274
 Alpha virt. eigenvalues --    0.40806   0.41386   0.41854   0.42559   0.42716
 Alpha virt. eigenvalues --    0.43393   0.44275   0.44650   0.45971   0.46344
 Alpha virt. eigenvalues --    0.47039   0.47442   0.48597   0.49401   0.49966
 Alpha virt. eigenvalues --    0.50670   0.51018   0.51849   0.52142   0.52816
 Alpha virt. eigenvalues --    0.54082   0.54205   0.55352   0.55625   0.56310
 Alpha virt. eigenvalues --    0.56557   0.57476   0.57643   0.58402   0.58720
 Alpha virt. eigenvalues --    0.59165   0.59629   0.61104   0.61244   0.61447
 Alpha virt. eigenvalues --    0.62270   0.62915   0.64006   0.64827   0.65005
 Alpha virt. eigenvalues --    0.65458   0.65853   0.66573   0.67099   0.67510
 Alpha virt. eigenvalues --    0.68380   0.68905   0.69265   0.70095   0.70611
 Alpha virt. eigenvalues --    0.71072   0.71949   0.71977   0.72271   0.72678
 Alpha virt. eigenvalues --    0.73290   0.73961   0.74207   0.75242   0.75788
 Alpha virt. eigenvalues --    0.76396   0.76992   0.78450   0.78589   0.79555
 Alpha virt. eigenvalues --    0.79993   0.80274   0.80776   0.81606   0.82816
 Alpha virt. eigenvalues --    0.83266   0.84199   0.84465   0.84634   0.85376
 Alpha virt. eigenvalues --    0.86308   0.87479   0.87866   0.89501   0.89824
 Alpha virt. eigenvalues --    0.90072   0.90730   0.91451   0.92484   0.93811
 Alpha virt. eigenvalues --    0.94874   0.95286   0.96673   0.97642   0.97980
 Alpha virt. eigenvalues --    0.98724   0.99572   1.01512   1.02393   1.04078
 Alpha virt. eigenvalues --    1.04820   1.06044   1.08407   1.09023   1.09828
 Alpha virt. eigenvalues --    1.11036   1.11216   1.12104   1.13066   1.13423
 Alpha virt. eigenvalues --    1.14287   1.14629   1.16493   1.16946   1.18057
 Alpha virt. eigenvalues --    1.18216   1.18801   1.19301   1.20261   1.20683
 Alpha virt. eigenvalues --    1.21441   1.21849   1.23409   1.23791   1.24371
 Alpha virt. eigenvalues --    1.24818   1.25564   1.25761   1.26346   1.27414
 Alpha virt. eigenvalues --    1.27869   1.28245   1.28890   1.30054   1.30399
 Alpha virt. eigenvalues --    1.31024   1.31571   1.32092   1.32184   1.32840
 Alpha virt. eigenvalues --    1.33681   1.34575   1.35030   1.35638   1.35960
 Alpha virt. eigenvalues --    1.36538   1.37807   1.38150   1.38434   1.38846
 Alpha virt. eigenvalues --    1.40243   1.40871   1.41243   1.41501   1.42285
 Alpha virt. eigenvalues --    1.42580   1.43426   1.44313   1.44690   1.45373
 Alpha virt. eigenvalues --    1.45768   1.46543   1.47389   1.48198   1.48326
 Alpha virt. eigenvalues --    1.49102   1.49541   1.50198   1.51279   1.52181
 Alpha virt. eigenvalues --    1.53297   1.54221   1.55280   1.56170   1.57962
 Alpha virt. eigenvalues --    1.59220   1.59473   1.60031   1.61503   1.61905
 Alpha virt. eigenvalues --    1.62535   1.63848   1.64823   1.65794   1.67118
 Alpha virt. eigenvalues --    1.67995   1.69768   1.70627   1.70971   1.71702
 Alpha virt. eigenvalues --    1.72469   1.73218   1.74206   1.75889   1.76846
 Alpha virt. eigenvalues --    1.78169   1.78376   1.78476   1.79221   1.80406
 Alpha virt. eigenvalues --    1.81368   1.81902   1.83253   1.84132   1.85229
 Alpha virt. eigenvalues --    1.86251   1.87160   1.88222   1.88680   1.90290
 Alpha virt. eigenvalues --    1.91293   1.93231   1.93447   1.93970   1.95215
 Alpha virt. eigenvalues --    1.95699   1.98512   1.98927   2.00159   2.00381
 Alpha virt. eigenvalues --    2.01660   2.02632   2.04020   2.04944   2.05678
 Alpha virt. eigenvalues --    2.06964   2.08263   2.10108   2.11526   2.12538
 Alpha virt. eigenvalues --    2.13741   2.14221   2.15472   2.16807   2.17735
 Alpha virt. eigenvalues --    2.18712   2.19736   2.20418   2.20735   2.21532
 Alpha virt. eigenvalues --    2.22266   2.24203   2.25600   2.25949   2.28245
 Alpha virt. eigenvalues --    2.28920   2.29759   2.30829   2.31781   2.32159
 Alpha virt. eigenvalues --    2.32707   2.34151   2.34840   2.35223   2.36777
 Alpha virt. eigenvalues --    2.37050   2.37710   2.39117   2.40953   2.42545
 Alpha virt. eigenvalues --    2.44000   2.44912   2.45974   2.47529   2.47979
 Alpha virt. eigenvalues --    2.49650   2.51782   2.52011   2.53784   2.56830
 Alpha virt. eigenvalues --    2.58899   2.59496   2.60297   2.61885   2.63780
 Alpha virt. eigenvalues --    2.67003   2.68065   2.68954   2.69849   2.70357
 Alpha virt. eigenvalues --    2.71735   2.73514   2.73859   2.76326   2.77687
 Alpha virt. eigenvalues --    2.80273   2.80778   2.81621   2.83515   2.84058
 Alpha virt. eigenvalues --    2.85975   2.86343   2.87700   2.89417   2.90229
 Alpha virt. eigenvalues --    2.91477   2.93285   2.93374   2.95174   2.96694
 Alpha virt. eigenvalues --    2.98660   2.99831   3.01502   3.02025   3.02541
 Alpha virt. eigenvalues --    3.03869   3.04496   3.05976   3.07786   3.09338
 Alpha virt. eigenvalues --    3.11568   3.13128   3.14451   3.14664   3.17057
 Alpha virt. eigenvalues --    3.19069   3.20644   3.24149   3.25287   3.26965
 Alpha virt. eigenvalues --    3.28532   3.29207   3.29843   3.32772   3.33301
 Alpha virt. eigenvalues --    3.33927   3.35199   3.36895   3.40024   3.40218
 Alpha virt. eigenvalues --    3.41698   3.42073   3.43176   3.44388   3.45867
 Alpha virt. eigenvalues --    3.47998   3.49802   3.51149   3.51705   3.52699
 Alpha virt. eigenvalues --    3.54199   3.56382   3.56579   3.57442   3.58569
 Alpha virt. eigenvalues --    3.60069   3.61090   3.62449   3.63495   3.65290
 Alpha virt. eigenvalues --    3.65996   3.66306   3.67226   3.67842   3.69628
 Alpha virt. eigenvalues --    3.70498   3.71872   3.72512   3.74273   3.75187
 Alpha virt. eigenvalues --    3.77445   3.78804   3.82615   3.83213   3.84119
 Alpha virt. eigenvalues --    3.86442   3.87128   3.91770   3.94360   3.96645
 Alpha virt. eigenvalues --    3.98882   4.01372   4.04755   4.05773   4.09850
 Alpha virt. eigenvalues --    4.11171   4.16899   4.19187   4.19937   4.21990
 Alpha virt. eigenvalues --    4.25284   4.27305   4.31592   4.39627   4.40238
 Alpha virt. eigenvalues --    4.50863   4.53927   4.65582   4.74015   4.97893
 Alpha virt. eigenvalues --    5.04694   5.07459   5.11583   5.13322   5.13497
 Alpha virt. eigenvalues --    5.16304   5.20065   5.21658   5.24879   5.29098
 Alpha virt. eigenvalues --    5.32075   5.32955   5.33999   5.36785   5.38138
 Alpha virt. eigenvalues --    5.39962   5.47592   5.47947   5.49226   5.56307
 Alpha virt. eigenvalues --    5.57237   5.59526   5.61655   5.63510   5.67709
 Alpha virt. eigenvalues --    5.69029   5.78451   5.93419   5.99682   6.01257
 Alpha virt. eigenvalues --    6.23693   6.77166   6.78960   6.80614   6.81884
 Alpha virt. eigenvalues --    6.82117   6.83508   6.84673   6.85308   6.85838
 Alpha virt. eigenvalues --    6.88015   6.88764   6.89221   6.91240   6.91735
 Alpha virt. eigenvalues --    6.93550   6.96405   6.96460   6.97225   6.98188
 Alpha virt. eigenvalues --    7.01250   7.03255   7.04248   7.04603   7.05531
 Alpha virt. eigenvalues --    7.07020   7.08245   7.10052   7.13617   7.18847
 Alpha virt. eigenvalues --    7.21818   7.23643   7.27714   7.30429   7.31716
 Alpha virt. eigenvalues --    7.32093   7.36554   7.38767   7.40302   7.43456
 Alpha virt. eigenvalues --    7.47509   7.74468  14.31393  14.36084  14.43617
 Alpha virt. eigenvalues --   23.85943  23.97420  24.00795  24.04504  24.04742
 Alpha virt. eigenvalues --   24.10725  24.11460  24.13793  24.24759  24.28104
 Alpha virt. eigenvalues --   35.71304  50.05606  50.06481  50.09873  50.11238
 Alpha virt. eigenvalues --   50.12365  50.17290  50.18474  50.20738 164.00851
          Condensed to atoms (all electrons):
               1          2          3          4          5          6
     1  C   18.492848  -9.161904  -1.723826  -0.075628  -1.313527   0.006789
     2  C   -9.161904  17.158993  -3.264041   1.723977  -0.648717   0.018605
     3  C   -1.723826  -3.264041  12.808712  -2.903379   1.898121   0.316343
     4  C   -0.075628   1.723977  -2.903379   9.505600  -2.712353   0.023413
     5  C   -1.313527  -0.648717   1.898121  -2.712353   9.082085   0.003378
     6  H    0.006789   0.018605   0.316343   0.023413   0.003378   0.490848
     7  H    0.144346   0.211252   0.024426  -0.002546   0.002862  -0.000129
     8  H   -0.014077   0.004426  -0.009137   0.354326   0.009365  -0.003460
     9  H    0.010977   0.004795  -0.016717   0.008442   0.385628  -0.000166
    10  C   -0.577247   0.160540  -0.201750  -0.026306   0.031553  -0.015125
    11  H    0.023894  -0.205197   0.074337   0.008903   0.015502   0.002779
    12  H    0.131961  -0.066901  -0.092667   0.002976  -0.004773   0.000223
    13  H   -0.071039  -0.027970   0.065843  -0.001664  -0.002510   0.000077
    14  N   -0.120307   0.246615  -0.331296   0.247038  -0.091230   0.001019
    15  C    0.718442  -0.835597  -0.074504  -0.125474  -0.107266  -0.000448
    16  H    0.009474  -0.007460   0.001258   0.014699  -0.017277  -0.000002
    17  H   -0.006793   0.029327  -0.007040   0.000424  -0.013199  -0.000001
    18  C   -0.162897   0.161487  -0.045388   0.080602  -0.137867   0.000050
    19  H    0.007244   0.001207  -0.008798  -0.016453   0.000039   0.000000
    20  H   -0.000764   0.000400   0.001272  -0.002207   0.008703   0.000000
    21  C    0.148430  -0.005483  -0.032599   0.023738  -0.003081   0.000151
    22  H   -0.003040   0.002073   0.000359  -0.000012   0.003261  -0.000000
    23  H   -0.008405   0.004772  -0.000928  -0.000799  -0.000018   0.000000
    24  C   -0.280242   0.145885  -0.020608   0.044394  -0.041064  -0.000368
    25  O    0.061665  -0.002958  -0.057637   0.056851  -0.076661   0.000095
    26  O    0.084644  -0.164780   0.051954  -0.080986   0.087460  -0.000334
    27  P   -0.161402   0.169488  -0.028875  -0.065576   0.096498   0.002869
    28  O    0.030799  -0.046116   0.014874  -0.009328  -0.051574  -0.019649
    29  O    0.162437  -0.281917   0.095821  -0.039473   0.025128  -0.001346
    30  H   -0.141974   0.193728  -0.025884   0.037245  -0.026568   0.000353
    31  O   -0.003583   0.022678  -0.024381   0.014909  -0.002562   0.000440
    32  H   -0.002107  -0.000560  -0.000060   0.000071   0.000529   0.000042
    33  O   -0.031677   0.055859  -0.018490  -0.012687  -0.011612  -0.000036
    34  H   -0.004389  -0.013385   0.021509  -0.013334   0.012054  -0.000037
    35  O    0.075506  -0.085923  -0.007907  -0.004404   0.001735  -0.000003
    36  H    0.094169  -0.051765  -0.003523   0.006745  -0.015060   0.000006
    37  H    0.030043  -0.018735  -0.002785   0.000063  -0.000384   0.000000
    38  O    0.110668   0.001589  -0.049568   0.056990  -0.249168  -0.000003
    39  H   -0.031714  -0.010971   0.036814  -0.099402   0.123442  -0.000026
    40  H    0.012675  -0.006247  -0.019976   0.078554  -0.030352   0.000091
               7          8          9         10         11         12
     1  C    0.144346  -0.014077   0.010977  -0.577247   0.023894   0.131961
     2  C    0.211252   0.004426   0.004795   0.160540  -0.205197  -0.066901
     3  C    0.024426  -0.009137  -0.016717  -0.201750   0.074337  -0.092667
     4  C   -0.002546   0.354326   0.008442  -0.026306   0.008903   0.002976
     5  C    0.002862   0.009365   0.385628   0.031553   0.015502  -0.004773
     6  H   -0.000129  -0.003460  -0.000166  -0.015125   0.002779   0.000223
     7  H    0.455010   0.000026  -0.000099   0.015689  -0.000132  -0.000222
     8  H    0.000026   0.488675  -0.003692   0.002562  -0.000003   0.000004
     9  H   -0.000099  -0.003692   0.470468   0.000374  -0.000005   0.000004
    10  C    0.015689   0.002562   0.000374   6.242627   0.447693   0.407547
    11  H   -0.000132  -0.000003  -0.000005   0.447693   0.496508  -0.021679
    12  H   -0.000222   0.000004   0.000004   0.407547  -0.021679   0.483380
    13  H    0.000607   0.000003   0.000001   0.395651  -0.021232  -0.030128
    14  N   -0.050269   0.004312  -0.057664  -0.076032  -0.000045  -0.005218
    15  C   -0.033447   0.002138   0.023659  -0.025241   0.001209  -0.001630
    16  H    0.000499  -0.000021   0.001306  -0.001868  -0.000000   0.000001
    17  H    0.005727   0.000008   0.000184   0.005327  -0.000001  -0.000007
    18  C    0.011836  -0.000072  -0.007048   0.007211  -0.000150   0.000741
    19  H    0.000002   0.000057   0.000717   0.001068  -0.000000  -0.000002
    20  H   -0.000108  -0.000001  -0.000301  -0.000225   0.000000   0.000000
    21  C   -0.005050   0.000121  -0.003937   0.029720   0.000085  -0.000892
    22  H    0.000039  -0.000000   0.000005   0.000012   0.000000   0.000000
    23  H    0.000152   0.000000  -0.000010   0.000771  -0.000000  -0.000004
    24  C    0.007853  -0.000159   0.005350  -0.047864  -0.000980   0.000048
    25  O   -0.000950  -0.000282  -0.000024   0.005262  -0.000018   0.000012
    26  O   -0.010883   0.000076  -0.000469  -0.002740  -0.000030   0.000001
    27  P    0.000018  -0.000263   0.000572   0.006114   0.000464  -0.003114
    28  O    0.000146  -0.003570  -0.000139  -0.008010  -0.001050  -0.000107
    29  O   -0.001836   0.000032  -0.000039  -0.018382  -0.003612  -0.009353
    30  H    0.002720  -0.000055   0.000018   0.016189  -0.000801   0.003393
    31  O    0.000004  -0.000107   0.000004  -0.010262   0.000418   0.000138
    32  H    0.000001  -0.000001   0.000000   0.002893  -0.000010   0.000052
    33  O    0.000029   0.000086   0.000045   0.011299  -0.000046   0.000013
    34  H    0.000004   0.000055  -0.000050  -0.000304   0.000014  -0.000017
    35  O   -0.008484  -0.000001  -0.000007  -0.001716  -0.000066  -0.000886
    36  H   -0.012190   0.000002   0.000038  -0.009880   0.000070   0.000239
    37  H   -0.003242   0.000000  -0.000000   0.002269   0.000001  -0.000047
    38  O   -0.000141  -0.002127  -0.022490   0.004468  -0.000007  -0.000008
    39  H    0.000059   0.000622   0.000792  -0.000920   0.000001   0.000002
    40  H   -0.000010  -0.002469   0.001482  -0.001756   0.000003   0.000004
              13         14         15         16         17         18
     1  C   -0.071039  -0.120307   0.718442   0.009474  -0.006793  -0.162897
     2  C   -0.027970   0.246615  -0.835597  -0.007460   0.029327   0.161487
     3  C    0.065843  -0.331296  -0.074504   0.001258  -0.007040  -0.045388
     4  C   -0.001664   0.247038  -0.125474   0.014699   0.000424   0.080602
     5  C   -0.002510  -0.091230  -0.107266  -0.017277  -0.013199  -0.137867
     6  H    0.000077   0.001019  -0.000448  -0.000002  -0.000001   0.000050
     7  H    0.000607  -0.050269  -0.033447   0.000499   0.005727   0.011836
     8  H    0.000003   0.004312   0.002138  -0.000021   0.000008  -0.000072
     9  H    0.000001  -0.057664   0.023659   0.001306   0.000184  -0.007048
    10  C    0.395651  -0.076032  -0.025241  -0.001868   0.005327   0.007211
    11  H   -0.021232  -0.000045   0.001209  -0.000000  -0.000001  -0.000150
    12  H   -0.030128  -0.005218  -0.001630   0.000001  -0.000007   0.000741
    13  H    0.496710   0.002002   0.000402  -0.000003  -0.000010   0.000002
    14  N    0.002002   6.597108   0.039944  -0.053488  -0.060084   0.084074
    15  C    0.000402   0.039944   6.368373   0.438421   0.452199  -0.234502
    16  H   -0.000003  -0.053488   0.438421   0.494548  -0.021762  -0.050888
    17  H   -0.000010  -0.060084   0.452199  -0.021762   0.412040  -0.033905
    18  C    0.000002   0.084074  -0.234502  -0.050888  -0.033905   5.764773
    19  H   -0.000000  -0.004691   0.002408  -0.002571   0.002543   0.418007
    20  H   -0.000000  -0.000794  -0.033817  -0.006285  -0.000976   0.437632
    21  C   -0.000091   0.012499  -0.192105   0.005068  -0.016880   0.088158
    22  H   -0.000000   0.001473   0.008156  -0.000092   0.000245  -0.034917
    23  H   -0.000000   0.003671  -0.017737  -0.000257  -0.000170   0.014748
    24  C    0.000238  -0.029745   0.143166   0.006551   0.006013  -0.209658
    25  O   -0.000003   0.024040   0.015939  -0.000337  -0.000967  -0.008922
    26  O    0.000251   0.046820  -0.061037   0.000540  -0.002240   0.056617
    27  P    0.000566   0.001845   0.001842  -0.000091   0.000149   0.000117
    28  O   -0.000176   0.004299  -0.006747   0.000050  -0.000019  -0.001979
    29  O    0.001828  -0.005884   0.008028   0.000006  -0.000128  -0.005027
    30  H   -0.000470  -0.006946  -0.012952  -0.000011   0.000190   0.009805
    31  O    0.000017   0.000045  -0.000087  -0.000000   0.000000  -0.000212
    32  H    0.000002  -0.000076   0.000005  -0.000000  -0.000000   0.000056
    33  O   -0.000013   0.000010  -0.000037  -0.000002  -0.000012  -0.004358
    34  H    0.000001  -0.002549  -0.000294   0.000004   0.000008   0.007998
    35  O    0.000213   0.017047  -0.017308   0.000282   0.009410   0.033790
    36  H    0.000022  -0.012118   0.014206   0.000071  -0.001985  -0.012217
    37  H    0.000012  -0.001166   0.007956  -0.000024  -0.000370  -0.006076
    38  O    0.000007   0.063746   0.004895  -0.000323  -0.000566  -0.032900
    39  H   -0.000000  -0.016385   0.009129   0.000009   0.000061   0.006601
    40  H    0.000001  -0.008542  -0.000282  -0.000006   0.000025   0.003137
              19         20         21         22         23         24
     1  C    0.007244  -0.000764   0.148430  -0.003040  -0.008405  -0.280242
     2  C    0.001207   0.000400  -0.005483   0.002073   0.004772   0.145885
     3  C   -0.008798   0.001272  -0.032599   0.000359  -0.000928  -0.020608
     4  C   -0.016453  -0.002207   0.023738  -0.000012  -0.000799   0.044394
     5  C    0.000039   0.008703  -0.003081   0.003261  -0.000018  -0.041064
     6  H    0.000000   0.000000   0.000151  -0.000000   0.000000  -0.000368
     7  H    0.000002  -0.000108  -0.005050   0.000039   0.000152   0.007853
     8  H    0.000057  -0.000001   0.000121  -0.000000   0.000000  -0.000159
     9  H    0.000717  -0.000301  -0.003937   0.000005  -0.000010   0.005350
    10  C    0.001068  -0.000225   0.029720   0.000012   0.000771  -0.047864
    11  H   -0.000000   0.000000   0.000085   0.000000  -0.000000  -0.000980
    12  H   -0.000002   0.000000  -0.000892   0.000000  -0.000004   0.000048
    13  H   -0.000000  -0.000000  -0.000091  -0.000000  -0.000000   0.000238
    14  N   -0.004691  -0.000794   0.012499   0.001473   0.003671  -0.029745
    15  C    0.002408  -0.033817  -0.192105   0.008156  -0.017737   0.143166
    16  H   -0.002571  -0.006285   0.005068  -0.000092  -0.000257   0.006551
    17  H    0.002543  -0.000976  -0.016880   0.000245  -0.000170   0.006013
    18  C    0.418007   0.437632   0.088158  -0.034917   0.014748  -0.209658
    19  H    0.485486  -0.029203  -0.006716  -0.003241   0.003799  -0.032127
    20  H   -0.029203   0.510658  -0.064195  -0.006632  -0.003907   0.021456
    21  C   -0.006716  -0.064195   6.860769   0.473609   0.471966  -1.169994
    22  H   -0.003241  -0.006632   0.473609   0.487629  -0.028439  -0.101043
    23  H    0.003799  -0.003907   0.471966  -0.028439   0.475300  -0.120506
    24  C   -0.032127   0.021456  -1.169994  -0.101043  -0.120506   6.671650
    25  O   -0.005124  -0.000784  -0.134866  -0.003023   0.005489   0.379105
    26  O    0.001104  -0.002024   0.016722   0.013779   0.002346  -0.074060
    27  P    0.000094   0.000051  -0.043333   0.000027   0.000042  -0.008183
    28  O   -0.000235  -0.000012   0.006192   0.000009   0.000015   0.000651
    29  O    0.000059  -0.000002  -0.015888   0.000043  -0.000023  -0.022170
    30  H    0.000002  -0.000007   0.021156  -0.000096   0.000138   0.030803
    31  O   -0.000006   0.000000  -0.002757   0.000002  -0.000000  -0.004557
    32  H    0.000000  -0.000000  -0.000128  -0.000000  -0.000000  -0.000472
    33  O   -0.000063  -0.000007   0.020393   0.000014  -0.000079   0.000079
    34  H    0.000330  -0.000008   0.006183  -0.000185   0.000167   0.007984
    35  O   -0.000345   0.000111  -0.029326   0.001415   0.002633  -0.012463
    36  H    0.000338  -0.000154  -0.002453  -0.001183  -0.007987   0.051921
    37  H    0.000020   0.000005   0.004052  -0.000091   0.000054  -0.000558
    38  O   -0.003333   0.000430   0.058623   0.000115  -0.000391  -0.070761
    39  H    0.005680   0.000054  -0.029693  -0.000030   0.000117   0.061352
    40  H    0.001010  -0.000013  -0.003475   0.000003   0.000014  -0.002050
              25         26         27         28         29         30
     1  C    0.061665   0.084644  -0.161402   0.030799   0.162437  -0.141974
     2  C   -0.002958  -0.164780   0.169488  -0.046116  -0.281917   0.193728
     3  C   -0.057637   0.051954  -0.028875   0.014874   0.095821  -0.025884
     4  C    0.056851  -0.080986  -0.065576  -0.009328  -0.039473   0.037245
     5  C   -0.076661   0.087460   0.096498  -0.051574   0.025128  -0.026568
     6  H    0.000095  -0.000334   0.002869  -0.019649  -0.001346   0.000353
     7  H   -0.000950  -0.010883   0.000018   0.000146  -0.001836   0.002720
     8  H   -0.000282   0.000076  -0.000263  -0.003570   0.000032  -0.000055
     9  H   -0.000024  -0.000469   0.000572  -0.000139  -0.000039   0.000018
    10  C    0.005262  -0.002740   0.006114  -0.008010  -0.018382   0.016189
    11  H   -0.000018  -0.000030   0.000464  -0.001050  -0.003612  -0.000801
    12  H    0.000012   0.000001  -0.003114  -0.000107  -0.009353   0.003393
    13  H   -0.000003   0.000251   0.000566  -0.000176   0.001828  -0.000470
    14  N    0.024040   0.046820   0.001845   0.004299  -0.005884  -0.006946
    15  C    0.015939  -0.061037   0.001842  -0.006747   0.008028  -0.012952
    16  H   -0.000337   0.000540  -0.000091   0.000050   0.000006  -0.000011
    17  H   -0.000967  -0.002240   0.000149  -0.000019  -0.000128   0.000190
    18  C   -0.008922   0.056617   0.000117  -0.001979  -0.005027   0.009805
    19  H   -0.005124   0.001104   0.000094  -0.000235   0.000059   0.000002
    20  H   -0.000784  -0.002024   0.000051  -0.000012  -0.000002  -0.000007
    21  C   -0.134866   0.016722  -0.043333   0.006192  -0.015888   0.021156
    22  H   -0.003023   0.013779   0.000027   0.000009   0.000043  -0.000096
    23  H    0.005489   0.002346   0.000042   0.000015  -0.000023   0.000138
    24  C    0.379105  -0.074060  -0.008183   0.000651  -0.022170   0.030803
    25  O    8.374387  -0.014286   0.054244  -0.001890  -0.013173  -0.016594
    26  O   -0.014286   8.820782   0.035762  -0.011167   0.037743  -0.038848
    27  P    0.054244   0.035762  12.615936   0.386806   0.274330   0.009001
    28  O   -0.001890  -0.011167   0.386806   8.432871  -0.042112  -0.012557
    29  O   -0.013173   0.037743   0.274330  -0.042112   8.253068   0.173564
    30  H   -0.016594  -0.038848   0.009001  -0.012557   0.173564   0.347166
    31  O    0.008129   0.003785   0.190663  -0.014166   0.026697  -0.005246
    32  H   -0.000084   0.000088   0.007670  -0.011322  -0.004621   0.001568
    33  O    0.000740  -0.011349   0.253579  -0.019403   0.003035   0.002455
    34  H    0.017106   0.004129  -0.010976  -0.001048  -0.007073   0.003254
    35  O    0.000477  -0.013203   0.000275  -0.000119   0.001041  -0.006883
    36  H    0.002492  -0.030898   0.002227  -0.000032  -0.002158   0.004238
    37  H    0.000172  -0.000847   0.000358  -0.000002   0.000075  -0.000334
    38  O    0.056775  -0.005220  -0.036825   0.009069  -0.002500  -0.000371
    39  H   -0.022901  -0.002953   0.005215  -0.006754   0.001005   0.000643
    40  H   -0.003780   0.000217   0.018094   0.015947   0.000863  -0.000083
              31         32         33         34         35         36
     1  C   -0.003583  -0.002107  -0.031677  -0.004389   0.075506   0.094169
     2  C    0.022678  -0.000560   0.055859  -0.013385  -0.085923  -0.051765
     3  C   -0.024381  -0.000060  -0.018490   0.021509  -0.007907  -0.003523
     4  C    0.014909   0.000071  -0.012687  -0.013334  -0.004404   0.006745
     5  C   -0.002562   0.000529  -0.011612   0.012054   0.001735  -0.015060
     6  H    0.000440   0.000042  -0.000036  -0.000037  -0.000003   0.000006
     7  H    0.000004   0.000001   0.000029   0.000004  -0.008484  -0.012190
     8  H   -0.000107  -0.000001   0.000086   0.000055  -0.000001   0.000002
     9  H    0.000004   0.000000   0.000045  -0.000050  -0.000007   0.000038
    10  C   -0.010262   0.002893   0.011299  -0.000304  -0.001716  -0.009880
    11  H    0.000418  -0.000010  -0.000046   0.000014  -0.000066   0.000070
    12  H    0.000138   0.000052   0.000013  -0.000017  -0.000886   0.000239
    13  H    0.000017   0.000002  -0.000013   0.000001   0.000213   0.000022
    14  N    0.000045  -0.000076   0.000010  -0.002549   0.017047  -0.012118
    15  C   -0.000087   0.000005  -0.000037  -0.000294  -0.017308   0.014206
    16  H   -0.000000  -0.000000  -0.000002   0.000004   0.000282   0.000071
    17  H    0.000000  -0.000000  -0.000012   0.000008   0.009410  -0.001985
    18  C   -0.000212   0.000056  -0.004358   0.007998   0.033790  -0.012217
    19  H   -0.000006   0.000000  -0.000063   0.000330  -0.000345   0.000338
    20  H    0.000000  -0.000000  -0.000007  -0.000008   0.000111  -0.000154
    21  C   -0.002757  -0.000128   0.020393   0.006183  -0.029326  -0.002453
    22  H    0.000002  -0.000000   0.000014  -0.000185   0.001415  -0.001183
    23  H   -0.000000  -0.000000  -0.000079   0.000167   0.002633  -0.007987
    24  C   -0.004557  -0.000472   0.000079   0.007984  -0.012463   0.051921
    25  O    0.008129  -0.000084   0.000740   0.017106   0.000477   0.002492
    26  O    0.003785   0.000088  -0.011349   0.004129  -0.013203  -0.030898
    27  P    0.190663   0.007670   0.253579  -0.010976   0.000275   0.002227
    28  O   -0.014166  -0.011322  -0.019403  -0.001048  -0.000119  -0.000032
    29  O    0.026697  -0.004621   0.003035  -0.007073   0.001041  -0.002158
    30  H   -0.005246   0.001568   0.002455   0.003254  -0.006883   0.004238
    31  O    8.038938   0.231020  -0.010076  -0.007885   0.000037  -0.000038
    32  H    0.231020   0.465844  -0.000322   0.000792  -0.000001   0.000000
    33  O   -0.010076  -0.000322   8.184360   0.216004  -0.000078   0.000076
    34  H   -0.007885   0.000792   0.216004   0.270675  -0.000022  -0.000044
    35  O    0.000037  -0.000001  -0.000078  -0.000022   8.231131   0.220619
    36  H   -0.000038   0.000000   0.000076  -0.000044   0.220619   0.400048
    37  H    0.000000   0.000000   0.000004  -0.000003   0.246296  -0.002871
    38  O    0.000488   0.000029   0.022931  -0.017462  -0.000106   0.000061
    39  H   -0.000665   0.000011  -0.010676   0.015200   0.000054  -0.000147
    40  H    0.000877  -0.000016  -0.004392  -0.000320   0.000006   0.000002
              37         38         39         40
     1  C    0.030043   0.110668  -0.031714   0.012675
     2  C   -0.018735   0.001589  -0.010971  -0.006247
     3  C   -0.002785  -0.049568   0.036814  -0.019976
     4  C    0.000063   0.056990  -0.099402   0.078554
     5  C   -0.000384  -0.249168   0.123442  -0.030352
     6  H    0.000000  -0.000003  -0.000026   0.000091
     7  H   -0.003242  -0.000141   0.000059  -0.000010
     8  H    0.000000  -0.002127   0.000622  -0.002469
     9  H   -0.000000  -0.022490   0.000792   0.001482
    10  C    0.002269   0.004468  -0.000920  -0.001756
    11  H    0.000001  -0.000007   0.000001   0.000003
    12  H   -0.000047  -0.000008   0.000002   0.000004
    13  H    0.000012   0.000007  -0.000000   0.000001
    14  N   -0.001166   0.063746  -0.016385  -0.008542
    15  C    0.007956   0.004895   0.009129  -0.000282
    16  H   -0.000024  -0.000323   0.000009  -0.000006
    17  H   -0.000370  -0.000566   0.000061   0.000025
    18  C   -0.006076  -0.032900   0.006601   0.003137
    19  H    0.000020  -0.003333   0.005680   0.001010
    20  H    0.000005   0.000430   0.000054  -0.000013
    21  C    0.004052   0.058623  -0.029693  -0.003475
    22  H   -0.000091   0.000115  -0.000030   0.000003
    23  H    0.000054  -0.000391   0.000117   0.000014
    24  C   -0.000558  -0.070761   0.061352  -0.002050
    25  O    0.000172   0.056775  -0.022901  -0.003780
    26  O   -0.000847  -0.005220  -0.002953   0.000217
    27  P    0.000358  -0.036825   0.005215   0.018094
    28  O   -0.000002   0.009069  -0.006754   0.015947
    29  O    0.000075  -0.002500   0.001005   0.000863
    30  H   -0.000334  -0.000371   0.000643  -0.000083
    31  O    0.000000   0.000488  -0.000665   0.000877
    32  H    0.000000   0.000029   0.000011  -0.000016
    33  O    0.000004   0.022931  -0.010676  -0.004392
    34  H   -0.000003  -0.017462   0.015200  -0.000320
    35  O    0.246296  -0.000106   0.000054   0.000006
    36  H   -0.002871   0.000061  -0.000147   0.000002
    37  H    0.449383   0.000000   0.000001   0.000000
    38  O    0.000000   8.075958   0.245244   0.294063
    39  H    0.000001   0.245244   0.413747  -0.011571
    40  H    0.000000   0.294063  -0.011571   0.392335
 Mulliken charges:
               1
     1  C   -0.460471
     2  C    0.588935
     3  C   -0.439874
     4  C   -0.097948
     5  C   -0.230523
     6  H    0.173561
     7  H    0.246433
     8  H    0.172601
     9  H    0.197998
    10  C   -0.771211
    11  H    0.183188
    12  H    0.206916
    13  H    0.190856
    14  N    0.536921
    15  C   -0.480004
    16  H    0.189980
    17  H    0.243235
    18  C   -0.198458
    19  H    0.181693
    20  H    0.171655
    21  C   -0.484693
    22  H    0.189755
    23  H    0.203471
    24  C    0.665133
    25  O   -0.697713
    26  O   -0.736462
    27  P    1.223723
    28  O   -0.632444
    29  O   -0.588089
    30  H    0.439051
    31  O   -0.452698
    32  H    0.309105
    33  O   -0.635595
    34  H    0.495912
    35  O   -0.652829
    36  H    0.369113
    37  H    0.296770
    38  O   -0.511879
    39  H    0.318952
    40  H    0.275935
 Sum of Mulliken charges =  -0.00000
 Mulliken charges with hydrogens summed into heavy atoms:
               1
     1  C   -0.214038
     2  C    0.588935
     3  C   -0.266312
     4  C    0.074653
     5  C   -0.032525
    10  C   -0.190252
    14  N    0.536921
    15  C   -0.046789
    18  C    0.154891
    21  C   -0.091466
    24  C    0.665133
    25  O   -0.697713
    26  O   -0.736462
    27  P    1.223723
    28  O   -0.632444
    29  O   -0.149039
    31  O   -0.143593
    33  O   -0.139683
    35  O    0.013054
    38  O    0.083008
         Mulliken charges condensed to fragments:
      1     -0.255026
      2      0.158964
      3      0.013054
      4      0.083008
 Electronic spatial extent (au):  <R**2>=         301982.1944
 Charge=              0.0000 electrons
 Dipole moment (field-independent basis, Debye):
    X=              0.0037    Y=             -3.1971    Z=              5.3473  Tot=              6.2301
 Quadrupole moment (field-independent basis, Debye-Ang):
   XX=           -119.9036   YY=           -195.6263   ZZ=            -62.2642
   XY=            -50.0263   XZ=             86.7931   YZ=             44.7584
 Traceless Quadrupole moment (field-independent basis, Debye-Ang):
   XX=              6.0278   YY=            -69.6949   ZZ=             63.6672
   XY=            -50.0263   XZ=             86.7931   YZ=             44.7584
 Octapole moment (field-independent basis, Debye-Ang**2):
  XXX=          -6193.8598  YYY=          -5785.0852  ZZZ=          -2097.6991  XYY=          -3228.4101
  XXY=          -2259.7202  XXZ=            587.8926  XZZ=          -1137.3869  YZZ=           -901.4283
  YYZ=           -533.7972  XYZ=            742.0519
 Hexadecapole moment (field-independent basis, Debye-Ang**3):
 XXXX=        -215643.2558 YYYY=        -132563.2429 ZZZZ=         -35709.2040 XXXY=         -88569.9354
 XXXZ=         -19189.7353 YYYX=         -96686.4573 YYYZ=         -29959.8569 ZZZX=         -36264.4449
 ZZZY=         -26384.1715 XXYY=         -72187.6412 XXZZ=         -27094.5994 YYZZ=         -19192.5709
 XXYZ=           2202.0198 YYXZ=          -8929.4731 ZZXY=         -16040.5719
 N-N= 2.086876463188D+03 E-N=-7.447936350473D+03  KE= 1.386452433625D+03
 No NMR shielding tensors so no spin-rotation constants.
 Leave Link  601 at Thu Dec 15 11:57:15 2022, MaxMem= 13421772800 cpu:               4.8 elap:               0.3
 (Enter /data0/home/software/g16/l122.exe)
 CPIOFr:  IOpCl= 0 IRwI=-1 IRwCP=  731 ICalc= -1 LCPTot=      684150 Len1MO=     1798670 IndFrg=      684150
 CPIOFr:  IOpCl= 0 IRwI=-1 IRwCP=  731 ICalc=  0 LCPTot=      684150 Len1MO=     1798670 IndFrg=     2482820
 Counterpoise: doing calculation for fragment   1 using the basis set of the full-system, NewBq=T
 Leave Link  122 at Thu Dec 15 11:57:15 2022, MaxMem= 13421772800 cpu:               0.6 elap:               0.0
 (Enter /data0/home/software/g16/l301.exe)
 Basis read from rwf:  (5D, 7F)
 No pseudopotential information found on rwf file.
   668 basis functions,  1014 primitive gaussians,   708 cartesian basis functions
    48 alpha electrons       48 beta electrons
       nuclear repulsion energy       806.8862560366 Hartrees.
 IExCor= 4336 DFT=T Ex+Corr=M062X ExCW=0 ScaHFX=  0.540000
 ScaDFX=  1.000000  1.000000  1.000000  1.000000 ScalE2=  1.000000  1.000000
 IRadAn=      5 IRanWt=     -1 IRanGd=            0 ICorTp=0 IEmpDi=131
[...]
    27  P    0.000000
    28  O    0.000000
    29  O    0.000000
    31  O    0.000000
    33  O    0.000000
    35  O   -0.000000
    38  O    0.000000
         Mulliken charges condensed to fragments:
      1      0.000000
      2      0.000000
      3     -0.000000
      4      0.000000
 Electronic spatial extent (au):  <R**2>=          20812.1290
 Charge=             -0.0000 electrons
 Dipole moment (field-independent basis, Debye):
    X=              0.5580    Y=              1.7851    Z=             -0.9673  Tot=              2.1056
 Quadrupole moment (field-independent basis, Debye-Ang):
   XX=             11.4240   YY=             41.9659   ZZ=            -25.5116
   XY=             38.3190   XZ=             -9.6969   YZ=              6.6700
 Traceless Quadrupole moment (field-independent basis, Debye-Ang):
   XX=              2.1312   YY=             32.6731   ZZ=            -34.8043
   XY=             38.3190   XZ=             -9.6969   YZ=              6.6700
 Octapole moment (field-independent basis, Debye-Ang**2):
  XXX=            101.8695  YYY=            724.6373  ZZZ=           -488.8742  XYY=            828.0903
  XXY=            685.1999  XXZ=           -131.4043  XZZ=           -352.4626  YZZ=           -125.8861
  YYZ=            289.7639  XYZ=            209.3642
 Hexadecapole moment (field-independent basis, Debye-Ang**3):
 XXXX=          -1924.4181 YYYY=          10801.8815 ZZZZ=          -8145.5455 XXXY=          10533.6912
 XXXZ=          -3014.2473 YYYX=          13977.2785 YYYZ=           5720.1664 ZZZX=          -7336.7812
 ZZZY=          -4174.7313 XXYY=          14652.8193 XXZZ=          -5488.4220 YYZZ=            536.0768
 XXYZ=           4095.3466 YYXZ=           6299.7388 ZZXY=           -989.1707
 N-N= 9.068200157329D+00 E-N=-1.989835713323D+02  KE= 7.618256695390D+01
 No NMR shielding tensors so no spin-rotation constants.
 Leave Link  601 at Thu Dec 15 12:11:02 2022, MaxMem= 13421772800 cpu:               1.7 elap:               0.1
 (Enter /data0/home/software/g16/l122.exe)
 CPIOFr:  IOpCl= 0 IRwI=-1 IRwCP=  731 ICalc=  7 LCPTot=      684150 Len1MO=     1798670 IndFrg=    15073510
 Counterpoise: doing calculation for fragment   4 using the basis set of the fragment.
 Leave Link  122 at Thu Dec 15 12:11:02 2022, MaxMem= 13421772800 cpu:               0.3 elap:               0.0
 (Enter /data0/home/software/g16/l301.exe)
 Basis read from rwf:  (5D, 7F)
 No pseudopotential information found on rwf file.
    39 basis functions,    58 primitive gaussians,    41 cartesian basis functions
     5 alpha electrons        5 beta electrons
       nuclear repulsion energy         9.0916589827 Hartrees.
 IExCor= 4336 DFT=T Ex+Corr=M062X ExCW=0 ScaHFX=  0.540000
 ScaDFX=  1.000000  1.000000  1.000000  1.000000 ScalE2=  1.000000  1.000000
 IRadAn=      5 IRanWt=     -1 IRanGd=            0 ICorTp=0 IEmpDi=131
 NAtoms=   40 NActive=    3 NUniq=    3 SFac= 1.00D+00 NAtFMM=   60 NAOKFM=F Big=F
 Integral buffers will be    131072 words long.
 Raffenetti 2 integral format.
 Two-electron integral symmetry is turned off.
 R6Disp:  Grimme-D3 Dispersion energy=       -0.0000000072 Hartrees.
 Nuclear repulsion after empirical dispersion term =        9.0916589755 Hartrees.
 No density basis found on file   718.
 Leave Link  301 at Thu Dec 15 12:11:02 2022, MaxMem= 13421772800 cpu:               1.3 elap:               0.1
 (Enter /data0/home/software/g16/l302.exe)
 NPDir=0 NMtPBC=     1 NCelOv=     1 NCel=       1 NClECP=     1 NCelD=      1
         NCelK=      1 NCelE2=     1 NClLst=     1 CellRange=     0.0.
 One-electron integrals computed using PRISM.
 NBasis=    39 RedAO= T EigKep=  2.98D-03  NBF=    39
 NBsUse=    39 1.00D-06 EigRej= -1.00D+00 NBFU=    39
 Precomputing XC quadrature grid using
 IXCGrd= 4 IRadAn=           5 IRanWt=          -1 IRanGd=           0 AccXCQ= 0.00D+00.
 Generated NRdTot=       0 NPtTot=           0 NUsed=           0 NTot=          32
 NSgBfM=    41    41    41    41    41 MxSgAt=     3 MxSgA2=     3.
 Leave Link  302 at Thu Dec 15 12:11:02 2022, MaxMem= 13421772800 cpu:               2.2 elap:               0.1
 (Enter /data0/home/software/g16/l303.exe)
 DipDrv:  MaxL=1.
 Leave Link  303 at Thu Dec 15 12:11:02 2022, MaxMem= 13421772800 cpu:               0.4 elap:               0.0
 (Enter /data0/home/software/g16/l401.exe)
 ExpMin= 8.45D-02 ExpMax= 8.59D+03 ExpMxC= 1.30D+03 IAcc=3 IRadAn=         5 AccDes= 0.00D+00
 Harris functional with IExCor= 1009 and IRadAn=       5 diagonalized for initial guess.
 HarFok:  IExCor= 1009 AccDes= 0.00D+00 IRadAn=         5 IDoV= 1 UseB2=F ITyADJ=14
 ICtDFT=  3500011 ScaDFX=  1.000000  1.000000  1.000000  1.000000
 FoFCou: FMM=F IPFlag=           0 FMFlag=      100000 FMFlg1=           0
         NFxFlg=           0 DoJE=T BraDBF=F KetDBF=T FulRan=T
         wScrn=  0.000000 ICntrl=       500 IOpCl=  0 I1Cent=   200000004 NGrid=           0
         NMat0=    1 NMatS0=      1 NMatT0=    0 NMatD0=    1 NMtDS0=    0 NMtDT0=    0
 Symmetry not used in FoFCou.
 Harris En= -76.4161932878363    
 JPrj=0 DoOrth=F DoCkMO=F.
 Leave Link  401 at Thu Dec 15 12:11:02 2022, MaxMem= 13421772800 cpu:               2.9 elap:               0.1
 (Enter /data0/home/software/g16/l502.exe)
 Keep R1 ints in memory in canonical form, NReq=21045129.
 FoFCou: FMM=F IPFlag=           0 FMFlag=           0 FMFlg1=           0
         NFxFlg=           0 DoJE=F BraDBF=F KetDBF=F FulRan=T
         wScrn=  0.000000 ICntrl=       600 IOpCl=  0 I1Cent=           0 NGrid=           0
         NMat0=    1 NMatS0=    780 NMatT0=    0 NMatD0=    1 NMtDS0=    0 NMtDT0=    0
 Symmetry not used in FoFCou.
 Two-electron integral symmetry not used.
 Closed shell SCF:
 Using DIIS extrapolation, IDIIS=  1040.
 NGot= 13421772800 LenX= 13421462247 LenY= 13421460125
 Requested convergence on RMS density matrix=1.00D-08 within 128 cycles.
 Requested convergence on MAX density matrix=1.00D-06.
 Requested convergence on             energy=1.00D-06.
 No special actions if energy rises.
 Integral accuracy reduced to 1.0D-05 until final iterations.

 Cycle   1  Pass 0  IDiag  1:
 E= -76.3466922899490    
 DIIS: error= 6.98D-02 at cycle   1 NSaved=   1.
 NSaved= 1 IEnMin= 1 EnMin= -76.3466922899490     IErMin= 1 ErrMin= 6.98D-02
 ErrMax= 6.98D-02  0.00D+00 EMaxC= 1.00D-01 BMatC= 1.20D-01 BMatP= 1.20D-01
 IDIUse=3 WtCom= 3.02D-01 WtEn= 6.98D-01
 Coeff-Com:  0.100D+01
 Coeff-En:   0.100D+01
 Coeff:      0.100D+01
 Gap=     0.325 Goal=   None    Shift=    0.000
 GapD=    0.325 DampG=1.000 DampE=0.500 DampFc=0.5000 IDamp=-1.
 Damping current iteration by 5.00D-01
 RMSDP=8.00D-03 MaxDP=1.00D-01              OVMax= 1.67D-01

 Cycle   2  Pass 0  IDiag  1:
 E= -76.3779006690757     Delta-E=       -0.031208379127 Rises=F Damp=T
 DIIS: error= 1.13D-02 at cycle   2 NSaved=   2.
 NSaved= 2 IEnMin= 2 EnMin= -76.3779006690757     IErMin= 2 ErrMin= 1.13D-02
 ErrMax= 1.13D-02  0.00D+00 EMaxC= 1.00D-01 BMatC= 4.84D-03 BMatP= 1.20D-01
 IDIUse=3 WtCom= 8.87D-01 WtEn= 1.13D-01
 Coeff-Com:  0.833D-01 0.917D+00
 Coeff-En:   0.189D+00 0.811D+00
 Coeff:      0.953D-01 0.905D+00
 Gap=     0.457 Goal=   None    Shift=    0.000
 RMSDP=9.51D-04 MaxDP=1.41D-02 DE=-3.12D-02 OVMax= 1.00D-01

 Cycle   3  Pass 0  IDiag  1:
 E= -76.4216417513735     Delta-E=       -0.043741082298 Rises=F Damp=F
 DIIS: error= 2.15D-03 at cycle   3 NSaved=   3.
 NSaved= 3 IEnMin= 3 EnMin= -76.4216417513735     IErMin= 3 ErrMin= 2.15D-03
 ErrMax= 2.15D-03  0.00D+00 EMaxC= 1.00D-01 BMatC= 9.00D-05 BMatP= 4.84D-03
 IDIUse=3 WtCom= 9.78D-01 WtEn= 2.15D-02
 Coeff-Com: -0.199D-01 0.389D-01 0.981D+00
 Coeff-En:   0.000D+00 0.000D+00 0.100D+01
 Coeff:     -0.195D-01 0.381D-01 0.981D+00
 Gap=     0.461 Goal=   None    Shift=    0.000
 RMSDP=1.14D-04 MaxDP=9.82D-04 DE=-4.37D-02 OVMax= 3.31D-03

 Cycle   4  Pass 0  IDiag  1:
 E= -76.4217186575870     Delta-E=       -0.000076906213 Rises=F Damp=F
 DIIS: error= 4.13D-04 at cycle   4 NSaved=   4.
 NSaved= 4 IEnMin= 4 EnMin= -76.4217186575870     IErMin= 4 ErrMin= 4.13D-04
 ErrMax= 4.13D-04  0.00D+00 EMaxC= 1.00D-01 BMatC= 3.24D-06 BMatP= 9.00D-05
 IDIUse=3 WtCom= 9.96D-01 WtEn= 4.13D-03
 Coeff-Com: -0.185D-02-0.231D-02 0.161D+00 0.844D+00
 Coeff-En:   0.000D+00 0.000D+00 0.000D+00 0.100D+01
 Coeff:     -0.185D-02-0.230D-02 0.160D+00 0.844D+00
 Gap=     0.462 Goal=   None    Shift=    0.000
 RMSDP=2.22D-05 MaxDP=3.55D-04 DE=-7.69D-05 OVMax= 5.38D-04

 Cycle   5  Pass 0  IDiag  1:
 E= -76.4217206705181     Delta-E=       -0.000002012931 Rises=F Damp=F
 DIIS: error= 8.83D-05 at cycle   5 NSaved=   5.
 NSaved= 5 IEnMin= 5 EnMin= -76.4217206705181     IErMin= 5 ErrMin= 8.83D-05
 ErrMax= 8.83D-05  0.00D+00 EMaxC= 1.00D-01 BMatC= 8.18D-08 BMatP= 3.24D-06
 IDIUse=1 WtCom= 1.00D+00 WtEn= 0.00D+00
 Coeff-Com:  0.118D-02-0.180D-02-0.369D-01-0.617D-01 0.110D+01
 Coeff:      0.118D-02-0.180D-02-0.369D-01-0.617D-01 0.110D+01
 Gap=     0.462 Goal=   None    Shift=    0.000
 RMSDP=8.97D-06 MaxDP=1.01D-04 DE=-2.01D-06 OVMax= 2.02D-04

 Initial convergence to 1.0D-05 achieved.  Increase integral accuracy.
 Cycle   6  Pass 1  IDiag  1:
 E= -76.4217131788636     Delta-E=        0.000007491655 Rises=F Damp=F
 DIIS: error= 1.47D-05 at cycle   1 NSaved=   1.
 NSaved= 1 IEnMin= 1 EnMin= -76.4217131788636     IErMin= 1 ErrMin= 1.47D-05
 ErrMax= 1.47D-05  0.00D+00 EMaxC= 1.00D-01 BMatC= 9.51D-09 BMatP= 9.51D-09
 IDIUse=1 WtCom= 1.00D+00 WtEn= 0.00D+00
 Coeff-Com:  0.100D+01
 Coeff:      0.100D+01
 Gap=     0.462 Goal=   None    Shift=    0.000
 RMSDP=8.97D-06 MaxDP=1.01D-04 DE= 7.49D-06 OVMax= 4.44D-05

 Cycle   7  Pass 1  IDiag  1:
 E= -76.4217131870763     Delta-E=       -0.000000008213 Rises=F Damp=F
 DIIS: error= 1.36D-05 at cycle   2 NSaved=   2.
 NSaved= 2 IEnMin= 2 EnMin= -76.4217131870763     IErMin= 2 ErrMin= 1.36D-05
 ErrMax= 1.36D-05  0.00D+00 EMaxC= 1.00D-01 BMatC= 2.61D-09 BMatP= 9.51D-09
 IDIUse=1 WtCom= 1.00D+00 WtEn= 0.00D+00
 Coeff-Com:  0.256D+00 0.744D+00
 Coeff:      0.256D+00 0.744D+00
 Gap=     0.462 Goal=   None    Shift=    0.000
 RMSDP=8.74D-07 MaxDP=1.39D-05 DE=-8.21D-09 OVMax= 2.31D-05

 Cycle   8  Pass 1  IDiag  1:
 E= -76.4217131883082     Delta-E=       -0.000000001232 Rises=F Damp=F
 DIIS: error= 5.65D-06 at cycle   3 NSaved=   3.
 NSaved= 3 IEnMin= 3 EnMin= -76.4217131883082     IErMin= 3 ErrMin= 5.65D-06
 ErrMax= 5.65D-06  0.00D+00 EMaxC= 1.00D-01 BMatC= 1.01D-09 BMatP= 2.61D-09
 IDIUse=1 WtCom= 1.00D+00 WtEn= 0.00D+00
 Coeff-Com: -0.624D-01 0.379D+00 0.683D+00
 Coeff:     -0.624D-01 0.379D+00 0.683D+00
 Gap=     0.462 Goal=   None    Shift=    0.000
 RMSDP=3.83D-07 MaxDP=5.82D-06 DE=-1.23D-09 OVMax= 9.23D-06

 Cycle   9  Pass 1  IDiag  1:
 E= -76.4217131890068     Delta-E=       -0.000000000699 Rises=F Damp=F
 DIIS: error= 4.61D-07 at cycle   4 NSaved=   4.
 NSaved= 4 IEnMin= 4 EnMin= -76.4217131890068     IErMin= 4 ErrMin= 4.61D-07
 ErrMax= 4.61D-07  0.00D+00 EMaxC= 1.00D-01 BMatC= 2.72D-12 BMatP= 1.01D-09
 IDIUse=1 WtCom= 1.00D+00 WtEn= 0.00D+00
 Coeff-Com: -0.156D-02-0.276D-01-0.373D-01 0.107D+01
 Coeff:     -0.156D-02-0.276D-01-0.373D-01 0.107D+01
 Gap=     0.462 Goal=   None    Shift=    0.000
 RMSDP=6.29D-08 MaxDP=5.70D-07 DE=-6.99D-10 OVMax= 1.33D-06

 Cycle  10  Pass 1  IDiag  1:
 E= -76.4217131890126     Delta-E=       -0.000000000006 Rises=F Damp=F
 DIIS: error= 7.96D-08 at cycle   5 NSaved=   5.
 NSaved= 5 IEnMin= 5 EnMin= -76.4217131890126     IErMin= 5 ErrMin= 7.96D-08
 ErrMax= 7.96D-08  0.00D+00 EMaxC= 1.00D-01 BMatC= 2.15D-13 BMatP= 2.72D-12
 IDIUse=1 WtCom= 1.00D+00 WtEn= 0.00D+00
 Coeff-Com:  0.353D-02-0.286D-01-0.478D-01 0.152D+00 0.921D+00
 Coeff:      0.353D-02-0.286D-01-0.478D-01 0.152D+00 0.921D+00
 Gap=     0.462 Goal=   None    Shift=    0.000
 RMSDP=1.50D-08 MaxDP=1.21D-07 DE=-5.77D-12 OVMax= 3.34D-07

 Cycle  11  Pass 1  IDiag  1:
 E= -76.4217131890130     Delta-E=       -0.000000000000 Rises=F Damp=F
 DIIS: error= 1.47D-08 at cycle   6 NSaved=   6.
 NSaved= 6 IEnMin= 6 EnMin= -76.4217131890130     IErMin= 6 ErrMin= 1.47D-08
 ErrMax= 1.47D-08  0.00D+00 EMaxC= 1.00D-01 BMatC= 2.89D-15 BMatP= 2.15D-13
 IDIUse=1 WtCom= 1.00D+00 WtEn= 0.00D+00
 Coeff-Com: -0.672D-04 0.132D-02 0.301D-02-0.270D-01-0.458D-01 0.107D+01
 Coeff:     -0.672D-04 0.132D-02 0.301D-02-0.270D-01-0.458D-01 0.107D+01
 Gap=     0.462 Goal=   None    Shift=    0.000
 RMSDP=1.82D-09 MaxDP=1.40D-08 DE=-4.26D-13 OVMax= 4.03D-08

 SCF Done:  E(RM062X) =  -76.4217131890     A.U. after   11 cycles
            NFock= 11  Conv=0.18D-08     -V/T= 2.0030
 KE= 7.619259499413D+01 PE=-1.990300919545D+02 EE= 3.732412479577D+01
 Leave Link  502 at Thu Dec 15 12:11:03 2022, MaxMem= 13421772800 cpu:               8.6 elap:               0.4
 (Enter /data0/home/software/g16/l601.exe)
 Copying SCF densities to generalized density rwf, IOpCl= 0 IROHF=0.

 **********************************************************************

            Population analysis using the SCF density.

 **********************************************************************

 Alpha  occ. eigenvalues --  -19.62701  -1.13393  -0.60362  -0.47815  -0.40013
 Alpha virt. eigenvalues --    0.06206   0.13309   0.17428   0.17939   0.18889
 Alpha virt. eigenvalues --    0.23451   0.50877   0.53418   0.98190   1.00253
 Alpha virt. eigenvalues --    1.05997   1.17105   1.20271   1.31748   1.34024
 Alpha virt. eigenvalues --    1.70854   1.74410   1.75142   2.07265   2.09762
 Alpha virt. eigenvalues --    2.36252   2.39192   2.55115   2.87638   3.01339
 Alpha virt. eigenvalues --    5.05610   5.49274   5.90282   6.78569   6.79949
 Alpha virt. eigenvalues --    6.87320   6.91798   7.09420  49.95478
          Condensed to atoms (all electrons):
              38         39         40
    38  O    7.918560   0.315569   0.317225
    39  H    0.315569   0.431600  -0.023577
    40  H    0.317225  -0.023577   0.431405
 Mulliken charges:
               1
     1  C    0.000000
     2  C    0.000000
     3  C    0.000000
     4  C    0.000000
     5  C    0.000000
     6  H    0.000000
     7  H    0.000000
     8  H    0.000000
     9  H    0.000000
    10  C    0.000000
    11  H    0.000000
    12  H    0.000000
    13  H    0.000000
    14  N    0.000000
    15  C    0.000000
    16  H    0.000000
    17  H    0.000000
    18  C    0.000000
    19  H    0.000000
    20  H    0.000000
    21  C    0.000000
    22  H    0.000000
    23  H    0.000000
    24  C    0.000000
    25  O    0.000000
    26  O    0.000000
    27  P    0.000000
    28  O    0.000000
    29  O    0.000000
    30  H    0.000000
    31  O    0.000000
    32  H    0.000000
    33  O    0.000000
    34  H    0.000000
    35  O    0.000000
    36  H    0.000000
    37  H    0.000000
    38  O   -0.551354
    39  H    0.276407
    40  H    0.274947
 Sum of Mulliken charges =  -0.00000
 Mulliken charges with hydrogens summed into heavy atoms:
               1
     1  C    0.000000
     2  C    0.000000
     3  C    0.000000
     4  C    0.000000
     5  C    0.000000
    10  C    0.000000
    14  N    0.000000
    15  C    0.000000
    18  C    0.000000
    21  C    0.000000
    24  C    0.000000
    25  O    0.000000
    26  O    0.000000
    27  P    0.000000
    28  O    0.000000
    29  O    0.000000
    31  O    0.000000
    33  O    0.000000
    35  O    0.000000
    38  O   -0.000000
         Mulliken charges condensed to fragments:
      1      0.000000
      2      0.000000
      3      0.000000
      4     -0.000000
 Electronic spatial extent (au):  <R**2>=          14042.2286
 Charge=             -0.0000 electrons
 Dipole moment (field-independent basis, Debye):
    X=              1.2775    Y=              1.7175    Z=             -0.1353  Tot=              2.1448
 Quadrupole moment (field-independent basis, Debye-Ang):
   XX=             33.5147   YY=             33.5474   ZZ=             -8.2522
   XY=             40.5696   XZ=              3.2659   YZ=              8.0559
 Traceless Quadrupole moment (field-independent basis, Debye-Ang):
   XX=             13.9114   YY=             13.9441   ZZ=            -27.8555
   XY=             40.5696   XZ=              3.2659   YZ=              8.0559
 Octapole moment (field-independent basis, Debye-Ang**2):
  XXX=            641.3594  YYY=            478.2661  ZZZ=           -115.9149  XYY=            672.5064
  XXY=            775.6402  XXZ=            102.4903  XZZ=           -105.1797  YZZ=            -40.8321
  YYZ=            173.1325  XYZ=            182.5897
 Hexadecapole moment (field-independent basis, Debye-Ang**3):
 XXXX=          10473.8770 YYYY=           5821.9065 ZZZZ=          -1155.9799 XXXY=          13264.7631
 XXXZ=           1926.4665 YYYX=           9083.7412 YYYZ=           2583.2412 ZZZX=          -1697.9655
 ZZZY=          -1027.9953 XXYY=          11994.7151 XXZZ=          -1441.0249 YYZZ=             -1.7884
 XXYZ=           3368.5600 YYXZ=           3305.1928 ZZXY=           -392.7134
 N-N= 9.091658975548D+00 E-N=-1.990300921488D+02  KE= 7.619259499413D+01
 No NMR shielding tensors so no spin-rotation constants.
 Leave Link  601 at Thu Dec 15 12:11:03 2022, MaxMem= 13421772800 cpu:               1.8 elap:               0.1
 (Enter /data0/home/software/g16/l122.exe)
 CPIOFr:  IOpCl= 0 IRwI=-1 IRwCP=  731 ICalc=  8 LCPTot=      684150 Len1MO=     1798670 IndFrg=    16872180
 Restoring MOs from calculation   1 to rwf.
 CPIOFr:  IOpCl= 0 IRwI=-2 IRwCP=  731 ICalc=  0 LCPTot=      684150 Len1MO=     1798670 IndFrg=     2482820
 Counterpoise corrected energy =   -1391.092130323151
                   BSSE energy =       0.007059472061
              sum of fragments =   -1390.956863970642
           complexation energy =     -89.31 kcal/mole (raw)
           complexation energy =     -84.88 kcal/mole (corrected)
 Leave Link  122 at Thu Dec 15 12:11:03 2022, MaxMem= 13421772800 cpu:               0.6 elap:               0.0
 (Enter /data0/home/software/g16/l9999.exe)
 1\1\GINC-LOCALHOST\SP\RM062X\6-311+G(2d,p)\C10H20N1O8P1\WUHANYU\15-Dec
 -2022\0\\#p M062X/6-311+G(2d,p) nosymm em=GD3 counterpoise=4\\Title Ca
 rd Required\\0,1\C,0,17.69833,11.304887,8.64136\C,0,18.852226,11.11517
 6,7.877045\C,0,18.765613,10.39551,6.677841\C,0,17.53141,9.874655,6.288
 343\C,0,16.406672,10.068548,7.084896\H,0,19.651136,10.25582,6.047479\H
 ,0,17.726684,11.899502,9.57433\H,0,17.427512,9.354212,5.332698\H,0,15.
 420415,9.672965,6.799303\C,0,20.12659,11.724487,8.331533\H,0,20.890634
 ,11.742567,7.536466\H,0,19.985768,12.787599,8.610745\H,0,20.552471,11.
 20702,9.200382\N,0,16.505802,10.777254,8.246642\C,0,15.298476,10.98238
 7,9.081138\H,0,14.895303,9.983334,9.363791\H,0,15.587223,11.490888,10.
 038375\C,0,14.220107,11.813615,8.36616\H,0,14.142405,11.534292,7.29106
 2\H,0,13.231872,11.560552,8.803314\C,0,14.453988,13.317403,8.485163\H,
 0,13.557266,13.876121,8.150224\H,0,14.634157,13.623007,9.532791\C,0,15
 .635381,13.715783,7.599223\O,0,15.412511,13.906046,6.394368\O,0,16.762
 398,13.780444,8.150751\P,0,18.591969,13.52786,5.125319\O,0,18.34415,12
 .092802,4.927269\O,0,18.996074,13.938351,6.607229\H,0,18.121157,13.934
 739,7.21121\O,0,19.852041,13.992442,4.267651\H,0,19.970607,15.007191,4
 .42725\O,0,17.435933,14.514413,4.686189\H,0,16.60206,14.34462,5.337366
 \O,0,16.851678,13.426299,10.790383\H,0,16.803231,13.646007,9.822427\H,
 0,17.208931,14.201785,11.202601\O,0,15.30982,11.375279,5.111479\H,0,15
 .16866,12.272782,5.461565\H,0,16.171375,11.451377,4.686646\\Version=ES
 64L-G16RevA.03\HF=-76.4217132\RMSD=1.821e-09\Dipole=0.0206942,-1.18662
 65,2.1002983\Quadrupole=4.2215562,-49.8407103,45.6191541,-34.6782932,6
 4.6755395,34.2724422\PG=C01 [X(C10H20N1O8P1)]\\@


 A people that values its privileges above its principles soon loses both.
 -- Dwight D. Eisenhower
 Job cpu time:       0 days  7 hours  2 minutes 23.5 seconds.
 Elapsed time:       0 days  0 hours 17 minutes 42.1 seconds.
 File lengths (MBytes):  RWF=    402 Int=      0 D2E=      0 Chk=    154 Scr=      1
 Normal termination of Gaussian 16 at Thu Dec 15 12:11:03 2022.
