 Entering Gaussian System, Link 0=g16
 Initial command:
 /data0/home/software/g16/l1.exe "/data0/home/software/g16/scratch/Gau-3820615.inp" -scrdir="/data0/home/software/g16/scratch/"
 Default is to use a total of  22 processors:
                               22 via shared-memory
                                1 via Linda
 Entering Link 1 = /data0/home/software/g16/l1.exe PID=   3820616.
  
 Copyright (c) 1988,1990,1992,1993,1995,1998,2003,2009,2016,
            Gaussian, Inc.  All Rights Reserved.
  
 This is part of the Gaussian(R) 16 program.  It is based on
 the Gaussian(R) 09 system (copyright 2009, Gaussian, Inc.),
 the Gaussian(R) 03 system (copyright 2003, Gaussian, Inc.),
 the Gaussian(R) 98 system (copyright 1998, Gaussian, Inc.),
 the Gaussian(R) 94 system (copyright 1995, Gaussian, Inc.),
 the Gaussian 92(TM) system (copyright 1992, Gaussian, Inc.),
 the Gaussian 90(TM) system (copyright 1990, Gaussian, Inc.),
 the Gaussian 88(TM) system (copyright 1988, Gaussian, Inc.),
 the Gaussian 86(TM) system (copyright 1986, Carnegie Mellon
 University), and the Gaussian 82(TM) system (copyright 1983,
 Carnegie Mellon University). Gaussian is a federally registered
 trademark of Gaussian, Inc.
  
 This software contains proprietary and confidential information,
 including trade secrets, belonging to Gaussian, Inc.
  
 This software is provided under written license and may be
 used, copied, transmitted, or stored only in accord with that
 written license.
  
 The following legend is applicable only to US Government
 contracts under FAR:
  
                    RESTRICTED RIGHTS LEGEND
  
 Use, reproduction and disclosure by the US Government is
 subject to restrictions as set forth in subparagraphs (a)
 and (c) of the Commercial Computer Software - Restricted
 Rights clause in FAR 52.227-19.
  
 Gaussian, Inc.
 340 Quinnipiac St., Bldg. 40, Wallingford CT 06492
  
  
 ---------------------------------------------------------------
 Warning -- This program may not be used in any manner that
 competes with the business of Gaussian, Inc. or will provide
 assistance to any competitor of Gaussian, Inc.  The licensee
 of this program is prohibited from giving any competitor of
 Gaussian, Inc. access to this program.  By using this program,
 the user acknowledges that Gaussian, Inc. is engaged in the
 business of creating and licensing software in the field of
 computational chemistry and represents and warrants to the
 licensee that it is not a competitor of Gaussian, Inc. and that
 it will not use this program in any manner prohibited above.
 ---------------------------------------------------------------
  

 Cite this work as:
 Gaussian 16, Revision A.03,
 M. J. Frisch, G. W. Trucks, H. B. Schlegel, G. E. Scuseria, 
 M. A. Robb, J. R. Cheeseman, G. Scalmani, V. Barone, 
 G. A. Petersson, H. Nakatsuji, X. Li, M. Caricato, A. V. Marenich, 
 J. Bloino, B. G. Janesko, R. Gomperts, B. Mennucci, H. P. Hratchian, 
 J. V. Ortiz, A. F. Izmaylov, J. L. Sonnenberg, D. Williams-Young, 
 F. Ding, F. Lipparini, F. Egidi, J. Goings, B. Peng, A. Petrone, 
 T. Henderson, D. Ranasinghe, V. G. Zakrzewski, J. Gao, N. Rega, 
 G. Zheng, W. Liang, M. Hada, M. Ehara, K. Toyota, R. Fukuda, 
 J. Hasegawa, M. Ishida, T. Nakajima, Y. Honda, O. Kitao, H. Nakai, 
 T. Vreven, K. Throssell, J. A. Montgomery, Jr., J. E. Peralta, 
 F. Ogliaro, M. J. Bearpark, J. J. Heyd, E. N. Brothers, K. N. Kudin, 
 V. N. Staroverov, T. A. Keith, R. Kobayashi, J. Normand, 
 K. Raghavachari, A. P. Rendell, J. C. Burant, S. S. Iyengar, 
 J. Tomasi, M. Cossi, J. M. Millam, M. Klene, C. Adamo, R. Cammi, 
 J. W. Ochterski, R. L. Martin, K. Morokuma, O. Farkas, 
 J. B. Foresman, and D. J. Fox, Gaussian, Inc., Wallingford CT, 2016.
 
 ******************************************
 Gaussian 16:  ES64L-G16RevA.03 25-Dec-2016
                17-Dec-2022 
 ******************************************
 %nproc=24
 Will use up to   24 processors via shared memory.
 %mem=50GB
 ---------------------------------------------------
 #p M062X/6-311+G(2d,p) nosymm em=GD3 counterpoise=2
 ---------------------------------------------------
 1/38=1,62=2,172=1/1;
 2/12=2,15=1,17=6,18=5,40=1/2;
 1/38=1,53=2,62=2,63=1/22;
 3/5=4,6=6,7=112,11=2,25=1,30=1,74=-55,124=31/1,2,3;
 4//1;
 5/5=2,38=5/2;
 6/7=2,8=2,9=2,10=2,28=1/1;
 1/53=2,62=2,63=1/22;
 3/5=7,6=11,7=112,11=2,25=1,30=1,74=-55,82=7,124=31/1,2,3;
 4//1;
 5/5=2,38=5/2;
 6/7=2,8=2,9=2,10=2,28=1/1;
 1/53=2,62=2,63=1/22(-4);
 99/5=1,9=1/99;
 Leave Link    1 at Sat Dec 17 23:03:48 2022, MaxMem=  6710886400 cpu:               0.7 elap:               0.0
 (Enter /data0/home/software/g16/l101.exe)
 -------------------
 Title Card Required
 -------------------
 Symbolic Z-matrix:
 Charge =  0 Multiplicity = 1 in supermolecule
 Charge =  0 Multiplicity = 1 in fragment      1.
 Charge =  0 Multiplicity = 1 in fragment      2.
 C                     11.28525   10.97493   11.62837    
 C                     11.98453   9.74335   11.38133    
 C                     13.24934   9.76016   10.78486    
 C                     13.78089   10.99133   10.44443    
 C                     13.08881   12.19679   10.69305    
 C                     11.83951   12.21144   11.28875    
 H                     13.78582   8.82916   10.61294    
 H                     14.76317   11.04447   9.97484    
 H                     13.56201   13.13724   10.40879    
 H                     11.30915   13.13765   11.49424    
 H                     9.31048   11.25844   12.43225    
 C                     10.0522   9.22123   12.28919    
 H                     9.20605   8.66477   12.67704    
 N                     10.07142   10.61635   12.2188    
 N                     11.18513   8.68223   11.81439    
 P                     9.33564   7.02224   9.42653    
 O                     8.62017   8.0691    10.17172    
 O                     10.7147   6.53169   10.03422    
 H                     10.95586   7.11598   10.8837    
 O                     8.43896   5.71431   9.3247     
 H                     8.97828   5.01042   8.79349    
 O                     9.65883   7.33079   7.90746    
 H                     10.52746   7.92169   7.84717    
 
 ITRead=  0  0  0  0  0  0  0  0  0  0  0  0  0  0  0  0  0  0  0  0
 ITRead=  0  0  0
 MicOpt= -1 -1 -1 -1 -1 -1 -1 -1 -1 -1 -1 -1 -1 -1 -1 -1 -1 -1 -1 -1
 MicOpt= -1 -1 -1
 NAtoms=     23 NQM=       23 NQMF=       0 NMMI=      0 NMMIF=      0
                NMic=       0 NMicF=      0.
                    Isotopes and Nuclear Properties:
 (Nuclear quadrupole moments (NQMom) in fm**2, nuclear magnetic moments (NMagM)
  in nuclear magnetons)

  Atom         1           2           3           4           5           6           7           8           9          10
 IAtWgt=          12          12          12          12          12          12           1           1           1           1
 AtmWgt=  12.0000000  12.0000000  12.0000000  12.0000000  12.0000000  12.0000000   1.0078250   1.0078250   1.0078250   1.0078250
 NucSpn=           0           0           0           0           0           0           1           1           1           1
 AtZEff=  -0.0000000  -0.0000000  -0.0000000  -0.0000000  -0.0000000  -0.0000000  -0.0000000  -0.0000000  -0.0000000  -0.0000000
 NQMom=    0.0000000   0.0000000   0.0000000   0.0000000   0.0000000   0.0000000   0.0000000   0.0000000   0.0000000   0.0000000
 NMagM=    0.0000000   0.0000000   0.0000000   0.0000000   0.0000000   0.0000000   2.7928460   2.7928460   2.7928460   2.7928460
 AtZNuc=   6.0000000   6.0000000   6.0000000   6.0000000   6.0000000   6.0000000   1.0000000   1.0000000   1.0000000   1.0000000

  Atom        11          12          13          14          15          16          17          18          19          20
 IAtWgt=           1          12           1          14          14          31          16          16           1          16
 AtmWgt=   1.0078250  12.0000000   1.0078250  14.0030740  14.0030740  30.9737634  15.9949146  15.9949146   1.0078250  15.9949146
 NucSpn=           1           0           1           2           2           1           0           0           1           0
 AtZEff=  -0.0000000  -0.0000000  -0.0000000  -0.0000000  -0.0000000  -0.0000000  -0.0000000  -0.0000000  -0.0000000  -0.0000000
 NQMom=    0.0000000   0.0000000   0.0000000   2.0440000   2.0440000   0.0000000   0.0000000   0.0000000   0.0000000   0.0000000
 NMagM=    2.7928460   0.0000000   2.7928460   0.4037610   0.4037610   1.1316000   0.0000000   0.0000000   2.7928460   0.0000000
 AtZNuc=   1.0000000   6.0000000   1.0000000   7.0000000   7.0000000  15.0000000   8.0000000   8.0000000   1.0000000   8.0000000

  Atom        21          22          23
 IAtWgt=           1          16           1
 AtmWgt=   1.0078250  15.9949146   1.0078250
 NucSpn=           1           0           1
 AtZEff=  -0.0000000  -0.0000000  -0.0000000
 NQMom=    0.0000000   0.0000000   0.0000000
 NMagM=    2.7928460   0.0000000   2.7928460
 AtZNuc=   1.0000000   8.0000000   1.0000000
 Leave Link  101 at Sat Dec 17 23:03:48 2022, MaxMem=  6710886400 cpu:               2.1 elap:               0.1
 (Enter /data0/home/software/g16/l202.exe)
                          Input orientation:                          
 ---------------------------------------------------------------------
 Center     Atomic      Atomic             Coordinates (Angstroms)
 Number     Number       Type             X           Y           Z
 ---------------------------------------------------------------------
      1          6           0       11.285254   10.974930   11.628365
      2          6           0       11.984534    9.743352   11.381329
      3          6           0       13.249335    9.760157   10.784855
      4          6           0       13.780888   10.991328   10.444432
      5          6           0       13.088807   12.196788   10.693046
      6          6           0       11.839510   12.211438   11.288747
      7          1           0       13.785822    8.829164   10.612939
      8          1           0       14.763170   11.044466    9.974841
      9          1           0       13.562010   13.137239   10.408795
     10          1           0       11.309153   13.137645   11.494244
     11          1           0        9.310482   11.258439   12.432248
     12          6           0       10.052203    9.221226   12.289193
     13          1           0        9.206051    8.664774   12.677044
     14          7           0       10.071420   10.616349   12.218796
     15          7           0       11.185129    8.682229   11.814394
     16         15           0        9.335643    7.022243    9.426535
     17          8           0        8.620170    8.069102   10.171723
     18          8           0       10.714696    6.531692   10.034224
     19          1           0       10.955861    7.115981   10.883700
     20          8           0        8.438965    5.714314    9.324705
     21          1           0        8.978276    5.010417    8.793492
     22          8           0        9.658825    7.330790    7.907462
     23          1           0       10.527461    7.921691    7.847168
 ---------------------------------------------------------------------
                    Distance matrix (angstroms):
                    1          2          3          4          5
     1  C    0.000000
     2  C    1.437638   0.000000
     3  C    2.458617   1.398494   0.000000
     4  C    2.762274   2.379518   1.383553   0.000000
     5  C    2.370772   2.777139   2.443638   1.412062   0.000000
     6  C    1.396958   2.474076   2.872332   2.443458   1.384131
     7  H    3.447933   2.161204   1.088173   2.168726   3.439933
     8  H    3.851607   3.375192   2.144124   1.090054   2.155726
     9  H    3.368464   3.866875   3.412311   2.157339   1.090490
    10  H    2.167002   3.462674   3.959162   3.437769   2.166633
    11  H    2.150890   3.248149   4.524745   4.899724   4.263926
    12  C    2.243343   2.197893   3.574232   4.521006   4.541213
    13  H    3.280188   3.249950   4.596563   5.597012   5.611343
    14  N    1.396632   2.263511   3.590041   4.129059   3.732335
    15  N    2.302414   1.397346   2.546139   3.734528   4.151329
    16  P    4.926741   4.271098   4.965701   6.045656   6.516610
    17  O    4.203369   3.947810   4.966364   5.936900   6.105595
    18  O    4.754912   3.707012   4.172628   5.427537   6.177683
    19  H    3.943921   2.865115   3.501637   4.815812   5.513656
    20  O    6.409547   5.747513   6.452948   7.591891   8.094187
    21  H    6.995289   6.175367   6.690852   7.846144   8.494039
    22  O    5.456203   4.826710   5.203170   6.068538   6.572837
    23  H    4.918737   4.234596   4.406650   5.172353   5.738987
                    6          7          8          9         10
     6  C    0.000000
     7  H    3.960382   0.000000
     8  H    3.411152   2.503985   0.000000
     9  H    2.144395   4.318712   2.451693   0.000000
    10  H    1.086907   5.047137   4.315115   2.500713   0.000000
    11  H    2.934584   5.407396   5.984684   5.069491   2.899302
    12  C    3.624462   4.111381   5.556405   5.584783   4.189296
    13  H    4.630475   5.026117   6.621662   6.642460   5.082187
    14  N    2.556451   4.423753   5.218346   4.670675   2.900671
    15  N    3.627649   2.868569   4.665458   5.241411   4.468625
    16  P    6.055157   4.947384   6.777682   7.498012   6.750430
    17  O    5.363846   5.239878   6.828470   7.082655   5.888108
    18  O    5.924403   3.878802   6.062903   7.202829   6.791440
    19  H    5.187348   3.319185   5.545685   6.578229   6.062839
    20  O    7.591692   6.320658   8.296310   9.084088   8.249286
    21  H    8.140495   6.403570   8.442176   9.469163   8.875747
    22  O    6.325283   5.157212   6.642272   7.430099   7.021976
    23  H    5.654013   4.369200   5.676262   6.555331   6.412362
                   11         12         13         14         15
    11  H    0.000000
    12  C    2.172752   0.000000
    13  H    2.607284   1.084454   0.000000
    14  N    1.018267   1.397030   2.183460   0.000000
    15  N    3.245443   1.341444   2.158986   2.268195   0.000000
    16  P    5.194256   3.680190   3.644244   4.610389   3.446451
    17  O    3.969682   2.803888   2.640969   3.575626   3.106977
    18  O    5.483108   3.571747   3.716254   4.676599   2.831099
    19  H    4.718605   2.687762   2.945620   3.849324   1.836270
    20  O    6.415114   4.867151   4.531204   5.922045   4.748525
    21  H    7.238003   5.577110   5.337432   6.659891   5.241970
    22  O    6.001788   4.788325   4.973272   5.436243   4.406825
    23  H    5.799818   4.652553   5.062213   5.155607   4.092655
                   16         17         18         19         20
    16  P    0.000000
    17  O    1.470755   0.000000
    18  O    1.584839   2.601841   0.000000
    19  H    2.181106   2.621222   1.058850   0.000000
    20  O    1.589050   2.509044   2.520015   3.275653   0.000000
    21  H    2.139135   3.373917   2.620849   3.565559   1.033690
    22  O    1.583424   2.598228   2.505302   3.253681   2.471767
    23  H    2.173439   3.010489   2.598147   3.170682   3.378971
                   21         22         23
    21  H    0.000000
    22  O    2.575330   0.000000
    23  H    3.430892   1.052296   0.000000
 Symmetry turned off by external request.
 Stoichiometry    C7H9N2O4P
 Framework group  C1[X(C7H9N2O4P)]
 Deg. of freedom    63
 Full point group                 C1      NOp   1
 Rotational constants (GHZ):           1.2918369           0.3267152           0.2990523
 Leave Link  202 at Sat Dec 17 23:03:49 2022, MaxMem=  6710886400 cpu:               0.1 elap:               0.0
 (Enter /data0/home/software/g16/l122.exe)
 Counterpoise: doing full-system calculation.
 Leave Link  122 at Sat Dec 17 23:03:49 2022, MaxMem=  6710886400 cpu:               0.0 elap:               0.0
 (Enter /data0/home/software/g16/l301.exe)
 Standard basis: 6-311+G(2d,p) (5D, 7F)
 Ernie: Thresh=  0.10000D-02 Tol=  0.10000D-05 Strict=F.
   440 basis functions,   674 primitive gaussians,   468 cartesian basis functions
    56 alpha electrons       56 beta electrons
       nuclear repulsion energy      1020.1632228264 Hartrees.
 IExCor= 4336 DFT=T Ex+Corr=M062X ExCW=0 ScaHFX=  0.540000
 ScaDFX=  1.000000  1.000000  1.000000  1.000000 ScalE2=  1.000000  1.000000
 IRadAn=      5 IRanWt=     -1 IRanGd=            0 ICorTp=0 IEmpDi=131
 NAtoms=   23 NActive=   23 NUniq=   23 SFac= 1.00D+00 NAtFMM=   60 NAOKFM=F Big=F
 Integral buffers will be    131072 words long.
 Raffenetti 2 integral format.
 Two-electron integral symmetry is turned off.
 R6Disp:  Grimme-D3 Dispersion energy=       -0.0010399678 Hartrees.
 Nuclear repulsion after empirical dispersion term =     1020.1621828586 Hartrees.
 Leave Link  301 at Sat Dec 17 23:03:49 2022, MaxMem=  6710886400 cpu:               1.1 elap:               0.1
 (Enter /data0/home/software/g16/l302.exe)
 NPDir=0 NMtPBC=     1 NCelOv=     1 NCel=       1 NClECP=     1 NCelD=      1
         NCelK=      1 NCelE2=     1 NClLst=     1 CellRange=     0.0.
 One-electron integrals computed using PRISM.
 NBasis=   440 RedAO= T EigKep=  1.21D-06  NBF=   440
 NBsUse=   440 1.00D-06 EigRej= -1.00D+00 NBFU=   440
 Precomputing XC quadrature grid using
 IXCGrd= 4 IRadAn=           5 IRanWt=          -1 IRanGd=           0 AccXCQ= 0.00D+00.
 Generated NRdTot=       0 NPtTot=           0 NUsed=           0 NTot=          32
 NSgBfM=   467   467   467   467   467 MxSgAt=    23 MxSgA2=    23.
 Leave Link  302 at Sat Dec 17 23:03:49 2022, MaxMem=  6710886400 cpu:               8.0 elap:               0.4
 (Enter /data0/home/software/g16/l303.exe)
 DipDrv:  MaxL=1.
 Leave Link  303 at Sat Dec 17 23:03:49 2022, MaxMem=  6710886400 cpu:               1.0 elap:               0.1
 (Enter /data0/home/software/g16/l401.exe)
 ExpMin= 3.48D-02 ExpMax= 7.75D+04 ExpMxC= 2.65D+03 IAcc=3 IRadAn=         5 AccDes= 0.00D+00
 Harris functional with IExCor= 1009 and IRadAn=       5 diagonalized for initial guess.
 HarFok:  IExCor= 1009 AccDes= 0.00D+00 IRadAn=         5 IDoV= 1 UseB2=F ITyADJ=14
 ICtDFT=  3500011 ScaDFX=  1.000000  1.000000  1.000000  1.000000
 FoFCou: FMM=F IPFlag=           0 FMFlag=      100000 FMFlg1=           0
         NFxFlg=           0 DoJE=T BraDBF=F KetDBF=T FulRan=T
         wScrn=  0.000000 ICntrl=       500 IOpCl=  0 I1Cent=   200000004 NGrid=           0
         NMat0=    1 NMatS0=      1 NMatT0=    0 NMatD0=    1 NMtDS0=    0 NMtDT0=    0
 Symmetry not used in FoFCou.
 Harris En= -1023.56311882514    
 JPrj=0 DoOrth=F DoCkMO=F.
 Leave Link  401 at Sat Dec 17 23:03:50 2022, MaxMem=  6710886400 cpu:              29.9 elap:               1.3
 (Enter /data0/home/software/g16/l502.exe)
 Two-electron integral symmetry not used.
 Closed shell SCF:
 Using DIIS extrapolation, IDIIS=  1040.
 NGot=  6710886400 LenX=  6710433895 LenY=  6710214403
 Requested convergence on RMS density matrix=1.00D-08 within 128 cycles.
 Requested convergence on MAX density matrix=1.00D-06.
 Requested convergence on             energy=1.00D-06.
 No special actions if energy rises.
 Fock matrices will be formed incrementally for  20 cycles.

 Cycle   1  Pass 1  IDiag  1:
 FoFJK:  IHMeth= 1 ICntrl=       0 DoSepK=F KAlg= 0 I1Cent=           0 FoldK=F
 IRaf= 850000000 NMat=       1 IRICut=       1 DoRegI=T DoRafI=F ISym2E= 0 IDoP0=0 IntGTp=1.
 FoFCou: FMM=F IPFlag=           0 FMFlag=      100000 FMFlg1=           0
         NFxFlg=           0 DoJE=F BraDBF=F KetDBF=F FulRan=T
         wScrn=  0.000000 ICntrl=         0 IOpCl=  0 I1Cent=           0 NGrid=           0
         NMat0=    1 NMatS0=      1 NMatT0=    0 NMatD0=    1 NMtDS0=    0 NMtDT0=    0
 Symmetry not used in FoFCou.
 E= -1023.52163103702    
 DIIS: error= 2.95D-02 at cycle   1 NSaved=   1.
 NSaved= 1 IEnMin= 1 EnMin= -1023.52163103702     IErMin= 1 ErrMin= 2.95D-02
 ErrMax= 2.95D-02  0.00D+00 EMaxC= 1.00D-01 BMatC= 7.40D-01 BMatP= 7.40D-01
 IDIUse=3 WtCom= 7.05D-01 WtEn= 2.95D-01
 Coeff-Com:  0.100D+01
 Coeff-En:   0.100D+01
 Coeff:      0.100D+01
 Gap=     0.307 Goal=   None    Shift=    0.000
 GapD=    0.307 DampG=1.000 DampE=0.500 DampFc=0.5000 IDamp=-1.
 Damping current iteration by 5.00D-01
 RMSDP=1.51D-02 MaxDP=2.97D+00              OVMax= 2.28D-01

 Cycle   2  Pass 1  IDiag  1:
 RMSU=  6.17D-03    CP:  1.18D+00
 E= -1023.73275341306     Delta-E=       -0.211122376048 Rises=F Damp=T
 DIIS: error= 6.39D-03 at cycle   2 NSaved=   2.
 NSaved= 2 IEnMin= 2 EnMin= -1023.73275341306     IErMin= 2 ErrMin= 6.39D-03
 ErrMax= 6.39D-03  0.00D+00 EMaxC= 1.00D-01 BMatC= 4.86D-02 BMatP= 7.40D-01
 IDIUse=3 WtCom= 9.36D-01 WtEn= 6.39D-02
 Coeff-Com:  0.110D-01 0.989D+00
 Coeff-En:   0.900D-01 0.910D+00
 Coeff:      0.161D-01 0.984D+00
 Gap=     0.307 Goal=   None    Shift=    0.000
 RMSDP=5.16D-03 MaxDP=6.17D-01 DE=-2.11D-01 OVMax= 1.37D-01

 Cycle   3  Pass 1  IDiag  1:
 RMSU=  3.50D-03    CP:  1.03D+00  8.81D-01
 E= -1023.97942489174     Delta-E=       -0.246671478677 Rises=F Damp=F
 DIIS: error= 4.17D-03 at cycle   3 NSaved=   3.
 NSaved= 3 IEnMin= 3 EnMin= -1023.97942489174     IErMin= 3 ErrMin= 4.17D-03
 ErrMax= 4.17D-03  0.00D+00 EMaxC= 1.00D-01 BMatC= 1.86D-02 BMatP= 4.86D-02
 IDIUse=3 WtCom= 9.58D-01 WtEn= 4.17D-02
 Coeff-Com: -0.611D-01 0.359D+00 0.702D+00
 Coeff-En:   0.000D+00 0.000D+00 0.100D+01
 Coeff:     -0.586D-01 0.344D+00 0.714D+00
 Gap=     0.285 Goal=   None    Shift=    0.000
 RMSDP=1.70D-03 MaxDP=2.57D-01 DE=-2.47D-01 OVMax= 3.87D-02

 Cycle   4  Pass 1  IDiag  1:
 RMSU=  1.31D-03    CP:  9.83D-01  8.42D-01  9.23D-01
 E= -1023.99010010763     Delta-E=       -0.010675215884 Rises=F Damp=F
 DIIS: error= 2.11D-03 at cycle   4 NSaved=   4.
 NSaved= 4 IEnMin= 4 EnMin= -1023.99010010763     IErMin= 4 ErrMin= 2.11D-03
 ErrMax= 2.11D-03  0.00D+00 EMaxC= 1.00D-01 BMatC= 4.48D-03 BMatP= 1.86D-02
 IDIUse=3 WtCom= 9.79D-01 WtEn= 2.11D-02
 Coeff-Com: -0.336D-01 0.924D-01 0.381D+00 0.561D+00
 Coeff-En:   0.000D+00 0.000D+00 0.154D+00 0.846D+00
 Coeff:     -0.329D-01 0.904D-01 0.376D+00 0.567D+00
 Gap=     0.280 Goal=   None    Shift=    0.000
 RMSDP=6.47D-04 MaxDP=1.01D-01 DE=-1.07D-02 OVMax= 1.24D-02

 Cycle   5  Pass 1  IDiag  1:
 RMSU=  4.88D-04    CP:  9.92D-01  8.78D-01  9.25D-01  7.82D-01
 E= -1023.99319589234     Delta-E=       -0.003095784716 Rises=F Damp=F
 DIIS: error= 3.80D-04 at cycle   5 NSaved=   5.
 NSaved= 5 IEnMin= 5 EnMin= -1023.99319589234     IErMin= 5 ErrMin= 3.80D-04
 ErrMax= 3.80D-04  0.00D+00 EMaxC= 1.00D-01 BMatC= 1.38D-04 BMatP= 4.48D-03
 IDIUse=3 WtCom= 9.96D-01 WtEn= 3.80D-03
 Coeff-Com: -0.102D-01 0.192D-01 0.116D+00 0.238D+00 0.637D+00
 Coeff-En:   0.000D+00 0.000D+00 0.000D+00 0.000D+00 0.100D+01
 Coeff:     -0.101D-01 0.192D-01 0.116D+00 0.237D+00 0.639D+00
 Gap=     0.280 Goal=   None    Shift=    0.000
 RMSDP=1.16D-04 MaxDP=1.38D-02 DE=-3.10D-03 OVMax= 2.34D-03

 Cycle   6  Pass 1  IDiag  1:
 RMSU=  8.30D-05    CP:  9.92D-01  8.75D-01  9.29D-01  7.58D-01  8.56D-01
 E= -1023.99329734399     Delta-E=       -0.000101451645 Rises=F Damp=F
 DIIS: error= 1.36D-04 at cycle   6 NSaved=   6.
 NSaved= 6 IEnMin= 6 EnMin= -1023.99329734399     IErMin= 6 ErrMin= 1.36D-04
 ErrMax= 1.36D-04  0.00D+00 EMaxC= 1.00D-01 BMatC= 9.55D-06 BMatP= 1.38D-04
 IDIUse=3 WtCom= 9.99D-01 WtEn= 1.36D-03
 Coeff-Com: -0.151D-02 0.114D-02 0.176D-01 0.497D-01 0.255D+00 0.678D+00
 Coeff-En:   0.000D+00 0.000D+00 0.000D+00 0.000D+00 0.000D+00 0.100D+01
 Coeff:     -0.151D-02 0.114D-02 0.176D-01 0.497D-01 0.255D+00 0.678D+00
 Gap=     0.280 Goal=   None    Shift=    0.000
 RMSDP=5.85D-05 MaxDP=9.87D-03 DE=-1.01D-04 OVMax= 1.30D-03

 Cycle   7  Pass 1  IDiag  1:
 RMSU=  3.12D-05    CP:  9.91D-01  8.73D-01  9.26D-01  7.79D-01  9.22D-01
                    CP:  7.87D-01
 E= -1023.99330633242     Delta-E=       -0.000008988430 Rises=F Damp=F
 DIIS: error= 4.61D-05 at cycle   7 NSaved=   7.
 NSaved= 7 IEnMin= 7 EnMin= -1023.99330633242     IErMin= 7 ErrMin= 4.61D-05
 ErrMax= 4.61D-05  0.00D+00 EMaxC= 1.00D-01 BMatC= 8.38D-07 BMatP= 9.55D-06
 IDIUse=1 WtCom= 1.00D+00 WtEn= 0.00D+00
 Coeff-Com:  0.449D-03-0.144D-02-0.502D-02-0.666D-02 0.254D-01 0.223D+00
 Coeff-Com:  0.764D+00
 Coeff:      0.449D-03-0.144D-02-0.502D-02-0.666D-02 0.254D-01 0.223D+00
 Coeff:      0.764D+00
 Gap=     0.280 Goal=   None    Shift=    0.000
 RMSDP=1.13D-05 MaxDP=9.83D-04 DE=-8.99D-06 OVMax= 4.95D-04

 Cycle   8  Pass 1  IDiag  1:
 RMSU=  7.18D-06    CP:  9.91D-01  8.73D-01  9.26D-01  7.75D-01  9.25D-01
                    CP:  8.69D-01  9.88D-01
 E= -1023.99330721237     Delta-E=       -0.000000879950 Rises=F Damp=F
 DIIS: error= 2.04D-05 at cycle   8 NSaved=   8.
 NSaved= 8 IEnMin= 8 EnMin= -1023.99330721237     IErMin= 8 ErrMin= 2.04D-05
 ErrMax= 2.04D-05  0.00D+00 EMaxC= 1.00D-01 BMatC= 2.73D-07 BMatP= 8.38D-07
 IDIUse=1 WtCom= 1.00D+00 WtEn= 0.00D+00
 Coeff-Com:  0.506D-03-0.985D-03-0.575D-02-0.124D-01-0.292D-01 0.207D-02
 Coeff-Com:  0.407D+00 0.639D+00
 Coeff:      0.506D-03-0.985D-03-0.575D-02-0.124D-01-0.292D-01 0.207D-02
 Coeff:      0.407D+00 0.639D+00
 Gap=     0.280 Goal=   None    Shift=    0.000
 RMSDP=7.47D-06 MaxDP=1.32D-03 DE=-8.80D-07 OVMax= 2.81D-04

 Cycle   9  Pass 1  IDiag  1:
 RMSU=  2.65D-06    CP:  9.91D-01  8.73D-01  9.26D-01  7.76D-01  9.37D-01
                    CP:  8.74D-01  1.07D+00  8.34D-01
 E= -1023.99330753196     Delta-E=       -0.000000319592 Rises=F Damp=F
 DIIS: error= 6.04D-06 at cycle   9 NSaved=   9.
 NSaved= 9 IEnMin= 9 EnMin= -1023.99330753196     IErMin= 9 ErrMin= 6.04D-06
 ErrMax= 6.04D-06  0.00D+00 EMaxC= 1.00D-01 BMatC= 1.16D-08 BMatP= 2.73D-07
 IDIUse=1 WtCom= 1.00D+00 WtEn= 0.00D+00
 Coeff-Com:  0.112D-03-0.193D-03-0.128D-02-0.308D-02-0.926D-02-0.112D-01
 Coeff-Com:  0.679D-01 0.194D+00 0.763D+00
 Coeff:      0.112D-03-0.193D-03-0.128D-02-0.308D-02-0.926D-02-0.112D-01
 Coeff:      0.679D-01 0.194D+00 0.763D+00
 Gap=     0.280 Goal=   None    Shift=    0.000
 RMSDP=1.45D-06 MaxDP=2.32D-04 DE=-3.20D-07 OVMax= 8.62D-05

 Cycle  10  Pass 1  IDiag  1:
 RMSU=  9.01D-07    CP:  9.91D-01  8.73D-01  9.26D-01  7.76D-01  9.36D-01
                    CP:  8.75D-01  1.07D+00  8.89D-01  1.06D+00
 E= -1023.99330754727     Delta-E=       -0.000000015312 Rises=F Damp=F
 DIIS: error= 3.43D-06 at cycle  10 NSaved=  10.
 NSaved=10 IEnMin=10 EnMin= -1023.99330754727     IErMin=10 ErrMin= 3.43D-06
 ErrMax= 3.43D-06  0.00D+00 EMaxC= 1.00D-01 BMatC= 6.28D-09 BMatP= 1.16D-08
 IDIUse=1 WtCom= 1.00D+00 WtEn= 0.00D+00
 Coeff-Com: -0.443D-04 0.997D-04 0.502D-03 0.835D-03 0.552D-03-0.764D-02
 Coeff-Com: -0.512D-01-0.268D-01 0.458D+00 0.626D+00
 Coeff:     -0.443D-04 0.997D-04 0.502D-03 0.835D-03 0.552D-03-0.764D-02
 Coeff:     -0.512D-01-0.268D-01 0.458D+00 0.626D+00
 Gap=     0.280 Goal=   None    Shift=    0.000
 RMSDP=7.71D-07 MaxDP=1.01D-04 DE=-1.53D-08 OVMax= 4.05D-05

 Cycle  11  Pass 1  IDiag  1:
 RMSU=  3.50D-07    CP:  9.91D-01  8.73D-01  9.26D-01  7.76D-01  9.37D-01
                    CP:  8.77D-01  1.07D+00  9.08D-01  1.20D+00  7.83D-01
 E= -1023.99330755518     Delta-E=       -0.000000007910 Rises=F Damp=F
 DIIS: error= 6.51D-07 at cycle  11 NSaved=  11.
 NSaved=11 IEnMin=11 EnMin= -1023.99330755518     IErMin=11 ErrMin= 6.51D-07
 ErrMax= 6.51D-07  0.00D+00 EMaxC= 1.00D-01 BMatC= 2.28D-10 BMatP= 6.28D-09
 IDIUse=1 WtCom= 1.00D+00 WtEn= 0.00D+00
 Coeff-Com: -0.232D-04 0.480D-04 0.290D-03 0.566D-03 0.106D-02-0.124D-02
 Coeff-Com: -0.234D-01-0.293D-01 0.619D-01 0.171D+00 0.819D+00
 Coeff:     -0.232D-04 0.480D-04 0.290D-03 0.566D-03 0.106D-02-0.124D-02
 Coeff:     -0.234D-01-0.293D-01 0.619D-01 0.171D+00 0.819D+00
 Gap=     0.280 Goal=   None    Shift=    0.000
 RMSDP=2.83D-07 MaxDP=4.31D-05 DE=-7.91D-09 OVMax= 1.99D-05

 Cycle  12  Pass 1  IDiag  1:
 RMSU=  1.52D-07    CP:  9.91D-01  8.73D-01  9.26D-01  7.75D-01  9.36D-01
                    CP:  8.78D-01  1.07D+00  9.22D-01  1.22D+00  8.37D-01
                    CP:  1.07D+00
 E= -1023.99330755574     Delta-E=       -0.000000000557 Rises=F Damp=F
 DIIS: error= 5.25D-07 at cycle  12 NSaved=  12.
 NSaved=12 IEnMin=12 EnMin= -1023.99330755574     IErMin=12 ErrMin= 5.25D-07
 ErrMax= 5.25D-07  0.00D+00 EMaxC= 1.00D-01 BMatC= 8.38D-11 BMatP= 2.28D-10
 IDIUse=1 WtCom= 1.00D+00 WtEn= 0.00D+00
 Coeff-Com: -0.500D-05 0.898D-05 0.787D-04 0.171D-03 0.444D-03 0.341D-03
 Coeff-Com: -0.518D-02-0.119D-01-0.331D-01-0.912D-02 0.396D+00 0.662D+00
 Coeff:     -0.500D-05 0.898D-05 0.787D-04 0.171D-03 0.444D-03 0.341D-03
 Coeff:     -0.518D-02-0.119D-01-0.331D-01-0.912D-02 0.396D+00 0.662D+00
 Gap=     0.280 Goal=   None    Shift=    0.000
 RMSDP=1.29D-07 MaxDP=1.50D-05 DE=-5.57D-10 OVMax= 8.26D-06

 Cycle  13  Pass 1  IDiag  1:
 RMSU=  5.41D-08    CP:  9.91D-01  8.73D-01  9.26D-01  7.75D-01  9.37D-01
                    CP:  8.78D-01  1.07D+00  9.20D-01  1.23D+00  8.36D-01
                    CP:  1.18D+00  1.04D+00
 E= -1023.99330755588     Delta-E=       -0.000000000145 Rises=F Damp=F
 DIIS: error= 1.46D-07 at cycle  13 NSaved=  13.
 NSaved=13 IEnMin=13 EnMin= -1023.99330755588     IErMin=13 ErrMin= 1.46D-07
 ErrMax= 1.46D-07  0.00D+00 EMaxC= 1.00D-01 BMatC= 1.11D-11 BMatP= 8.38D-11
 IDIUse=1 WtCom= 1.00D+00 WtEn= 0.00D+00
 Coeff-Com:  0.332D-05-0.699D-05-0.310D-04-0.559D-04-0.454D-04 0.517D-03
 Coeff-Com:  0.338D-02 0.209D-02-0.249D-01-0.418D-01-0.159D-01 0.281D+00
 Coeff-Com:  0.795D+00
 Coeff:      0.332D-05-0.699D-05-0.310D-04-0.559D-04-0.454D-04 0.517D-03
 Coeff:      0.338D-02 0.209D-02-0.249D-01-0.418D-01-0.159D-01 0.281D+00
 Coeff:      0.795D+00
 Gap=     0.280 Goal=   None    Shift=    0.000
 RMSDP=6.02D-08 MaxDP=5.22D-06 DE=-1.45D-10 OVMax= 3.52D-06

 Cycle  14  Pass 1  IDiag  1:
 RMSU=  2.17D-08    CP:  9.91D-01  8.73D-01  9.26D-01  7.75D-01  9.37D-01
                    CP:  8.78D-01  1.07D+00  9.20D-01  1.23D+00  8.28D-01
                    CP:  1.24D+00  1.24D+00  1.34D+00
 E= -1023.99330755586     Delta-E=        0.000000000019 Rises=F Damp=F
 DIIS: error= 6.86D-08 at cycle  14 NSaved=  14.
 NSaved=14 IEnMin=13 EnMin= -1023.99330755588     IErMin=14 ErrMin= 6.86D-08
 ErrMax= 6.86D-08  0.00D+00 EMaxC= 1.00D-01 BMatC= 5.14D-13 BMatP= 1.11D-11
 IDIUse=1 WtCom= 1.00D+00 WtEn= 0.00D+00
 Coeff-Com:  0.794D-06-0.161D-05-0.106D-04-0.224D-04-0.559D-04 0.246D-04
 Coeff-Com:  0.802D-03 0.142D-02 0.746D-03-0.413D-02-0.456D-01-0.250D-01
 Coeff-Com:  0.109D+00 0.963D+00
 Coeff:      0.794D-06-0.161D-05-0.106D-04-0.224D-04-0.559D-04 0.246D-04
 Coeff:      0.802D-03 0.142D-02 0.746D-03-0.413D-02-0.456D-01-0.250D-01
 Coeff:      0.109D+00 0.963D+00
 Gap=     0.280 Goal=   None    Shift=    0.000
 RMSDP=1.63D-08 MaxDP=1.43D-06 DE= 1.91D-11 OVMax= 1.18D-06

 Cycle  15  Pass 1  IDiag  1:
 RMSU=  6.69D-09    CP:  9.91D-01  8.73D-01  9.26D-01  7.75D-01  9.37D-01
                    CP:  8.78D-01  1.07D+00  9.20D-01  1.23D+00  8.27D-01
                    CP:  1.25D+00  1.29D+00  1.49D+00  1.18D+00
 E= -1023.99330755596     Delta-E=       -0.000000000099 Rises=F Damp=F
 DIIS: error= 1.69D-08 at cycle  15 NSaved=  15.
 NSaved=15 IEnMin=15 EnMin= -1023.99330755596     IErMin=15 ErrMin= 1.69D-08
 ErrMax= 1.69D-08  0.00D+00 EMaxC= 1.00D-01 BMatC= 1.05D-13 BMatP= 5.14D-13
 IDIUse=1 WtCom= 1.00D+00 WtEn= 0.00D+00
 Coeff-Com: -0.128D-06 0.246D-06-0.100D-06-0.443D-06-0.969D-05-0.269D-04
 Coeff-Com: -0.105D-03 0.225D-03 0.261D-02 0.295D-02-0.124D-01-0.374D-01
 Coeff-Com: -0.623D-01 0.327D+00 0.780D+00
 Coeff:     -0.128D-06 0.246D-06-0.100D-06-0.443D-06-0.969D-05-0.269D-04
 Coeff:     -0.105D-03 0.225D-03 0.261D-02 0.295D-02-0.124D-01-0.374D-01
 Coeff:     -0.623D-01 0.327D+00 0.780D+00
 Gap=     0.280 Goal=   None    Shift=    0.000
 RMSDP=5.60D-09 MaxDP=5.51D-07 DE=-9.91D-11 OVMax= 3.20D-07

 SCF Done:  E(RM062X) =  -1023.99330756     A.U. after   15 cycles
            NFock= 15  Conv=0.56D-08     -V/T= 2.0035
 KE= 1.020469535573D+03 PE=-4.451144085157D+03 EE= 1.386519059170D+03
 Leave Link  502 at Sat Dec 17 23:04:50 2022, MaxMem=  6710886400 cpu:            1424.8 elap:              59.6
 (Enter /data0/home/software/g16/l601.exe)
 Copying SCF densities to generalized density rwf, IOpCl= 0 IROHF=0.

 **********************************************************************

            Population analysis using the SCF density.

 **********************************************************************

 Alpha  occ. eigenvalues --  -78.14785 -19.66727 -19.65868 -19.64239 -19.57028
 Alpha  occ. eigenvalues --  -14.82346 -14.76290 -10.63775 -10.59838 -10.58496
 Alpha  occ. eigenvalues --  -10.56202 -10.55608 -10.55465 -10.55168  -6.95533
 Alpha  occ. eigenvalues --   -5.07436  -5.07420  -5.07249  -1.21985  -1.14727
 Alpha  occ. eigenvalues --   -1.13723  -1.13290  -1.07255  -0.99647  -0.96103
 Alpha  occ. eigenvalues --   -0.85506  -0.84382  -0.72839  -0.72017  -0.70438
 Alpha  occ. eigenvalues --   -0.69278  -0.63615  -0.62560  -0.62260  -0.58531
 Alpha  occ. eigenvalues --   -0.56883  -0.55095  -0.53113  -0.52405  -0.51930
 Alpha  occ. eigenvalues --   -0.51501  -0.49810  -0.48850  -0.47709  -0.45398
 Alpha  occ. eigenvalues --   -0.44194  -0.43665  -0.43399  -0.42291  -0.40885
 Alpha  occ. eigenvalues --   -0.38821  -0.37312  -0.36729  -0.36094  -0.29797
 Alpha  occ. eigenvalues --   -0.28955
 Alpha virt. eigenvalues --   -0.00975  -0.00555   0.00392   0.01380   0.02283
 Alpha virt. eigenvalues --    0.02657   0.02817   0.03609   0.03963   0.04972
 Alpha virt. eigenvalues --    0.05290   0.05882   0.06385   0.06763   0.07915
 Alpha virt. eigenvalues --    0.08655   0.09021   0.09993   0.10767   0.10995
 Alpha virt. eigenvalues --    0.11588   0.12221   0.13239   0.13398   0.13931
 Alpha virt. eigenvalues --    0.14564   0.15036   0.15664   0.16310   0.16359
 Alpha virt. eigenvalues --    0.17556   0.17931   0.18324   0.18685   0.19047
 Alpha virt. eigenvalues --    0.19307   0.19726   0.20467   0.20734   0.20955
 Alpha virt. eigenvalues --    0.21151   0.21546   0.21651   0.22289   0.22637
 Alpha virt. eigenvalues --    0.23263   0.23634   0.24218   0.24374   0.25012
 Alpha virt. eigenvalues --    0.25395   0.25796   0.25995   0.26393   0.27169
 Alpha virt. eigenvalues --    0.27459   0.27819   0.28525   0.29205   0.29354
 Alpha virt. eigenvalues --    0.30117   0.30620   0.31385   0.31715   0.32352
 Alpha virt. eigenvalues --    0.32797   0.33174   0.34176   0.34643   0.35528
 Alpha virt. eigenvalues --    0.36235   0.36778   0.38122   0.38304   0.38654
 Alpha virt. eigenvalues --    0.40291   0.41142   0.42196   0.42562   0.44174
 Alpha virt. eigenvalues --    0.44888   0.45896   0.46408   0.48984   0.49783
 Alpha virt. eigenvalues --    0.50139   0.50810   0.53188   0.54130   0.54481
 Alpha virt. eigenvalues --    0.54868   0.56276   0.56369   0.57486   0.58533
 Alpha virt. eigenvalues --    0.58832   0.59585   0.61588   0.62639   0.63841
 Alpha virt. eigenvalues --    0.65136   0.66132   0.66425   0.66852   0.67453
 Alpha virt. eigenvalues --    0.69188   0.69353   0.70595   0.72291   0.72757
 Alpha virt. eigenvalues --    0.73431   0.74369   0.75133   0.76121   0.77118
 Alpha virt. eigenvalues --    0.77634   0.78994   0.80292   0.81150   0.82026
 Alpha virt. eigenvalues --    0.82815   0.82903   0.84051   0.84688   0.85057
 Alpha virt. eigenvalues --    0.85552   0.86091   0.86814   0.88019   0.88693
 Alpha virt. eigenvalues --    0.89928   0.91295   0.92156   0.93364   0.94903
 Alpha virt. eigenvalues --    0.95638   0.97970   0.99048   1.01500   1.01892
 Alpha virt. eigenvalues --    1.02411   1.04542   1.05236   1.07409   1.09117
 Alpha virt. eigenvalues --    1.10070   1.10592   1.14218   1.16265   1.17039
 Alpha virt. eigenvalues --    1.17672   1.18618   1.19121   1.19978   1.20239
 Alpha virt. eigenvalues --    1.21520   1.21902   1.23020   1.25709   1.25846
 Alpha virt. eigenvalues --    1.26373   1.26981   1.29552   1.30149   1.31903
 Alpha virt. eigenvalues --    1.32918   1.33421   1.34096   1.35246   1.35897
 Alpha virt. eigenvalues --    1.36262   1.37618   1.39087   1.40631   1.41146
 Alpha virt. eigenvalues --    1.41686   1.43735   1.44497   1.46358   1.46599
 Alpha virt. eigenvalues --    1.48275   1.50654   1.51506   1.52798   1.54058
 Alpha virt. eigenvalues --    1.55397   1.56761   1.57874   1.58726   1.61615
 Alpha virt. eigenvalues --    1.62483   1.63029   1.64060   1.64341   1.65213
 Alpha virt. eigenvalues --    1.67073   1.68040   1.68811   1.70041   1.71401
 Alpha virt. eigenvalues --    1.73864   1.75350   1.76771   1.77765   1.80798
 Alpha virt. eigenvalues --    1.82751   1.84869   1.85369   1.87294   1.89575
 Alpha virt. eigenvalues --    1.90854   1.92437   1.92486   1.95254   1.96587
 Alpha virt. eigenvalues --    1.98461   1.98565   2.00114   2.02874   2.05354
 Alpha virt. eigenvalues --    2.06588   2.08801   2.09818   2.11886   2.13511
 Alpha virt. eigenvalues --    2.16113   2.19042   2.19495   2.21304   2.26002
 Alpha virt. eigenvalues --    2.28648   2.30140   2.31586   2.35496   2.36635
 Alpha virt. eigenvalues --    2.39352   2.44259   2.48489   2.48944   2.50893
 Alpha virt. eigenvalues --    2.59833   2.61537   2.64033   2.64699   2.66517
 Alpha virt. eigenvalues --    2.68077   2.70551   2.71572   2.73282   2.75704
 Alpha virt. eigenvalues --    2.76355   2.77079   2.78783   2.81366   2.82560
 Alpha virt. eigenvalues --    2.84960   2.86945   2.89828   2.90119   2.91813
 Alpha virt. eigenvalues --    2.92640   2.95475   2.96200   2.97114   2.98569
 Alpha virt. eigenvalues --    3.01907   3.07462   3.10088   3.12241   3.15729
 Alpha virt. eigenvalues --    3.15918   3.17790   3.21890   3.27968   3.28373
 Alpha virt. eigenvalues --    3.29495   3.29713   3.34868   3.35786   3.37689
 Alpha virt. eigenvalues --    3.38163   3.38720   3.41775   3.42407   3.43918
 Alpha virt. eigenvalues --    3.47730   3.48489   3.49207   3.52663   3.54682
 Alpha virt. eigenvalues --    3.57603   3.58428   3.58540   3.59441   3.61941
 Alpha virt. eigenvalues --    3.63208   3.67794   3.71152   3.72041   3.74025
 Alpha virt. eigenvalues --    3.76134   3.78318   3.79739   3.86314   3.91572
 Alpha virt. eigenvalues --    3.93549   3.94874   3.95177   3.98274   4.00608
 Alpha virt. eigenvalues --    4.01362   4.03540   4.09063   4.12734   4.25105
 Alpha virt. eigenvalues --    4.43188   4.57465   4.65912   4.70907   4.74039
 Alpha virt. eigenvalues --    4.91126   4.99005   4.99460   5.04028   5.06283
 Alpha virt. eigenvalues --    5.08017   5.09356   5.10608   5.11595   5.13799
 Alpha virt. eigenvalues --    5.17713   5.18295   5.20202   5.22831   5.25176
 Alpha virt. eigenvalues --    5.27943   5.30203   5.32935   5.39650   5.41745
 Alpha virt. eigenvalues --    5.41900   5.50762   5.54975   5.58116   5.64316
 Alpha virt. eigenvalues --    5.68882   6.73839   6.76042   6.78539   6.80754
 Alpha virt. eigenvalues --    6.83719   6.84094   6.86952   6.90401   6.93696
 Alpha virt. eigenvalues --    6.96076   6.97396   6.98796   7.02846   7.11114
 Alpha virt. eigenvalues --    7.15127   7.25479   7.29463   7.32267   7.36471
 Alpha virt. eigenvalues --    7.44466   7.68457  14.25433  14.28923  14.38501
 Alpha virt. eigenvalues --   23.76844  24.02237  24.06524  24.11350  24.12481
 Alpha virt. eigenvalues --   24.23723  24.27425  35.72946  35.80114  50.02636
 Alpha virt. eigenvalues --   50.04126  50.06373  50.13570 163.92201
          Condensed to atoms (all electrons):
               1          2          3          4          5          6
     1  C   12.301448  -5.472701  -0.844646  -0.945507   0.332112  -0.307541
     2  C   -5.472701  15.961341  -3.699570   0.716529  -1.528660  -0.610104
     3  C   -0.844646  -3.699570  11.967731  -0.357609   0.967227  -0.996001
     4  C   -0.945507   0.716529  -0.357609   5.634825   0.298790   0.490988
     5  C    0.332112  -1.528660   0.967227   0.298790   5.389923   0.381901
     6  C   -0.307541  -0.610104  -0.996001   0.490988   0.381901   7.751336
     7  H    0.007283  -0.021907   0.387966  -0.024684   0.012492  -0.015208
     8  H   -0.004602   0.047663  -0.066686   0.387524  -0.039741   0.017790
     9  H    0.047043   0.001606   0.010399  -0.035572   0.383881  -0.065021
    10  H   -0.021952  -0.025104  -0.011954   0.014250   0.027781   0.355805
    11  H   -0.106315   0.143470   0.006050   0.001148  -0.010358  -0.064669
    12  C   -0.733819   0.265050  -0.387843   0.066032  -0.066998  -0.150453
    13  H    0.000277   0.025346   0.018581  -0.000321   0.001254  -0.000574
    14  N    0.170405   0.292917  -0.108175   0.019185  -0.028829  -0.212881
    15  N    1.128089  -0.652876  -0.465197  -0.100232   0.056756   0.110962
    16  P    0.008491   0.016624  -0.003004   0.011223  -0.001850   0.012077
    17  O    0.013682  -0.056856  -0.011437   0.005390  -0.000905   0.016683
    18  O   -0.082484  -0.091984   0.169027  -0.000069   0.005779  -0.011111
    19  H    0.007340   0.099452  -0.128792   0.003627  -0.004370   0.001900
    20  O   -0.001294  -0.005784   0.002286   0.000469  -0.000147   0.000683
    21  H   -0.000685   0.000587   0.000249   0.000052  -0.000001  -0.000031
    22  O   -0.015922   0.029104  -0.000926  -0.003515   0.000048  -0.002847
    23  H   -0.011627   0.024823  -0.014332   0.004287  -0.001506   0.002597
               7          8          9         10         11         12
     1  C    0.007283  -0.004602   0.047043  -0.021952  -0.106315  -0.733819
     2  C   -0.021907   0.047663   0.001606  -0.025104   0.143470   0.265050
     3  C    0.387966  -0.066686   0.010399  -0.011954   0.006050  -0.387843
     4  C   -0.024684   0.387524  -0.035572   0.014250   0.001148   0.066032
     5  C    0.012492  -0.039741   0.383881   0.027781  -0.010358  -0.066998
     6  C   -0.015208   0.017790  -0.065021   0.355805  -0.064669  -0.150453
     7  H    0.512972  -0.004546  -0.000248   0.000079   0.000018   0.002525
     8  H   -0.004546   0.539942  -0.004896  -0.000280  -0.000001   0.000647
     9  H   -0.000248  -0.004896   0.540110  -0.004637  -0.000010   0.000530
    10  H    0.000079  -0.000280  -0.004637   0.533190   0.002152   0.004840
    11  H    0.000018  -0.000001  -0.000010   0.002152   0.391982  -0.010813
    12  C    0.002525   0.000647   0.000530   0.004840  -0.010813   5.744491
    13  H   -0.000015  -0.000000  -0.000000  -0.000003  -0.001780   0.397704
    14  N   -0.000493   0.000474  -0.000461  -0.002268   0.371174   0.422804
    15  N    0.002596  -0.000391   0.000314  -0.000216  -0.012751   0.334570
    16  P    0.000175   0.000005   0.000000   0.000028   0.000110  -0.092600
    17  O    0.000037  -0.000001   0.000000  -0.000003  -0.000050   0.096336
    18  O   -0.001670   0.000005  -0.000000  -0.000004   0.000130   0.013942
    19  H    0.001324  -0.000002   0.000000   0.000005   0.000026   0.026744
    20  O    0.000001   0.000000   0.000000  -0.000000  -0.000007   0.006096
    21  H   -0.000000   0.000000   0.000000  -0.000000   0.000000  -0.000850
    22  O   -0.000043   0.000001  -0.000000  -0.000000  -0.000011  -0.002024
    23  H    0.000092  -0.000001   0.000000  -0.000000   0.000000  -0.003845
              13         14         15         16         17         18
     1  C    0.000277   0.170405   1.128089   0.008491   0.013682  -0.082484
     2  C    0.025346   0.292917  -0.652876   0.016624  -0.056856  -0.091984
     3  C    0.018581  -0.108175  -0.465197  -0.003004  -0.011437   0.169027
     4  C   -0.000321   0.019185  -0.100232   0.011223   0.005390  -0.000069
     5  C    0.001254  -0.028829   0.056756  -0.001850  -0.000905   0.005779
     6  C   -0.000574  -0.212881   0.110962   0.012077   0.016683  -0.011111
     7  H   -0.000015  -0.000493   0.002596   0.000175   0.000037  -0.001670
     8  H   -0.000000   0.000474  -0.000391   0.000005  -0.000001   0.000005
     9  H   -0.000000  -0.000461   0.000314   0.000000   0.000000  -0.000000
    10  H   -0.000003  -0.002268  -0.000216   0.000028  -0.000003  -0.000004
    11  H   -0.001780   0.371174  -0.012751   0.000110  -0.000050   0.000130
    12  C    0.397704   0.422804   0.334570  -0.092600   0.096336   0.013942
    13  H    0.469927  -0.039766  -0.045966   0.004475  -0.010023  -0.000135
    14  N   -0.039766   6.496575  -0.094832   0.004989  -0.018277   0.001508
    15  N   -0.045966  -0.094832   7.081596   0.011961  -0.017394  -0.019248
    16  P    0.004475   0.004989   0.011961  12.473465   0.503863   0.304433
    17  O   -0.010023  -0.018277  -0.017394   0.503863   8.169036  -0.057892
    18  O   -0.000135   0.001508  -0.019248   0.304433  -0.057892   8.180473
    19  H   -0.001049   0.005678   0.057681  -0.007924   0.001973   0.241796
    20  O   -0.000061  -0.000417  -0.001757   0.200336  -0.001190   0.009166
    21  H    0.000031   0.000040   0.000091   0.027350  -0.002003  -0.010661
    22  O    0.000099   0.001190  -0.005159   0.253035   0.011266   0.007713
    23  H    0.000026   0.000881  -0.004456   0.020538  -0.007031  -0.012816
              19         20         21         22         23
     1  C    0.007340  -0.001294  -0.000685  -0.015922  -0.011627
     2  C    0.099452  -0.005784   0.000587   0.029104   0.024823
     3  C   -0.128792   0.002286   0.000249  -0.000926  -0.014332
     4  C    0.003627   0.000469   0.000052  -0.003515   0.004287
     5  C   -0.004370  -0.000147  -0.000001   0.000048  -0.001506
     6  C    0.001900   0.000683  -0.000031  -0.002847   0.002597
     7  H    0.001324   0.000001  -0.000000  -0.000043   0.000092
     8  H   -0.000002   0.000000   0.000000   0.000001  -0.000001
     9  H    0.000000   0.000000   0.000000  -0.000000   0.000000
    10  H    0.000005  -0.000000  -0.000000  -0.000000  -0.000000
    11  H    0.000026  -0.000007   0.000000  -0.000011   0.000000
    12  C    0.026744   0.006096  -0.000850  -0.002024  -0.003845
    13  H   -0.001049  -0.000061   0.000031   0.000099   0.000026
    14  N    0.005678  -0.000417   0.000040   0.001190   0.000881
    15  N    0.057681  -0.001757   0.000091  -0.005159  -0.004456
    16  P   -0.007924   0.200336   0.027350   0.253035   0.020538
    17  O    0.001973  -0.001190  -0.002003   0.011266  -0.007031
    18  O    0.241796   0.009166  -0.010661   0.007713  -0.012816
    19  H    0.281462  -0.000361   0.000454  -0.000150   0.000996
    20  O   -0.000361   8.057106   0.229106  -0.011014   0.001168
    21  H    0.000454   0.229106   0.462305  -0.014473   0.001885
    22  O   -0.000150  -0.011014  -0.014473   8.027641   0.247032
    23  H    0.000996   0.001168   0.001885   0.247032   0.426097
 Mulliken charges:
               1
     1  C    0.532924
     2  C    0.541035
     3  C   -0.433343
     4  C   -0.186810
     5  C   -0.174578
     6  C   -0.706281
     7  H    0.141255
     8  H    0.127097
     9  H    0.126962
    10  H    0.128289
    11  H    0.290507
    12  C    0.066935
    13  H    0.181972
    14  N   -0.281421
    15  N   -0.364142
    16  P    1.252199
    17  O   -0.635206
    18  O   -0.645898
    19  H    0.412190
    20  O   -0.484386
    21  H    0.306553
    22  O   -0.521045
    23  H    0.325190
 Sum of Mulliken charges =  -0.00000
 Mulliken charges with hydrogens summed into heavy atoms:
               1
     1  C    0.532924
     2  C    0.541035
     3  C   -0.292088
     4  C   -0.059713
     5  C   -0.047615
     6  C   -0.577991
    12  C    0.248908
    14  N    0.009086
    15  N   -0.364142
    16  P    1.252199
    17  O   -0.635206
    18  O   -0.233708
    20  O   -0.177833
    22  O   -0.195855
         Mulliken charges condensed to fragments:
      1     -0.009597
      2      0.009597
 Electronic spatial extent (au):  <R**2>=         125483.0165
 Charge=             -0.0000 electrons
 Dipole moment (field-independent basis, Debye):
    X=              1.9324    Y=              2.5806    Z=              0.4869  Tot=              3.2605
 Quadrupole moment (field-independent basis, Debye-Ang):
   XX=            -51.5557   YY=            -28.2473   ZZ=            -73.2684
   XY=             40.2455   XZ=             14.5889   YZ=             38.3585
 Traceless Quadrupole moment (field-independent basis, Debye-Ang):
   XX=             -0.5319   YY=             22.7765   ZZ=            -22.2446
   XY=             40.2455   XZ=             14.5889   YZ=             38.3585
 Octapole moment (field-independent basis, Debye-Ang**2):
  XXX=          -2314.9113  YYY=          -1397.0074  ZZZ=          -2487.3821  XYY=           -250.9075
  XXY=           -250.0597  XXZ=           -719.7807  XZZ=           -826.8518  YZZ=           -241.5303
  YYZ=           -148.2331  XYZ=            430.5794
 Hexadecapole moment (field-independent basis, Debye-Ang**3):
 XXXX=         -55769.7884 YYYY=         -31006.9079 ZZZZ=         -54623.4188 XXXY=         -19347.9263
 XXXZ=         -27730.4576 YYYX=         -15809.8095 YYYZ=         -13304.7260 ZZZX=         -29067.1974
 ZZZY=         -17871.9212 XXYY=          -9933.1031 XXZZ=         -19980.0271 YYZZ=          -7451.9690
 XXYZ=          -3903.1026 YYXZ=          -2255.5223 ZZXY=          -4035.5016
 N-N= 1.020162182859D+03 E-N=-4.451144083293D+03  KE= 1.020469535573D+03
 No NMR shielding tensors so no spin-rotation constants.
 Leave Link  601 at Sat Dec 17 23:04:50 2022, MaxMem=  6710886400 cpu:               2.9 elap:               0.2
 (Enter /data0/home/software/g16/l122.exe)
 CPIOFr:  IOpCl= 0 IRwI=-1 IRwCP=  731 ICalc= -1 LCPTot=      297221 Len1MO=      783136 IndFrg=      297221
 CPIOFr:  IOpCl= 0 IRwI=-1 IRwCP=  731 ICalc=  0 LCPTot=      297221 Len1MO=      783136 IndFrg=     1080357
 Counterpoise: doing calculation for fragment   1 using the basis set of the full-system, NewBq=T
 Leave Link  122 at Sat Dec 17 23:04:50 2022, MaxMem=  6710886400 cpu:               0.3 elap:               0.0
 (Enter /data0/home/software/g16/l301.exe)
 Basis read from rwf:  (5D, 7F)
 No pseudopotential information found on rwf file.
   440 basis functions,   674 primitive gaussians,   468 cartesian basis functions
    31 alpha electrons       31 beta electrons
       nuclear repulsion energy       401.4613013505 Hartrees.
 IExCor= 4336 DFT=T Ex+Corr=M062X ExCW=0 ScaHFX=  0.540000
 ScaDFX=  1.000000  1.000000  1.000000  1.000000 ScalE2=  1.000000  1.000000
 IRadAn=      5 IRanWt=     -1 IRanGd=            0 ICorTp=0 IEmpDi=131
 NAtoms=   23 NActive=   23 NUniq=   23 SFac= 1.00D+00 NAtFMM=   60 NAOKFM=F Big=F
 Integral buffers will be    131072 words long.
 Raffenetti 2 integral format.
 Two-electron integral symmetry is turned off.
 R6Disp:  Grimme-D3 Dispersion energy=       -0.0002903571 Hartrees.
 Nuclear repulsion after empirical dispersion term =      401.4610109933 Hartrees.
 No density basis found on file   718.
 Leave Link  301 at Sat Dec 17 23:04:50 2022, MaxMem=  6710886400 cpu:               1.3 elap:               0.1
 (Enter /data0/home/software/g16/l302.exe)
 NPDir=0 NMtPBC=     1 NCelOv=     1 NCel=       1 NClECP=     1 NCelD=      1
         NCelK=      1 NCelE2=     1 NClLst=     1 CellRange=     0.0.
 One-electron integrals computed using PRISM.
 NBasis=   440 RedAO= T EigKep=  1.21D-06  NBF=   440
 NBsUse=   440 1.00D-06 EigRej= -1.00D+00 NBFU=   440
 Precomputing XC quadrature grid using
 IXCGrd= 4 IRadAn=           5 IRanWt=          -1 IRanGd=           0 AccXCQ= 0.00D+00.
 Generated NRdTot=       0 NPtTot=           0 NUsed=           0 NTot=          32
 NSgBfM=   467   467   467   467   467 MxSgAt=    23 MxSgA2=    23.
 Leave Link  302 at Sat Dec 17 23:04:51 2022, MaxMem=  6710886400 cpu:               8.1 elap:               0.4
 (Enter /data0/home/software/g16/l303.exe)
 DipDrv:  MaxL=1.
 Leave Link  303 at Sat Dec 17 23:04:51 2022, MaxMem=  6710886400 cpu:               1.0 elap:               0.1
 (Enter /data0/home/software/g16/l401.exe)
 ExpMin= 3.48D-02 ExpMax= 7.75D+04 ExpMxC= 2.65D+03 IAcc=3 IRadAn=         5 AccDes= 0.00D+00
 Harris functional with IExCor= 1009 and IRadAn=       5 diagonalized for initial guess.
 HarFok:  IExCor= 1009 AccDes= 0.00D+00 IRadAn=         5 IDoV= 1 UseB2=F ITyADJ=14
 ICtDFT=  3500011 ScaDFX=  1.000000  1.000000  1.000000  1.000000
 FoFCou: FMM=F IPFlag=           0 FMFlag=      100000 FMFlg1=           0
         NFxFlg=           0 DoJE=T BraDBF=F KetDBF=T FulRan=T
         wScrn=  0.000000 ICntrl=       500 IOpCl=  0 I1Cent=   200000004 NGrid=           0
         NMat0=    1 NMatS0=      1 NMatT0=    0 NMatD0=    1 NMtDS0=    0 NMtDT0=    0
 Symmetry not used in FoFCou.
 Harris En= -379.613817247491    
 JPrj=0 DoOrth=F DoCkMO=F.
 Leave Link  401 at Sat Dec 17 23:04:52 2022, MaxMem=  6710886400 cpu:              29.0 elap:               1.2
 (Enter /data0/home/software/g16/l502.exe)
 Two-electron integral symmetry not used.
 Closed shell SCF:
 Using DIIS extrapolation, IDIIS=  1040.
 NGot=  6710886400 LenX=  6710433895 LenY=  6710214403
 Requested convergence on RMS density matrix=1.00D-08 within 128 cycles.
 Requested convergence on MAX density matrix=1.00D-06.
 Requested convergence on             energy=1.00D-06.
 No special actions if energy rises.
 Fock matrices will be formed incrementally for  20 cycles.

 Cycle   1  Pass 1  IDiag  1:
 FoFJK:  IHMeth= 1 ICntrl=       0 DoSepK=F KAlg= 0 I1Cent=           0 FoldK=F
 IRaf= 850000000 NMat=       1 IRICut=       1 DoRegI=T DoRafI=F ISym2E= 0 IDoP0=0 IntGTp=1.
 FoFCou: FMM=F IPFlag=           0 FMFlag=      100000 FMFlg1=           0
         NFxFlg=           0 DoJE=F BraDBF=F KetDBF=F FulRan=T
         wScrn=  0.000000 ICntrl=         0 IOpCl=  0 I1Cent=           0 NGrid=           0
         NMat0=    1 NMatS0=      1 NMatT0=    0 NMatD0=    1 NMtDS0=    0 NMtDT0=    0
 Symmetry not used in FoFCou.
 E= -379.610419142459    
 DIIS: error= 1.65D-02 at cycle   1 NSaved=   1.
 NSaved= 1 IEnMin= 1 EnMin= -379.610419142459     IErMin= 1 ErrMin= 1.65D-02
 ErrMax= 1.65D-02  0.00D+00 EMaxC= 1.00D-01 BMatC= 2.49D-01 BMatP= 2.49D-01
 IDIUse=3 WtCom= 8.35D-01 WtEn= 1.65D-01
 Coeff-Com:  0.100D+01
 Coeff-En:   0.100D+01
 Coeff:      0.100D+01
 Gap=     0.306 Goal=   None    Shift=    0.000
 GapD=    0.306 DampG=1.000 DampE=0.500 DampFc=0.5000 IDamp=-1.
 Damping current iteration by 5.00D-01
 RMSDP=1.02D-02 MaxDP=1.78D+00              OVMax= 2.15D-01

 Cycle   2  Pass 1  IDiag  1:
 RMSU=  4.87D-03    CP:  1.10D+00
 E= -379.707283127325     Delta-E=       -0.096863984866 Rises=F Damp=T
 DIIS: error= 5.90D-03 at cycle   2 NSaved=   2.
 NSaved= 2 IEnMin= 2 EnMin= -379.707283127325     IErMin= 2 ErrMin= 5.90D-03
 ErrMax= 5.90D-03  0.00D+00 EMaxC= 1.00D-01 BMatC= 2.63D-02 BMatP= 2.49D-01
 IDIUse=3 WtCom= 9.41D-01 WtEn= 5.90D-02
 Coeff-Com: -0.883D-01 0.109D+01
 Coeff-En:   0.000D+00 0.100D+01
 Coeff:     -0.831D-01 0.108D+01
 Gap=     0.301 Goal=   None    Shift=    0.000
 RMSDP=3.27D-03 MaxDP=3.49D-01 DE=-9.69D-02 OVMax= 1.78D-01

 Cycle   3  Pass 1  IDiag  1:
 RMSU=  2.52D-03    CP:  9.63D-01  1.09D+00
 E= -379.799816309355     Delta-E=       -0.092533182030 Rises=F Damp=F
 DIIS: error= 5.36D-03 at cycle   3 NSaved=   3.
 NSaved= 3 IEnMin= 3 EnMin= -379.799816309355     IErMin= 3 ErrMin= 5.36D-03
 ErrMax= 5.36D-03  0.00D+00 EMaxC= 1.00D-01 BMatC= 1.80D-02 BMatP= 2.63D-02
 IDIUse=3 WtCom= 9.46D-01 WtEn= 5.36D-02
 Coeff-Com: -0.137D+00 0.538D+00 0.599D+00
 Coeff-En:   0.000D+00 0.000D+00 0.100D+01
 Coeff:     -0.129D+00 0.509D+00 0.620D+00
 Gap=     0.279 Goal=   None    Shift=    0.000
 RMSDP=1.05D-03 MaxDP=1.72D-01 DE=-9.25D-02 OVMax= 6.05D-02

 Cycle   4  Pass 1  IDiag  1:
 RMSU=  9.03D-04    CP:  9.29D-01  1.09D+00  9.48D-01
 E= -379.814900911644     Delta-E=       -0.015084602289 Rises=F Damp=F
 DIIS: error= 1.66D-03 at cycle   4 NSaved=   4.
 NSaved= 4 IEnMin= 4 EnMin= -379.814900911644     IErMin= 4 ErrMin= 1.66D-03
 ErrMax= 1.66D-03  0.00D+00 EMaxC= 1.00D-01 BMatC= 2.48D-03 BMatP= 1.80D-02
 IDIUse=3 WtCom= 9.83D-01 WtEn= 1.66D-02
 Coeff-Com: -0.577D-01 0.148D+00 0.328D+00 0.581D+00
 Coeff-En:   0.000D+00 0.000D+00 0.661D-01 0.934D+00
 Coeff:     -0.567D-01 0.146D+00 0.324D+00 0.587D+00
 Gap=     0.278 Goal=   None    Shift=    0.000
 RMSDP=4.45D-04 MaxDP=5.61D-02 DE=-1.51D-02 OVMax= 1.31D-02

 Cycle   5  Pass 1  IDiag  1:
 RMSU=  2.53D-04    CP:  9.30D-01  1.04D+00  9.42D-01  6.81D-01
 E= -379.817016305019     Delta-E=       -0.002115393375 Rises=F Damp=F
 DIIS: error= 3.44D-04 at cycle   5 NSaved=   5.
 NSaved= 5 IEnMin= 5 EnMin= -379.817016305019     IErMin= 5 ErrMin= 3.44D-04
 ErrMax= 3.44D-04  0.00D+00 EMaxC= 1.00D-01 BMatC= 9.59D-05 BMatP= 2.48D-03
 IDIUse=3 WtCom= 9.97D-01 WtEn= 3.44D-03
 Coeff-Com: -0.198D-01 0.421D-01 0.118D+00 0.265D+00 0.595D+00
 Coeff-En:   0.000D+00 0.000D+00 0.000D+00 0.000D+00 0.100D+01
 Coeff:     -0.197D-01 0.419D-01 0.117D+00 0.264D+00 0.597D+00
 Gap=     0.278 Goal=   None    Shift=    0.000
 RMSDP=8.54D-05 MaxDP=1.21D-02 DE=-2.12D-03 OVMax= 4.02D-03

 Cycle   6  Pass 1  IDiag  1:
 RMSU=  7.49D-05    CP:  9.32D-01  1.05D+00  9.41D-01  6.84D-01  9.18D-01
 E= -379.817104698038     Delta-E=       -0.000088393018 Rises=F Damp=F
 DIIS: error= 1.61D-04 at cycle   6 NSaved=   6.
 NSaved= 6 IEnMin= 6 EnMin= -379.817104698038     IErMin= 6 ErrMin= 1.61D-04
 ErrMax= 1.61D-04  0.00D+00 EMaxC= 1.00D-01 BMatC= 1.15D-05 BMatP= 9.59D-05
 IDIUse=3 WtCom= 9.98D-01 WtEn= 1.61D-03
 Coeff-Com: -0.272D-02 0.325D-02 0.186D-01 0.533D-01 0.286D+00 0.642D+00
 Coeff-En:   0.000D+00 0.000D+00 0.000D+00 0.000D+00 0.251D-01 0.975D+00
 Coeff:     -0.272D-02 0.324D-02 0.185D-01 0.532D-01 0.286D+00 0.642D+00
 Gap=     0.278 Goal=   None    Shift=    0.000
 RMSDP=4.93D-05 MaxDP=7.68D-03 DE=-8.84D-05 OVMax= 1.46D-03

 Cycle   7  Pass 1  IDiag  1:
 RMSU=  2.85D-05    CP:  9.31D-01  1.04D+00  9.44D-01  6.89D-01  9.39D-01
                    CP:  9.04D-01
 E= -379.817117407893     Delta-E=       -0.000012709855 Rises=F Damp=F
 DIIS: error= 3.86D-05 at cycle   7 NSaved=   7.
 NSaved= 7 IEnMin= 7 EnMin= -379.817117407893     IErMin= 7 ErrMin= 3.86D-05
 ErrMax= 3.86D-05  0.00D+00 EMaxC= 1.00D-01 BMatC= 4.15D-07 BMatP= 1.15D-05
 IDIUse=1 WtCom= 1.00D+00 WtEn= 0.00D+00
 Coeff-Com:  0.146D-02-0.359D-02-0.659D-02-0.166D-01-0.366D-02 0.977D-01
 Coeff-Com:  0.931D+00
 Coeff:      0.146D-02-0.359D-02-0.659D-02-0.166D-01-0.366D-02 0.977D-01
 Coeff:      0.931D+00
 Gap=     0.278 Goal=   None    Shift=    0.000
 RMSDP=1.59D-05 MaxDP=2.20D-03 DE=-1.27D-05 OVMax= 4.69D-04

 Cycle   8  Pass 1  IDiag  1:
 RMSU=  3.94D-06    CP:  9.31D-01  1.04D+00  9.44D-01  6.84D-01  9.64D-01
                    CP:  9.70D-01  1.16D+00
 E= -379.817118072008     Delta-E=       -0.000000664115 Rises=F Damp=F
 DIIS: error= 1.75D-05 at cycle   8 NSaved=   8.
 NSaved= 8 IEnMin= 8 EnMin= -379.817118072008     IErMin= 8 ErrMin= 1.75D-05
 ErrMax= 1.75D-05  0.00D+00 EMaxC= 1.00D-01 BMatC= 1.80D-07 BMatP= 4.15D-07
 IDIUse=1 WtCom= 1.00D+00 WtEn= 0.00D+00
 Coeff-Com:  0.107D-02-0.220D-02-0.516D-02-0.148D-01-0.328D-01-0.207D-01
 Coeff-Com:  0.495D+00 0.579D+00
 Coeff:      0.107D-02-0.220D-02-0.516D-02-0.148D-01-0.328D-01-0.207D-01
 Coeff:      0.495D+00 0.579D+00
 Gap=     0.278 Goal=   None    Shift=    0.000
 RMSDP=3.88D-06 MaxDP=3.97D-04 DE=-6.64D-07 OVMax= 2.19D-04

 Cycle   9  Pass 1  IDiag  1:
 RMSU=  2.98D-06    CP:  9.31D-01  1.04D+00  9.44D-01  6.83D-01  9.65D-01
                    CP:  9.80D-01  1.17D+00  1.07D+00
 E= -379.817118293108     Delta-E=       -0.000000221099 Rises=F Damp=F
 DIIS: error= 6.81D-06 at cycle   9 NSaved=   9.
 NSaved= 9 IEnMin= 9 EnMin= -379.817118293108     IErMin= 9 ErrMin= 6.81D-06
 ErrMax= 6.81D-06  0.00D+00 EMaxC= 1.00D-01 BMatC= 8.85D-09 BMatP= 1.80D-07
 IDIUse=1 WtCom= 1.00D+00 WtEn= 0.00D+00
 Coeff-Com: -0.549D-04 0.172D-03 0.434D-03 0.386D-03-0.266D-02-0.150D-01
 Coeff-Com: -0.674D-01 0.108D+00 0.976D+00
 Coeff:     -0.549D-04 0.172D-03 0.434D-03 0.386D-03-0.266D-02-0.150D-01
 Coeff:     -0.674D-01 0.108D+00 0.976D+00
 Gap=     0.278 Goal=   None    Shift=    0.000
 RMSDP=1.86D-06 MaxDP=2.55D-04 DE=-2.21D-07 OVMax= 9.40D-05

 Cycle  10  Pass 1  IDiag  1:
 RMSU=  6.92D-07    CP:  9.31D-01  1.04D+00  9.44D-01  6.82D-01  9.67D-01
                    CP:  9.79D-01  1.17D+00  1.22D+00  1.24D+00
 E= -379.817118315234     Delta-E=       -0.000000022126 Rises=F Damp=F
 DIIS: error= 2.31D-06 at cycle  10 NSaved=  10.
 NSaved=10 IEnMin=10 EnMin= -379.817118315234     IErMin=10 ErrMin= 2.31D-06
 ErrMax= 2.31D-06  0.00D+00 EMaxC= 1.00D-01 BMatC= 9.52D-10 BMatP= 8.85D-09
 IDIUse=1 WtCom= 1.00D+00 WtEn= 0.00D+00
 Coeff-Com: -0.980D-04 0.220D-03 0.582D-03 0.128D-02 0.164D-02-0.257D-02
 Coeff-Com: -0.618D-01-0.212D-01 0.273D+00 0.809D+00
 Coeff:     -0.980D-04 0.220D-03 0.582D-03 0.128D-02 0.164D-02-0.257D-02
 Coeff:     -0.618D-01-0.212D-01 0.273D+00 0.809D+00
 Gap=     0.278 Goal=   None    Shift=    0.000
 RMSDP=5.23D-07 MaxDP=7.88D-05 DE=-2.21D-08 OVMax= 3.57D-05

 Cycle  11  Pass 1  IDiag  1:
 RMSU=  1.86D-07    CP:  9.31D-01  1.04D+00  9.44D-01  6.82D-01  9.66D-01
                    CP:  9.80D-01  1.17D+00  1.26D+00  1.33D+00  1.07D+00
 E= -379.817118317322     Delta-E=       -0.000000002089 Rises=F Damp=F
 DIIS: error= 9.12D-07 at cycle  11 NSaved=  11.
 NSaved=11 IEnMin=11 EnMin= -379.817118317322     IErMin=11 ErrMin= 9.12D-07
 ErrMax= 9.12D-07  0.00D+00 EMaxC= 1.00D-01 BMatC= 2.70D-10 BMatP= 9.52D-10
 IDIUse=1 WtCom= 1.00D+00 WtEn= 0.00D+00
 Coeff-Com: -0.331D-04 0.698D-04 0.204D-03 0.509D-03 0.987D-03 0.863D-03
 Coeff-Com: -0.195D-01-0.274D-01-0.103D-01 0.392D+00 0.662D+00
 Coeff:     -0.331D-04 0.698D-04 0.204D-03 0.509D-03 0.987D-03 0.863D-03
 Coeff:     -0.195D-01-0.274D-01-0.103D-01 0.392D+00 0.662D+00
 Gap=     0.278 Goal=   None    Shift=    0.000
 RMSDP=1.58D-07 MaxDP=1.44D-05 DE=-2.09D-09 OVMax= 1.44D-05

 Cycle  12  Pass 1  IDiag  1:
 RMSU=  9.40D-08    CP:  9.31D-01  1.04D+00  9.44D-01  6.82D-01  9.66D-01
                    CP:  9.80D-01  1.17D+00  1.27D+00  1.35D+00  1.14D+00
                    CP:  1.05D+00
 E= -379.817118317767     Delta-E=       -0.000000000445 Rises=F Damp=F
 DIIS: error= 2.78D-07 at cycle  12 NSaved=  12.
 NSaved=12 IEnMin=12 EnMin= -379.817118317767     IErMin=12 ErrMin= 2.78D-07
 ErrMax= 2.78D-07  0.00D+00 EMaxC= 1.00D-01 BMatC= 1.50D-11 BMatP= 2.70D-10
 IDIUse=1 WtCom= 1.00D+00 WtEn= 0.00D+00
 Coeff-Com:  0.881D-05-0.200D-04-0.491D-04-0.879D-04-0.875D-04 0.700D-03
 Coeff-Com:  0.591D-02-0.444D-02-0.452D-01-0.352D-01 0.129D+00 0.950D+00
 Coeff:      0.881D-05-0.200D-04-0.491D-04-0.879D-04-0.875D-04 0.700D-03
 Coeff:      0.591D-02-0.444D-02-0.452D-01-0.352D-01 0.129D+00 0.950D+00
 Gap=     0.278 Goal=   None    Shift=    0.000
 RMSDP=9.89D-08 MaxDP=1.07D-05 DE=-4.45D-10 OVMax= 6.33D-06

 Cycle  13  Pass 1  IDiag  1:
 RMSU=  4.24D-08    CP:  9.31D-01  1.04D+00  9.44D-01  6.82D-01  9.67D-01
                    CP:  9.81D-01  1.17D+00  1.26D+00  1.35D+00  1.18D+00
                    CP:  1.17D+00  1.37D+00
 E= -379.817118317816     Delta-E=       -0.000000000049 Rises=F Damp=F
 DIIS: error= 1.17D-07 at cycle  13 NSaved=  13.
 NSaved=13 IEnMin=13 EnMin= -379.817118317816     IErMin=13 ErrMin= 1.17D-07
 ErrMax= 1.17D-07  0.00D+00 EMaxC= 1.00D-01 BMatC= 2.89D-12 BMatP= 1.50D-11
 IDIUse=1 WtCom= 1.00D+00 WtEn= 0.00D+00
 Coeff-Com:  0.523D-05-0.116D-04-0.322D-04-0.645D-04-0.113D-03 0.206D-03
 Coeff-Com:  0.349D-02 0.373D-03-0.127D-01-0.389D-01-0.226D-01 0.314D+00
 Coeff-Com:  0.756D+00
 Coeff:      0.523D-05-0.116D-04-0.322D-04-0.645D-04-0.113D-03 0.206D-03
 Coeff:      0.349D-02 0.373D-03-0.127D-01-0.389D-01-0.226D-01 0.314D+00
 Coeff:      0.756D+00
 Gap=     0.278 Goal=   None    Shift=    0.000
 RMSDP=1.97D-08 MaxDP=1.59D-06 DE=-4.85D-11 OVMax= 1.86D-06

 Cycle  14  Pass 1  IDiag  1:
 RMSU=  8.50D-09    CP:  9.31D-01  1.04D+00  9.44D-01  6.82D-01  9.67D-01
                    CP:  9.81D-01  1.17D+00  1.26D+00  1.35D+00  1.18D+00
                    CP:  1.19D+00  1.48D+00  1.13D+00
 E= -379.817118317809     Delta-E=        0.000000000006 Rises=F Damp=F
 DIIS: error= 3.25D-08 at cycle  14 NSaved=  14.
 NSaved=14 IEnMin=13 EnMin= -379.817118317816     IErMin=14 ErrMin= 3.25D-08
 ErrMax= 3.25D-08  0.00D+00 EMaxC= 1.00D-01 BMatC= 8.39D-13 BMatP= 2.89D-12
 IDIUse=1 WtCom= 1.00D+00 WtEn= 0.00D+00
 Coeff-Com:  0.234D-06-0.555D-06-0.371D-05-0.686D-05-0.350D-04-0.485D-04
 Coeff-Com:  0.194D-03 0.100D-02 0.509D-02-0.856D-02-0.486D-01-0.832D-01
 Coeff-Com:  0.372D+00 0.762D+00
 Coeff:      0.234D-06-0.555D-06-0.371D-05-0.686D-05-0.350D-04-0.485D-04
 Coeff:      0.194D-03 0.100D-02 0.509D-02-0.856D-02-0.486D-01-0.832D-01
 Coeff:      0.372D+00 0.762D+00
 Gap=     0.278 Goal=   None    Shift=    0.000
 RMSDP=1.27D-08 MaxDP=1.03D-06 DE= 6.37D-12 OVMax= 7.83D-07

 Cycle  15  Pass 1  IDiag  1:
 RMSU=  4.62D-09    CP:  9.31D-01  1.04D+00  9.44D-01  6.82D-01  9.67D-01
                    CP:  9.81D-01  1.17D+00  1.26D+00  1.35D+00  1.19D+00
                    CP:  1.19D+00  1.55D+00  1.24D+00  1.15D+00
 E= -379.817118317827     Delta-E=       -0.000000000018 Rises=F Damp=F
 DIIS: error= 8.14D-09 at cycle  15 NSaved=  15.
 NSaved=15 IEnMin=15 EnMin= -379.817118317827     IErMin=15 ErrMin= 8.14D-09
 ErrMax= 8.14D-09  0.00D+00 EMaxC= 1.00D-01 BMatC= 3.57D-14 BMatP= 8.39D-13
 IDIUse=1 WtCom= 1.00D+00 WtEn= 0.00D+00
 Coeff-Com: -0.251D-06 0.529D-06 0.525D-06 0.166D-05-0.751D-05-0.267D-04
 Coeff-Com: -0.131D-03 0.256D-03 0.250D-02-0.149D-03-0.163D-01-0.453D-01
 Coeff-Com:  0.870D-01 0.257D+00 0.715D+00
 Coeff:     -0.251D-06 0.529D-06 0.525D-06 0.166D-05-0.751D-05-0.267D-04
 Coeff:     -0.131D-03 0.256D-03 0.250D-02-0.149D-03-0.163D-01-0.453D-01
 Coeff:      0.870D-01 0.257D+00 0.715D+00
 Gap=     0.278 Goal=   None    Shift=    0.000
 RMSDP=1.54D-09 MaxDP=1.37D-07 DE=-1.78D-11 OVMax= 1.28D-07

 SCF Done:  E(RM062X) =  -379.817118318     A.U. after   15 cycles
            NFock= 15  Conv=0.15D-08     -V/T= 2.0050
 KE= 3.779306655312D+02 PE=-1.685646560250D+03 EE= 5.264377654075D+02
 Leave Link  502 at Sat Dec 17 23:05:50 2022, MaxMem=  6710886400 cpu:            1392.2 elap:              58.2
 (Enter /data0/home/software/g16/l601.exe)
 Copying SCF densities to generalized density rwf, IOpCl= 0 IROHF=0.

 **********************************************************************

            Population analysis using the SCF density.

 **********************************************************************

 Alpha  occ. eigenvalues --  -14.81357 -14.74262 -10.62255 -10.58759 -10.57013
 Alpha  occ. eigenvalues --  -10.55269 -10.54579 -10.54459 -10.54125  -1.12191
 Alpha  occ. eigenvalues --   -0.98074  -0.95017  -0.84456  -0.83261  -0.71872
 Alpha  occ. eigenvalues --   -0.70694  -0.68082  -0.62585  -0.57364  -0.55907
 Alpha  occ. eigenvalues --   -0.51817  -0.51252  -0.50690  -0.48589  -0.43154
 Alpha  occ. eigenvalues --   -0.42195  -0.41409  -0.37306  -0.34424  -0.28689
 Alpha  occ. eigenvalues --   -0.28016
 Alpha virt. eigenvalues --   -0.00236  -0.00053   0.01654   0.02232   0.03364
 Alpha virt. eigenvalues --    0.03587   0.03703   0.04232   0.05195   0.05745
 Alpha virt. eigenvalues --    0.06124   0.06580   0.07262   0.07724   0.09059
 Alpha virt. eigenvalues --    0.09743   0.09985   0.10488   0.11323   0.12053
 Alpha virt. eigenvalues --    0.12794   0.13541   0.13972   0.14798   0.15257
 Alpha virt. eigenvalues --    0.15754   0.16512   0.16734   0.17592   0.17765
 Alpha virt. eigenvalues --    0.18523   0.18858   0.19751   0.20031   0.20435
 Alpha virt. eigenvalues --    0.20789   0.21179   0.21329   0.21739   0.22454
 Alpha virt. eigenvalues --    0.22961   0.23225   0.23634   0.23694   0.24475
 Alpha virt. eigenvalues --    0.24848   0.25005   0.25908   0.26263   0.26747
 Alpha virt. eigenvalues --    0.27070   0.27833   0.28506   0.28899   0.29712
 Alpha virt. eigenvalues --    0.29925   0.30511   0.30924   0.31653   0.31940
 Alpha virt. eigenvalues --    0.33104   0.33834   0.34252   0.34327   0.35659
 Alpha virt. eigenvalues --    0.36924   0.37563   0.37994   0.38630   0.39164
 Alpha virt. eigenvalues --    0.40286   0.40791   0.41102   0.41556   0.43548
 Alpha virt. eigenvalues --    0.44308   0.45773   0.46429   0.47614   0.48500
 Alpha virt. eigenvalues --    0.50237   0.50716   0.53736   0.54642   0.55348
 Alpha virt. eigenvalues --    0.55790   0.56986   0.57239   0.58929   0.59709
 Alpha virt. eigenvalues --    0.61271   0.62592   0.63997   0.65403   0.66656
 Alpha virt. eigenvalues --    0.66976   0.66991   0.67510   0.69761   0.70414
 Alpha virt. eigenvalues --    0.70927   0.71794   0.72657   0.72949   0.73683
 Alpha virt. eigenvalues --    0.74097   0.74977   0.75101   0.75659   0.76498
 Alpha virt. eigenvalues --    0.77057   0.77981   0.78610   0.79932   0.80410
 Alpha virt. eigenvalues --    0.81400   0.82385   0.82994   0.83950   0.84431
 Alpha virt. eigenvalues --    0.85201   0.85334   0.86009   0.86192   0.86975
 Alpha virt. eigenvalues --    0.87339   0.88147   0.89212   0.89743   0.90857
 Alpha virt. eigenvalues --    0.91562   0.93180   0.94129   0.95312   0.95958
 Alpha virt. eigenvalues --    0.97505   0.98671   1.00212   1.00792   1.01449
 Alpha virt. eigenvalues --    1.02573   1.03582   1.03874   1.05275   1.08235
 Alpha virt. eigenvalues --    1.08842   1.10796   1.11897   1.13935   1.15978
 Alpha virt. eigenvalues --    1.17096   1.17788   1.18506   1.20679   1.21342
 Alpha virt. eigenvalues --    1.22977   1.23551   1.24672   1.26419   1.27585
 Alpha virt. eigenvalues --    1.30364   1.30482   1.32227   1.33079   1.34119
 Alpha virt. eigenvalues --    1.35408   1.36317   1.37336   1.38050   1.40130
 Alpha virt. eigenvalues --    1.42369   1.43421   1.44230   1.45729   1.46488
 Alpha virt. eigenvalues --    1.47379   1.48966   1.50092   1.53716   1.56039
 Alpha virt. eigenvalues --    1.57450   1.58134   1.59124   1.62426   1.64715
 Alpha virt. eigenvalues --    1.64854   1.65833   1.69525   1.71480   1.74651
 Alpha virt. eigenvalues --    1.75907   1.78775   1.85268   1.86788   1.89827
 Alpha virt. eigenvalues --    1.92230   1.93474   1.96176   1.98324   1.99138
 Alpha virt. eigenvalues --    1.99292   2.01237   2.03876   2.06582   2.08721
 Alpha virt. eigenvalues --    2.10111   2.12781   2.14273   2.14379   2.18163
 Alpha virt. eigenvalues --    2.20094   2.21821   2.28618   2.29949   2.32398
 Alpha virt. eigenvalues --    2.35292   2.36543   2.37378   2.41335   2.43392
 Alpha virt. eigenvalues --    2.44696   2.45957   2.48832   2.49673   2.51074
 Alpha virt. eigenvalues --    2.57826   2.60739   2.62143   2.62428   2.65037
 Alpha virt. eigenvalues --    2.65538   2.66672   2.68594   2.69677   2.70224
 Alpha virt. eigenvalues --    2.71787   2.72019   2.73039   2.76442   2.77047
 Alpha virt. eigenvalues --    2.77441   2.78082   2.79293   2.79705   2.81332
 Alpha virt. eigenvalues --    2.82934   2.85397   2.85514   2.88930   2.90655
 Alpha virt. eigenvalues --    2.91018   2.91783   2.92456   2.94005   2.95017
 Alpha virt. eigenvalues --    2.97060   2.97403   2.98584   3.00400   3.01220
 Alpha virt. eigenvalues --    3.04751   3.05267   3.08446   3.11094   3.11578
 Alpha virt. eigenvalues --    3.13347   3.15329   3.16689   3.16960   3.18909
 Alpha virt. eigenvalues --    3.19224   3.22407   3.22941   3.25970   3.27888
 Alpha virt. eigenvalues --    3.29282   3.29337   3.30449   3.31013   3.32632
 Alpha virt. eigenvalues --    3.35376   3.35947   3.38122   3.39065   3.39932
 Alpha virt. eigenvalues --    3.40067   3.43412   3.43696   3.45427   3.46460
 Alpha virt. eigenvalues --    3.48984   3.50502   3.51089   3.53356   3.56060
 Alpha virt. eigenvalues --    3.58693   3.59493   3.59516   3.60436   3.62693
 Alpha virt. eigenvalues --    3.64476   3.68904   3.72070   3.72685   3.73931
 Alpha virt. eigenvalues --    3.74905   3.77116   3.79097   3.79720   3.80597
 Alpha virt. eigenvalues --    3.82702   3.87589   3.92584   3.94649   3.96040
 Alpha virt. eigenvalues --    3.96296   3.99481   4.01924   4.02528   4.05572
 Alpha virt. eigenvalues --    4.10416   4.15272   4.26500   4.39291   4.40853
 Alpha virt. eigenvalues --    4.44181   4.44813   4.58512   4.59028   4.60057
 Alpha virt. eigenvalues --    4.67608   4.72057   4.75114   4.77874   4.87586
 Alpha virt. eigenvalues --    4.88604   4.90989   4.93283   5.00317   5.00715
 Alpha virt. eigenvalues --    5.07121   5.12814   5.19117   5.22718   5.24598
 Alpha virt. eigenvalues --    5.30829   5.32365   5.41304   5.53161   5.59218
 Alpha virt. eigenvalues --    5.65971   9.65033   9.70321   9.75170   9.77395
 Alpha virt. eigenvalues --    9.80877   9.86805   9.91320  10.01534  10.06434
 Alpha virt. eigenvalues --   10.11767  10.15831  10.21987  10.22943  10.28139
 Alpha virt. eigenvalues --   10.31282  10.33293  10.34629  10.41207  10.45036
 Alpha virt. eigenvalues --   10.54524  10.62001  10.74448  10.80179  12.70444
 Alpha virt. eigenvalues --   12.75143  12.78561  12.87450  13.05176  13.18533
 Alpha virt. eigenvalues --   13.36708  13.40570  13.50256  13.53526  13.80230
 Alpha virt. eigenvalues --   13.87238  13.94705  17.48394  17.54473  18.41335
 Alpha virt. eigenvalues --   18.44739  23.77961  24.03517  24.07672  24.12464
 Alpha virt. eigenvalues --   24.13641  24.24901  24.28517  35.74228  35.81892
 Alpha virt. eigenvalues --   51.59324  51.60991  51.73053  68.88889 129.94702
 Alpha virt. eigenvalues --  133.52796 139.55895 139.58158 473.84895
          Condensed to atoms (all electrons):
               1          2          3          4          5          6
     1  C    9.515090  -2.489962  -1.230694  -0.436339  -0.043846  -0.130468
     2  C   -2.489962   9.925810  -1.626413   0.276977  -0.774193  -0.291512
     3  C   -1.230694  -1.626413   9.667036   0.220244   0.585201  -0.630997
     4  C   -0.436339   0.276977   0.220244   5.072900   0.470007   0.242102
     5  C   -0.043846  -0.774193   0.585201   0.470007   5.103432   0.499367
     6  C   -0.130468  -0.291512  -0.630997   0.242102   0.499367   7.028362
     7  H    0.019289  -0.022729   0.378585  -0.028273   0.012970  -0.013830
     8  H   -0.006763   0.047580  -0.066135   0.389009  -0.042468   0.020147
     9  H    0.050116   0.000293   0.011258  -0.036189   0.384217  -0.068226
    10  H   -0.021016  -0.029774  -0.013818   0.015425   0.029514   0.357027
    11  H   -0.095486   0.124590   0.014283  -0.000375  -0.008657  -0.062472
    12  C   -0.627366   0.169131  -0.076735   0.021189  -0.028111  -0.163451
    13  H   -0.021487   0.037830   0.032006  -0.000829   0.001805  -0.002993
    14  N    0.437461  -0.104690  -0.077986   0.004995  -0.003505  -0.171216
    15  N    0.613999   0.312007  -0.866181  -0.027113  -0.014133   0.069195
    16  P   -0.010490   0.004129   0.011368   0.002152   0.000554  -0.000021
    17  O    0.007349  -0.002120  -0.005985   0.000213  -0.000179   0.002043
    18  O    0.003328  -0.000023  -0.007398   0.000605  -0.000339   0.001677
    19  H   -0.006432   0.002456   0.004860   0.000249   0.000133  -0.001768
    20  O   -0.001295  -0.002228   0.001350   0.000184   0.000000   0.000038
    21  H    0.000044  -0.000032   0.000056  -0.000002   0.000000   0.000006
    22  O    0.000921   0.002560   0.000426  -0.000801   0.000009  -0.000042
    23  H    0.000649  -0.002111   0.001476   0.000091   0.000127  -0.000037
               7          8          9         10         11         12
     1  C    0.019289  -0.006763   0.050116  -0.021016  -0.095486  -0.627366
     2  C   -0.022729   0.047580   0.000293  -0.029774   0.124590   0.169131
     3  C    0.378585  -0.066135   0.011258  -0.013818   0.014283  -0.076735
     4  C   -0.028273   0.389009  -0.036189   0.015425  -0.000375   0.021189
     5  C    0.012970  -0.042468   0.384217   0.029514  -0.008657  -0.028111
     6  C   -0.013830   0.020147  -0.068226   0.357027  -0.062472  -0.163451
     7  H    0.514984  -0.004722  -0.000252   0.000082   0.000015   0.000834
     8  H   -0.004722   0.543620  -0.004928  -0.000294  -0.000001   0.000652
     9  H   -0.000252  -0.004928   0.544075  -0.004706  -0.000011   0.000556
    10  H    0.000082  -0.000294  -0.004706   0.539381   0.002117   0.005247
    11  H    0.000015  -0.000001  -0.000011   0.002117   0.398710  -0.017273
    12  C    0.000834   0.000652   0.000556   0.005247  -0.017273   5.455382
    13  H   -0.000029  -0.000000  -0.000001  -0.000013  -0.001228   0.415554
    14  N   -0.001013   0.000460  -0.000474  -0.002992   0.374159   0.405558
    15  N    0.006153  -0.000313   0.000330   0.000259  -0.008173   0.400460
    16  P   -0.000083   0.000010   0.000001   0.000036   0.000217  -0.009372
    17  O    0.000006  -0.000000  -0.000000  -0.000004  -0.000193  -0.003505
    18  O    0.000069  -0.000002  -0.000000   0.000000  -0.000007   0.003828
    19  H   -0.000130   0.000001   0.000000   0.000000   0.000036  -0.000284
    20  O   -0.000001   0.000000   0.000000  -0.000000   0.000005   0.001863
    21  H    0.000000  -0.000000  -0.000000   0.000000  -0.000000  -0.000188
    22  O   -0.000005   0.000000   0.000000  -0.000000  -0.000011  -0.003532
    23  H    0.000001  -0.000000   0.000000   0.000000  -0.000001  -0.000099
              13         14         15         16         17         18
     1  C   -0.021487   0.437461   0.613999  -0.010490   0.007349   0.003328
     2  C    0.037830  -0.104690   0.312007   0.004129  -0.002120  -0.000023
     3  C    0.032006  -0.077986  -0.866181   0.011368  -0.005985  -0.007398
     4  C   -0.000829   0.004995  -0.027113   0.002152   0.000213   0.000605
     5  C    0.001805  -0.003505  -0.014133   0.000554  -0.000179  -0.000339
     6  C   -0.002993  -0.171216   0.069195  -0.000021   0.002043   0.001677
     7  H   -0.000029  -0.001013   0.006153  -0.000083   0.000006   0.000069
     8  H   -0.000000   0.000460  -0.000313   0.000010  -0.000000  -0.000002
     9  H   -0.000001  -0.000474   0.000330   0.000001  -0.000000  -0.000000
    10  H   -0.000013  -0.002992   0.000259   0.000036  -0.000004   0.000000
    11  H   -0.001228   0.374159  -0.008173   0.000217  -0.000193  -0.000007
    12  C    0.415554   0.405558   0.400460  -0.009372  -0.003505   0.003828
    13  H    0.499084  -0.053445  -0.061650   0.000669  -0.001141  -0.000371
    14  N   -0.053445   6.492723   0.002784  -0.001823  -0.000647   0.000136
    15  N   -0.061650   0.002784   6.837862  -0.007536   0.002634   0.016023
    16  P    0.000669  -0.001823  -0.007536   0.016579  -0.003717  -0.000643
    17  O   -0.001141  -0.000647   0.002634  -0.003717   0.005063   0.000103
    18  O   -0.000371   0.000136   0.016023  -0.000643   0.000103   0.003128
    19  H    0.000142   0.001365  -0.024120  -0.000691   0.000317  -0.003023
    20  O    0.000093   0.000226  -0.001650  -0.004535   0.001476  -0.000227
    21  H    0.000001  -0.000010   0.000094   0.000151  -0.000185   0.000043
    22  O    0.000050  -0.000794   0.002505  -0.003124  -0.002196   0.000512
    23  H    0.000002  -0.000025  -0.000130   0.000912   0.000178  -0.000071
              19         20         21         22         23
     1  C   -0.006432  -0.001295   0.000044   0.000921   0.000649
     2  C    0.002456  -0.002228  -0.000032   0.002560  -0.002111
     3  C    0.004860   0.001350   0.000056   0.000426   0.001476
     4  C    0.000249   0.000184  -0.000002  -0.000801   0.000091
     5  C    0.000133   0.000000   0.000000   0.000009   0.000127
     6  C   -0.001768   0.000038   0.000006  -0.000042  -0.000037
     7  H   -0.000130  -0.000001   0.000000  -0.000005   0.000001
     8  H    0.000001   0.000000  -0.000000   0.000000  -0.000000
     9  H    0.000000   0.000000  -0.000000   0.000000   0.000000
    10  H    0.000000  -0.000000   0.000000  -0.000000   0.000000
    11  H    0.000036   0.000005  -0.000000  -0.000011  -0.000001
    12  C   -0.000284   0.001863  -0.000188  -0.003532  -0.000099
    13  H    0.000142   0.000093   0.000001   0.000050   0.000002
    14  N    0.001365   0.000226  -0.000010  -0.000794  -0.000025
    15  N   -0.024120  -0.001650   0.000094   0.002505  -0.000130
    16  P   -0.000691  -0.004535   0.000151  -0.003124   0.000912
    17  O    0.000317   0.001476  -0.000185  -0.002196   0.000178
    18  O   -0.003023  -0.000227   0.000043   0.000512  -0.000071
[...]
 Two-electron integral symmetry is turned off.
 R6Disp:  Grimme-D3 Dispersion energy=       -0.0000450918 Hartrees.
 Nuclear repulsion after empirical dispersion term =      280.1174627046 Hartrees.
 No density basis found on file   718.
 Leave Link  301 at Sat Dec 17 23:07:05 2022, MaxMem=  6710886400 cpu:               1.2 elap:               0.1
 (Enter /data0/home/software/g16/l302.exe)
 NPDir=0 NMtPBC=     1 NCelOv=     1 NCel=       1 NClECP=     1 NCelD=      1
         NCelK=      1 NCelE2=     1 NClLst=     1 CellRange=     0.0.
 One-electron integrals computed using PRISM.
 NBasis=   161 RedAO= T EigKep=  4.74D-04  NBF=   161
 NBsUse=   161 1.00D-06 EigRej= -1.00D+00 NBFU=   161
 Precomputing XC quadrature grid using
 IXCGrd= 4 IRadAn=           5 IRanWt=          -1 IRanGd=           0 AccXCQ= 0.00D+00.
 Generated NRdTot=       0 NPtTot=           0 NUsed=           0 NTot=          32
 NSgBfM=   171   171   171   171   171 MxSgAt=     8 MxSgA2=     8.
 Leave Link  302 at Sat Dec 17 23:07:06 2022, MaxMem=  6710886400 cpu:               2.9 elap:               0.1
 (Enter /data0/home/software/g16/l303.exe)
 DipDrv:  MaxL=1.
 Leave Link  303 at Sat Dec 17 23:07:06 2022, MaxMem=  6710886400 cpu:               0.5 elap:               0.0
 (Enter /data0/home/software/g16/l401.exe)
 ExpMin= 3.48D-02 ExpMax= 7.75D+04 ExpMxC= 2.65D+03 IAcc=3 IRadAn=         5 AccDes= 0.00D+00
 Harris functional with IExCor= 1009 and IRadAn=       5 diagonalized for initial guess.
 HarFok:  IExCor= 1009 AccDes= 0.00D+00 IRadAn=         5 IDoV= 1 UseB2=F ITyADJ=14
 ICtDFT=  3500011 ScaDFX=  1.000000  1.000000  1.000000  1.000000
 FoFCou: FMM=F IPFlag=           0 FMFlag=      100000 FMFlg1=           0
         NFxFlg=           0 DoJE=T BraDBF=F KetDBF=T FulRan=T
         wScrn=  0.000000 ICntrl=       500 IOpCl=  0 I1Cent=   200000004 NGrid=           0
         NMat0=    1 NMatS0=      1 NMatT0=    0 NMatD0=    1 NMtDS0=    0 NMtDT0=    0
 Symmetry not used in FoFCou.
 Harris En= -643.941286451222    
 JPrj=0 DoOrth=F DoCkMO=F.
 Leave Link  401 at Sat Dec 17 23:07:06 2022, MaxMem=  6710886400 cpu:               5.9 elap:               0.3
 (Enter /data0/home/software/g16/l502.exe)
 Keep R1 ints in memory in canonical form, NReq=108963383.
 FoFCou: FMM=F IPFlag=           0 FMFlag=           0 FMFlg1=           0
         NFxFlg=           0 DoJE=F BraDBF=F KetDBF=F FulRan=T
         wScrn=  0.000000 ICntrl=       600 IOpCl=  0 I1Cent=           0 NGrid=           0
         NMat0=    1 NMatS0=  13041 NMatT0=    0 NMatD0=    1 NMtDS0=    0 NMtDT0=    0
 Symmetry not used in FoFCou.
 Two-electron integral symmetry not used.
 Closed shell SCF:
 Using DIIS extrapolation, IDIIS=  1040.
 NGot=  6710886400 LenX=  6625781713 LenY=  6625752031
 Requested convergence on RMS density matrix=1.00D-08 within 128 cycles.
 Requested convergence on MAX density matrix=1.00D-06.
 Requested convergence on             energy=1.00D-06.
 No special actions if energy rises.

 Cycle   1  Pass 1  IDiag  1:
 E= -643.860396932679    
 DIIS: error= 4.07D-02 at cycle   1 NSaved=   1.
 NSaved= 1 IEnMin= 1 EnMin= -643.860396932679     IErMin= 1 ErrMin= 4.07D-02
 ErrMax= 4.07D-02  0.00D+00 EMaxC= 1.00D-01 BMatC= 5.06D-01 BMatP= 5.06D-01
 IDIUse=3 WtCom= 5.93D-01 WtEn= 4.07D-01
 Coeff-Com:  0.100D+01
 Coeff-En:   0.100D+01
 Coeff:      0.100D+01
 Gap=     0.276 Goal=   None    Shift=    0.000
 GapD=    0.276 DampG=1.000 DampE=0.500 DampFc=0.5000 IDamp=-1.
 Damping current iteration by 5.00D-01
 RMSDP=7.11D-03 MaxDP=1.59D-01              OVMax= 2.60D-01

 Cycle   2  Pass 1  IDiag  1:
 E= -643.976204679025     Delta-E=       -0.115807746345 Rises=F Damp=T
 DIIS: error= 1.04D-02 at cycle   2 NSaved=   2.
 NSaved= 2 IEnMin= 2 EnMin= -643.976204679025     IErMin= 2 ErrMin= 1.04D-02
 ErrMax= 1.04D-02  0.00D+00 EMaxC= 1.00D-01 BMatC= 2.71D-02 BMatP= 5.06D-01
 IDIUse=3 WtCom= 8.96D-01 WtEn= 1.04D-01
 Coeff-Com:  0.711D-01 0.929D+00
 Coeff-En:   0.203D+00 0.797D+00
 Coeff:      0.848D-01 0.915D+00
 Gap=     0.356 Goal=   None    Shift=    0.000
 RMSDP=1.67D-03 MaxDP=5.44D-02 DE=-1.16D-01 OVMax= 1.69D-01

 Cycle   3  Pass 1  IDiag  1:
 E= -644.140454671716     Delta-E=       -0.164249992692 Rises=F Damp=F
 DIIS: error= 5.93D-03 at cycle   3 NSaved=   3.
 NSaved= 3 IEnMin= 3 EnMin= -644.140454671716     IErMin= 3 ErrMin= 5.93D-03
 ErrMax= 5.93D-03  0.00D+00 EMaxC= 1.00D-01 BMatC= 1.03D-02 BMatP= 2.71D-02
 IDIUse=3 WtCom= 9.41D-01 WtEn= 5.93D-02
 Coeff-Com: -0.141D-01 0.342D+00 0.672D+00
 Coeff-En:   0.000D+00 0.000D+00 0.100D+01
 Coeff:     -0.132D-01 0.322D+00 0.691D+00
 Gap=     0.345 Goal=   None    Shift=    0.000
 RMSDP=6.61D-04 MaxDP=1.50D-02 DE=-1.64D-01 OVMax= 3.47D-02

 Cycle   4  Pass 1  IDiag  1:
 E= -644.145149990205     Delta-E=       -0.004695318489 Rises=F Damp=F
 DIIS: error= 3.65D-03 at cycle   4 NSaved=   4.
 NSaved= 4 IEnMin= 4 EnMin= -644.145149990205     IErMin= 4 ErrMin= 3.65D-03
 ErrMax= 3.65D-03  0.00D+00 EMaxC= 1.00D-01 BMatC= 3.84D-03 BMatP= 1.03D-02
 IDIUse=3 WtCom= 9.63D-01 WtEn= 3.65D-02
 Coeff-Com: -0.208D-01 0.478D-01 0.399D+00 0.574D+00
 Coeff-En:   0.000D+00 0.000D+00 0.272D+00 0.728D+00
 Coeff:     -0.200D-01 0.461D-01 0.395D+00 0.579D+00
 Gap=     0.352 Goal=   None    Shift=    0.000
 RMSDP=2.57D-04 MaxDP=6.12D-03 DE=-4.70D-03 OVMax= 1.12D-02

 Cycle   5  Pass 1  IDiag  1:
 E= -644.147690894733     Delta-E=       -0.002540904527 Rises=F Damp=F
 DIIS: error= 2.22D-04 at cycle   5 NSaved=   5.
 NSaved= 5 IEnMin= 5 EnMin= -644.147690894733     IErMin= 5 ErrMin= 2.22D-04
 ErrMax= 2.22D-04  0.00D+00 EMaxC= 1.00D-01 BMatC= 1.48D-05 BMatP= 3.84D-03
 IDIUse=3 WtCom= 9.98D-01 WtEn= 2.22D-03
 Coeff-Com: -0.237D-02 0.301D-03 0.583D-01 0.119D+00 0.825D+00
 Coeff-En:   0.000D+00 0.000D+00 0.000D+00 0.000D+00 0.100D+01
 Coeff:     -0.236D-02 0.300D-03 0.581D-01 0.118D+00 0.826D+00
 Gap=     0.351 Goal=   None    Shift=    0.000
 RMSDP=2.44D-05 MaxDP=8.26D-04 DE=-2.54D-03 OVMax= 7.38D-04

 Cycle   6  Pass 1  IDiag  1:
 E= -644.147700913272     Delta-E=       -0.000010018540 Rises=F Damp=F
 DIIS: error= 5.57D-05 at cycle   6 NSaved=   6.
 NSaved= 6 IEnMin= 6 EnMin= -644.147700913272     IErMin= 6 ErrMin= 5.57D-05
 ErrMax= 5.57D-05  0.00D+00 EMaxC= 1.00D-01 BMatC= 9.98D-07 BMatP= 1.48D-05
 IDIUse=1 WtCom= 1.00D+00 WtEn= 0.00D+00
 Coeff-Com:  0.545D-04-0.143D-02 0.116D-02 0.905D-02 0.202D+00 0.789D+00
 Coeff:      0.545D-04-0.143D-02 0.116D-02 0.905D-02 0.202D+00 0.789D+00
 Gap=     0.351 Goal=   None    Shift=    0.000
 RMSDP=8.98D-06 MaxDP=2.28D-04 DE=-1.00D-05 OVMax= 2.17D-04

 Cycle   7  Pass 1  IDiag  1:
 E= -644.147701649607     Delta-E=       -0.000000736335 Rises=F Damp=F
 DIIS: error= 2.17D-05 at cycle   7 NSaved=   7.
 NSaved= 7 IEnMin= 7 EnMin= -644.147701649607     IErMin= 7 ErrMin= 2.17D-05
 ErrMax= 2.17D-05  0.00D+00 EMaxC= 1.00D-01 BMatC= 1.92D-07 BMatP= 9.98D-07
 IDIUse=1 WtCom= 1.00D+00 WtEn= 0.00D+00
 Coeff-Com:  0.338D-03-0.574D-03-0.784D-02-0.128D-01-0.236D-01 0.297D+00
 Coeff-Com:  0.748D+00
 Coeff:      0.338D-03-0.574D-03-0.784D-02-0.128D-01-0.236D-01 0.297D+00
 Coeff:      0.748D+00
 Gap=     0.351 Goal=   None    Shift=    0.000
 RMSDP=3.06D-06 MaxDP=6.17D-05 DE=-7.36D-07 OVMax= 9.25D-05

 Cycle   8  Pass 1  IDiag  1:
 E= -644.147701777837     Delta-E=       -0.000000128230 Rises=F Damp=F
 DIIS: error= 1.03D-05 at cycle   8 NSaved=   8.
 NSaved= 8 IEnMin= 8 EnMin= -644.147701777837     IErMin= 8 ErrMin= 1.03D-05
 ErrMax= 1.03D-05  0.00D+00 EMaxC= 1.00D-01 BMatC= 3.27D-08 BMatP= 1.92D-07
 IDIUse=1 WtCom= 1.00D+00 WtEn= 0.00D+00
 Coeff-Com:  0.145D-03-0.187D-03-0.375D-02-0.617D-02-0.183D-01 0.976D-01
 Coeff-Com:  0.371D+00 0.559D+00
 Coeff:      0.145D-03-0.187D-03-0.375D-02-0.617D-02-0.183D-01 0.976D-01
 Coeff:      0.371D+00 0.559D+00
 Gap=     0.351 Goal=   None    Shift=    0.000
 RMSDP=8.29D-07 MaxDP=1.86D-05 DE=-1.28D-07 OVMax= 3.34D-05

 Cycle   9  Pass 1  IDiag  1:
 E= -644.147701800795     Delta-E=       -0.000000022957 Rises=F Damp=F
 DIIS: error= 1.35D-06 at cycle   9 NSaved=   9.
 NSaved= 9 IEnMin= 9 EnMin= -644.147701800795     IErMin= 9 ErrMin= 1.35D-06
 ErrMax= 1.35D-06  0.00D+00 EMaxC= 1.00D-01 BMatC= 7.78D-10 BMatP= 3.27D-08
 IDIUse=1 WtCom= 1.00D+00 WtEn= 0.00D+00
 Coeff-Com: -0.246D-04 0.473D-04 0.246D-03 0.530D-03-0.522D-03-0.197D-01
 Coeff-Com: -0.275D-01 0.811D-01 0.966D+00
 Coeff:     -0.246D-04 0.473D-04 0.246D-03 0.530D-03-0.522D-03-0.197D-01
 Coeff:     -0.275D-01 0.811D-01 0.966D+00
 Gap=     0.351 Goal=   None    Shift=    0.000
 RMSDP=2.96D-07 MaxDP=7.66D-06 DE=-2.30D-08 OVMax= 8.61D-06

 Cycle  10  Pass 1  IDiag  1:
 E= -644.147701801680     Delta-E=       -0.000000000885 Rises=F Damp=F
 DIIS: error= 2.31D-07 at cycle  10 NSaved=  10.
 NSaved=10 IEnMin=10 EnMin= -644.147701801680     IErMin=10 ErrMin= 2.31D-07
 ErrMax= 2.31D-07  0.00D+00 EMaxC= 1.00D-01 BMatC= 1.27D-11 BMatP= 7.78D-10
 IDIUse=1 WtCom= 1.00D+00 WtEn= 0.00D+00
 Coeff-Com: -0.290D-05 0.460D-05 0.979D-04 0.155D-03 0.487D-03-0.361D-02
 Coeff-Com: -0.131D-01-0.143D-01 0.127D-01 0.102D+01
 Coeff:     -0.290D-05 0.460D-05 0.979D-04 0.155D-03 0.487D-03-0.361D-02
 Coeff:     -0.131D-01-0.143D-01 0.127D-01 0.102D+01
 Gap=     0.351 Goal=   None    Shift=    0.000
 RMSDP=5.61D-08 MaxDP=7.15D-07 DE=-8.85D-10 OVMax= 1.94D-06

 Cycle  11  Pass 1  IDiag  1:
 E= -644.147701801704     Delta-E=       -0.000000000024 Rises=F Damp=F
 DIIS: error= 1.27D-07 at cycle  11 NSaved=  11.
 NSaved=11 IEnMin=11 EnMin= -644.147701801704     IErMin=11 ErrMin= 1.27D-07
 ErrMax= 1.27D-07  0.00D+00 EMaxC= 1.00D-01 BMatC= 3.98D-12 BMatP= 1.27D-11
 IDIUse=1 WtCom= 1.00D+00 WtEn= 0.00D+00
 Coeff-Com:  0.256D-06-0.763D-06 0.268D-04 0.350D-04 0.218D-03-0.504D-03
 Coeff-Com: -0.358D-02-0.913D-02-0.434D-01 0.409D+00 0.647D+00
 Coeff:      0.256D-06-0.763D-06 0.268D-04 0.350D-04 0.218D-03-0.504D-03
 Coeff:     -0.358D-02-0.913D-02-0.434D-01 0.409D+00 0.647D+00
 Gap=     0.351 Goal=   None    Shift=    0.000
 RMSDP=1.32D-08 MaxDP=3.54D-07 DE=-2.42D-11 OVMax= 4.10D-07

 Cycle  12  Pass 1  IDiag  1:
 E= -644.147701801704     Delta-E=        0.000000000000 Rises=F Damp=F
 DIIS: error= 4.70D-08 at cycle  12 NSaved=  12.
 NSaved=12 IEnMin=11 EnMin= -644.147701801704     IErMin=12 ErrMin= 4.70D-08
 ErrMax= 4.70D-08  0.00D+00 EMaxC= 1.00D-01 BMatC= 6.58D-13 BMatP= 3.98D-12
 IDIUse=1 WtCom= 1.00D+00 WtEn= 0.00D+00
 Coeff-Com:  0.652D-06-0.119D-05-0.464D-05-0.106D-04 0.124D-04 0.405D-03
 Coeff-Com:  0.873D-03-0.138D-02-0.221D-01 0.145D-03 0.292D+00 0.730D+00
 Coeff:      0.652D-06-0.119D-05-0.464D-05-0.106D-04 0.124D-04 0.405D-03
 Coeff:      0.873D-03-0.138D-02-0.221D-01 0.145D-03 0.292D+00 0.730D+00
 Gap=     0.351 Goal=   None    Shift=    0.000
 RMSDP=5.02D-09 MaxDP=9.63D-08 DE= 2.27D-13 OVMax= 1.66D-07

 SCF Done:  E(RM062X) =  -644.147701802     A.U. after   12 cycles
            NFock= 12  Conv=0.50D-08     -V/T= 2.0025
 KE= 6.425178541867D+02 PE=-2.087944348155D+03 EE= 5.211613294616D+02
 Leave Link  502 at Sat Dec 17 23:07:11 2022, MaxMem=  6710886400 cpu:             100.6 elap:               5.4
 (Enter /data0/home/software/g16/l601.exe)
 Copying SCF densities to generalized density rwf, IOpCl= 0 IROHF=0.

 **********************************************************************

            Population analysis using the SCF density.

 **********************************************************************

 Alpha  occ. eigenvalues --  -78.16782 -19.69048 -19.68573 -19.67597 -19.58475
 Alpha  occ. eigenvalues --   -6.97562  -5.09474  -5.09439  -5.09260  -1.24400
 Alpha  occ. eigenvalues --   -1.17125  -1.16436  -1.08637  -0.72799  -0.65571
 Alpha  occ. eigenvalues --   -0.63968  -0.57419  -0.54456  -0.50822  -0.50031
 Alpha  occ. eigenvalues --   -0.47171  -0.45203  -0.43683  -0.38230  -0.37528
 Alpha virt. eigenvalues --   -0.02415   0.01354   0.01916   0.04782   0.08284
 Alpha virt. eigenvalues --    0.10498   0.11395   0.13792   0.15221   0.16850
 Alpha virt. eigenvalues --    0.17979   0.18323   0.19388   0.20345   0.20843
 Alpha virt. eigenvalues --    0.22609   0.23738   0.25047   0.25637   0.27897
 Alpha virt. eigenvalues --    0.28691   0.29020   0.30050   0.31605   0.33308
 Alpha virt. eigenvalues --    0.33720   0.36404   0.36690   0.39227   0.43694
 Alpha virt. eigenvalues --    0.46153   0.48147   0.49766   0.55671   0.57478
 Alpha virt. eigenvalues --    0.74309   0.76007   0.76636   0.86223   0.97592
 Alpha virt. eigenvalues --    0.99830   1.01780   1.04762   1.08793   1.11684
 Alpha virt. eigenvalues --    1.12159   1.14257   1.17427   1.19174   1.21372
 Alpha virt. eigenvalues --    1.23325   1.24687   1.26882   1.28334   1.31963
 Alpha virt. eigenvalues --    1.35452   1.38310   1.44549   1.47918   1.48665
 Alpha virt. eigenvalues --    1.52608   1.55887   1.58092   1.61857   1.65831
 Alpha virt. eigenvalues --    1.67415   1.69417   1.72671   1.76303   1.79145
 Alpha virt. eigenvalues --    1.80985   1.83525   1.88162   1.92583   1.95357
 Alpha virt. eigenvalues --    2.01405   2.03257   2.07222   2.12092   2.14919
 Alpha virt. eigenvalues --    2.22575   2.23949   2.25470   2.33685   2.42172
 Alpha virt. eigenvalues --    2.46923   2.59777   2.61792   2.63967   2.70971
 Alpha virt. eigenvalues --    2.73016   2.81838   2.85072   2.88984   2.93876
 Alpha virt. eigenvalues --    5.01062   5.05084   5.06602   5.07696   5.10106
 Alpha virt. eigenvalues --    5.12494   5.19171   5.21903   5.34838   5.45600
 Alpha virt. eigenvalues --    5.48215   5.51922   6.70232   6.73401   6.74811
 Alpha virt. eigenvalues --    6.77277   6.80327   6.81342   6.84193   6.86100
 Alpha virt. eigenvalues --    6.89725   6.92817   6.93577   6.95889   7.00097
 Alpha virt. eigenvalues --    7.07278   7.09962   7.22691   7.26406   7.27552
 Alpha virt. eigenvalues --    7.31888   7.40210   7.63927  14.22563  14.24412
 Alpha virt. eigenvalues --   14.34790  49.98032  49.99670  50.01009  50.10228
 Alpha virt. eigenvalues --  163.85925
          Condensed to atoms (all electrons):
              16         17         18         19         20         21
    16  P   12.460389   0.587650   0.285508  -0.002118   0.156845   0.041269
    17  O    0.587650   8.100345  -0.041453  -0.002570  -0.022484   0.003186
    18  O    0.285508  -0.041453   8.094820   0.274545   0.006606  -0.013730
    19  H   -0.002118  -0.002570   0.274545   0.375815  -0.000428   0.000825
    20  O    0.156845  -0.022484   0.006606  -0.000428   8.143865   0.227728
    21  H    0.041269   0.003186  -0.013730   0.000825   0.227728   0.448454
    22  O    0.224868  -0.003109  -0.003613   0.000020  -0.016656  -0.014634
    23  H    0.001616  -0.008628  -0.011983   0.000314  -0.001779   0.002035
              22         23
    16  P    0.224868   0.001616
    17  O   -0.003109  -0.008628
    18  O   -0.003613  -0.011983
    19  H    0.000020   0.000314
    20  O   -0.016656  -0.001779
    21  H   -0.014634   0.002035
    22  O    8.087360   0.259795
    23  H    0.259795   0.429703
 Mulliken charges:
               1
     1  C    0.000000
     2  C    0.000000
     3  C    0.000000
     4  C    0.000000
     5  C    0.000000
     6  C    0.000000
     7  H    0.000000
     8  H    0.000000
     9  H    0.000000
    10  H    0.000000
    11  H    0.000000
    12  C    0.000000
    13  H    0.000000
    14  N    0.000000
    15  N    0.000000
    16  P    1.243974
    17  O   -0.612937
    18  O   -0.590699
    19  H    0.353597
    20  O   -0.493698
    21  H    0.304868
    22  O   -0.534032
    23  H    0.328928
 Sum of Mulliken charges =  -0.00000
 Mulliken charges with hydrogens summed into heavy atoms:
               1
     1  C    0.000000
     2  C    0.000000
     3  C    0.000000
     4  C    0.000000
     5  C    0.000000
     6  C    0.000000
    12  C    0.000000
    14  N    0.000000
    15  N    0.000000
    16  P    1.243974
    17  O   -0.612937
    18  O   -0.237102
    20  O   -0.188830
    22  O   -0.205104
         Mulliken charges condensed to fragments:
      1      0.000000
      2     -0.000000
 Electronic spatial extent (au):  <R**2>=          40392.2840
 Charge=              0.0000 electrons
 Dipole moment (field-independent basis, Debye):
    X=              4.3508    Y=             -1.3009    Z=             -1.0760  Tot=              4.6669
 Quadrupole moment (field-independent basis, Debye-Ang):
   XX=             46.0684   YY=            -52.1798   ZZ=            -53.7226
   XY=             23.1410   XZ=             32.8807   YZ=            -20.2926
 Traceless Quadrupole moment (field-independent basis, Debye-Ang):
   XX=             66.0131   YY=            -32.2351   ZZ=            -33.7780
   XY=             23.1410   XZ=             32.8807   YZ=            -20.2926
 Octapole moment (field-independent basis, Debye-Ang**2):
  XXX=            154.8872  YYY=           -911.3736  ZZZ=          -1221.1110  XYY=           -203.0865
  XXY=            308.2805  XXZ=            377.9920  XZZ=            -69.1839  YZZ=           -498.2467
  YYZ=           -560.2931  XYZ=            155.9316
 Hexadecapole moment (field-independent basis, Debye-Ang**3):
 XXXX=          -4301.6324 YYYY=         -12095.7131 ZZZZ=         -21159.0810 XXXY=           1548.6207
 XXXZ=           1140.3272 YYYX=          -6231.6858 YYYZ=          -9212.9135 ZZZX=          -6965.5481
 ZZZY=          -9698.2437 XXYY=           -896.3915 XXZZ=            263.2295 YYZZ=          -7573.8127
 XXYZ=           2452.8131 YYXZ=          -2469.5100 ZZXY=          -1198.4071
 N-N= 2.801174627046D+02 E-N=-2.087944350890D+03  KE= 6.425178541867D+02
 No NMR shielding tensors so no spin-rotation constants.
 Leave Link  601 at Sat Dec 17 23:07:11 2022, MaxMem=  6710886400 cpu:               1.9 elap:               0.1
 (Enter /data0/home/software/g16/l122.exe)
 CPIOFr:  IOpCl= 0 IRwI=-1 IRwCP=  731 ICalc=  4 LCPTot=      297221 Len1MO=      783136 IndFrg=     4212901
 Restoring MOs from calculation   1 to rwf.
 CPIOFr:  IOpCl= 0 IRwI=-2 IRwCP=  731 ICalc=  0 LCPTot=      297221 Len1MO=      783136 IndFrg=     1080357
 Counterpoise corrected energy =   -1023.992006551639
                   BSSE energy =       0.001301004324
              sum of fragments =   -1023.964550305661
           complexation energy =     -18.05 kcal/mole (raw)
           complexation energy =     -17.23 kcal/mole (corrected)
 Leave Link  122 at Sat Dec 17 23:07:11 2022, MaxMem=  6710886400 cpu:               0.3 elap:               0.0
 (Enter /data0/home/software/g16/l9999.exe)
 1\1\GINC-LOCALHOST\SP\RM062X\6-311+G(2d,p)\C7H9N2O4P1\WUHANYU\17-Dec-2
 022\0\\#p M062X/6-311+G(2d,p) nosymm em=GD3 counterpoise=2\\Title Card
  Required\\0,1\C,0,11.285254,10.97493,11.628365\C,0,11.984534,9.743352
 ,11.381329\C,0,13.249335,9.760157,10.784855\C,0,13.780888,10.991328,10
 .444432\C,0,13.088807,12.196788,10.693046\C,0,11.83951,12.211438,11.28
 8747\H,0,13.785822,8.829164,10.612939\H,0,14.76317,11.044466,9.974841\
 H,0,13.56201,13.137239,10.408795\H,0,11.309153,13.137645,11.494244\H,0
 ,9.310482,11.258439,12.432248\C,0,10.052203,9.221226,12.289193\H,0,9.2
 06051,8.664774,12.677044\N,0,10.07142,10.616349,12.218796\N,0,11.18512
 9,8.682229,11.814394\P,0,9.335643,7.022243,9.426535\O,0,8.62017,8.0691
 02,10.171723\O,0,10.714696,6.531692,10.034224\H,0,10.955861,7.115981,1
 0.8837\O,0,8.438965,5.714314,9.324705\H,0,8.978276,5.010417,8.793492\O
 ,0,9.658825,7.33079,7.907462\H,0,10.527461,7.921691,7.847168\\Version=
 ES64L-G16RevA.03\HF=-644.1477018\RMSD=5.017e-09\Dipole=0.7669528,1.026
 7742,0.2039274\Quadrupole=-0.5162846,16.933442,-16.4171573,30.2461819,
 11.1959838,28.947885\PG=C01 [X(C7H9N2O4P1)]\\@


 A BIRD IN THE HAND IS SAFER THAN ONE OVERHEAD.

                       -- NEWTON'S SEVENTH LAW
 Job cpu time:       0 days  1 hours 20 minutes  8.5 seconds.
 Elapsed time:       0 days  0 hours  3 minutes 23.0 seconds.
 File lengths (MBytes):  RWF=    149 Int=      0 D2E=      0 Chk=     44 Scr=      1
 Normal termination of Gaussian 16 at Sat Dec 17 23:07:12 2022.
