          44
 Energy =  -1902.80361690 a.u.  #Cluster:    1
C           9.62164700     12.68827600      9.38983700
C          10.46051300     12.32700800      8.34118800
C          10.30158000     11.09240200      7.71244500
C           9.25199100     10.25577800      8.10468800
C           8.41358600     10.66044000      9.15062900
H          11.00995700     10.76947700      6.94329500
H           9.75601400     13.63632700      9.93108800
H          11.28043600     12.99699200      8.05568400
H           7.59277900     10.00546400      9.50560200
C           9.05780600      8.92646400      7.47980900
H           8.24563200      8.33709800      7.93983500
H           8.86333500      8.98490600      6.40284200
H           9.96742600      8.29987000      7.61573900
N           8.62824200     11.84276200      9.79462800
C           7.81632200     12.19449700     10.98661400
H           7.26717400     13.13726300     10.76547800
H           7.04436900     11.40013200     11.15360700
C           8.67069600     12.36444600     12.26183900
H           9.68345600     12.75968200     12.00852400
H           8.21120400     13.16250000     12.88334900
C           8.80787000     11.10049400     13.10475700
H           7.82669700     10.76454200     13.48459100
H           9.41764000     11.30975500     14.00438200
S           9.56599800      9.74624100     12.18441900
O           8.47546500      9.34827800     11.23623800
O           9.94010700      8.67772400     13.11055800
O          10.69216300     10.38516300     11.44516900
P           9.78860900      6.15631100     10.40095400
O          10.90814300      6.71042100      9.64293700
O           9.51588500      4.64985900      9.95115300
H           8.74468600      4.28752400     10.53060600
O           9.95311100      5.99543900     11.97185300
H          10.02218800      6.93180600     12.42969300
O           8.37227600      6.83206800     10.14942500
H           8.35684700      7.79661200     10.56994100
O          11.84388300     12.85233400     10.83015900
H          12.45948400     12.61611000     10.12917100
H          11.52753600     11.98943100     11.15583800
O          13.37587200     11.76845600      8.61736600
H          14.27746500     11.54019000      8.82729000
H          12.87467100     10.93717000      8.72439800
O          11.78716000      9.55676800      9.09653300
H          11.41687500      9.86470600      9.95959000
H          11.73522100      8.60083500      9.16627600
          44
 Energy =  -1902.80264880 a.u.  #Cluster:    2
C           9.52297800     12.57594400      9.27460800
C          10.32875600     12.20892200      8.20178500
C          10.17292700     10.95808200      7.60613600
C           9.15785400     10.10815500      8.05811400
C           8.34686400     10.52090300      9.12118900
H          10.85652200     10.63315000      6.81603400
H           9.67191800     13.53312600      9.79888800
H          11.12283100     12.88950000      7.87229100
H           7.55256100      9.85963700      9.51943700
C           8.97784700      8.75747800      7.47559300
H           8.72665600      8.78229600      6.40913400
H           9.91368900      8.16496200      7.58016100
H           8.21036900      8.15419300      7.99097200
N           8.55746900     11.72423700      9.72903000
C           7.76715900     12.09069500     10.93114800
H           7.18216500     13.00750100     10.69255500
H           7.02672700     11.27792600     11.14521600
C           8.64330800     12.33237100     12.17932900
H           9.62753200     12.77226500     11.89191800
H           8.15884500     13.12088600     12.79429200
C           8.86430100     11.09734900     13.04693100
H           7.91105300     10.72449900     13.46202700
H           9.48736600     11.35715700     13.92391200
S           9.66073400      9.75842300     12.13702000
O           8.56527100      9.28751600     11.22867400
O          10.10925000      8.73110300     13.07662500
O          10.73621500     10.43083600     11.35286600
P           9.98593300      6.13256900     10.43739300
O          11.04434800      6.71802900      9.61748600
O           9.76852700      4.60288900     10.03878900
H           9.04149500      4.22024900     10.66063700
O          10.22355700      6.02354200     12.00335800
H          10.25828200      6.97446400     12.43424700
O           8.52923400      6.73325700     10.22992500
H           8.48858900      7.71162400     10.61546400
O          11.71872900     12.94097500     10.63366500
H          12.35144600     12.71794100      9.94238600
H          11.46876100     12.07123900     10.99883400
O          13.30498800     11.84465600      8.47889600
H          14.20959100     11.64047200      8.70024600
H          12.82294900     11.00279000      8.59206500
O          11.77689600      9.58946700      8.98179700
H          11.42251900      9.89365800      9.85330500
H          11.76500700      8.63308400      9.06563900
          44
 Energy =  -1902.79863710 a.u.  #Cluster:    3
C           9.36723700     12.79554900      9.35004600
C          10.11515000     12.55365400      8.20324400
C          10.00789400     11.32866300      7.54407000
C           9.10651800     10.37536000      8.01765700
C           8.33235300     10.67044900      9.14995200
H          10.64940900     11.11280900      6.68319600
H           9.47830300     13.72751200      9.92177200
H          10.83527900     13.30402200      7.86094000
H           7.60040100      9.93499500      9.54243800
C           8.99398500      9.04176900      7.38331900
H           8.83755500      9.09205700      6.29960500
H           9.92286000      8.45156600      7.55144300
H           8.19209700      8.41465500      7.81053700
N           8.49668300     11.84805900      9.81361400
C           7.75391400     12.10419100     11.07417000
H           7.12482300     13.01024000     10.92345300
H           7.05271700     11.25289800     11.26790100
C           8.68469300     12.30131900     12.29114400
H           9.67717600     12.69805100     11.97008800
H           8.25983800     13.10784500     12.92603500
C           8.88090400     11.05366200     13.14740900
H           7.91936600     10.67961200     13.53918200
H           9.48943500     11.29836800     14.03849200
S           9.69386900      9.72634600     12.23133000
O           8.67524900      9.42111000     11.17175000
O           9.93219600      8.58868600     13.12002100
O          10.91018500     10.35774200     11.65679600
P           9.78919900      6.24960900     10.21926300
O          10.86497100      6.86260400      9.44307000
O           9.49285100      4.77731100      9.68175600
H           8.76650700      4.36646300     10.28588600
O          10.03453600      5.98132600     11.76532300
H          10.04841600      6.88098200     12.29441200
O           8.36654800      6.94601400     10.09303600
H           8.42356200      7.91508800     10.50780400
O          11.64642700     12.79142000     10.52531800
H          12.10442400     12.46821000      9.74149100
H          11.48159900     11.97382300     11.03471500
O          12.64872700     11.49784700      8.12825800
H          13.58293600     11.60592300      7.97114300
H          12.59205000     10.66105500      8.66016600
O          12.61730900      9.36495300      9.74973200
H          12.10822700      9.71733900     10.51555200
H          12.18164200      8.52886500      9.56348800
          44
 Energy =  -1902.79767680 a.u.  #Cluster:    4
C          10.14929000     11.13451800      8.09460900
C           9.95270100     10.28195600      7.01184800
C           8.77835300      9.53178100      6.92264600
C           7.82914500      9.62393100      7.94198200
C           8.06998900     10.48355000      9.02513800
H           8.62990600      8.84149900      6.08984800
H          11.07790000     11.71673000      8.21265600
H          10.74358200     10.16811100      6.26673700
H           7.37810900     10.52540800      9.89133300
C           6.60555500      8.78569200      7.93994800
H           5.75872600      9.25149800      8.46224000
H           6.26774400      8.52020900      6.92990200
H           6.80731700      7.82783600      8.46880300
N           9.19623900     11.23976300      9.06580800
C           9.39888000     12.20372700     10.17557500
H           9.52735300     13.21769000      9.73468900
H           8.46962900     12.24372600     10.79868800
C          10.61182900     11.83408900     11.04888400
H          11.14342900     10.94497200     10.63078000
H          11.37432000     12.63923100     10.99661400
C          10.22247100     11.57962000     12.49667900
H           9.55698400     12.36948700     12.89408600
H          11.12489700     11.62473500     13.14203100
S           9.46028100      9.95847600     12.70430200
O           8.58769800      9.78271200     11.49662800
O           8.73196700     10.02105400     13.97364000
O          10.62523400      9.01936100     12.64948900
P          10.40863100      7.57065600      9.48252100
O          10.91579300      8.73420800      8.74257300
O          10.48068000      6.27793000      8.55110300
H          10.18323900      5.47137500      9.12370500
O          11.19076000      7.13043900     10.78069300
H          10.96923300      7.82353200     11.56581600
O           8.86834600      7.64394800      9.85512000
H           8.70656800      8.45893200     10.52571500
O           7.60231000     12.49357600     14.59185000
H           7.92753500     11.58585500     14.42616000
H           7.25645200     12.45855700     15.47539700
O          13.06250900     10.75978300      9.18924100
H          12.56685200      9.98750100      8.90061300
H          13.21973600     10.57628100     10.13022400
O          13.14378100      9.97749700     11.94034600
H          12.27408500      9.61705300     12.22509400
H          13.73398000      9.23152900     12.00826600
          44
 Energy =  -1902.78653060 a.u.  #Cluster:    5
C           9.11637700     13.00184700      9.43331600
C          10.01329500     12.96736100      8.36310600
C          10.23653200     11.77800300      7.66946300
C           9.53811500     10.61404700      8.03804100
C           8.62240900     10.68987200      9.10385900
H          10.99187800     11.72983500      6.86464600
H           8.98281700     13.91129600     10.03351300
H          10.56596600     13.87412100      8.10231500
H           8.09218400      9.77324800      9.45950200
C           9.77556000      9.31576700      7.36970100
H          10.60211300      9.35980000      6.63714300
H          10.09526300      8.53459500      8.10582900
H           8.88934500      8.91699100      6.86290500
N           8.43140300     11.86274000      9.79037500
C           7.51497900     11.88735800     10.97761300
H           6.72685000     12.65234600     10.79681700
H           6.98563100     10.89530300     11.04509100
C           8.25540600     12.18178000     12.29561100
H           9.19949600     12.75835900     12.10353400
H           7.62804800     12.87024900     12.90153300
C           8.58412900     10.95195500     13.13420100
H           7.66439900     10.53390900     13.59535100
H           9.19875900     11.25561600     14.00903100
S           9.40910500      9.70756500     12.18950200
O           8.32568200      9.12491700     11.30789000
O           9.96138800      8.67713800     13.08774200
O          10.43839600     10.38549800     11.35416800
P          10.05902900      6.36984200     10.51111200
O          10.73837800      7.32418000      9.60229400
O          10.17274300      4.80164800     10.06013800
H           9.88191600      4.13411800     10.74322000
O          10.59877000      6.27485900     12.03988800
H          10.50857500      7.12000200     12.65432000
O           8.45574100      6.58046000     10.65607900
H           8.12719700      7.55842200     10.89239900
O          11.04490800     13.00847700     11.29125300
H          11.92787600     13.25296800     11.53661900
H          11.05299000     12.01654200     11.20548800
O          12.61993800     10.45978000      7.16254700
H          13.51479600     10.24629700      6.94246200
H          12.48004300     10.10195700      8.09300200
O          12.45615300      9.36622100      9.58128800
H          11.73150500      9.69442300     10.15829700
H          12.24393500      8.41830200      9.44781300
          44
 Energy =  -1902.77993990 a.u.  #Cluster:    6
C           9.55980800     12.65848800      9.01357900
C          10.27547300     12.23130500      7.89167500
C          10.02925800     10.97669200      7.33552400
C           9.01612100     10.16026100      7.88233000
C           8.29963400     10.62904800      8.99259400
H          10.64116100     10.60592400      6.50737400
H           9.80324600     13.62038300      9.51097800
H          11.06603200     12.87399200      7.49321900
H           7.53853600      9.98907400      9.48668000
C           8.76607900      8.79841000      7.35304500
H           8.58676800      8.78000500      6.27193600
H           9.66367300      8.15866400      7.54771100
H           7.93316100      8.27440300      7.84502600
N           8.59402000     11.85017500      9.55913700
C           7.89804600     12.26510400     10.82233600
H           7.40234000     13.24653800     10.64028800
H           7.08324100     11.53088300     11.04440300
C           8.85716700     12.37581300     12.02169100
H           9.89307400     12.66270000     11.67779400
H           8.53418200     13.23592900     12.64629600
C           8.93624100     11.12966200     12.89466000
H           7.94793400     10.88850100     13.33769900
H           9.57380800     11.34070800     13.78095600
S           9.56480200      9.75484100     11.98538200
O           8.39095500      9.24623100     11.17808500
O          10.05438900      8.70212700     12.90153500
O          10.62792700     10.26143000     11.07785000
P          10.12427300      6.51229800     10.16242300
O          10.84539900      7.45519700      9.27410800
O          10.18753900      4.95026900      9.67696500
H           9.89771000      4.27713800     10.35489600
O          10.62392500      6.36158200     11.69751900
H          10.53347100      7.18336700     12.35192600
O           8.52640800      6.78756600     10.26595600
H           8.22677000      7.73902700     10.63539400
O          11.41508600     13.51266300     10.71977700
H          12.10991900     14.04866200     11.07375700
H          11.86127400     12.59450900     10.53197100
O          12.82614000     11.35976600     10.48910000
H          12.37320600     10.79508600     11.15801000
H          12.63611700     10.87593900      9.63081600
O          11.78529400      9.68564500      8.70807000
H          11.12490700      9.51704900      9.43583700
H          12.17550700      8.80696100      8.56371100
          44
 Energy =  -1902.76270090 a.u.  #Cluster:    7
C          10.88913700     11.18414800      8.24637800
C          11.12803000     10.24272400      7.24035600
C          10.10900300      9.38745700      6.82463000
C           8.83441100      9.48725700      7.41272300
C           8.63130200     10.44063500      8.42605300
H          10.30431100      8.62184700      6.06937200
H          11.70545800     11.85439000      8.62642500
H          12.13177800     10.16827400      6.81208000
H           7.66671500     10.49834800      8.97707700
C           7.72830600      8.56887400      7.04367400
H           7.62238300      7.78862800      7.83498500
H           6.75404400      9.07065600      6.97332000
H           7.89871600      8.03694400      6.09967300
N           9.65222400     11.26382300      8.83041000
C           9.42259400     12.21564700      9.96593900
H           9.71527900     13.23826100      9.63519100
H           8.32675100     12.24147300     10.19587600
C          10.22786600     11.80702800     11.21058100
H          10.83640800     10.87861600     11.00889600
H          11.01226700     12.57542200     11.40789200
C           9.37221400     11.59640000     12.44957300
H           8.71622700     12.46823300     12.64047400
H          10.04117700     11.58124200     13.34249200
S           8.44270100     10.09799800     12.37022700
O           7.64474900     10.13910200     11.07475000
O           7.67519100      9.96909800     13.58511700
O           9.44649700      8.95996000     12.13751100
P          10.01330800      7.79879200     10.31094000
O          10.95083900      8.96235000     10.17267500
O          10.43115100      6.68940000      9.15316100
H          10.20078500      5.74833500      9.35211800
O          10.14191200      6.77642500     11.58511200
H           9.80417400      7.15325600     12.47337800
O           8.46467100      7.97541700      9.89300100
H           7.89251100      8.78788000     10.32754500
O          12.19533100      9.65697500     12.48568100
H          12.15385600      8.86582000     13.02061400
H          11.38642500      9.59199400     11.88544200
O          12.81183500     12.34201300     10.01369700
H          13.64133300     12.79006400      9.92022400
H          13.05682700     11.37095600     10.24900900
O          13.44927000      9.83220200     10.21529600
H          13.35065600      9.60190200     11.18218500
H          12.69939800      9.35374900      9.78826400
          44
 Energy =  -1902.75772850 a.u.  #Cluster:    8
C          10.56089700     12.41645500     10.75235200
C          11.71705200     11.83174300     10.23727400
C          11.69140700     11.18223200      9.00068300
C          10.50578700     11.18494800      8.24405300
C           9.34380800     11.74018100      8.80766300
H          12.57559700     10.64230600      8.64108400
H          10.55810700     12.88634500     11.76261800
H          12.63044100     11.84230700     10.84226600
H           8.37382500     11.65709300      8.29224800
C          10.44177400     10.56932200      6.89334700
H          10.02393900     11.24269400      6.13569600
H          11.42353300     10.22852300      6.53350500
H           9.80612500      9.65377200      6.90601600
N           9.37970000     12.33908800     10.05020300
C           8.10621600     12.84337900     10.66376900
H           8.23069800     13.93330500     10.86811600
H           7.28297400     12.74691800      9.91648200
C           7.71720200     12.12074100     11.96718000
H           8.62200000     11.97692600     12.62382500
H           7.06225000     12.80434300     12.54967600
C           7.00215000     10.78604300     11.78085300
H           6.11944700     10.88778100     11.11929600
H           6.57205400     10.45749500     12.75097500
S           8.13492700      9.58400000     11.15395200
O           8.16117800      9.85005900      9.65556400
O           7.71288600      8.18854600     11.40476500
O           9.45070500      9.85824500     11.76806100
P          10.60390600      7.51286600      9.24338100
O          11.52782600      8.55332400      9.74099200
O          11.26301800      6.27335500      8.44753900
H          10.72574900      5.35066200      8.52903100
O           9.74821600      6.62838800     10.35806200
H           8.97585400      7.07715000     10.88744200
O           9.42054300      8.04481800      8.26736600
H           8.76331500      8.80246300      8.66873200
O          10.55475600     11.84073900     13.39754100
H          10.64522900     10.93265400     12.92780000
H          11.17758100     11.79816400     14.11131500
O           9.77548200      4.37972500      9.43059600
H           8.93297900      4.87438400      9.44680700
H          10.15881500      4.55439200     10.31378700
O          11.65203200      9.59801800     12.58732700
H          10.91226400      9.01075800     12.83181500
H          11.64577400      9.53336800     11.59897600
