          44
 G =       -0.659900 Gcorr = 0.235264 a.u. Nimag =   0 Frame:     1 Step:     1 Geom:     1
C          10.56089700     12.41645500     10.75235200
C          11.71705200     11.83174300     10.23727400
C          11.69140700     11.18223200      9.00068300
C          10.50578700     11.18494800      8.24405300
C           9.34380800     11.74018100      8.80766300
H          12.57559700     10.64230600      8.64108400
H          10.55810700     12.88634500     11.76261800
H          12.63044100     11.84230700     10.84226600
H           8.37382500     11.65709300      8.29224800
C          10.44177400     10.56932200      6.89334700
H          10.02393900     11.24269400      6.13569600
H          11.42353300     10.22852300      6.53350500
H           9.80612500      9.65377200      6.90601600
N           9.37970000     12.33908800     10.05020300
C           8.10621600     12.84337900     10.66376900
H           8.23069800     13.93330500     10.86811600
H           7.28297400     12.74691800      9.91648200
C           7.71720200     12.12074100     11.96718000
H           8.62200000     11.97692600     12.62382500
H           7.06225000     12.80434300     12.54967600
C           7.00215000     10.78604300     11.78085300
H           6.11944700     10.88778100     11.11929600
H           6.57205400     10.45749500     12.75097500
S           8.13492700      9.58400000     11.15395200
O           8.16117800      9.85005900      9.65556400
O           7.71288600      8.18854600     11.40476500
O           9.45070500      9.85824500     11.76806100
P          10.60390600      7.51286600      9.24338100
O          11.52782600      8.55332400      9.74099200
O          11.26301800      6.27335500      8.44753900
H          10.72574900      5.35066200      8.52903100
O           9.74821600      6.62838800     10.35806200
H           8.97585400      7.07715000     10.88744200
O           9.42054300      8.04481800      8.26736600
H           8.76331500      8.80246300      8.66873200
O          10.55475600     11.84073900     13.39754100
H          10.64522900     10.93265400     12.92780000
H          11.17758100     11.79816400     14.11131500
O           9.77548200      4.37972500      9.43059600
H           8.93297900      4.87438400      9.44680700
H          10.15881500      4.55439200     10.31378700
O          11.65203200      9.59801800     12.58732700
H          10.91226400      9.01075800     12.83181500
H          11.64577400      9.53336800     11.59897600
          44
 G =       -0.667161 Gcorr = 0.230165 a.u. Nimag =   0 Frame:     2 Step:     2 Geom:     2
C           9.11637700     13.00184700      9.43331600
C          10.01329500     12.96736100      8.36310600
C          10.23653200     11.77800300      7.66946300
C           9.53811500     10.61404700      8.03804100
C           8.62240900     10.68987200      9.10385900
H          10.99187800     11.72983500      6.86464600
H           8.98281700     13.91129600     10.03351300
H          10.56596600     13.87412100      8.10231500
H           8.09218400      9.77324800      9.45950200
C           9.77556000      9.31576700      7.36970100
H          10.60211300      9.35980000      6.63714300
H          10.09526300      8.53459500      8.10582900
H           8.88934500      8.91699100      6.86290500
N           8.43140300     11.86274000      9.79037500
C           7.51497900     11.88735800     10.97761300
H           6.72685000     12.65234600     10.79681700
H           6.98563100     10.89530300     11.04509100
C           8.25540600     12.18178000     12.29561100
H           9.19949600     12.75835900     12.10353400
H           7.62804800     12.87024900     12.90153300
C           8.58412900     10.95195500     13.13420100
H           7.66439900     10.53390900     13.59535100
H           9.19875900     11.25561600     14.00903100
S           9.40910500      9.70756500     12.18950200
O           8.32568200      9.12491700     11.30789000
O           9.96138800      8.67713800     13.08774200
O          10.43839600     10.38549800     11.35416800
P          10.05902900      6.36984200     10.51111200
O          10.73837800      7.32418000      9.60229400
O          10.17274300      4.80164800     10.06013800
H           9.88191600      4.13411800     10.74322000
O          10.59877000      6.27485900     12.03988800
H          10.50857500      7.12000200     12.65432000
O           8.45574100      6.58046000     10.65607900
H           8.12719700      7.55842200     10.89239900
O          11.04490800     13.00847700     11.29125300
H          11.92787600     13.25296800     11.53661900
H          11.05299000     12.01654200     11.20548800
O          12.61993800     10.45978000      7.16254700
H          13.51479600     10.24629700      6.94246200
H          12.48004300     10.10195700      8.09300200
O          12.45615300      9.36622100      9.58128800
H          11.73150500      9.69442300     10.15829700
H          12.24393500      8.41830200      9.44781300
          44
 G =       -0.687058 Gcorr = 0.251983 a.u. Nimag =   0 Frame:     3 Step:     3 Geom:     3
C           9.52297800     12.57594400      9.27460800
C          10.32875600     12.20892200      8.20178500
C          10.17292700     10.95808200      7.60613600
C           9.15785400     10.10815500      8.05811400
C           8.34686400     10.52090300      9.12118900
H          10.85652200     10.63315000      6.81603400
H           9.67191800     13.53312600      9.79888800
H          11.12283100     12.88950000      7.87229100
H           7.55256100      9.85963700      9.51943700
C           8.97784700      8.75747800      7.47559300
H           8.72665600      8.78229600      6.40913400
H           9.91368900      8.16496200      7.58016100
H           8.21036900      8.15419300      7.99097200
N           8.55746900     11.72423700      9.72903000
C           7.76715900     12.09069500     10.93114800
H           7.18216500     13.00750100     10.69255500
H           7.02672700     11.27792600     11.14521600
C           8.64330800     12.33237100     12.17932900
H           9.62753200     12.77226500     11.89191800
H           8.15884500     13.12088600     12.79429200
C           8.86430100     11.09734900     13.04693100
H           7.91105300     10.72449900     13.46202700
H           9.48736600     11.35715700     13.92391200
S           9.66073400      9.75842300     12.13702000
O           8.56527100      9.28751600     11.22867400
O          10.10925000      8.73110300     13.07662500
O          10.73621500     10.43083600     11.35286600
P           9.98593300      6.13256900     10.43739300
O          11.04434800      6.71802900      9.61748600
O           9.76852700      4.60288900     10.03878900
H           9.04149500      4.22024900     10.66063700
O          10.22355700      6.02354200     12.00335800
H          10.25828200      6.97446400     12.43424700
O           8.52923400      6.73325700     10.22992500
H           8.48858900      7.71162400     10.61546400
O          11.71872900     12.94097500     10.63366500
H          12.35144600     12.71794100      9.94238600
H          11.46876100     12.07123900     10.99883400
O          13.30498800     11.84465600      8.47889600
H          14.20959100     11.64047200      8.70024600
H          12.82294900     11.00279000      8.59206500
O          11.77689600      9.58946700      8.98179700
H          11.42251900      9.89365800      9.85330500
H          11.76500700      8.63308400      9.06563900
          44
 G =       -0.668069 Gcorr = 0.235496 a.u. Nimag =   0 Frame:     4 Step:     4 Geom:     4
C           9.33775100     12.56482800      8.99127400
C           9.94785000     12.12967400      7.81149800
C           9.68652800     10.85407800      7.31307400
C           8.76184500     10.02255000      7.98055400
C           8.14871800     10.49879100      9.14802700
H          10.22185000     10.47986300      6.43494200
H           9.59970800     13.54635100      9.43826500
H          10.67208800     12.78493700      7.31864700
H           7.46415700      9.84932500      9.73350200
C           8.50225500      8.64057600      7.51144200
H           9.43519000      8.03295200      7.62514800
H           7.74229400      8.10507600      8.09982500
H           8.21185100      8.58892000      6.45579000
N           8.45994600     11.74273400      9.65252100
C           7.88449000     12.16984600     10.97106600
H           7.34126700     13.13097400     10.81882700
H           7.12089400     11.41781700     11.29323100
C           8.95791300     12.34037400     12.06163800
H           9.94360300     12.64695000     11.60547900
H           8.67440900     13.20758000     12.69544900
C           9.16478800     11.12098100     12.95135900
H           8.23530200     10.86405400     13.50009800
H           9.88337800     11.37379400     13.76145900
S           9.73862300      9.74069400     12.01458100
O           8.50425500      9.17695000     11.34646700
O          10.35356200      8.72745700     12.89939300
O          10.68564700     10.25301800     10.98940900
P          10.21041000      6.47033000     10.21648200
O          10.80765600      7.41019600      9.23775100
O          10.27259700      4.89880500      9.76312600
H          10.06985600      4.23545700     10.48106300
O          10.86690600      6.37442500     11.69569600
H          10.81950400      7.21090200     12.33636300
O           8.62293900      6.70170900     10.47552400
H           8.33277900      7.65126700     10.85592200
O          11.33118100     13.51600400     10.47472700
H          12.04183000     14.08083500     10.74249500
H          11.78454400     12.60630000     10.26385900
O          12.77907800     11.39946000     10.15057800
H          12.41164100     10.83765200     10.87265400
H          12.52144600     10.88986600      9.32550500
O          11.61544300      9.65174200      8.52817400
H          11.03740400      9.48328900      9.32332700
H          12.01465500      8.78063600      8.36381100
          44
 G =       -0.668079 Gcorr = 0.235484 a.u. Nimag =   0 Frame:     5 Step:     5 Geom:     5
C           9.55980800     12.65848800      9.01357900
C          10.27547300     12.23130500      7.89167500
C          10.02925800     10.97669200      7.33552400
C           9.01612100     10.16026100      7.88233000
C           8.29963400     10.62904800      8.99259400
H          10.64116100     10.60592400      6.50737400
H           9.80324600     13.62038300      9.51097800
H          11.06603200     12.87399200      7.49321900
H           7.53853600      9.98907400      9.48668000
C           8.76607900      8.79841000      7.35304500
H           8.58676800      8.78000500      6.27193600
H           9.66367300      8.15866400      7.54771100
H           7.93316100      8.27440300      7.84502600
N           8.59402000     11.85017500      9.55913700
C           7.89804600     12.26510400     10.82233600
H           7.40234000     13.24653800     10.64028800
H           7.08324100     11.53088300     11.04440300
C           8.85716700     12.37581300     12.02169100
H           9.89307400     12.66270000     11.67779400
H           8.53418200     13.23592900     12.64629600
C           8.93624100     11.12966200     12.89466000
H           7.94793400     10.88850100     13.33769900
H           9.57380800     11.34070800     13.78095600
S           9.56480200      9.75484100     11.98538200
O           8.39095500      9.24623100     11.17808500
O          10.05438900      8.70212700     12.90153500
O          10.62792700     10.26143000     11.07785000
P          10.12427300      6.51229800     10.16242300
O          10.84539900      7.45519700      9.27410800
O          10.18753900      4.95026900      9.67696500
H           9.89771000      4.27713800     10.35489600
O          10.62392500      6.36158200     11.69751900
H          10.53347100      7.18336700     12.35192600
O           8.52640800      6.78756600     10.26595600
H           8.22677000      7.73902700     10.63539400
O          11.41508600     13.51266300     10.71977700
H          12.10991900     14.04866200     11.07375700
H          11.86127400     12.59450900     10.53197100
O          12.82614000     11.35976600     10.48910000
H          12.37320600     10.79508600     11.15801000
H          12.63611700     10.87593900      9.63081600
O          11.78529400      9.68564500      8.70807000
H          11.12490700      9.51704900      9.43583700
H          12.17550700      8.80696100      8.56371100
          44
 G =       -0.686570 Gcorr = 0.252738 a.u. Nimag =   0 Frame:     6 Step:     6 Geom:     6
C           9.47112100     12.69909700      9.34535100
C          10.30252100     12.37725600      8.27798900
C          10.19377700     11.13298700      7.65779900
C           9.19939600     10.24424100      8.07849500
C           8.36630200     10.60937900      9.14296300
H          10.89957400     10.84389900      6.87298300
H           9.56857100     13.65550400      9.87977700
H          11.07894200     13.08799500      7.97035100
H           7.59028500      9.91366400      9.52062900
C           9.06051700      8.90347500      7.46327300
H           8.83777600      8.94642600      6.39101000
H          10.00476100      8.32614800      7.57947800
H           8.29145300      8.27469900      7.94464800
N           8.53354500     11.80467700      9.77703600
C           7.73248100     12.11951200     10.98653100
H           7.12960300     13.03113800     10.77483900
H           7.00724900     11.28679300     11.17482700
C           8.60642900     12.34042100     12.24047200
H           9.59078200     12.78695600     11.96162400
H           8.12031700     13.11621800     12.86983800
C           8.82963900     11.08940600     13.08426800
H           7.87681000     10.70480900     13.48931900
H           9.44946800     11.33431200     13.96789100
S           9.63453500      9.77206400     12.15017900
O           8.54216000      9.30998700     11.23374000
O          10.09112100      8.73132700     13.07091500
O          10.70390100     10.46650000     11.37732500
P          10.00439800      6.18931600     10.37598700
O          11.07323400      6.79837300      9.58755500
O           9.80217400      4.66783900      9.94008100
H           9.06538100      4.26832200     10.53976300
O          10.21578700      6.04695300     11.94309500
H          10.24973000      6.98851900     12.39393800
O           8.54794900      6.78665000     10.15714900
H           8.49071000      7.75065400     10.57512700
O          11.71578500     12.98719800     10.73107200
H          12.32532300     12.77968700     10.01578200
H          11.45135600     12.11063000     11.06615700
O          13.24805200     11.97442200      8.48490800
H          14.16640600     11.79757500      8.67029200
H          12.79696600     11.11715000      8.60855600
O          11.79109100      9.68380500      9.01075500
H          11.42342700      9.97716000      9.88011300
H          11.78921700      8.72688300      9.08613900
          44
 G =       -0.668069 Gcorr = 0.235496 a.u. Nimag =   0 Frame:     7 Step:     7 Geom:     7
C           9.46559500     12.67283000      9.07334600
C          10.13179000     12.28261900      7.90832000
C           9.88369900     11.03366700      7.34041900
C           8.91706800     10.18513000      7.92142500
C           8.24883900     10.61700400      9.07586900
H          10.46011200     10.69200900      6.47512200
H           9.71389100     13.63031400      9.57674500
H          10.88745700     12.94981200      7.48330300
H           7.52796700      9.95099100      9.59543900
C           8.66823600      8.82853800      7.37824100
H           7.87349000      8.27698700      7.90230500
H           8.43242200      8.82712600      6.30783500
H           9.58791800      8.20505100      7.51241900
N           8.54614300     11.83338800      9.65096800
C           7.90730800     12.20899300     10.95593000
H           7.38276500     13.18276100     10.81914400
H           7.12021100     11.45324500     11.20426300
C           8.92417700     12.31752300     12.10696400
H           9.93518400     12.63218700     11.71652900
H           8.61650900     13.15888800     12.76394600
C           9.07255700     11.05719400     12.95010500
H           8.11324200     10.78721200     13.43788000
H           9.75027400     11.26499300     13.80691000
S           9.68120600      9.71326000     11.98297800
O           8.47805200      9.19463300     11.22712200
O          10.23913100      8.65423300     12.85194200
O          10.68545700     10.25939200     11.03251400
P          10.21332100      6.52001900     10.06709000
O          10.86953700      7.49501200      9.16335200
O          10.28420100      4.96924600      9.54817400
H          10.04357900      4.27722100     10.22626700
O          10.79130300      6.35089400     11.57226900
H          10.71823300      7.15836200     12.24685700
O           8.61692100      6.75893200     10.25400000
H           8.31675900      7.69442800     10.66052600
O          11.38841700     13.53411200     10.69921500
H          12.08955500     14.07768700     11.02913300
H          11.84323000     12.62972600     10.47055600
O          12.83021500     11.41643800     10.35386800
H          12.42065400     10.82815500     11.03079000
H          12.61024400     10.94684300      9.49509300
O          11.73483900      9.75561400      8.59692700
H          11.11540300      9.55973000      9.35363000
H          12.13290300      8.88761600      8.41429300
          44
 G =       -0.686432 Gcorr = 0.252877 a.u. Nimag =   0 Frame:     8 Step:     8 Geom:     8
C           9.36413000     12.68459800      9.41312600
C          10.12348700     12.38750400      8.28656800
C           9.97925800     11.15421700      7.65179400
C           9.01930300     10.25210600      8.12110800
C           8.25775400     10.59258000      9.24570800
H          10.63221100     10.88377800      6.81622200
H           9.49263500     13.63159000      9.95770200
H          10.87402300     13.10850800      7.94090000
H           7.51164500      9.88571200      9.66093100
C           8.84535300      8.92231500      7.49118600
H           9.79775100      8.34817300      7.53310400
H           8.11306600      8.28027000      8.01094700
H           8.55100800      8.98400400      6.43729800
N           8.46195800     11.77671400      9.88985100
C           7.74291000     12.06400800     11.15641100
H           7.12255500     12.97555900     11.00319900
H           7.03640300     11.22328800     11.37747900
C           8.69850300     12.26714900     12.35246700
H           9.65956000     12.72484800     12.01636000
H           8.25217500     13.02827300     13.02755400
C           8.98438400     11.00235900     13.15583400
H           8.06292600     10.60425800     13.61656000
H           9.66073100     11.23514000     14.00046600
S           9.73195600      9.70746800     12.14587400
O           8.58409600      9.25826700     11.29298400
O          10.25018500      8.65099500     13.01468100
O          10.74718000     10.42137700     11.31968700
P           9.99357200      6.16070100     10.28289000
O          11.00477000      6.79001800      9.43643300
O           9.76811000      4.64686900      9.83181500
H           9.07403600      4.23245200     10.47077500
O          10.31031100      5.98932000     11.82914500
H          10.37001200      6.92245900     12.29498300
O           8.52356000      6.75495400     10.17418500
H           8.49202900      7.71157000     10.61171600
O          11.69492000     12.96044300     10.65049900
H          12.25662900     12.77040400      9.89245000
H          11.45943800     12.07601700     10.98676300
O          13.07864400     11.99805600      8.28840400
H          14.00740400     11.82077400      8.41100400
H          12.63825900     11.13725900      8.42483600
O          11.67034000      9.68910800      8.86780200
H          11.36264400      9.96366500      9.76606400
H          11.67818700      8.73089400      8.92424900
          44
 G =       -0.686310 Gcorr = 0.252816 a.u. Nimag =   0 Frame:     9 Step:     9 Geom:     9
C           9.36723700     12.79554900      9.35004600
C          10.11515000     12.55365400      8.20324400
C          10.00789400     11.32866300      7.54407000
C           9.10651800     10.37536000      8.01765700
C           8.33235300     10.67044900      9.14995200
H          10.64940900     11.11280900      6.68319600
H           9.47830300     13.72751200      9.92177200
H          10.83527900     13.30402200      7.86094000
H           7.60040100      9.93499500      9.54243800
C           8.99398500      9.04176900      7.38331900
H           8.83755500      9.09205700      6.29960500
H           9.92286000      8.45156600      7.55144300
H           8.19209700      8.41465500      7.81053700
N           8.49668300     11.84805900      9.81361400
C           7.75391400     12.10419100     11.07417000
H           7.12482300     13.01024000     10.92345300
H           7.05271700     11.25289800     11.26790100
C           8.68469300     12.30131900     12.29114400
H           9.67717600     12.69805100     11.97008800
H           8.25983800     13.10784500     12.92603500
C           8.88090400     11.05366200     13.14740900
H           7.91936600     10.67961200     13.53918200
H           9.48943500     11.29836800     14.03849200
S           9.69386900      9.72634600     12.23133000
O           8.67524900      9.42111000     11.17175000
O           9.93219600      8.58868600     13.12002100
O          10.91018500     10.35774200     11.65679600
P           9.78919900      6.24960900     10.21926300
O          10.86497100      6.86260400      9.44307000
O           9.49285100      4.77731100      9.68175600
H           8.76650700      4.36646300     10.28588600
O          10.03453600      5.98132600     11.76532300
H          10.04841600      6.88098200     12.29441200
O           8.36654800      6.94601400     10.09303600
H           8.42356200      7.91508800     10.50780400
O          11.64642700     12.79142000     10.52531800
H          12.10442400     12.46821000      9.74149100
H          11.48159900     11.97382300     11.03471500
O          12.64872700     11.49784700      8.12825800
H          13.58293600     11.60592300      7.97114300
H          12.59205000     10.66105500      8.66016600
O          12.61730900      9.36495300      9.74973200
H          12.10822700      9.71733900     10.51555200
H          12.18164200      8.52886500      9.56348800
          44
 G =       -0.686494 Gcorr = 0.252815 a.u. Nimag =   0 Frame:    10 Step:    10 Geom:    10
C           9.58179000     12.65463700      9.33605800
C          10.41384600     12.29382200      8.28183000
C          10.25876100     11.05442900      7.66163800
C           9.21900100     10.21222300      8.06787100
C           8.38711200     10.61642900      9.11919900
H          10.96279700     10.73238300      6.88814400
H           9.71388200     13.60675500      9.87075000
H          11.22580700     12.96852300      7.98493400
H           7.57457200      9.95722900      9.48530100
C           9.02889200      8.87821200      7.45176900
H           8.22458000      8.28576600      7.92159800
H           8.82499500      8.92951800      6.37615800
H           9.94387300      8.25862300      7.58343100
N           8.59869300     11.80388300      9.75469700
C           7.79499900     12.15630000     10.95202200
H           7.23673400     13.09360200     10.73058500
H           7.03059600     11.35712000     11.13057800
C           8.65956400     12.33992700     12.21841700
H           9.66704100     12.74105200     11.95364800
H           8.19974500     13.13814900     12.83947000
C           8.81371400     11.08193000     13.06733400
H           7.83858800     10.74133400     13.45846200
H           9.43027000     11.30092100     13.96007900
S           9.57305600      9.72767600     12.14818000
O           8.47709000      9.31679800     11.21189700
O           9.96254000      8.66714300     13.07721600
O          10.68843200     10.36986300     11.39553900
P           9.80111700      6.12947800     10.38125400
O          10.90920100      6.68689400      9.60894700
O           9.53446200      4.61857100      9.94299900
H           8.77203600      4.25409200     10.53275800
O           9.98179200      5.97909500     11.95143700
H          10.05110500      6.91854600     12.40265600
O           8.37790800      6.79427100     10.13974400
H           8.36063200      7.76128200     10.55485200
O          11.81516200     12.84259300     10.75499900
H          12.42649000     12.60741300     10.04993100
H          11.50874000     11.97908500     11.08838100
O          13.33532800     11.75874300      8.53353500
H          14.24036400     11.53804100      8.73722800
H          12.84124000     10.92457600      8.64959500
O          11.76840600      9.53642900      9.04193900
H          11.40359100      9.84608100      9.90683800
H          11.72147700      8.58058300      9.11611900
          44
 G =       -0.686529 Gcorr = 0.252780 a.u. Nimag =   0 Frame:    11 Step:    11 Geom:    11
C           9.62365600     12.67366900      9.37772500
C          10.46767900     12.28870600      8.34166800
C          10.30155500     11.04669700      7.72966900
C           9.24003300     10.22660300      8.12481100
C           8.39696500     10.65496300      9.15745700
H          11.01331200     10.70526600      6.97171800
H           9.76341500     13.62799100      9.90650000
H          11.29664600     12.94623200      8.05340900
H           7.56664100     10.01342900      9.51499100
C           9.03737100      8.89046300      7.51736200
H           8.21498100      8.31628300      7.97844800
H           8.85302400      8.93539200      6.43795200
H           9.93909600      8.25648400      7.67040500
N           8.61819800     11.84433900      9.78603900
C           7.79954100     12.22191500     10.96543400
H           7.26238200     13.16703900     10.72577700
H           7.01772600     11.43820700     11.13706600
C           8.64442500     12.40148900     12.24563000
H           9.66348500     12.78233500     11.99558300
H           8.18789000     13.21318400     12.85144300
C           8.76086700     11.14849300     13.10778000
H           7.77303600     10.82896900     13.48456200
H           9.36578100     11.36404200     14.00921200
S           9.51101600      9.77281200     12.21313500
O           8.42261100      9.37099300     11.26420800
O           9.86915700      8.71512700     13.15789100
O          10.64791100     10.38936300     11.47126500
P           9.71352700      6.15523100     10.48456500
O          10.84588600      6.68636800      9.72912800
O           9.42983100      4.64488600     10.05510600
H           8.64803100      4.29990400     10.63092700
O           9.86063900      6.01703700     12.05930300
H           9.93945000      6.95963500     12.50273400
O           8.30673400      6.84133300     10.20856000
H           8.29586000      7.81107400     10.61688200
O          11.83479600     12.83519300     10.83507400
H          12.45352800     12.58303200     10.14239400
H          11.50542700     11.98020900     11.16848600
O          13.37352400     11.70399100      8.65070800
H          14.27148500     11.46977300      8.86939100
H          12.86349200     10.87922100      8.76566000
O          11.75959200      9.51412800      9.14866800
H          11.38293700      9.83863100     10.00303100
H          11.69688000      8.55989100      9.23226800
          44
 G =       -0.686600 Gcorr = 0.252709 a.u. Nimag =   0 Frame:    12 Step:    12 Geom:    12
C           9.62164700     12.68827600      9.38983700
C          10.46051300     12.32700800      8.34118800
C          10.30158000     11.09240200      7.71244500
C           9.25199100     10.25577800      8.10468800
C           8.41358600     10.66044000      9.15062900
H          11.00995700     10.76947700      6.94329500
H           9.75601400     13.63632700      9.93108800
H          11.28043600     12.99699200      8.05568400
H           7.59277900     10.00546400      9.50560200
C           9.05780600      8.92646400      7.47980900
H           8.24563200      8.33709800      7.93983500
H           8.86333500      8.98490600      6.40284200
H           9.96742600      8.29987000      7.61573900
N           8.62824200     11.84276200      9.79462800
C           7.81632200     12.19449700     10.98661400
H           7.26717400     13.13726300     10.76547800
H           7.04436900     11.40013200     11.15360700
C           8.67069600     12.36444600     12.26183900
H           9.68345600     12.75968200     12.00852400
H           8.21120400     13.16250000     12.88334900
C           8.80787000     11.10049400     13.10475700
H           7.82669700     10.76454200     13.48459100
H           9.41764000     11.30975500     14.00438200
S           9.56599800      9.74624100     12.18441900
O           8.47546500      9.34827800     11.23623800
O           9.94010700      8.67772400     13.11055800
O          10.69216300     10.38516300     11.44516900
P           9.78860900      6.15631100     10.40095400
O          10.90814300      6.71042100      9.64293700
O           9.51588500      4.64985900      9.95115300
H           8.74468600      4.28752400     10.53060600
O           9.95311100      5.99543900     11.97185300
H          10.02218800      6.93180600     12.42969300
O           8.37227600      6.83206800     10.14942500
H           8.35684700      7.79661200     10.56994100
O          11.84388300     12.85233400     10.83015900
H          12.45948400     12.61611000     10.12917100
H          11.52753600     11.98943100     11.15583800