 Entering Gaussian System, Link 0=g16
 Initial command:
 /data0/home/software/g16/l1.exe "/data0/home/software/g16/scratch/Gau-222572.inp" -scrdir="/data0/home/software/g16/scratch/"
 Default is to use a total of  22 processors:
                               22 via shared-memory
                                1 via Linda
 Entering Link 1 = /data0/home/software/g16/l1.exe PID=    222573.
  
 Copyright (c) 1988,1990,1992,1993,1995,1998,2003,2009,2016,
            Gaussian, Inc.  All Rights Reserved.
  
 This is part of the Gaussian(R) 16 program.  It is based on
 the Gaussian(R) 09 system (copyright 2009, Gaussian, Inc.),
 the Gaussian(R) 03 system (copyright 2003, Gaussian, Inc.),
 the Gaussian(R) 98 system (copyright 1998, Gaussian, Inc.),
 the Gaussian(R) 94 system (copyright 1995, Gaussian, Inc.),
 the Gaussian 92(TM) system (copyright 1992, Gaussian, Inc.),
 the Gaussian 90(TM) system (copyright 1990, Gaussian, Inc.),
 the Gaussian 88(TM) system (copyright 1988, Gaussian, Inc.),
 the Gaussian 86(TM) system (copyright 1986, Carnegie Mellon
 University), and the Gaussian 82(TM) system (copyright 1983,
 Carnegie Mellon University). Gaussian is a federally registered
 trademark of Gaussian, Inc.
  
 This software contains proprietary and confidential information,
 including trade secrets, belonging to Gaussian, Inc.
  
 This software is provided under written license and may be
 used, copied, transmitted, or stored only in accord with that
 written license.
  
 The following legend is applicable only to US Government
 contracts under FAR:
  
                    RESTRICTED RIGHTS LEGEND
  
 Use, reproduction and disclosure by the US Government is
 subject to restrictions as set forth in subparagraphs (a)
 and (c) of the Commercial Computer Software - Restricted
 Rights clause in FAR 52.227-19.
  
 Gaussian, Inc.
 340 Quinnipiac St., Bldg. 40, Wallingford CT 06492
  
  
 ---------------------------------------------------------------
 Warning -- This program may not be used in any manner that
 competes with the business of Gaussian, Inc. or will provide
 assistance to any competitor of Gaussian, Inc.  The licensee
 of this program is prohibited from giving any competitor of
 Gaussian, Inc. access to this program.  By using this program,
 the user acknowledges that Gaussian, Inc. is engaged in the
 business of creating and licensing software in the field of
 computational chemistry and represents and warrants to the
 licensee that it is not a competitor of Gaussian, Inc. and that
 it will not use this program in any manner prohibited above.
 ---------------------------------------------------------------
  

 Cite this work as:
 Gaussian 16, Revision A.03,
 M. J. Frisch, G. W. Trucks, H. B. Schlegel, G. E. Scuseria, 
 M. A. Robb, J. R. Cheeseman, G. Scalmani, V. Barone, 
 G. A. Petersson, H. Nakatsuji, X. Li, M. Caricato, A. V. Marenich, 
 J. Bloino, B. G. Janesko, R. Gomperts, B. Mennucci, H. P. Hratchian, 
 J. V. Ortiz, A. F. Izmaylov, J. L. Sonnenberg, D. Williams-Young, 
 F. Ding, F. Lipparini, F. Egidi, J. Goings, B. Peng, A. Petrone, 
 T. Henderson, D. Ranasinghe, V. G. Zakrzewski, J. Gao, N. Rega, 
 G. Zheng, W. Liang, M. Hada, M. Ehara, K. Toyota, R. Fukuda, 
 J. Hasegawa, M. Ishida, T. Nakajima, Y. Honda, O. Kitao, H. Nakai, 
 T. Vreven, K. Throssell, J. A. Montgomery, Jr., J. E. Peralta, 
 F. Ogliaro, M. J. Bearpark, J. J. Heyd, E. N. Brothers, K. N. Kudin, 
 V. N. Staroverov, T. A. Keith, R. Kobayashi, J. Normand, 
 K. Raghavachari, A. P. Rendell, J. C. Burant, S. S. Iyengar, 
 J. Tomasi, M. Cossi, J. M. Millam, M. Klene, C. Adamo, R. Cammi, 
 J. W. Ochterski, R. L. Martin, K. Morokuma, O. Farkas, 
 J. B. Foresman, and D. J. Fox, Gaussian, Inc., Wallingford CT, 2016.
 
 ******************************************
 Gaussian 16:  ES64L-G16RevA.03 25-Dec-2016
                17-Feb-2023 
 ******************************************
 %nproc=24
 Will use up to   24 processors via shared memory.
 %mem=50GB
 ---------------------------------------------------
 #p M062X/6-311+G(2d,p) nosymm em=GD3 counterpoise=2
 ---------------------------------------------------
 1/38=1,62=2,172=1/1;
 2/12=2,15=1,17=6,18=5,40=1/2;
 1/38=1,53=2,62=2,63=1/22;
 3/5=4,6=6,7=112,11=2,25=1,30=1,74=-55,124=31/1,2,3;
 4//1;
 5/5=2,38=5/2;
 6/7=2,8=2,9=2,10=2,28=1/1;
 1/53=2,62=2,63=1/22;
 3/5=7,6=11,7=112,11=2,25=1,30=1,74=-55,82=7,124=31/1,2,3;
 4//1;
 5/5=2,38=5/2;
 6/7=2,8=2,9=2,10=2,28=1/1;
 1/53=2,62=2,63=1/22(-4);
 99/5=1,9=1/99;
 Leave Link    1 at Fri Feb 17 21:06:33 2023, MaxMem=  6710886400 cpu:               0.7 elap:               0.0
 (Enter /data0/home/software/g16/l101.exe)
 -------------------
 Title Card Required
 -------------------
 Symbolic Z-matrix:
 Charge =  0 Multiplicity = 1 in supermolecule
 Charge =  0 Multiplicity = 1 in fragment      1.
 Charge =  0 Multiplicity = 1 in fragment      2.
 C                     8.7414    10.13732   10.75097    
 C                     8.60903   8.74694   10.7983    
 C                     10.39354   9.17514   9.58448    
 N                     9.86578   10.39756   9.97135    
 H                     10.30519   11.31001   9.83292    
 H                     8.14327   10.91239   11.17911    
 H                     7.86668   8.14518   11.28329    
 H                     11.29007   9.06713   8.99469    
 N                     9.63754   8.16764   10.07163    
 P                     12.14062   9.05279   12.7047    
 O                     12.62407   9.34107   11.35293    
 O                     11.69364   7.58293   13.06515    
 H                     11.53813   7.00932   12.18486    
 O                     13.22946   9.42344   13.79795    
 H                     12.84156   9.17533   14.72491    
 O                     10.90714   9.95821   13.17579    
 H                     10.03991   9.56768   12.79584    
 
 ITRead=  0  0  0  0  0  0  0  0  0  0  0  0  0  0  0  0  0
 MicOpt= -1 -1 -1 -1 -1 -1 -1 -1 -1 -1 -1 -1 -1 -1 -1 -1 -1
 NAtoms=     17 NQM=       17 NQMF=       0 NMMI=      0 NMMIF=      0
                NMic=       0 NMicF=      0.
                    Isotopes and Nuclear Properties:
 (Nuclear quadrupole moments (NQMom) in fm**2, nuclear magnetic moments (NMagM)
  in nuclear magnetons)

  Atom         1           2           3           4           5           6           7           8           9          10
 IAtWgt=          12          12          12          14           1           1           1           1          14          31
 AtmWgt=  12.0000000  12.0000000  12.0000000  14.0030740   1.0078250   1.0078250   1.0078250   1.0078250  14.0030740  30.9737634
 NucSpn=           0           0           0           2           1           1           1           1           2           1
 AtZEff=  -0.0000000  -0.0000000  -0.0000000  -0.0000000  -0.0000000  -0.0000000  -0.0000000  -0.0000000  -0.0000000  -0.0000000
 NQMom=    0.0000000   0.0000000   0.0000000   2.0440000   0.0000000   0.0000000   0.0000000   0.0000000   2.0440000   0.0000000
 NMagM=    0.0000000   0.0000000   0.0000000   0.4037610   2.7928460   2.7928460   2.7928460   2.7928460   0.4037610   1.1316000
 AtZNuc=   6.0000000   6.0000000   6.0000000   7.0000000   1.0000000   1.0000000   1.0000000   1.0000000   7.0000000  15.0000000

  Atom        11          12          13          14          15          16          17
 IAtWgt=          16          16           1          16           1          16           1
 AtmWgt=  15.9949146  15.9949146   1.0078250  15.9949146   1.0078250  15.9949146   1.0078250
 NucSpn=           0           0           1           0           1           0           1
 AtZEff=  -0.0000000  -0.0000000  -0.0000000  -0.0000000  -0.0000000  -0.0000000  -0.0000000
 NQMom=    0.0000000   0.0000000   0.0000000   0.0000000   0.0000000   0.0000000   0.0000000
 NMagM=    0.0000000   0.0000000   2.7928460   0.0000000   2.7928460   0.0000000   2.7928460
 AtZNuc=   8.0000000   8.0000000   1.0000000   8.0000000   1.0000000   8.0000000   1.0000000
 Leave Link  101 at Fri Feb 17 21:06:33 2023, MaxMem=  6710886400 cpu:               2.1 elap:               0.1
 (Enter /data0/home/software/g16/l202.exe)
                          Input orientation:                          
 ---------------------------------------------------------------------
 Center     Atomic      Atomic             Coordinates (Angstroms)
 Number     Number       Type             X           Y           Z
 ---------------------------------------------------------------------
      1          6           0        8.741396   10.137319   10.750970
      2          6           0        8.609032    8.746942   10.798303
      3          6           0       10.393544    9.175138    9.584481
      4          7           0        9.865780   10.397563    9.971354
      5          1           0       10.305194   11.310013    9.832920
      6          1           0        8.143271   10.912390   11.179106
      7          1           0        7.866675    8.145185   11.283292
      8          1           0       11.290068    9.067134    8.994688
      9          7           0        9.637543    8.167640   10.071630
     10         15           0       12.140624    9.052795   12.704697
     11          8           0       12.624072    9.341066   11.352927
     12          8           0       11.693636    7.582930   13.065154
     13          1           0       11.538127    7.009323   12.184862
     14          8           0       13.229465    9.423439   13.797949
     15          1           0       12.841557    9.175329   14.724911
     16          8           0       10.907135    9.958209   13.175792
     17          1           0       10.039913    9.567680   12.795840
 ---------------------------------------------------------------------
                    Distance matrix (angstroms):
                    1          2          3          4          5
     1  C    0.000000
     2  C    1.397465   0.000000
     3  C    2.239661   2.200272   0.000000
     4  N    1.392755   2.233341   1.386553   0.000000
     5  H    2.159512   3.221531   2.151097   1.022161   0.000000
     6  H    1.068545   2.247467   3.259540   2.165814   2.577641
     7  H    2.239889   1.071643   3.214316   3.284937   4.250422
     8  H    3.274989   3.247076   1.078553   2.180026   2.589038
     9  N    2.268087   1.386174   1.350520   2.243815   3.221374
    10  P    4.067922   4.024926   3.578129   3.801905   4.087902
    11  O    4.008933   4.096479   2.851349   3.260844   3.400642
    12  O    4.538290   4.001040   4.042332   4.564517   5.125062
    13  H    4.434198   3.677154   3.572507   4.379102   5.054472
    14  O    5.471423   5.550128   5.085019   5.187111   5.275602
    15  H    5.790419   5.789303   5.693574   5.739809   5.909449
    16  O    3.256112   3.521491   3.711400   3.397922   3.655749
    17  H    2.488399   2.590596   3.254531   2.949025   3.447462
                    6          7          8          9         10
     6  H    0.000000
     7  H    2.782945   0.000000
     8  H    4.251939   4.219872   0.000000
     9  N    3.315570   2.145834   2.167887   0.000000
    10  P    4.665228   4.594648   3.806287   3.739245   0.000000
    11  O    4.751510   4.905895   2.723214   3.455142   1.464276
    12  O    5.219921   4.258731   4.351370   3.678395   1.578046
    13  H    5.269775   3.947477   3.804383   3.069148   2.192945
    14  O    5.911403   6.059451   5.192257   5.325823   1.586868
    15  H    6.137101   6.136399   5.937531   5.738830   2.141865
    16  O    3.540644   4.014101   4.292119   3.801818   1.601000
    17  H    2.831841   3.005704   4.032641   3.089229   2.164810
                   11         12         13         14         15
    11  O    0.000000
    12  O    2.624590   0.000000
    13  H    2.703409   1.062131   0.000000
    14  O    2.520202   2.506638   3.360153   0.000000
    15  H    3.383053   2.570652   3.583624   1.035031   0.000000
    16  O    2.579065   2.504551   3.174275   2.462981   2.598973
    17  H    2.968372   2.597415   3.027066   3.346382   3.424100
                   16         17
    16  O    0.000000
    17  H    1.024183   0.000000
 Symmetry turned off by external request.
 Stoichiometry    C3H7N2O4P
 Framework group  C1[X(C3H7N2O4P)]
 Deg. of freedom    45
 Full point group                 C1      NOp   1
 Rotational constants (GHZ):           2.2994006           0.7056379           0.7007299
 Leave Link  202 at Fri Feb 17 21:06:33 2023, MaxMem=  6710886400 cpu:               0.1 elap:               0.0
 (Enter /data0/home/software/g16/l122.exe)
 Counterpoise: doing full-system calculation.
 Leave Link  122 at Fri Feb 17 21:06:33 2023, MaxMem=  6710886400 cpu:               0.0 elap:               0.0
 (Enter /data0/home/software/g16/l301.exe)
 Standard basis: 6-311+G(2d,p) (5D, 7F)
 Ernie: Thresh=  0.10000D-02 Tol=  0.10000D-05 Strict=F.
   320 basis functions,   490 primitive gaussians,   340 cartesian basis functions
    43 alpha electrons       43 beta electrons
       nuclear repulsion energy       681.1924976794 Hartrees.
 IExCor= 4336 DFT=T Ex+Corr=M062X ExCW=0 ScaHFX=  0.540000
 ScaDFX=  1.000000  1.000000  1.000000  1.000000 ScalE2=  1.000000  1.000000
 IRadAn=      5 IRanWt=     -1 IRanGd=            0 ICorTp=0 IEmpDi=131
 NAtoms=   17 NActive=   17 NUniq=   17 SFac= 1.00D+00 NAtFMM=   60 NAOKFM=F Big=F
 Integral buffers will be    131072 words long.
 Raffenetti 2 integral format.
 Two-electron integral symmetry is turned off.
 R6Disp:  Grimme-D3 Dispersion energy=       -0.0005037773 Hartrees.
 Nuclear repulsion after empirical dispersion term =      681.1919939021 Hartrees.
 Leave Link  301 at Fri Feb 17 21:06:34 2023, MaxMem=  6710886400 cpu:               1.1 elap:               0.1
 (Enter /data0/home/software/g16/l302.exe)
 NPDir=0 NMtPBC=     1 NCelOv=     1 NCel=       1 NClECP=     1 NCelD=      1
         NCelK=      1 NCelE2=     1 NClLst=     1 CellRange=     0.0.
 One-electron integrals computed using PRISM.
 NBasis=   320 RedAO= T EigKep=  3.70D-05  NBF=   320
 NBsUse=   320 1.00D-06 EigRej= -1.00D+00 NBFU=   320
 Precomputing XC quadrature grid using
 IXCGrd= 4 IRadAn=           5 IRanWt=          -1 IRanGd=           0 AccXCQ= 0.00D+00.
 Generated NRdTot=       0 NPtTot=           0 NUsed=           0 NTot=          32
 NSgBfM=   340   340   340   340   340 MxSgAt=    17 MxSgA2=    17.
 Leave Link  302 at Fri Feb 17 21:06:34 2023, MaxMem=  6710886400 cpu:               5.1 elap:               0.2
 (Enter /data0/home/software/g16/l303.exe)
 DipDrv:  MaxL=1.
 Leave Link  303 at Fri Feb 17 21:06:34 2023, MaxMem=  6710886400 cpu:               0.7 elap:               0.1
 (Enter /data0/home/software/g16/l401.exe)
 ExpMin= 3.48D-02 ExpMax= 7.75D+04 ExpMxC= 2.65D+03 IAcc=3 IRadAn=         5 AccDes= 0.00D+00
 Harris functional with IExCor= 1009 and IRadAn=       5 diagonalized for initial guess.
 HarFok:  IExCor= 1009 AccDes= 0.00D+00 IRadAn=         5 IDoV= 1 UseB2=F ITyADJ=14
 ICtDFT=  3500011 ScaDFX=  1.000000  1.000000  1.000000  1.000000
 FoFCou: FMM=F IPFlag=           0 FMFlag=      100000 FMFlg1=           0
         NFxFlg=           0 DoJE=T BraDBF=F KetDBF=T FulRan=T
         wScrn=  0.000000 ICntrl=       500 IOpCl=  0 I1Cent=   200000004 NGrid=           0
         NMat0=    1 NMatS0=      1 NMatT0=    0 NMatD0=    1 NMtDS0=    0 NMtDT0=    0
 Symmetry not used in FoFCou.
 Harris En= -869.995299323813    
 JPrj=0 DoOrth=F DoCkMO=F.
 Leave Link  401 at Fri Feb 17 21:06:35 2023, MaxMem=  6710886400 cpu:              17.4 elap:               0.8
 (Enter /data0/home/software/g16/l502.exe)
 Two-electron integral symmetry not used.
 Closed shell SCF:
 Using DIIS extrapolation, IDIIS=  1040.
 NGot=  6710886400 LenX=  6710644641 LenY=  6710528600
 Requested convergence on RMS density matrix=1.00D-08 within 128 cycles.
 Requested convergence on MAX density matrix=1.00D-06.
 Requested convergence on             energy=1.00D-06.
 No special actions if energy rises.
 Fock matrices will be formed incrementally for  20 cycles.

 Cycle   1  Pass 1  IDiag  1:
 FoFJK:  IHMeth= 1 ICntrl=       0 DoSepK=F KAlg= 0 I1Cent=           0 FoldK=F
 IRaf= 920000000 NMat=       1 IRICut=       1 DoRegI=T DoRafI=F ISym2E= 0 IDoP0=0 IntGTp=1.
 FoFCou: FMM=F IPFlag=           0 FMFlag=      100000 FMFlg1=           0
         NFxFlg=           0 DoJE=F BraDBF=F KetDBF=F FulRan=T
         wScrn=  0.000000 ICntrl=         0 IOpCl=  0 I1Cent=           0 NGrid=           0
         NMat0=    1 NMatS0=      1 NMatT0=    0 NMatD0=    1 NMtDS0=    0 NMtDT0=    0
 Symmetry not used in FoFCou.
 E= -869.986565194410    
 DIIS: error= 2.42D-02 at cycle   1 NSaved=   1.
 NSaved= 1 IEnMin= 1 EnMin= -869.986565194410     IErMin= 1 ErrMin= 2.42D-02
 ErrMax= 2.42D-02  0.00D+00 EMaxC= 1.00D-01 BMatC= 6.25D-01 BMatP= 6.25D-01
 IDIUse=3 WtCom= 7.58D-01 WtEn= 2.42D-01
 Coeff-Com:  0.100D+01
 Coeff-En:   0.100D+01
 Coeff:      0.100D+01
 Gap=     0.320 Goal=   None    Shift=    0.000
 GapD=    0.320 DampG=1.000 DampE=0.500 DampFc=0.5000 IDamp=-1.
 Damping current iteration by 5.00D-01
 RMSDP=5.37D-03 MaxDP=3.55D-01              OVMax= 2.20D-01

 Cycle   2  Pass 1  IDiag  1:
 RMSU=  2.68D-03    CP:  1.01D+00
 E= -870.147611849111     Delta-E=       -0.161046654701 Rises=F Damp=T
 DIIS: error= 6.30D-03 at cycle   2 NSaved=   2.
 NSaved= 2 IEnMin= 2 EnMin= -870.147611849111     IErMin= 2 ErrMin= 6.30D-03
 ErrMax= 6.30D-03  0.00D+00 EMaxC= 1.00D-01 BMatC= 3.95D-02 BMatP= 6.25D-01
 IDIUse=3 WtCom= 9.37D-01 WtEn= 6.30D-02
 Coeff-Com:  0.298D-01 0.970D+00
 Coeff-En:   0.128D+00 0.872D+00
 Coeff:      0.360D-01 0.964D+00
 Gap=     0.346 Goal=   None    Shift=    0.000
 RMSDP=1.33D-03 MaxDP=1.08D-01 DE=-1.61D-01 OVMax= 1.62D-01

 Cycle   3  Pass 1  IDiag  1:
 RMSU=  1.13D-03    CP:  9.88D-01  7.59D-01
 E= -870.345588333514     Delta-E=       -0.197976484403 Rises=F Damp=F
 DIIS: error= 4.95D-03 at cycle   3 NSaved=   3.
 NSaved= 3 IEnMin= 3 EnMin= -870.345588333514     IErMin= 3 ErrMin= 4.95D-03
 ErrMax= 4.95D-03  0.00D+00 EMaxC= 1.00D-01 BMatC= 1.54D-02 BMatP= 3.95D-02
 IDIUse=3 WtCom= 9.50D-01 WtEn= 4.95D-02
 Coeff-Com: -0.497D-01 0.353D+00 0.696D+00
 Coeff-En:   0.000D+00 0.000D+00 0.100D+01
 Coeff:     -0.472D-01 0.336D+00 0.711D+00
 Gap=     0.292 Goal=   None    Shift=    0.000
 RMSDP=4.64D-04 MaxDP=1.89D-02 DE=-1.98D-01 OVMax= 3.78D-02

 Cycle   4  Pass 1  IDiag  1:
 RMSU=  3.96D-04    CP:  9.88D-01  8.34D-01  8.83D-01
 E= -870.353319008834     Delta-E=       -0.007730675320 Rises=F Damp=F
 DIIS: error= 2.45D-03 at cycle   4 NSaved=   4.
 NSaved= 4 IEnMin= 4 EnMin= -870.353319008834     IErMin= 4 ErrMin= 2.45D-03
 ErrMax= 2.45D-03  0.00D+00 EMaxC= 1.00D-01 BMatC= 4.77D-03 BMatP= 1.54D-02
 IDIUse=3 WtCom= 9.75D-01 WtEn= 2.45D-02
 Coeff-Com: -0.313D-01 0.844D-01 0.399D+00 0.548D+00
 Coeff-En:   0.000D+00 0.000D+00 0.225D+00 0.775D+00
 Coeff:     -0.305D-01 0.823D-01 0.395D+00 0.553D+00
 Gap=     0.289 Goal=   None    Shift=    0.000
 RMSDP=2.00D-04 MaxDP=7.22D-03 DE=-7.73D-03 OVMax= 1.25D-02

 Cycle   5  Pass 1  IDiag  1:
 RMSU=  1.07D-04    CP:  9.87D-01  8.05D-01  9.47D-01  6.75D-01
 E= -870.356582307854     Delta-E=       -0.003263299020 Rises=F Damp=F
 DIIS: error= 2.70D-04 at cycle   5 NSaved=   5.
 NSaved= 5 IEnMin= 5 EnMin= -870.356582307854     IErMin= 5 ErrMin= 2.70D-04
 ErrMax= 2.70D-04  0.00D+00 EMaxC= 1.00D-01 BMatC= 7.07D-05 BMatP= 4.77D-03
 IDIUse=3 WtCom= 9.97D-01 WtEn= 2.70D-03
 Coeff-Com: -0.774D-02 0.136D-01 0.102D+00 0.193D+00 0.699D+00
 Coeff-En:   0.000D+00 0.000D+00 0.000D+00 0.000D+00 0.100D+01
 Coeff:     -0.772D-02 0.135D-01 0.101D+00 0.193D+00 0.700D+00
 Gap=     0.287 Goal=   None    Shift=    0.000
 RMSDP=3.30D-05 MaxDP=1.22D-03 DE=-3.26D-03 OVMax= 2.38D-03

 Cycle   6  Pass 1  IDiag  1:
 RMSU=  2.77D-05    CP:  9.86D-01  8.06D-01  9.47D-01  7.00D-01  8.69D-01
 E= -870.356634696532     Delta-E=       -0.000052388678 Rises=F Damp=F
 DIIS: error= 1.36D-04 at cycle   6 NSaved=   6.
 NSaved= 6 IEnMin= 6 EnMin= -870.356634696532     IErMin= 6 ErrMin= 1.36D-04
 ErrMax= 1.36D-04  0.00D+00 EMaxC= 1.00D-01 BMatC= 6.17D-06 BMatP= 7.07D-05
 IDIUse=3 WtCom= 9.99D-01 WtEn= 1.36D-03
 Coeff-Com: -0.155D-02 0.115D-02 0.202D-01 0.486D-01 0.290D+00 0.642D+00
 Coeff-En:   0.000D+00 0.000D+00 0.000D+00 0.000D+00 0.000D+00 0.100D+01
 Coeff:     -0.155D-02 0.115D-02 0.202D-01 0.486D-01 0.289D+00 0.642D+00
 Gap=     0.287 Goal=   None    Shift=    0.000
 RMSDP=1.14D-05 MaxDP=6.27D-04 DE=-5.24D-05 OVMax= 7.69D-04

 Cycle   7  Pass 1  IDiag  1:
 RMSU=  7.22D-06    CP:  9.86D-01  8.04D-01  9.49D-01  7.06D-01  9.27D-01
                    CP:  8.86D-01
 E= -870.356640141651     Delta-E=       -0.000005445119 Rises=F Damp=F
 DIIS: error= 3.51D-05 at cycle   7 NSaved=   7.
 NSaved= 7 IEnMin= 7 EnMin= -870.356640141651     IErMin= 7 ErrMin= 3.51D-05
 ErrMax= 3.51D-05  0.00D+00 EMaxC= 1.00D-01 BMatC= 2.65D-07 BMatP= 6.17D-06
 IDIUse=1 WtCom= 1.00D+00 WtEn= 0.00D+00
 Coeff-Com:  0.442D-03-0.104D-02-0.594D-02-0.937D-02-0.187D-02 0.129D+00
 Coeff-Com:  0.889D+00
 Coeff:      0.442D-03-0.104D-02-0.594D-02-0.937D-02-0.187D-02 0.129D+00
 Coeff:      0.889D+00
 Gap=     0.287 Goal=   None    Shift=    0.000
 RMSDP=4.01D-06 MaxDP=2.38D-04 DE=-5.45D-06 OVMax= 3.17D-04

 Cycle   8  Pass 1  IDiag  1:
 RMSU=  2.38D-06    CP:  9.86D-01  8.03D-01  9.49D-01  7.07D-01  9.36D-01
                    CP:  9.53D-01  1.03D+00
 E= -870.356640356964     Delta-E=       -0.000000215313 Rises=F Damp=F
 DIIS: error= 2.98D-05 at cycle   8 NSaved=   8.
 NSaved= 8 IEnMin= 8 EnMin= -870.356640356964     IErMin= 8 ErrMin= 2.98D-05
 ErrMax= 2.98D-05  0.00D+00 EMaxC= 1.00D-01 BMatC= 1.61D-07 BMatP= 2.65D-07
 IDIUse=1 WtCom= 1.00D+00 WtEn= 0.00D+00
 Coeff-Com:  0.384D-03-0.722D-03-0.522D-02-0.969D-02-0.259D-01 0.134D-01
 Coeff-Com:  0.514D+00 0.514D+00
 Coeff:      0.384D-03-0.722D-03-0.522D-02-0.969D-02-0.259D-01 0.134D-01
 Coeff:      0.514D+00 0.514D+00
 Gap=     0.287 Goal=   None    Shift=    0.000
 RMSDP=1.60D-06 MaxDP=7.78D-05 DE=-2.15D-07 OVMax= 1.43D-04

 Cycle   9  Pass 1  IDiag  1:
 RMSU=  9.04D-07    CP:  9.86D-01  8.03D-01  9.49D-01  7.08D-01  9.43D-01
                    CP:  9.64D-01  1.10D+00  7.93D-01
 E= -870.356640502713     Delta-E=       -0.000000145749 Rises=F Damp=F
 DIIS: error= 5.08D-06 at cycle   9 NSaved=   9.
 NSaved= 9 IEnMin= 9 EnMin= -870.356640502713     IErMin= 9 ErrMin= 5.08D-06
 ErrMax= 5.08D-06  0.00D+00 EMaxC= 1.00D-01 BMatC= 3.48D-09 BMatP= 1.61D-07
 IDIUse=1 WtCom= 1.00D+00 WtEn= 0.00D+00
 Coeff-Com:  0.573D-04-0.934D-04-0.886D-03-0.178D-02-0.624D-02-0.759D-02
 Coeff-Com:  0.723D-01 0.128D+00 0.816D+00
 Coeff:      0.573D-04-0.934D-04-0.886D-03-0.178D-02-0.624D-02-0.759D-02
 Coeff:      0.723D-01 0.128D+00 0.816D+00
 Gap=     0.287 Goal=   None    Shift=    0.000
 RMSDP=3.34D-07 MaxDP=1.14D-05 DE=-1.46D-07 OVMax= 4.36D-05

 Cycle  10  Pass 1  IDiag  1:
 RMSU=  2.46D-07    CP:  9.86D-01  8.03D-01  9.49D-01  7.08D-01  9.43D-01
                    CP:  9.65D-01  1.12D+00  8.64D-01  1.02D+00
 E= -870.356640506448     Delta-E=       -0.000000003735 Rises=F Damp=F
 DIIS: error= 3.19D-06 at cycle  10 NSaved=  10.
 NSaved=10 IEnMin=10 EnMin= -870.356640506448     IErMin=10 ErrMin= 3.19D-06
 ErrMax= 3.19D-06  0.00D+00 EMaxC= 1.00D-01 BMatC= 1.97D-09 BMatP= 3.48D-09
 IDIUse=1 WtCom= 1.00D+00 WtEn= 0.00D+00
 Coeff-Com: -0.249D-04 0.533D-04 0.271D-03 0.408D-03 0.585D-04-0.724D-02
 Coeff-Com: -0.368D-01-0.128D-01 0.456D+00 0.600D+00
 Coeff:     -0.249D-04 0.533D-04 0.271D-03 0.408D-03 0.585D-04-0.724D-02
 Coeff:     -0.368D-01-0.128D-01 0.456D+00 0.600D+00
 Gap=     0.287 Goal=   None    Shift=    0.000
 RMSDP=1.86D-07 MaxDP=5.81D-06 DE=-3.74D-09 OVMax= 1.90D-05

 Cycle  11  Pass 1  IDiag  1:
 RMSU=  1.12D-07    CP:  9.86D-01  8.03D-01  9.49D-01  7.08D-01  9.43D-01
                    CP:  9.65D-01  1.13D+00  8.88D-01  1.14D+00  8.44D-01
 E= -870.356640508339     Delta-E=       -0.000000001891 Rises=F Damp=F
 DIIS: error= 9.11D-07 at cycle  11 NSaved=  11.
 NSaved=11 IEnMin=11 EnMin= -870.356640508339     IErMin=11 ErrMin= 9.11D-07
 ErrMax= 9.11D-07  0.00D+00 EMaxC= 1.00D-01 BMatC= 8.64D-11 BMatP= 1.97D-09
 IDIUse=1 WtCom= 1.00D+00 WtEn= 0.00D+00
 Coeff-Com: -0.137D-04 0.268D-04 0.194D-03 0.335D-03 0.717D-03-0.168D-02
 Coeff-Com: -0.205D-01-0.233D-01 0.440D-01 0.187D+00 0.813D+00
 Coeff:     -0.137D-04 0.268D-04 0.194D-03 0.335D-03 0.717D-03-0.168D-02
 Coeff:     -0.205D-01-0.233D-01 0.440D-01 0.187D+00 0.813D+00
 Gap=     0.287 Goal=   None    Shift=    0.000
 RMSDP=5.28D-08 MaxDP=1.31D-06 DE=-1.89D-09 OVMax= 6.43D-06

 Cycle  12  Pass 1  IDiag  1:
 RMSU=  3.12D-08    CP:  9.86D-01  8.03D-01  9.49D-01  7.08D-01  9.43D-01
                    CP:  9.65D-01  1.13D+00  8.95D-01  1.17D+00  9.56D-01
                    CP:  1.01D+00
 E= -870.356640508466     Delta-E=       -0.000000000127 Rises=F Damp=F
 DIIS: error= 2.31D-07 at cycle  12 NSaved=  12.
 NSaved=12 IEnMin=12 EnMin= -870.356640508466     IErMin=12 ErrMin= 2.31D-07
 ErrMax= 2.31D-07  0.00D+00 EMaxC= 1.00D-01 BMatC= 8.41D-12 BMatP= 8.64D-11
 IDIUse=1 WtCom= 1.00D+00 WtEn= 0.00D+00
 Coeff-Com:  0.396D-06-0.102D-05 0.122D-04 0.237D-04 0.162D-03 0.439D-03
 Coeff-Com:  0.150D-05-0.391D-02-0.381D-01-0.284D-01 0.207D+00 0.863D+00
 Coeff:      0.396D-06-0.102D-05 0.122D-04 0.237D-04 0.162D-03 0.439D-03
 Coeff:      0.150D-05-0.391D-02-0.381D-01-0.284D-01 0.207D+00 0.863D+00
 Gap=     0.287 Goal=   None    Shift=    0.000
 RMSDP=1.81D-08 MaxDP=8.69D-07 DE=-1.27D-10 OVMax= 2.11D-06

 Cycle  13  Pass 1  IDiag  1:
 RMSU=  1.29D-08    CP:  9.86D-01  8.03D-01  9.49D-01  7.08D-01  9.43D-01
                    CP:  9.65D-01  1.13D+00  8.95D-01  1.17D+00  9.70D-01
                    CP:  1.10D+00  1.04D+00
 E= -870.356640508479     Delta-E=       -0.000000000013 Rises=F Damp=F
 DIIS: error= 5.84D-08 at cycle  13 NSaved=  13.
 NSaved=13 IEnMin=13 EnMin= -870.356640508479     IErMin=13 ErrMin= 5.84D-08
 ErrMax= 5.84D-08  0.00D+00 EMaxC= 1.00D-01 BMatC= 6.92D-13 BMatP= 8.41D-12
 IDIUse=1 WtCom= 1.00D+00 WtEn= 0.00D+00
 Coeff-Com:  0.109D-05-0.216D-05-0.919D-05-0.161D-04-0.522D-05 0.226D-03
 Coeff-Com:  0.142D-02 0.669D-03-0.141D-01-0.242D-01-0.515D-02 0.261D+00
 Coeff-Com:  0.780D+00
 Coeff:      0.109D-05-0.216D-05-0.919D-05-0.161D-04-0.522D-05 0.226D-03
 Coeff:      0.142D-02 0.669D-03-0.141D-01-0.242D-01-0.515D-02 0.261D+00
 Coeff:      0.780D+00
 Gap=     0.287 Goal=   None    Shift=    0.000
 RMSDP=4.33D-09 MaxDP=1.81D-07 DE=-1.32D-11 OVMax= 4.81D-07

 SCF Done:  E(RM062X) =  -870.356640508     A.U. after   13 cycles
            NFock= 13  Conv=0.43D-08     -V/T= 2.0032
 KE= 8.675590976401D+02 PE=-3.416682789386D+03 EE= 9.975750573350D+02
 Leave Link  502 at Fri Feb 17 21:07:01 2023, MaxMem=  6710886400 cpu:             630.4 elap:              26.4
 (Enter /data0/home/software/g16/l601.exe)
 Copying SCF densities to generalized density rwf, IOpCl= 0 IROHF=0.

 **********************************************************************

            Population analysis using the SCF density.

 **********************************************************************

 Alpha  occ. eigenvalues --  -78.16002 -19.68046 -19.66968 -19.66039 -19.58171
 Alpha  occ. eigenvalues --  -14.82085 -14.74628 -10.61395 -10.58930 -10.57330
 Alpha  occ. eigenvalues --   -6.96762  -5.08677  -5.08635  -5.08474  -1.23281
 Alpha  occ. eigenvalues --   -1.16017  -1.15030  -1.12635  -1.08638  -0.97833
 Alpha  occ. eigenvalues --   -0.84835  -0.71846  -0.70810  -0.68028  -0.65036
 Alpha  occ. eigenvalues --   -0.64504  -0.62845  -0.56697  -0.53042  -0.52365
 Alpha  occ. eigenvalues --   -0.51687  -0.51083  -0.49857  -0.49326  -0.48883
 Alpha  occ. eigenvalues --   -0.45919  -0.44289  -0.42709  -0.38419  -0.37191
 Alpha  occ. eigenvalues --   -0.35748  -0.35345  -0.29590
 Alpha virt. eigenvalues --   -0.00869   0.00902   0.01949   0.02152   0.03389
 Alpha virt. eigenvalues --    0.04079   0.04735   0.05039   0.05609   0.05984
 Alpha virt. eigenvalues --    0.06597   0.07301   0.09018   0.09596   0.10578
 Alpha virt. eigenvalues --    0.11279   0.11751   0.13275   0.13808   0.14569
 Alpha virt. eigenvalues --    0.15535   0.16619   0.17137   0.18458   0.19391
 Alpha virt. eigenvalues --    0.20086   0.20470   0.20579   0.21504   0.21757
 Alpha virt. eigenvalues --    0.22029   0.22592   0.23377   0.23625   0.24237
 Alpha virt. eigenvalues --    0.24897   0.25348   0.26130   0.26645   0.27611
 Alpha virt. eigenvalues --    0.27832   0.28395   0.28710   0.29548   0.30736
 Alpha virt. eigenvalues --    0.31159   0.31504   0.31842   0.33049   0.33996
 Alpha virt. eigenvalues --    0.35742   0.37616   0.38026   0.39597   0.39777
 Alpha virt. eigenvalues --    0.40535   0.42408   0.43774   0.45218   0.46194
 Alpha virt. eigenvalues --    0.47861   0.48841   0.50831   0.52176   0.54224
 Alpha virt. eigenvalues --    0.55154   0.57713   0.58186   0.59815   0.62066
 Alpha virt. eigenvalues --    0.62994   0.64066   0.65180   0.65862   0.67869
 Alpha virt. eigenvalues --    0.70037   0.70950   0.73280   0.75135   0.77207
 Alpha virt. eigenvalues --    0.77824   0.78582   0.79664   0.80115   0.80833
 Alpha virt. eigenvalues --    0.83025   0.85579   0.87275   0.88325   0.89307
 Alpha virt. eigenvalues --    0.92072   0.94085   0.94346   0.96788   0.97943
 Alpha virt. eigenvalues --    0.99942   1.02227   1.03165   1.05136   1.07267
 Alpha virt. eigenvalues --    1.07723   1.10003   1.11389   1.12717   1.15095
 Alpha virt. eigenvalues --    1.16163   1.18244   1.19380   1.20721   1.22664
 Alpha virt. eigenvalues --    1.24847   1.25966   1.27016   1.28175   1.29544
 Alpha virt. eigenvalues --    1.31303   1.33415   1.34016   1.35876   1.36763
 Alpha virt. eigenvalues --    1.37595   1.39533   1.40792   1.41825   1.42843
 Alpha virt. eigenvalues --    1.43197   1.45541   1.47857   1.48568   1.48891
 Alpha virt. eigenvalues --    1.52925   1.55492   1.57588   1.60705   1.63371
 Alpha virt. eigenvalues --    1.64534   1.67515   1.68771   1.69586   1.70293
 Alpha virt. eigenvalues --    1.71856   1.74382   1.74879   1.76402   1.77380
 Alpha virt. eigenvalues --    1.79795   1.80856   1.81370   1.84921   1.86799
 Alpha virt. eigenvalues --    1.91093   1.91396   1.94511   1.95040   1.96091
 Alpha virt. eigenvalues --    1.98421   2.02904   2.05894   2.06406   2.08423
 Alpha virt. eigenvalues --    2.11671   2.14673   2.16653   2.17792   2.22246
 Alpha virt. eigenvalues --    2.25454   2.26295   2.29759   2.31297   2.38005
 Alpha virt. eigenvalues --    2.41696   2.44907   2.46301   2.49059   2.50958
 Alpha virt. eigenvalues --    2.61291   2.64674   2.65623   2.69139   2.71038
 Alpha virt. eigenvalues --    2.74889   2.76406   2.78496   2.81053   2.83198
 Alpha virt. eigenvalues --    2.84476   2.87001   2.88643   2.94822   2.96025
 Alpha virt. eigenvalues --    2.96778   2.97542   3.00867   3.11372   3.19497
 Alpha virt. eigenvalues --    3.22456   3.29877   3.32459   3.36195   3.39401
 Alpha virt. eigenvalues --    3.41773   3.42224   3.43163   3.47015   3.53451
 Alpha virt. eigenvalues --    3.57175   3.58599   3.61710   3.66742   3.69448
 Alpha virt. eigenvalues --    3.73455   3.95842   3.97645   3.98162   3.99162
 Alpha virt. eigenvalues --    4.07678   4.47426   4.60317   4.90424   4.95230
 Alpha virt. eigenvalues --    4.97738   5.01259   5.02566   5.04690   5.07082
 Alpha virt. eigenvalues --    5.08388   5.08936   5.10175   5.11956   5.16739
 Alpha virt. eigenvalues --    5.18475   5.22012   5.24693   5.25332   5.32233
 Alpha virt. eigenvalues --    5.33164   5.38581   5.40913   5.47329   5.52709
 Alpha virt. eigenvalues --    5.53410   5.58734   5.59616   6.72822   6.75539
 Alpha virt. eigenvalues --    6.76589   6.79186   6.81752   6.82912   6.86895
 Alpha virt. eigenvalues --    6.87585   6.93705   6.93855   6.96218   6.97099
 Alpha virt. eigenvalues --    7.02166   7.09629   7.12908   7.24934   7.27224
 Alpha virt. eigenvalues --    7.29785   7.34377   7.42627   7.67808  14.25228
 Alpha virt. eigenvalues --   14.28066  14.37782  23.90320  24.08929  24.12389
 Alpha virt. eigenvalues --   35.65216  35.69718  50.01350  50.02796  50.04815
 Alpha virt. eigenvalues --   50.12097 163.91792
          Condensed to atoms (all electrons):
               1          2          3          4          5          6
     1  C    5.962009  -0.167582  -0.345278   0.347466  -0.041670   0.379278
     2  C   -0.167582   5.794589  -0.011623  -0.147846   0.022334   0.000401
     3  C   -0.345278  -0.011623   5.384962   0.323385  -0.010962   0.012185
     4  N    0.347466  -0.147846   0.323385   6.378142   0.365995  -0.028535
     5  H   -0.041670   0.022334  -0.010962   0.365995   0.386345  -0.001988
     6  H    0.379278   0.000401   0.012185  -0.028535  -0.001988   0.490623
     7  H   -0.067517   0.452549   0.015978   0.005731   0.000069  -0.000142
     8  H   -0.001208   0.021533   0.429726  -0.045637   0.000100  -0.000012
     9  N    0.094666   0.114099   0.296516  -0.006032  -0.002376   0.000410
    10  P   -0.000029  -0.012140  -0.045363   0.007628  -0.003382  -0.000414
    11  O   -0.003858  -0.018540   0.066062  -0.020834   0.001657   0.000195
    12  O   -0.017622   0.020229  -0.011225   0.007316  -0.000258   0.000047
    13  H   -0.000560   0.003011  -0.004678  -0.000208  -0.000019  -0.000007
    14  O    0.008383  -0.006814   0.001525  -0.004298  -0.000078  -0.000027
    15  H    0.000728  -0.000182  -0.001605   0.000256  -0.000006  -0.000003
    16  O   -0.003107  -0.029142  -0.000750   0.008712  -0.000735  -0.001214
    17  H    0.059514   0.003997  -0.021810  -0.008630   0.000672  -0.000884
               7          8          9         10         11         12
     1  C   -0.067517  -0.001208   0.094666  -0.000029  -0.003858  -0.017622
     2  C    0.452549   0.021533   0.114099  -0.012140  -0.018540   0.020229
     3  C    0.015978   0.429726   0.296516  -0.045363   0.066062  -0.011225
     4  N    0.005731  -0.045637  -0.006032   0.007628  -0.020834   0.007316
     5  H    0.000069   0.000100  -0.002376  -0.003382   0.001657  -0.000258
     6  H   -0.000142  -0.000012   0.000410  -0.000414   0.000195   0.000047
     7  H    0.515326   0.000104  -0.060100  -0.000287   0.000051  -0.000322
     8  H    0.000104   0.479438  -0.051893   0.001942  -0.008082   0.000113
     9  N   -0.060100  -0.051893   6.889802   0.039015  -0.021232   0.008233
    10  P   -0.000287   0.001942   0.039015  12.527111   0.522698   0.268459
    11  O    0.000051  -0.008082  -0.021232   0.522698   8.165724  -0.034098
    12  O   -0.000322   0.000113   0.008233   0.268459  -0.034098   8.030359
    13  H   -0.000065  -0.000158   0.005766  -0.001196  -0.005747   0.273907
    14  O   -0.000008   0.000010   0.002584   0.193411  -0.022871   0.007314
    15  H    0.000002   0.000001   0.000069   0.019631  -0.003763  -0.009497
    16  O   -0.000039   0.000326  -0.003999   0.294350  -0.026689   0.011643
    17  H    0.001088   0.000097  -0.007405   0.014318  -0.003089  -0.019127
              13         14         15         16         17
     1  C   -0.000560   0.008383   0.000728  -0.003107   0.059514
     2  C    0.003011  -0.006814  -0.000182  -0.029142   0.003997
     3  C   -0.004678   0.001525  -0.001605  -0.000750  -0.021810
     4  N   -0.000208  -0.004298   0.000256   0.008712  -0.008630
     5  H   -0.000019  -0.000078  -0.000006  -0.000735   0.000672
     6  H   -0.000007  -0.000027  -0.000003  -0.001214  -0.000884
     7  H   -0.000065  -0.000008   0.000002  -0.000039   0.001088
     8  H   -0.000158   0.000010   0.000001   0.000326   0.000097
     9  N    0.005766   0.002584   0.000069  -0.003999  -0.007405
    10  P   -0.001196   0.193411   0.019631   0.294350   0.014318
    11  O   -0.005747  -0.022871  -0.003763  -0.026689  -0.003089
    12  O    0.273907   0.007314  -0.009497   0.011643  -0.019127
    13  H    0.364849   0.001654   0.001130  -0.000355  -0.000323
    14  O    0.001654   8.043032   0.238463   0.006384   0.001340
    15  H    0.001130   0.238463   0.454466  -0.011525   0.001599
    16  O   -0.000355   0.006384  -0.011525   7.992571   0.267861
    17  H   -0.000323   0.001340   0.001599   0.267861   0.406222
 Mulliken charges:
               1
     1  C   -0.203611
     2  C   -0.038874
     3  C   -0.077044
     4  N   -0.182612
     5  H    0.284301
     6  H    0.150088
     7  H    0.137582
     8  H    0.173601
     9  N   -0.298124
    10  P    1.174249
    11  O   -0.587584
    12  O   -0.535471
    13  H    0.362998
    14  O   -0.470006
    15  H    0.310236
    16  O   -0.504291
    17  H    0.304561
 Sum of Mulliken charges =  -0.00000
 Mulliken charges with hydrogens summed into heavy atoms:
               1
     1  C   -0.053523
     2  C    0.098708
     3  C    0.096558
     4  N    0.101690
     9  N   -0.298124
    10  P    1.174249
    11  O   -0.587584
    12  O   -0.172473
    14  O   -0.159770
    16  O   -0.199730
         Mulliken charges condensed to fragments:
      1     -0.054692
      2      0.054692
 Electronic spatial extent (au):  <R**2>=         107029.9868
 Charge=             -0.0000 electrons
 Dipole moment (field-independent basis, Debye):
    X=             -2.5161    Y=              1.0371    Z=              1.1658  Tot=              2.9606
 Quadrupole moment (field-independent basis, Debye-Ang):
   XX=           -124.5295   YY=            -41.4289   ZZ=            -32.4699
   XY=            -17.5629   XZ=            -18.2749   YZ=             15.5953
 Traceless Quadrupole moment (field-independent basis, Debye-Ang):
   XX=            -58.3867   YY=             24.7139   ZZ=             33.6728
   XY=            -17.5629   XZ=            -18.2749   YZ=             15.5953
 Octapole moment (field-independent basis, Debye-Ang**2):
  XXX=          -3204.8620  YYY=          -1395.4008  ZZZ=          -1585.7567  XYY=           -771.4103
  XXY=          -1146.9227  XXZ=          -1337.3572  XZZ=           -709.2432  YZZ=           -314.1204
  YYZ=           -525.9693  XYZ=           -177.5343
 Hexadecapole moment (field-independent basis, Debye-Ang**3):
 XXXX=         -65001.3179 YYYY=         -27369.8705 ZZZZ=         -40835.6137 XXXY=         -30144.8375
 XXXZ=         -36377.3479 YYYX=         -18654.1230 YYYZ=         -17432.7736 ZZZX=         -21333.4262
 ZZZY=         -15457.3709 XXYY=         -17996.5886 XXZZ=         -21115.6157 YYZZ=         -11679.5229
 XXYZ=         -13078.8481 YYXZ=          -9631.7343 ZZXY=          -7370.5858
 N-N= 6.811919939021D+02 E-N=-3.416682797460D+03  KE= 8.675590976401D+02
 No NMR shielding tensors so no spin-rotation constants.
 Leave Link  601 at Fri Feb 17 21:07:01 2023, MaxMem=  6710886400 cpu:               2.4 elap:               0.1
 (Enter /data0/home/software/g16/l122.exe)
 CPIOFr:  IOpCl= 0 IRwI=-1 IRwCP=  731 ICalc= -1 LCPTot=      158204 Len1MO=      416108 IndFrg=      158204
 CPIOFr:  IOpCl= 0 IRwI=-1 IRwCP=  731 ICalc=  0 LCPTot=      158204 Len1MO=      416108 IndFrg=      574312
 Counterpoise: doing calculation for fragment   1 using the basis set of the full-system, NewBq=T
 Leave Link  122 at Fri Feb 17 21:07:01 2023, MaxMem=  6710886400 cpu:               0.2 elap:               0.0
 (Enter /data0/home/software/g16/l301.exe)
 Basis read from rwf:  (5D, 7F)
 No pseudopotential information found on rwf file.
   320 basis functions,   490 primitive gaussians,   340 cartesian basis functions
    18 alpha electrons       18 beta electrons
       nuclear repulsion energy       160.9675367572 Hartrees.
 IExCor= 4336 DFT=T Ex+Corr=M062X ExCW=0 ScaHFX=  0.540000
 ScaDFX=  1.000000  1.000000  1.000000  1.000000 ScalE2=  1.000000  1.000000
 IRadAn=      5 IRanWt=     -1 IRanGd=            0 ICorTp=0 IEmpDi=131
 NAtoms=   17 NActive=   17 NUniq=   17 SFac= 1.00D+00 NAtFMM=   60 NAOKFM=F Big=F
 Integral buffers will be    131072 words long.
 Raffenetti 2 integral format.
 Two-electron integral symmetry is turned off.
 R6Disp:  Grimme-D3 Dispersion energy=       -0.0000417885 Hartrees.
 Nuclear repulsion after empirical dispersion term =      160.9674949687 Hartrees.
 No density basis found on file   718.
 Leave Link  301 at Fri Feb 17 21:07:01 2023, MaxMem=  6710886400 cpu:               1.3 elap:               0.1
 (Enter /data0/home/software/g16/l302.exe)
 NPDir=0 NMtPBC=     1 NCelOv=     1 NCel=       1 NClECP=     1 NCelD=      1
         NCelK=      1 NCelE2=     1 NClLst=     1 CellRange=     0.0.
 One-electron integrals computed using PRISM.
 NBasis=   320 RedAO= T EigKep=  3.70D-05  NBF=   320
 NBsUse=   320 1.00D-06 EigRej= -1.00D+00 NBFU=   320
 Precomputing XC quadrature grid using
 IXCGrd= 4 IRadAn=           5 IRanWt=          -1 IRanGd=           0 AccXCQ= 0.00D+00.
 Generated NRdTot=       0 NPtTot=           0 NUsed=           0 NTot=          32
 NSgBfM=   340   340   340   340   340 MxSgAt=    17 MxSgA2=    17.
 Leave Link  302 at Fri Feb 17 21:07:01 2023, MaxMem=  6710886400 cpu:               5.1 elap:               0.2
 (Enter /data0/home/software/g16/l303.exe)
 DipDrv:  MaxL=1.
 Leave Link  303 at Fri Feb 17 21:07:02 2023, MaxMem=  6710886400 cpu:               0.7 elap:               0.0
 (Enter /data0/home/software/g16/l401.exe)
 ExpMin= 3.48D-02 ExpMax= 7.75D+04 ExpMxC= 2.65D+03 IAcc=3 IRadAn=         5 AccDes= 0.00D+00
 Harris functional with IExCor= 1009 and IRadAn=       5 diagonalized for initial guess.
 HarFok:  IExCor= 1009 AccDes= 0.00D+00 IRadAn=         5 IDoV= 1 UseB2=F ITyADJ=14
 ICtDFT=  3500011 ScaDFX=  1.000000  1.000000  1.000000  1.000000
 FoFCou: FMM=F IPFlag=           0 FMFlag=      100000 FMFlg1=           0
         NFxFlg=           0 DoJE=T BraDBF=F KetDBF=T FulRan=T
         wScrn=  0.000000 ICntrl=       500 IOpCl=  0 I1Cent=   200000004 NGrid=           0
         NMat0=    1 NMatS0=      1 NMatT0=    0 NMatD0=    1 NMtDS0=    0 NMtDT0=    0
 Symmetry not used in FoFCou.
 Harris En= -226.054028120306    
 JPrj=0 DoOrth=F DoCkMO=F.
 Leave Link  401 at Fri Feb 17 21:07:02 2023, MaxMem=  6710886400 cpu:              16.9 elap:               0.7
 (Enter /data0/home/software/g16/l502.exe)
 Two-electron integral symmetry not used.
 Closed shell SCF:
 Using DIIS extrapolation, IDIIS=  1040.
 NGot=  6710886400 LenX=  6710644641 LenY=  6710528600
 Requested convergence on RMS density matrix=1.00D-08 within 128 cycles.
 Requested convergence on MAX density matrix=1.00D-06.
 Requested convergence on             energy=1.00D-06.
 No special actions if energy rises.
 Fock matrices will be formed incrementally for  20 cycles.

 Cycle   1  Pass 1  IDiag  1:
 FoFJK:  IHMeth= 1 ICntrl=       0 DoSepK=F KAlg= 0 I1Cent=           0 FoldK=F
 IRaf= 920000000 NMat=       1 IRICut=       1 DoRegI=T DoRafI=F ISym2E= 0 IDoP0=0 IntGTp=1.
 FoFCou: FMM=F IPFlag=           0 FMFlag=      100000 FMFlg1=           0
         NFxFlg=           0 DoJE=F BraDBF=F KetDBF=F FulRan=T
         wScrn=  0.000000 ICntrl=         0 IOpCl=  0 I1Cent=           0 NGrid=           0
         NMat0=    1 NMatS0=      1 NMatT0=    0 NMatD0=    1 NMtDS0=    0 NMtDT0=    0
 Symmetry not used in FoFCou.
 E= -226.086910453067    
 DIIS: error= 1.59D-02 at cycle   1 NSaved=   1.
 NSaved= 1 IEnMin= 1 EnMin= -226.086910453067     IErMin= 1 ErrMin= 1.59D-02
 ErrMax= 1.59D-02  0.00D+00 EMaxC= 1.00D-01 BMatC= 1.33D-01 BMatP= 1.33D-01
 IDIUse=3 WtCom= 8.41D-01 WtEn= 1.59D-01
 Coeff-Com:  0.100D+01
 Coeff-En:   0.100D+01
 Coeff:      0.100D+01
 Gap=     0.309 Goal=   None    Shift=    0.000
 GapD=    0.309 DampG=1.000 DampE=0.500 DampFc=0.5000 IDamp=-1.
 Damping current iteration by 5.00D-01
 RMSDP=2.88D-03 MaxDP=1.94D-01              OVMax= 1.75D-01

 Cycle   2  Pass 1  IDiag  1:
 RMSU=  1.44D-03    CP:  1.00D+00
 E= -226.134260971351     Delta-E=       -0.047350518285 Rises=F Damp=T
 DIIS: error= 5.88D-03 at cycle   2 NSaved=   2.
 NSaved= 2 IEnMin= 2 EnMin= -226.134260971351     IErMin= 2 ErrMin= 5.88D-03
 ErrMax= 5.88D-03  0.00D+00 EMaxC= 1.00D-01 BMatC= 1.57D-02 BMatP= 1.33D-01
 IDIUse=3 WtCom= 9.41D-01 WtEn= 5.88D-02
 Coeff-Com: -0.939D-01 0.109D+01
 Coeff-En:   0.000D+00 0.100D+01
 Coeff:     -0.883D-01 0.109D+01
 Gap=     0.288 Goal=   None    Shift=    0.000
 RMSDP=8.58D-04 MaxDP=7.20D-02 DE=-4.74D-02 OVMax= 1.16D-01

 Cycle   3  Pass 1  IDiag  1:
 RMSU=  6.90D-04    CP:  9.84D-01  6.58D-01
 E= -226.179245644492     Delta-E=       -0.044984673140 Rises=F Damp=F
 DIIS: error= 6.80D-03 at cycle   3 NSaved=   3.
 NSaved= 3 IEnMin= 3 EnMin= -226.179245644492     IErMin= 2 ErrMin= 5.88D-03
 ErrMax= 6.80D-03  0.00D+00 EMaxC= 1.00D-01 BMatC= 1.04D-02 BMatP= 1.57D-02
 IDIUse=3 WtCom= 9.32D-01 WtEn= 6.80D-02
 Coeff-Com: -0.152D+00 0.541D+00 0.611D+00
 Coeff-En:   0.000D+00 0.000D+00 0.100D+01
 Coeff:     -0.142D+00 0.504D+00 0.637D+00
 Gap=     0.290 Goal=   None    Shift=    0.000
 RMSDP=3.05D-04 MaxDP=1.42D-02 DE=-4.50D-02 OVMax= 4.37D-02

 Cycle   4  Pass 1  IDiag  1:
 RMSU=  2.45D-04    CP:  9.85D-01  7.73D-01  8.95D-01
 E= -226.187012879398     Delta-E=       -0.007767234906 Rises=F Damp=F
 DIIS: error= 1.98D-03 at cycle   4 NSaved=   4.
 NSaved= 4 IEnMin= 4 EnMin= -226.187012879398     IErMin= 4 ErrMin= 1.98D-03
 ErrMax= 1.98D-03  0.00D+00 EMaxC= 1.00D-01 BMatC= 1.51D-03 BMatP= 1.04D-02
 IDIUse=3 WtCom= 9.80D-01 WtEn= 1.98D-02
 Coeff-Com: -0.641D-01 0.159D+00 0.341D+00 0.564D+00
 Coeff-En:   0.000D+00 0.000D+00 0.914D-01 0.909D+00
 Coeff:     -0.629D-01 0.156D+00 0.336D+00 0.571D+00
 Gap=     0.284 Goal=   None    Shift=    0.000
 RMSDP=1.24D-04 MaxDP=4.24D-03 DE=-7.77D-03 OVMax= 1.08D-02

 Cycle   5  Pass 1  IDiag  1:
 RMSU=  7.54D-05    CP:  9.83D-01  7.36D-01  9.36D-01  6.92D-01
 E= -226.188297354665     Delta-E=       -0.001284475267 Rises=F Damp=F
 DIIS: error= 3.21D-04 at cycle   5 NSaved=   5.
 NSaved= 5 IEnMin= 5 EnMin= -226.188297354665     IErMin= 5 ErrMin= 3.21D-04
 ErrMax= 3.21D-04  0.00D+00 EMaxC= 1.00D-01 BMatC= 2.60D-05 BMatP= 1.51D-03
 IDIUse=3 WtCom= 9.97D-01 WtEn= 3.21D-03
 Coeff-Com: -0.152D-01 0.302D-01 0.842D-01 0.196D+00 0.705D+00
 Coeff-En:   0.000D+00 0.000D+00 0.000D+00 0.000D+00 0.100D+01
 Coeff:     -0.152D-01 0.301D-01 0.839D-01 0.196D+00 0.705D+00
 Gap=     0.284 Goal=   None    Shift=    0.000
 RMSDP=1.84D-05 MaxDP=8.32D-04 DE=-1.28D-03 OVMax= 2.24D-03

 Cycle   6  Pass 1  IDiag  1:
 RMSU=  1.58D-05    CP:  9.83D-01  7.33D-01  9.43D-01  7.10D-01  9.35D-01
 E= -226.188317723759     Delta-E=       -0.000020369094 Rises=F Damp=F
 DIIS: error= 1.47D-04 at cycle   6 NSaved=   6.
 NSaved= 6 IEnMin= 6 EnMin= -226.188317723759     IErMin= 6 ErrMin= 1.47D-04
 ErrMax= 1.47D-04  0.00D+00 EMaxC= 1.00D-01 BMatC= 4.42D-06 BMatP= 2.60D-05
 IDIUse=3 WtCom= 9.99D-01 WtEn= 1.47D-03
 Coeff-Com: -0.399D-02 0.596D-02 0.232D-01 0.634D-01 0.352D+00 0.560D+00
 Coeff-En:   0.000D+00 0.000D+00 0.000D+00 0.000D+00 0.235D-01 0.976D+00
 Coeff:     -0.398D-02 0.595D-02 0.231D-01 0.633D-01 0.351D+00 0.560D+00
 Gap=     0.284 Goal=   None    Shift=    0.000
 RMSDP=8.90D-06 MaxDP=4.69D-04 DE=-2.04D-05 OVMax= 9.52D-04

 Cycle   7  Pass 1  IDiag  1:
 RMSU=  5.35D-06    CP:  9.82D-01  7.29D-01  9.46D-01  7.09D-01  9.84D-01
                    CP:  9.67D-01
 E= -226.188321845419     Delta-E=       -0.000004121660 Rises=F Damp=F
 DIIS: error= 2.09D-05 at cycle   7 NSaved=   7.
 NSaved= 7 IEnMin= 7 EnMin= -226.188321845419     IErMin= 7 ErrMin= 2.09D-05
 ErrMax= 2.09D-05  0.00D+00 EMaxC= 1.00D-01 BMatC= 1.55D-07 BMatP= 4.42D-06
 IDIUse=1 WtCom= 1.00D+00 WtEn= 0.00D+00
 Coeff-Com:  0.189D-02-0.400D-02-0.856D-02-0.219D-01-0.531D-01 0.816D-01
 Coeff-Com:  0.100D+01
 Coeff:      0.189D-02-0.400D-02-0.856D-02-0.219D-01-0.531D-01 0.816D-01
 Coeff:      0.100D+01
 Gap=     0.284 Goal=   None    Shift=    0.000
 RMSDP=5.51D-06 MaxDP=2.54D-04 DE=-4.12D-06 OVMax= 2.32D-04

 Cycle   8  Pass 1  IDiag  1:
 RMSU=  1.32D-06    CP:  9.82D-01  7.26D-01  9.48D-01  7.07D-01  1.01D+00
                    CP:  1.12D+00  1.17D+00
 E= -226.188322070703     Delta-E=       -0.000000225284 Rises=F Damp=F
 DIIS: error= 8.44D-06 at cycle   8 NSaved=   8.
 NSaved= 8 IEnMin= 8 EnMin= -226.188322070703     IErMin= 8 ErrMin= 8.44D-06
 ErrMax= 8.44D-06  0.00D+00 EMaxC= 1.00D-01 BMatC= 1.30D-08 BMatP= 1.55D-07
 IDIUse=1 WtCom= 1.00D+00 WtEn= 0.00D+00
 Coeff-Com:  0.721D-03-0.147D-02-0.309D-02-0.883D-02-0.250D-01 0.129D-01
 Coeff-Com:  0.338D+00 0.687D+00
 Coeff:      0.721D-03-0.147D-02-0.309D-02-0.883D-02-0.250D-01 0.129D-01
 Coeff:      0.338D+00 0.687D+00
 Gap=     0.284 Goal=   None    Shift=    0.000
 RMSDP=5.71D-07 MaxDP=2.58D-05 DE=-2.25D-07 OVMax= 5.37D-05

 Cycle   9  Pass 1  IDiag  1:
 RMSU=  3.33D-07    CP:  9.82D-01  7.26D-01  9.48D-01  7.06D-01  1.01D+00
                    CP:  1.12D+00  1.20D+00  1.09D+00
 E= -226.188322082802     Delta-E=       -0.000000012100 Rises=F Damp=F
 DIIS: error= 3.13D-06 at cycle   9 NSaved=   9.
 NSaved= 9 IEnMin= 9 EnMin= -226.188322082802     IErMin= 9 ErrMin= 3.13D-06
 ErrMax= 3.13D-06  0.00D+00 EMaxC= 1.00D-01 BMatC= 3.07D-09 BMatP= 1.30D-08
 IDIUse=1 WtCom= 1.00D+00 WtEn= 0.00D+00
 Coeff-Com: -0.110D-03 0.243D-03 0.716D-03 0.105D-02 0.121D-02-0.136D-01
 Coeff-Com: -0.855D-01 0.308D+00 0.788D+00
 Coeff:     -0.110D-03 0.243D-03 0.716D-03 0.105D-02 0.121D-02-0.136D-01
 Coeff:     -0.855D-01 0.308D+00 0.788D+00
 Gap=     0.284 Goal=   None    Shift=    0.000
 RMSDP=2.64D-07 MaxDP=1.07D-05 DE=-1.21D-08 OVMax= 2.03D-05

 Cycle  10  Pass 1  IDiag  1:
 RMSU=  1.25D-07    CP:  9.82D-01  7.26D-01  9.48D-01  7.05D-01  1.01D+00
                    CP:  1.13D+00  1.21D+00  1.22D+00  1.03D+00
 E= -226.188322085886     Delta-E=       -0.000000003084 Rises=F Damp=F
 DIIS: error= 5.24D-07 at cycle  10 NSaved=  10.
 NSaved=10 IEnMin=10 EnMin= -226.188322085886     IErMin=10 ErrMin= 5.24D-07
 ErrMax= 5.24D-07  0.00D+00 EMaxC= 1.00D-01 BMatC= 6.40D-11 BMatP= 3.07D-09
 IDIUse=1 WtCom= 1.00D+00 WtEn= 0.00D+00
 Coeff-Com: -0.465D-04 0.100D-03 0.271D-03 0.522D-03 0.131D-02-0.182D-02
 Coeff-Com: -0.285D-01 0.141D-01 0.907D-01 0.923D+00
 Coeff:     -0.465D-04 0.100D-03 0.271D-03 0.522D-03 0.131D-02-0.182D-02
 Coeff:     -0.285D-01 0.141D-01 0.907D-01 0.923D+00
 Gap=     0.284 Goal=   None    Shift=    0.000
 RMSDP=4.43D-08 MaxDP=2.04D-06 DE=-3.08D-09 OVMax= 4.54D-06

 Cycle  11  Pass 1  IDiag  1:
 RMSU=  2.42D-08    CP:  9.82D-01  7.26D-01  9.48D-01  7.05D-01  1.01D+00
                    CP:  1.13D+00  1.22D+00  1.23D+00  1.08D+00  1.11D+00
 E= -226.188322085945     Delta-E=       -0.000000000059 Rises=F Damp=F
 DIIS: error= 2.48D-07 at cycle  11 NSaved=  11.
 NSaved=11 IEnMin=11 EnMin= -226.188322085945     IErMin=11 ErrMin= 2.48D-07
 ErrMax= 2.48D-07  0.00D+00 EMaxC= 1.00D-01 BMatC= 1.54D-11 BMatP= 6.40D-11
 IDIUse=1 WtCom= 1.00D+00 WtEn= 0.00D+00
 Coeff-Com: -0.661D-05 0.139D-04 0.455D-04 0.887D-04 0.331D-03 0.421D-03
 Coeff-Com: -0.431D-02-0.170D-01-0.310D-01 0.395D+00 0.657D+00
 Coeff:     -0.661D-05 0.139D-04 0.455D-04 0.887D-04 0.331D-03 0.421D-03
 Coeff:     -0.431D-02-0.170D-01-0.310D-01 0.395D+00 0.657D+00
 Gap=     0.284 Goal=   None    Shift=    0.000
 RMSDP=1.35D-08 MaxDP=6.87D-07 DE=-5.88D-11 OVMax= 1.86D-06

 Cycle  12  Pass 1  IDiag  1:
 RMSU=  1.11D-08    CP:  9.82D-01  7.26D-01  9.48D-01  7.05D-01  1.01D+00
                    CP:  1.13D+00  1.21D+00  1.23D+00  1.08D+00  1.14D+00
                    CP:  9.02D-01
 E= -226.188322085964     Delta-E=       -0.000000000019 Rises=F Damp=F
 DIIS: error= 1.23D-07 at cycle  12 NSaved=  12.
 NSaved=12 IEnMin=12 EnMin= -226.188322085964     IErMin=12 ErrMin= 1.23D-07
 ErrMax= 1.23D-07  0.00D+00 EMaxC= 1.00D-01 BMatC= 1.76D-12 BMatP= 1.54D-11
 IDIUse=1 WtCom= 1.00D+00 WtEn= 0.00D+00
 Coeff-Com:  0.351D-05-0.753D-05-0.148D-04-0.306D-04-0.245D-04 0.432D-03
 Coeff-Com:  0.198D-02-0.689D-02-0.257D-01 0.328D-02 0.261D+00 0.766D+00
 Coeff:      0.351D-05-0.753D-05-0.148D-04-0.306D-04-0.245D-04 0.432D-03
 Coeff:      0.198D-02-0.689D-02-0.257D-01 0.328D-02 0.261D+00 0.766D+00
 Gap=     0.284 Goal=   None    Shift=    0.000
 RMSDP=4.88D-09 MaxDP=2.11D-07 DE=-1.92D-11 OVMax= 4.02D-07

 SCF Done:  E(RM062X) =  -226.188322086     A.U. after   12 cycles
            NFock= 12  Conv=0.49D-08     -V/T= 2.0053
 KE= 2.249958718579D+02 PE=-8.483779767548D+02 EE= 2.362262878422D+02
 Leave Link  502 at Fri Feb 17 21:07:25 2023, MaxMem=  6710886400 cpu:             540.5 elap:              22.6
 (Enter /data0/home/software/g16/l601.exe)
 Copying SCF densities to generalized density rwf, IOpCl= 0 IROHF=0.

 **********************************************************************

            Population analysis using the SCF density.

 **********************************************************************

 Alpha  occ. eigenvalues --  -14.81551 -14.73559 -10.60429 -10.57693 -10.55852
 Alpha  occ. eigenvalues --   -1.11729  -0.96848  -0.83707  -0.70010  -0.67020
 Alpha  occ. eigenvalues --   -0.64219  -0.51454  -0.50714  -0.49946  -0.47980
 Alpha  occ. eigenvalues --   -0.34496  -0.34126  -0.28491
 Alpha virt. eigenvalues --   -0.00080   0.02216   0.02396   0.03342   0.04496
 Alpha virt. eigenvalues --    0.05016   0.05538   0.06006   0.06330   0.06857
 Alpha virt. eigenvalues --    0.07980   0.08513   0.10264   0.11323   0.11734
 Alpha virt. eigenvalues --    0.13248   0.13574   0.14760   0.15593   0.15738
 Alpha virt. eigenvalues --    0.17979   0.18569   0.19512   0.20276   0.21317
 Alpha virt. eigenvalues --    0.21616   0.21805   0.22538   0.22737   0.23573
 Alpha virt. eigenvalues --    0.23806   0.24750   0.25569   0.26375   0.26728
 Alpha virt. eigenvalues --    0.27458   0.28550   0.29187   0.29262   0.30676
 Alpha virt. eigenvalues --    0.31070   0.32043   0.33306   0.33682   0.33827
 Alpha virt. eigenvalues --    0.35557   0.36610   0.37100   0.37956   0.39790
 Alpha virt. eigenvalues --    0.40074   0.41048   0.41631   0.43092   0.43737
 Alpha virt. eigenvalues --    0.45903   0.47865   0.49743   0.51509   0.55757
 Alpha virt. eigenvalues --    0.58512   0.60569   0.61940   0.64169   0.64983
 Alpha virt. eigenvalues --    0.65756   0.66707   0.67522   0.69519   0.71285
 Alpha virt. eigenvalues --    0.72129   0.72958   0.73598   0.75011   0.75904
 Alpha virt. eigenvalues --    0.76632   0.78045   0.78742   0.78971   0.80126
 Alpha virt. eigenvalues --    0.80893   0.81043   0.81665   0.82689   0.83962
 Alpha virt. eigenvalues --    0.85973   0.89079   0.90188   0.90989   0.91343
 Alpha virt. eigenvalues --    0.93321   0.94402   0.95647   0.96527   0.98486
 Alpha virt. eigenvalues --    0.98996   1.00591   1.01703   1.03164   1.06435
 Alpha virt. eigenvalues --    1.08177   1.09287   1.10535   1.11937   1.13536
 Alpha virt. eigenvalues --    1.15775   1.18904   1.19583   1.21066   1.24095
 Alpha virt. eigenvalues --    1.26977   1.28993   1.29462   1.31504   1.34114
 Alpha virt. eigenvalues --    1.36387   1.37029   1.38680   1.41257   1.42542
 Alpha virt. eigenvalues --    1.43410   1.45654   1.46436   1.48490   1.49347
 Alpha virt. eigenvalues --    1.50951   1.56855   1.62873   1.68575   1.69718
 Alpha virt. eigenvalues --    1.73840   1.76321   1.79809   1.82860   1.89328
 Alpha virt. eigenvalues --    1.91104   1.94943   1.96429   2.00265   2.01196
 Alpha virt. eigenvalues --    2.02587   2.03397   2.05215   2.13832   2.15755
 Alpha virt. eigenvalues --    2.17799   2.22568   2.23858   2.27804   2.31259
 Alpha virt. eigenvalues --    2.33085   2.37354   2.38868   2.42372   2.43656
 Alpha virt. eigenvalues --    2.44971   2.45859   2.48302   2.48937   2.50701
 Alpha virt. eigenvalues --    2.55357   2.56778   2.62353   2.63105   2.65191
 Alpha virt. eigenvalues --    2.65812   2.67568   2.68808   2.71685   2.75215
 Alpha virt. eigenvalues --    2.75605   2.78192   2.79183   2.80645   2.83597
 Alpha virt. eigenvalues --    2.85186   2.86240   2.88868   2.89842   2.90948
 Alpha virt. eigenvalues --    2.93085   2.96552   2.97025   2.98034   2.98397
 Alpha virt. eigenvalues --    2.99254   3.02397   3.04479   3.06492   3.09756
 Alpha virt. eigenvalues --    3.11775   3.13801   3.19171   3.20561   3.22228
 Alpha virt. eigenvalues --    3.23675   3.25491   3.29235   3.32906   3.33392
 Alpha virt. eigenvalues --    3.34499   3.37961   3.38857   3.41536   3.42821
 Alpha virt. eigenvalues --    3.43365   3.44887   3.47669   3.48934   3.55053
 Alpha virt. eigenvalues --    3.58138   3.60758   3.62877   3.64894   3.66509
 Alpha virt. eigenvalues --    3.71100   3.72597   3.75520   3.81047   3.97216
 Alpha virt. eigenvalues --    3.98659   3.99343   4.00157   4.09146   4.41741
 Alpha virt. eigenvalues --    4.44410   4.48649   4.49120   4.54650   4.61852
 Alpha virt. eigenvalues --    4.63039   4.70111   4.87904   4.92253   4.94283
 Alpha virt. eigenvalues --    4.95929   4.97564   4.99387   5.02708   5.05068
 Alpha virt. eigenvalues --    5.06445   5.11808   5.24281   5.25579   5.33810
 Alpha virt. eigenvalues --    5.42182   5.53308   5.60273   9.66792   9.69183
 Alpha virt. eigenvalues --    9.79450   9.83329   9.97235  10.01038  10.05036
 Alpha virt. eigenvalues --   10.08924  10.13423  10.19205  10.21040  10.21995
 Alpha virt. eigenvalues --   10.27679  10.30566  10.35368  10.40017  10.42473
 Alpha virt. eigenvalues --   10.46710  10.52826  10.60468  10.62683  10.66220
 Alpha virt. eigenvalues --   10.87606  12.70509  12.82369  12.99850  13.06263
 Alpha virt. eigenvalues --   13.17984  13.24357  13.35450  13.45737  13.52293
 Alpha virt. eigenvalues --   13.60311  13.69934  13.95356  14.19435  17.49835
 Alpha virt. eigenvalues --   17.99751  18.18388  18.55790  23.91616  24.09998
 Alpha virt. eigenvalues --   24.13711  35.65844  35.70735  52.82185  52.87136
 Alpha virt. eigenvalues --   52.96103  70.60269 132.69243 136.82922 138.69536
 Alpha virt. eigenvalues --  139.78558 481.66768
          Condensed to atoms (all electrons):
               1          2          3          4          5          6
     1  C    5.400411   0.335956  -0.279717   0.418053  -0.043489   0.386650
     2  C    0.335956   5.278662  -0.102962  -0.226362   0.022108  -0.000052
     3  C   -0.279717  -0.102962   5.259688   0.360438  -0.017762   0.007406
     4  N    0.418053  -0.226362   0.360438   6.372641   0.374647  -0.034449
     5  H   -0.043489   0.022108  -0.017762   0.374647   0.398601  -0.002199
     6  H    0.386650  -0.000052   0.007406  -0.034449  -0.002199   0.503522
     7  H   -0.064537   0.437327   0.017837   0.006907  -0.000015  -0.000034
     8  H    0.002597   0.018336   0.433944  -0.057818   0.000055  -0.000030
     9  N   -0.020929   0.309756   0.446389  -0.000527   0.001767   0.002486
    10  P   -0.002734   0.001129  -0.019671  -0.011977  -0.000007   0.000102
    11  O   -0.002479   0.000540   0.010430   0.002120   0.000229  -0.000028
    12  O    0.000422  -0.006443   0.006022   0.005426   0.000043  -0.000020
    13  H    0.000506   0.003113  -0.002647  -0.000557  -0.000002   0.000001
    14  O    0.000180   0.002287  -0.002775  -0.003315  -0.000027   0.000003
    15  H   -0.000030  -0.000039   0.000018   0.000032  -0.000000   0.000000
    16  O    0.008265   0.018483  -0.010275  -0.018694  -0.000347  -0.000452
    17  H   -0.025787  -0.020474   0.012662   0.009870   0.000051   0.000351
               7          8          9         10         11         12
     1  C   -0.064537   0.002597  -0.020929  -0.002734  -0.002479   0.000422
     2  C    0.437327   0.018336   0.309756   0.001129   0.000540  -0.006443
     3  C    0.017837   0.433944   0.446389  -0.019671   0.010430   0.006022
     4  N    0.006907  -0.057818  -0.000527  -0.011977   0.002120   0.005426
     5  H   -0.000015   0.000055   0.001767  -0.000007   0.000229   0.000043
     6  H   -0.000034  -0.000030   0.002486   0.000102  -0.000028  -0.000020
     7  H    0.526662   0.000018  -0.051900  -0.000415   0.000045   0.000029
     8  H    0.000018   0.498399  -0.048160  -0.000248  -0.001043  -0.000030
     9  N   -0.051900  -0.048160   6.587669  -0.010427   0.004864   0.000374
    10  P   -0.000415  -0.000248  -0.010427   0.032359  -0.004607  -0.001598
    11  O    0.000045  -0.001043   0.004864  -0.004607   0.004714   0.000673
    12  O    0.000029  -0.000030   0.000374  -0.001598   0.000673   0.010868
    13  H    0.000024   0.000092   0.001030  -0.000119   0.000125  -0.000859
    14  O   -0.000011   0.000014  -0.000228  -0.022356  -0.000206  -0.007963
    15  H    0.000000   0.000000   0.000004   0.000704  -0.000061   0.000178
    16  O    0.000065   0.000189   0.001651  -0.003392   0.000151  -0.003322
    17  H   -0.000009  -0.000022   0.002203   0.000842   0.000328   0.001532
              13         14         15         16         17
     1  C    0.000506   0.000180  -0.000030   0.008265  -0.025787
     2  C    0.003113   0.002287  -0.000039   0.018483  -0.020474
     3  C   -0.002647  -0.002775   0.000018  -0.010275   0.012662
     4  N   -0.000557  -0.003315   0.000032  -0.018694   0.009870
     5  H   -0.000002  -0.000027  -0.000000  -0.000347   0.000051
     6  H    0.000001   0.000003   0.000000  -0.000452   0.000351
     7  H    0.000024  -0.000011   0.000000   0.000065  -0.000009
     8  H    0.000092   0.000014   0.000000   0.000189  -0.000022
     9  N    0.001030  -0.000228   0.000004   0.001651   0.002203
    10  P   -0.000119  -0.022356   0.000704  -0.003392   0.000842
    11  O    0.000125  -0.000206  -0.000061   0.000151   0.000328
    12  O   -0.000859  -0.007963   0.000178  -0.003322   0.001532
    13  H    0.000701   0.000258  -0.000007   0.000553  -0.000279
    14  O    0.000258   0.028234  -0.000848   0.004789  -0.001745
    15  H   -0.000007  -0.000848   0.000081  -0.000084   0.000053
    16  O    0.000553   0.004789  -0.000084   0.010086  -0.006578
    17  H   -0.000279  -0.001745   0.000053  -0.006578   0.007599
 Mulliken charges:
               1
     1  C   -0.113339
     2  C   -0.071366
     3  C   -0.119024
     4  N   -0.196434
     5  H    0.266349
     6  H    0.136742
     7  H    0.128006
     8  H    0.153706
     9  N   -0.226021
    10  P    0.042416
    11  O   -0.015795
    12  O   -0.005333
    13  H   -0.001932
    14  O    0.003708
    15  H   -0.000002
    16  O   -0.001087
    17  H    0.019404
 Sum of Mulliken charges =  -0.00000
 Mulliken charges with hydrogens summed into heavy atoms:
               1
     1  C    0.023403
     2  C    0.056641
     3  C    0.034682
     4  N    0.069915
     9  N   -0.226021
    10  P    0.042416
    11  O   -0.015795
    12  O   -0.007265
    14  O    0.003706
    16  O    0.018317
         Mulliken charges condensed to fragments:
      1     -0.041380
      2      0.041380
 Electronic spatial extent (au):  <R**2>=          36518.2983
 Charge=             -0.0000 electrons
 Dipole moment (field-independent basis, Debye):
    X=              0.5737    Y=              3.6918    Z=             -0.0494  Tot=              3.7365
 Quadrupole moment (field-independent basis, Debye-Ang):
   XX=            -15.3374   YY=             40.6126   ZZ=            -31.0879
   XY=             42.7805   XZ=              1.2562   YZ=             36.1905
 Traceless Quadrupole moment (field-independent basis, Debye-Ang):
   XX=            -13.3998   YY=             42.5502   ZZ=            -29.1503
   XY=             42.7805   XZ=              1.2562   YZ=             36.1905
 Octapole moment (field-independent basis, Debye-Ang**2):
  XXX=           -584.6487  YYY=            190.0617  ZZZ=           -941.1750  XYY=            481.0279
  XXY=            234.8506  XXZ=           -241.0613  XZZ=           -317.5217  YZZ=             72.6109
  YYZ=            391.7771  XYZ=            383.6128
 Hexadecapole moment (field-independent basis, Debye-Ang**3):
 XXXX=         -12076.4742 YYYY=          -2292.0759 ZZZZ=         -19292.4572 XXXY=          -1650.3284
 XXXZ=          -7149.2515 YYYX=           2933.9100 YYYZ=           1645.6628 ZZZX=          -9516.3240
 ZZZY=          -5207.7888 XXYY=           3145.8651 XXZZ=          -6023.4007 YYZZ=           1088.1591
 XXYZ=           1508.3810 YYXZ=           4332.7360 ZZXY=            720.9291
 N-N= 1.609674949687D+02 E-N=-8.483779804124D+02  KE= 2.249958718579D+02
 No NMR shielding tensors so no spin-rotation constants.
 Leave Link  601 at Fri Feb 17 21:07:25 2023, MaxMem=  6710886400 cpu:               2.4 elap:               0.1
 (Enter /data0/home/software/g16/l122.exe)
 CPIOFr:  IOpCl= 0 IRwI=-1 IRwCP=  731 ICalc=  1 LCPTot=      158204 Len1MO=      416108 IndFrg=      990420
 Counterpoise: doing calculation for fragment   2 using the basis set of the full-system, NewBq=T
 Leave Link  122 at Fri Feb 17 21:07:25 2023, MaxMem=  6710886400 cpu:               0.1 elap:               0.0
 (Enter /data0/home/software/g16/l301.exe)
 Basis read from rwf:  (5D, 7F)
 No pseudopotential information found on rwf file.
   320 basis functions,   490 primitive gaussians,   340 cartesian basis functions
    25 alpha electrons       25 beta electrons
       nuclear repulsion energy       280.2317768445 Hartrees.
 IExCor= 4336 DFT=T Ex+Corr=M062X ExCW=0 ScaHFX=  0.540000
 ScaDFX=  1.000000  1.000000  1.000000  1.000000 ScalE2=  1.000000  1.000000
 IRadAn=      5 IRanWt=     -1 IRanGd=            0 ICorTp=0 IEmpDi=131
 NAtoms=   17 NActive=   17 NUniq=   17 SFac= 1.00D+00 NAtFMM=   60 NAOKFM=F Big=F
 Integral buffers will be    131072 words long.
 Raffenetti 2 integral format.
 Two-electron integral symmetry is turned off.
 R6Disp:  Grimme-D3 Dispersion energy=       -0.0000442898 Hartrees.
 Nuclear repulsion after empirical dispersion term =      280.2317325548 Hartrees.
 No density basis found on file   718.
 Leave Link  301 at Fri Feb 17 21:07:25 2023, MaxMem=  6710886400 cpu:               1.3 elap:               0.1
 (Enter /data0/home/software/g16/l302.exe)
 NPDir=0 NMtPBC=     1 NCelOv=     1 NCel=       1 NClECP=     1 NCelD=      1
         NCelK=      1 NCelE2=     1 NClLst=     1 CellRange=     0.0.
 One-electron integrals computed using PRISM.
 NBasis=   320 RedAO= T EigKep=  3.70D-05  NBF=   320
 NBsUse=   320 1.00D-06 EigRej= -1.00D+00 NBFU=   320
 Precomputing XC quadrature grid using
 IXCGrd= 4 IRadAn=           5 IRanWt=          -1 IRanGd=           0 AccXCQ= 0.00D+00.
 Generated NRdTot=       0 NPtTot=           0 NUsed=           0 NTot=          32
 NSgBfM=   340   340   340   340   340 MxSgAt=    17 MxSgA2=    17.
 Leave Link  302 at Fri Feb 17 21:07:25 2023, MaxMem=  6710886400 cpu:               5.0 elap:               0.2
 (Enter /data0/home/software/g16/l303.exe)
 DipDrv:  MaxL=1.
 Leave Link  303 at Fri Feb 17 21:07:25 2023, MaxMem=  6710886400 cpu:               0.7 elap:               0.0
 (Enter /data0/home/software/g16/l401.exe)
 ExpMin= 3.48D-02 ExpMax= 7.75D+04 ExpMxC= 2.65D+03 IAcc=3 IRadAn=         5 AccDes= 0.00D+00
 Harris functional with IExCor= 1009 and IRadAn=       5 diagonalized for initial guess.
 HarFok:  IExCor= 1009 AccDes= 0.00D+00 IRadAn=         5 IDoV= 1 UseB2=F ITyADJ=14
 ICtDFT=  3500011 ScaDFX=  1.000000  1.000000  1.000000  1.000000
 FoFCou: FMM=F IPFlag=           0 FMFlag=      100000 FMFlg1=           0
         NFxFlg=           0 DoJE=T BraDBF=F KetDBF=T FulRan=T
         wScrn=  0.000000 ICntrl=       500 IOpCl=  0 I1Cent=   200000004 NGrid=           0
         NMat0=    1 NMatS0=      1 NMatT0=    0 NMatD0=    1 NMtDS0=    0 NMtDT0=    0
 Symmetry not used in FoFCou.
 Harris En= -643.944044362618    
 JPrj=0 DoOrth=F DoCkMO=F.
 Leave Link  401 at Fri Feb 17 21:07:26 2023, MaxMem=  6710886400 cpu:              17.7 elap:               0.8
 (Enter /data0/home/software/g16/l502.exe)
 Two-electron integral symmetry not used.
 Closed shell SCF:
 Using DIIS extrapolation, IDIIS=  1040.
 NGot=  6710886400 LenX=  6710644641 LenY=  6710528600
 Requested convergence on RMS density matrix=1.00D-08 within 128 cycles.
 Requested convergence on MAX density matrix=1.00D-06.
 Requested convergence on             energy=1.00D-06.
 No special actions if energy rises.
 Fock matrices will be formed incrementally for  20 cycles.

 Cycle   1  Pass 1  IDiag  1:
 FoFJK:  IHMeth= 1 ICntrl=       0 DoSepK=F KAlg= 0 I1Cent=           0 FoldK=F
 IRaf= 920000000 NMat=       1 IRICut=       1 DoRegI=T DoRafI=F ISym2E= 0 IDoP0=0 IntGTp=1.
 FoFCou: FMM=F IPFlag=           0 FMFlag=      100000 FMFlg1=           0
         NFxFlg=           0 DoJE=F BraDBF=F KetDBF=F FulRan=T
         wScrn=  0.000000 ICntrl=         0 IOpCl=  0 I1Cent=           0 NGrid=           0
         NMat0=    1 NMatS0=      1 NMatT0=    0 NMatD0=    1 NMtDS0=    0 NMtDT0=    0
 Symmetry not used in FoFCou.
 E= -643.860991492515    
 DIIS: error= 2.46D-02 at cycle   1 NSaved=   1.
 NSaved= 1 IEnMin= 1 EnMin= -643.860991492515     IErMin= 1 ErrMin= 2.46D-02
 ErrMax= 2.46D-02  0.00D+00 EMaxC= 1.00D-01 BMatC= 5.08D-01 BMatP= 5.08D-01
 IDIUse=3 WtCom= 7.54D-01 WtEn= 2.46D-01
 Coeff-Com:  0.100D+01
 Coeff-En:   0.100D+01
 Coeff:      0.100D+01
 Gap=     0.268 Goal=   None    Shift=    0.000
 GapD=    0.268 DampG=1.000 DampE=0.500 DampFc=0.5000 IDamp=-1.
 Damping current iteration by 5.00D-01
 RMSDP=4.59D-03 MaxDP=2.24D-01              OVMax= 2.60D-01

 Cycle   2  Pass 1  IDiag  1:
 RMSU=  2.29D-03    CP:  1.01D+00
 E= -643.977646277449     Delta-E=       -0.116654784934 Rises=F Damp=T
 DIIS: error= 6.34D-03 at cycle   2 NSaved=   2.
 NSaved= 2 IEnMin= 2 EnMin= -643.977646277449     IErMin= 2 ErrMin= 6.34D-03
 ErrMax= 6.34D-03  0.00D+00 EMaxC= 1.00D-01 BMatC= 2.70D-02 BMatP= 5.08D-01
 IDIUse=3 WtCom= 9.37D-01 WtEn= 6.34D-02
 Coeff-Com:  0.708D-01 0.929D+00
 Coeff-En:   0.202D+00 0.798D+00
 Coeff:      0.791D-01 0.921D+00
 Gap=     0.353 Goal=   None    Shift=    0.000
 RMSDP=1.11D-03 MaxDP=6.66D-02 DE=-1.17D-01 OVMax= 1.72D-01

 Cycle   3  Pass 1  IDiag  1:
 RMSU=  7.87D-04    CP:  9.90D-01  6.69D-01
 E= -644.142324413990     Delta-E=       -0.164678136542 Rises=F Damp=F
 DIIS: error= 4.41D-03 at cycle   3 NSaved=   3.
 NSaved= 3 IEnMin= 3 EnMin= -644.142324413990     IErMin= 3 ErrMin= 4.41D-03
 ErrMax= 4.41D-03  0.00D+00 EMaxC= 1.00D-01 BMatC= 1.06D-02 BMatP= 2.70D-02
 IDIUse=3 WtCom= 9.56D-01 WtEn= 4.41D-02
 Coeff-Com: -0.180D-01 0.345D+00 0.673D+00
 Coeff-En:   0.000D+00 0.000D+00 0.100D+01
 Coeff:     -0.172D-01 0.330D+00 0.687D+00
 Gap=     0.343 Goal=   None    Shift=    0.000
 RMSDP=3.96D-04 MaxDP=1.53D-02 DE=-1.65D-01 OVMax= 3.51D-02

 Cycle   4  Pass 1  IDiag  1:
 RMSU=  3.28D-04    CP:  9.91D-01  7.54D-01  8.67D-01
 E= -644.147354628456     Delta-E=       -0.005030214466 Rises=F Damp=F
 DIIS: error= 2.23D-03 at cycle   4 NSaved=   4.
 NSaved= 4 IEnMin= 4 EnMin= -644.147354628456     IErMin= 4 ErrMin= 2.23D-03
 ErrMax= 2.23D-03  0.00D+00 EMaxC= 1.00D-01 BMatC= 3.69D-03 BMatP= 1.06D-02
 IDIUse=3 WtCom= 9.78D-01 WtEn= 2.23D-02
 Coeff-Com: -0.233D-01 0.525D-01 0.395D+00 0.576D+00
 Coeff-En:   0.000D+00 0.000D+00 0.254D+00 0.746D+00
 Coeff:     -0.227D-01 0.514D-01 0.392D+00 0.579D+00
 Gap=     0.348 Goal=   None    Shift=    0.000
 RMSDP=1.54D-04 MaxDP=5.98D-03 DE=-5.03D-03 OVMax= 1.09D-02

 Cycle   5  Pass 1  IDiag  1:
 RMSU=  5.24D-05    CP:  9.90D-01  7.31D-01  9.58D-01  6.56D-01
 E= -644.149789094612     Delta-E=       -0.002434466155 Rises=F Damp=F
 DIIS: error= 1.39D-04 at cycle   5 NSaved=   5.
 NSaved= 5 IEnMin= 5 EnMin= -644.149789094612     IErMin= 5 ErrMin= 1.39D-04
 ErrMax= 1.39D-04  0.00D+00 EMaxC= 1.00D-01 BMatC= 1.35D-05 BMatP= 3.69D-03
 IDIUse=3 WtCom= 9.99D-01 WtEn= 1.39D-03
 Coeff-Com: -0.299D-02 0.158D-02 0.579D-01 0.117D+00 0.827D+00
 Coeff-En:   0.000D+00 0.000D+00 0.000D+00 0.000D+00 0.100D+01
 Coeff:     -0.298D-02 0.158D-02 0.578D-01 0.117D+00 0.827D+00
 Gap=     0.347 Goal=   None    Shift=    0.000
 RMSDP=1.71D-05 MaxDP=7.87D-04 DE=-2.43D-03 OVMax= 7.15D-04

 Cycle   6  Pass 1  IDiag  1:
 RMSU=  1.19D-05    CP:  9.89D-01  7.28D-01  9.61D-01  6.81D-01  1.07D+00
 E= -644.149798244302     Delta-E=       -0.000009149690 Rises=F Damp=F
 DIIS: error= 4.31D-05 at cycle   6 NSaved=   6.
 NSaved= 6 IEnMin= 6 EnMin= -644.149798244302     IErMin= 6 ErrMin= 4.31D-05
 ErrMax= 4.31D-05  0.00D+00 EMaxC= 1.00D-01 BMatC= 1.08D-06 BMatP= 1.35D-05
 IDIUse=1 WtCom= 1.00D+00 WtEn= 0.00D+00
 Coeff-Com: -0.466D-04-0.125D-02 0.164D-02 0.969D-02 0.213D+00 0.777D+00
 Coeff:     -0.466D-04-0.125D-02 0.164D-02 0.969D-02 0.213D+00 0.777D+00
 Gap=     0.347 Goal=   None    Shift=    0.000
 RMSDP=5.89D-06 MaxDP=2.22D-04 DE=-9.15D-06 OVMax= 2.19D-04

 Cycle   7  Pass 1  IDiag  1:
 RMSU=  3.35D-06    CP:  9.89D-01  7.26D-01  9.62D-01  6.83D-01  1.14D+00
                    CP:  9.06D-01
 E= -644.149799011487     Delta-E=       -0.000000767185 Rises=F Damp=F
 DIIS: error= 2.27D-05 at cycle   7 NSaved=   7.
 NSaved= 7 IEnMin= 7 EnMin= -644.149799011487     IErMin= 7 ErrMin= 2.27D-05
 ErrMax= 2.27D-05  0.00D+00 EMaxC= 1.00D-01 BMatC= 2.28D-07 BMatP= 1.08D-06
 IDIUse=1 WtCom= 1.00D+00 WtEn= 0.00D+00
 Coeff-Com:  0.403D-03-0.706D-03-0.803D-02-0.131D-01-0.224D-01 0.308D+00
 Coeff-Com:  0.735D+00
 Coeff:      0.403D-03-0.706D-03-0.803D-02-0.131D-01-0.224D-01 0.308D+00
 Coeff:      0.735D+00
 Gap=     0.347 Goal=   None    Shift=    0.000
 RMSDP=2.55D-06 MaxDP=1.74D-04 DE=-7.67D-07 OVMax= 9.28D-05

 Cycle   8  Pass 1  IDiag  1:
 RMSU=  1.71D-06    CP:  9.89D-01  7.26D-01  9.63D-01  6.85D-01  1.16D+00
                    CP:  9.62D-01  9.01D-01
 E= -644.149799161963     Delta-E=       -0.000000150476 Rises=F Damp=F
 DIIS: error= 9.26D-06 at cycle   8 NSaved=   8.
 NSaved= 8 IEnMin= 8 EnMin= -644.149799161963     IErMin= 8 ErrMin= 9.26D-06
 ErrMax= 9.26D-06  0.00D+00 EMaxC= 1.00D-01 BMatC= 3.44D-08 BMatP= 2.28D-07
 IDIUse=1 WtCom= 1.00D+00 WtEn= 0.00D+00
 Coeff-Com:  0.176D-03-0.246D-03-0.377D-02-0.623D-02-0.182D-01 0.974D-01
 Coeff-Com:  0.358D+00 0.572D+00
 Coeff:      0.176D-03-0.246D-03-0.377D-02-0.623D-02-0.182D-01 0.974D-01
 Coeff:      0.358D+00 0.572D+00
 Gap=     0.347 Goal=   None    Shift=    0.000
 RMSDP=5.64D-07 MaxDP=2.07D-05 DE=-1.50D-07 OVMax= 3.25D-05

 Cycle   9  Pass 1  IDiag  1:
 RMSU=  3.18D-07    CP:  9.89D-01  7.26D-01  9.63D-01  6.85D-01  1.16D+00
                    CP:  9.72D-01  9.81D-01  8.15D-01
 E= -644.149799186455     Delta-E=       -0.000000024493 Rises=F Damp=F
 DIIS: error= 8.81D-07 at cycle   9 NSaved=   9.
 NSaved= 9 IEnMin= 9 EnMin= -644.149799186455     IErMin= 9 ErrMin= 8.81D-07
 ErrMax= 8.81D-07  0.00D+00 EMaxC= 1.00D-01 BMatC= 7.04D-10 BMatP= 3.44D-08
 IDIUse=1 WtCom= 1.00D+00 WtEn= 0.00D+00
 Coeff-Com: -0.255D-04 0.475D-04 0.258D-03 0.541D-03-0.476D-03-0.193D-01
 Coeff-Com: -0.271D-01 0.700D-01 0.976D+00
 Coeff:     -0.255D-04 0.475D-04 0.258D-03 0.541D-03-0.476D-03-0.193D-01
 Coeff:     -0.271D-01 0.700D-01 0.976D+00
 Gap=     0.347 Goal=   None    Shift=    0.000
 RMSDP=1.98D-07 MaxDP=7.55D-06 DE=-2.45D-08 OVMax= 9.16D-06

 Cycle  10  Pass 1  IDiag  1:
 RMSU=  8.10D-08    CP:  9.89D-01  7.26D-01  9.63D-01  6.85D-01  1.16D+00
                    CP:  9.69D-01  1.01D+00  8.86D-01  1.13D+00
 E= -644.149799187300     Delta-E=       -0.000000000844 Rises=F Damp=F
 DIIS: error= 2.91D-07 at cycle  10 NSaved=  10.
 NSaved=10 IEnMin=10 EnMin= -644.149799187300     IErMin=10 ErrMin= 2.91D-07
 ErrMax= 2.91D-07  0.00D+00 EMaxC= 1.00D-01 BMatC= 1.75D-11 BMatP= 7.04D-10
 IDIUse=1 WtCom= 1.00D+00 WtEn= 0.00D+00
 Coeff-Com: -0.561D-05 0.944D-05 0.118D-03 0.198D-03 0.436D-03-0.484D-02
 Coeff-Com: -0.147D-01-0.113D-01 0.771D-01 0.953D+00
 Coeff:     -0.561D-05 0.944D-05 0.118D-03 0.198D-03 0.436D-03-0.484D-02
 Coeff:     -0.147D-01-0.113D-01 0.771D-01 0.953D+00
 Gap=     0.347 Goal=   None    Shift=    0.000
 RMSDP=4.09D-08 MaxDP=2.40D-06 DE=-8.44D-10 OVMax= 1.90D-06

 Cycle  11  Pass 1  IDiag  1:
 RMSU=  2.13D-08    CP:  9.89D-01  7.26D-01  9.63D-01  6.85D-01  1.16D+00
                    CP:  9.69D-01  1.01D+00  8.99D-01  1.18D+00  1.09D+00
 E= -644.149799187340     Delta-E=       -0.000000000040 Rises=F Damp=F
 DIIS: error= 1.14D-07 at cycle  11 NSaved=  11.
 NSaved=11 IEnMin=11 EnMin= -644.149799187340     IErMin=11 ErrMin= 1.14D-07
 ErrMax= 1.14D-07  0.00D+00 EMaxC= 1.00D-01 BMatC= 8.75D-12 BMatP= 1.75D-11
 IDIUse=1 WtCom= 1.00D+00 WtEn= 0.00D+00
 Coeff-Com: -0.550D-06 0.660D-06 0.371D-04 0.531D-04 0.245D-03-0.915D-03
 Coeff-Com: -0.488D-02-0.101D-01-0.368D-01 0.466D+00 0.586D+00
 Coeff:     -0.550D-06 0.660D-06 0.371D-04 0.531D-04 0.245D-03-0.915D-03
 Coeff:     -0.488D-02-0.101D-01-0.368D-01 0.466D+00 0.586D+00
 Gap=     0.347 Goal=   None    Shift=    0.000
 RMSDP=1.09D-08 MaxDP=4.54D-07 DE=-4.00D-11 OVMax= 5.37D-07

 Cycle  12  Pass 1  IDiag  1:
 RMSU=  7.60D-09    CP:  9.89D-01  7.26D-01  9.63D-01  6.85D-01  1.16D+00
                    CP:  9.69D-01  1.01D+00  8.99D-01  1.19D+00  1.16D+00
                    CP:  8.63D-01
 E= -644.149799187322     Delta-E=        0.000000000017 Rises=F Damp=F
 DIIS: error= 3.48D-08 at cycle  12 NSaved=  12.
 NSaved=12 IEnMin=11 EnMin= -644.149799187340     IErMin=12 ErrMin= 3.48D-08
 ErrMax= 3.48D-08  0.00D+00 EMaxC= 1.00D-01 BMatC= 5.31D-13 BMatP= 8.75D-12
 IDIUse=1 WtCom= 1.00D+00 WtEn= 0.00D+00
 Coeff-Com:  0.732D-06-0.127D-05-0.478D-05-0.112D-04 0.149D-04 0.422D-03
 Coeff-Com:  0.796D-03-0.138D-02-0.251D-01 0.101D-01 0.194D+00 0.821D+00
 Coeff:      0.732D-06-0.127D-05-0.478D-05-0.112D-04 0.149D-04 0.422D-03
 Coeff:      0.796D-03-0.138D-02-0.251D-01 0.101D-01 0.194D+00 0.821D+00
 Gap=     0.347 Goal=   None    Shift=    0.000
 RMSDP=3.43D-09 MaxDP=1.12D-07 DE= 1.73D-11 OVMax= 1.93D-07

 SCF Done:  E(RM062X) =  -644.149799187     A.U. after   12 cycles
            NFock= 12  Conv=0.34D-08     -V/T= 2.0025
 KE= 6.425491960307D+02 PE=-2.088181479525D+03 EE= 5.212507517523D+02
 Leave Link  502 at Fri Feb 17 21:07:49 2023, MaxMem=  6710886400 cpu:             548.5 elap:              23.0
 (Enter /data0/home/software/g16/l601.exe)
 Copying SCF densities to generalized density rwf, IOpCl= 0 IROHF=0.

 **********************************************************************

            Population analysis using the SCF density.

 **********************************************************************

 Alpha  occ. eigenvalues --  -78.16802 -19.69542 -19.67709 -19.67610 -19.58737
 Alpha  occ. eigenvalues --   -6.97585  -5.09501  -5.09459  -5.09284  -1.24444
 Alpha  occ. eigenvalues --   -1.17256  -1.16213  -1.09095  -0.72988  -0.65777
 Alpha  occ. eigenvalues --   -0.63821  -0.57783  -0.54032  -0.50869  -0.50201
 Alpha  occ. eigenvalues --   -0.46673  -0.45277  -0.43885  -0.38707  -0.37619
 Alpha virt. eigenvalues --   -0.02892   0.00581   0.01010   0.03405   0.04663
 Alpha virt. eigenvalues --    0.05620   0.06028   0.06896   0.07497   0.07943
 Alpha virt. eigenvalues --    0.09816   0.10567   0.11308   0.12096   0.12444
 Alpha virt. eigenvalues --    0.12966   0.14455   0.14731   0.15631   0.16162
 Alpha virt. eigenvalues --    0.16619   0.18203   0.18486   0.19313   0.19584
 Alpha virt. eigenvalues --    0.21300   0.21491   0.21879   0.23097   0.23341
 Alpha virt. eigenvalues --    0.23799   0.24787   0.25496   0.26196   0.26388
 Alpha virt. eigenvalues --    0.26722   0.28328   0.29566   0.30054   0.30159
 Alpha virt. eigenvalues --    0.30565   0.31001   0.32007   0.32725   0.34091
 Alpha virt. eigenvalues --    0.34819   0.36232   0.36869   0.38749   0.38868
 Alpha virt. eigenvalues --    0.39481   0.40203   0.41667   0.44942   0.45876
 Alpha virt. eigenvalues --    0.46372   0.47965   0.48788   0.50036   0.50848
 Alpha virt. eigenvalues --    0.52436   0.52945   0.54057   0.54707   0.57872
 Alpha virt. eigenvalues --    0.60149   0.60406   0.62179   0.63597   0.64652
 Alpha virt. eigenvalues --    0.66194   0.69822   0.71774   0.74993   0.76879
 Alpha virt. eigenvalues --    0.78757   0.80014   0.81305   0.83121   0.85296
 Alpha virt. eigenvalues --    0.88084   0.90115   0.93426   0.97847   1.00245
 Alpha virt. eigenvalues --    1.02302   1.03230   1.05031   1.06269   1.08843
 Alpha virt. eigenvalues --    1.09763   1.10554   1.12645   1.15517   1.16681
 Alpha virt. eigenvalues --    1.16942   1.17891   1.18625   1.19839   1.20242
 Alpha virt. eigenvalues --    1.22548   1.23010   1.26074   1.28476   1.29605
[...]
 IRadAn=      5 IRanWt=     -1 IRanGd=            0 ICorTp=0 IEmpDi=131
 NAtoms=   17 NActive=    8 NUniq=    8 SFac= 1.00D+00 NAtFMM=   60 NAOKFM=F Big=F
 Integral buffers will be    131072 words long.
 Raffenetti 2 integral format.
 Two-electron integral symmetry is turned off.
 R6Disp:  Grimme-D3 Dispersion energy=       -0.0000442898 Hartrees.
 Nuclear repulsion after empirical dispersion term =      280.2317325548 Hartrees.
 No density basis found on file   718.
 Leave Link  301 at Fri Feb 17 21:07:56 2023, MaxMem=  6710886400 cpu:               1.3 elap:               0.1
 (Enter /data0/home/software/g16/l302.exe)
 NPDir=0 NMtPBC=     1 NCelOv=     1 NCel=       1 NClECP=     1 NCelD=      1
         NCelK=      1 NCelE2=     1 NClLst=     1 CellRange=     0.0.
 One-electron integrals computed using PRISM.
 NBasis=   161 RedAO= T EigKep=  4.52D-04  NBF=   161
 NBsUse=   161 1.00D-06 EigRej= -1.00D+00 NBFU=   161
 Precomputing XC quadrature grid using
 IXCGrd= 4 IRadAn=           5 IRanWt=          -1 IRanGd=           0 AccXCQ= 0.00D+00.
 Generated NRdTot=       0 NPtTot=           0 NUsed=           0 NTot=          32
 NSgBfM=   171   171   171   171   171 MxSgAt=     8 MxSgA2=     8.
 Leave Link  302 at Fri Feb 17 21:07:57 2023, MaxMem=  6710886400 cpu:               2.9 elap:               0.1
 (Enter /data0/home/software/g16/l303.exe)
 DipDrv:  MaxL=1.
 Leave Link  303 at Fri Feb 17 21:07:57 2023, MaxMem=  6710886400 cpu:               0.5 elap:               0.0
 (Enter /data0/home/software/g16/l401.exe)
 ExpMin= 3.48D-02 ExpMax= 7.75D+04 ExpMxC= 2.65D+03 IAcc=3 IRadAn=         5 AccDes= 0.00D+00
 Harris functional with IExCor= 1009 and IRadAn=       5 diagonalized for initial guess.
 HarFok:  IExCor= 1009 AccDes= 0.00D+00 IRadAn=         5 IDoV= 1 UseB2=F ITyADJ=14
 ICtDFT=  3500011 ScaDFX=  1.000000  1.000000  1.000000  1.000000
 FoFCou: FMM=F IPFlag=           0 FMFlag=      100000 FMFlg1=           0
         NFxFlg=           0 DoJE=T BraDBF=F KetDBF=T FulRan=T
         wScrn=  0.000000 ICntrl=       500 IOpCl=  0 I1Cent=   200000004 NGrid=           0
         NMat0=    1 NMatS0=      1 NMatT0=    0 NMatD0=    1 NMtDS0=    0 NMtDT0=    0
 Symmetry not used in FoFCou.
 Harris En= -643.942935583564    
 JPrj=0 DoOrth=F DoCkMO=F.
 Leave Link  401 at Fri Feb 17 21:07:57 2023, MaxMem=  6710886400 cpu:               6.0 elap:               0.3
 (Enter /data0/home/software/g16/l502.exe)
 Keep R1 ints in memory in canonical form, NReq=108961853.
 FoFCou: FMM=F IPFlag=           0 FMFlag=           0 FMFlg1=           0
         NFxFlg=           0 DoJE=F BraDBF=F KetDBF=F FulRan=T
         wScrn=  0.000000 ICntrl=       600 IOpCl=  0 I1Cent=           0 NGrid=           0
         NMat0=    1 NMatS0=  13041 NMatT0=    0 NMatD0=    1 NMtDS0=    0 NMtDT0=    0
 Symmetry not used in FoFCou.
 Two-electron integral symmetry not used.
 Closed shell SCF:
 Using DIIS extrapolation, IDIIS=  1040.
 NGot=  6710886400 LenX=  6625781899 LenY=  6625752217
 Requested convergence on RMS density matrix=1.00D-08 within 128 cycles.
 Requested convergence on MAX density matrix=1.00D-06.
 Requested convergence on             energy=1.00D-06.
 No special actions if energy rises.

 Cycle   1  Pass 1  IDiag  1:
 E= -643.859951550656    
 DIIS: error= 4.09D-02 at cycle   1 NSaved=   1.
 NSaved= 1 IEnMin= 1 EnMin= -643.859951550656     IErMin= 1 ErrMin= 4.09D-02
 ErrMax= 4.09D-02  0.00D+00 EMaxC= 1.00D-01 BMatC= 5.08D-01 BMatP= 5.08D-01
 IDIUse=3 WtCom= 5.91D-01 WtEn= 4.09D-01
 Coeff-Com:  0.100D+01
 Coeff-En:   0.100D+01
 Coeff:      0.100D+01
 Gap=     0.269 Goal=   None    Shift=    0.000
 GapD=    0.269 DampG=1.000 DampE=0.500 DampFc=0.5000 IDamp=-1.
 Damping current iteration by 5.00D-01
 RMSDP=7.06D-03 MaxDP=1.62D-01              OVMax= 2.60D-01

 Cycle   2  Pass 1  IDiag  1:
 E= -643.976694990127     Delta-E=       -0.116743439470 Rises=F Damp=T
 DIIS: error= 1.01D-02 at cycle   2 NSaved=   2.
 NSaved= 2 IEnMin= 2 EnMin= -643.976694990127     IErMin= 2 ErrMin= 1.01D-02
 ErrMax= 1.01D-02  0.00D+00 EMaxC= 1.00D-01 BMatC= 2.69D-02 BMatP= 5.08D-01
 IDIUse=3 WtCom= 8.99D-01 WtEn= 1.01D-01
 Coeff-Com:  0.704D-01 0.930D+00
 Coeff-En:   0.201D+00 0.799D+00
 Coeff:      0.836D-01 0.916D+00
 Gap=     0.356 Goal=   None    Shift=    0.000
 RMSDP=1.64D-03 MaxDP=5.38D-02 DE=-1.17D-01 OVMax= 1.71D-01

 Cycle   3  Pass 1  IDiag  1:
 E= -644.141585129828     Delta-E=       -0.164890139701 Rises=F Damp=F
 DIIS: error= 6.19D-03 at cycle   3 NSaved=   3.
 NSaved= 3 IEnMin= 3 EnMin= -644.141585129828     IErMin= 3 ErrMin= 6.19D-03
 ErrMax= 6.19D-03  0.00D+00 EMaxC= 1.00D-01 BMatC= 1.01D-02 BMatP= 2.69D-02
 IDIUse=3 WtCom= 9.38D-01 WtEn= 6.19D-02
 Coeff-Com: -0.145D-01 0.340D+00 0.675D+00
 Coeff-En:   0.000D+00 0.000D+00 0.100D+01
 Coeff:     -0.136D-01 0.319D+00 0.695D+00
 Gap=     0.346 Goal=   None    Shift=    0.000
 RMSDP=6.55D-04 MaxDP=1.50D-02 DE=-1.65D-01 OVMax= 3.48D-02

 Cycle   4  Pass 1  IDiag  1:
 E= -644.146151379803     Delta-E=       -0.004566249975 Rises=F Damp=F
 DIIS: error= 4.11D-03 at cycle   4 NSaved=   4.
 NSaved= 4 IEnMin= 4 EnMin= -644.146151379803     IErMin= 4 ErrMin= 4.11D-03
 ErrMax= 4.11D-03  0.00D+00 EMaxC= 1.00D-01 BMatC= 3.85D-03 BMatP= 1.01D-02
 IDIUse=3 WtCom= 9.59D-01 WtEn= 4.11D-02
 Coeff-Com: -0.206D-01 0.473D-01 0.402D+00 0.571D+00
 Coeff-En:   0.000D+00 0.000D+00 0.276D+00 0.724D+00
 Coeff:     -0.197D-01 0.454D-01 0.397D+00 0.578D+00
 Gap=     0.352 Goal=   None    Shift=    0.000
 RMSDP=2.57D-04 MaxDP=6.19D-03 DE=-4.57D-03 OVMax= 1.13D-02

 Cycle   5  Pass 1  IDiag  1:
 E= -644.148698777567     Delta-E=       -0.002547397763 Rises=F Damp=F
 DIIS: error= 2.17D-04 at cycle   5 NSaved=   5.
 NSaved= 5 IEnMin= 5 EnMin= -644.148698777567     IErMin= 5 ErrMin= 2.17D-04
 ErrMax= 2.17D-04  0.00D+00 EMaxC= 1.00D-01 BMatC= 1.56D-05 BMatP= 3.85D-03
 IDIUse=3 WtCom= 9.98D-01 WtEn= 2.17D-03
 Coeff-Com: -0.228D-02 0.150D-03 0.592D-01 0.120D+00 0.823D+00
 Coeff-En:   0.000D+00 0.000D+00 0.000D+00 0.000D+00 0.100D+01
 Coeff:     -0.227D-02 0.149D-03 0.591D-01 0.120D+00 0.823D+00
 Gap=     0.350 Goal=   None    Shift=    0.000
 RMSDP=2.51D-05 MaxDP=8.36D-04 DE=-2.55D-03 OVMax= 7.37D-04

 Cycle   6  Pass 1  IDiag  1:
 E= -644.148709260014     Delta-E=       -0.000010482447 Rises=F Damp=F
 DIIS: error= 5.73D-05 at cycle   6 NSaved=   6.
 NSaved= 6 IEnMin= 6 EnMin= -644.148709260014     IErMin= 6 ErrMin= 5.73D-05
 ErrMax= 5.73D-05  0.00D+00 EMaxC= 1.00D-01 BMatC= 1.10D-06 BMatP= 1.56D-05
 IDIUse=1 WtCom= 1.00D+00 WtEn= 0.00D+00
 Coeff-Com:  0.382D-04-0.148D-02 0.236D-02 0.117D-01 0.219D+00 0.769D+00
 Coeff:      0.382D-04-0.148D-02 0.236D-02 0.117D-01 0.219D+00 0.769D+00
 Gap=     0.351 Goal=   None    Shift=    0.000
 RMSDP=9.05D-06 MaxDP=2.13D-04 DE=-1.05D-05 OVMax= 2.17D-04

 Cycle   7  Pass 1  IDiag  1:
 E= -644.148710042023     Delta-E=       -0.000000782010 Rises=F Damp=F
 DIIS: error= 2.50D-05 at cycle   7 NSaved=   7.
 NSaved= 7 IEnMin= 7 EnMin= -644.148710042023     IErMin= 7 ErrMin= 2.50D-05
 ErrMax= 2.50D-05  0.00D+00 EMaxC= 1.00D-01 BMatC= 2.24D-07 BMatP= 1.10D-06
 IDIUse=1 WtCom= 1.00D+00 WtEn= 0.00D+00
 Coeff-Com:  0.341D-03-0.602D-03-0.801D-02-0.129D-01-0.213D-01 0.303D+00
 Coeff-Com:  0.740D+00
 Coeff:      0.341D-03-0.602D-03-0.801D-02-0.129D-01-0.213D-01 0.303D+00
 Coeff:      0.740D+00
 Gap=     0.351 Goal=   None    Shift=    0.000
 RMSDP=3.32D-06 MaxDP=6.46D-05 DE=-7.82D-07 OVMax= 9.29D-05

 Cycle   8  Pass 1  IDiag  1:
 E= -644.148710189356     Delta-E=       -0.000000147333 Rises=F Damp=F
 DIIS: error= 1.07D-05 at cycle   8 NSaved=   8.
 NSaved= 8 IEnMin= 8 EnMin= -644.148710189356     IErMin= 8 ErrMin= 1.07D-05
 ErrMax= 1.07D-05  0.00D+00 EMaxC= 1.00D-01 BMatC= 3.48D-08 BMatP= 2.24D-07
 IDIUse=1 WtCom= 1.00D+00 WtEn= 0.00D+00
 Coeff-Com:  0.143D-03-0.184D-03-0.380D-02-0.624D-02-0.183D-01 0.940D-01
 Coeff-Com:  0.360D+00 0.574D+00
 Coeff:      0.143D-03-0.184D-03-0.380D-02-0.624D-02-0.183D-01 0.940D-01
 Coeff:      0.360D+00 0.574D+00
 Gap=     0.351 Goal=   None    Shift=    0.000
 RMSDP=8.65D-07 MaxDP=1.99D-05 DE=-1.47D-07 OVMax= 3.25D-05

 Cycle   9  Pass 1  IDiag  1:
 E= -644.148710214170     Delta-E=       -0.000000024814 Rises=F Damp=F
 DIIS: error= 1.23D-06 at cycle   9 NSaved=   9.
 NSaved= 9 IEnMin= 9 EnMin= -644.148710214170     IErMin= 9 ErrMin= 1.23D-06
 ErrMax= 1.23D-06  0.00D+00 EMaxC= 1.00D-01 BMatC= 7.08D-10 BMatP= 3.48D-08
 IDIUse=1 WtCom= 1.00D+00 WtEn= 0.00D+00
 Coeff-Com: -0.236D-04 0.461D-04 0.237D-03 0.504D-03-0.617D-03-0.185D-01
 Coeff-Com: -0.262D-01 0.691D-01 0.975D+00
 Coeff:     -0.236D-04 0.461D-04 0.237D-03 0.504D-03-0.617D-03-0.185D-01
 Coeff:     -0.262D-01 0.691D-01 0.975D+00
 Gap=     0.351 Goal=   None    Shift=    0.000
 RMSDP=3.01D-07 MaxDP=7.45D-06 DE=-2.48D-08 OVMax= 8.96D-06

 Cycle  10  Pass 1  IDiag  1:
 E= -644.148710215015     Delta-E=       -0.000000000845 Rises=F Damp=F
 DIIS: error= 2.74D-07 at cycle  10 NSaved=  10.
 NSaved=10 IEnMin=10 EnMin= -644.148710215015     IErMin=10 ErrMin= 2.74D-07
 ErrMax= 2.74D-07  0.00D+00 EMaxC= 1.00D-01 BMatC= 1.74D-11 BMatP= 7.08D-10
 IDIUse=1 WtCom= 1.00D+00 WtEn= 0.00D+00
 Coeff-Com: -0.435D-05 0.737D-05 0.114D-03 0.188D-03 0.428D-03-0.458D-02
 Coeff-Com: -0.143D-01-0.112D-01 0.727D-01 0.957D+00
 Coeff:     -0.435D-05 0.737D-05 0.114D-03 0.188D-03 0.428D-03-0.458D-02
 Coeff:     -0.143D-01-0.112D-01 0.727D-01 0.957D+00
 Gap=     0.351 Goal=   None    Shift=    0.000
 RMSDP=5.80D-08 MaxDP=8.04D-07 DE=-8.45D-10 OVMax= 1.85D-06

 Cycle  11  Pass 1  IDiag  1:
 E= -644.148710215016     Delta-E=       -0.000000000001 Rises=F Damp=F
 DIIS: error= 2.21D-07 at cycle  11 NSaved=  11.
 NSaved=11 IEnMin=11 EnMin= -644.148710215016     IErMin=11 ErrMin= 2.21D-07
 ErrMax= 2.21D-07  0.00D+00 EMaxC= 1.00D-01 BMatC= 9.14D-12 BMatP= 1.74D-11
 IDIUse=1 WtCom= 1.00D+00 WtEn= 0.00D+00
 Coeff-Com: -0.940D-07-0.243D-06 0.378D-04 0.525D-04 0.258D-03-0.876D-03
 Coeff-Com: -0.488D-02-0.102D-01-0.395D-01 0.477D+00 0.578D+00
 Coeff:     -0.940D-07-0.243D-06 0.378D-04 0.525D-04 0.258D-03-0.876D-03
 Coeff:     -0.488D-02-0.102D-01-0.395D-01 0.477D+00 0.578D+00
 Gap=     0.351 Goal=   None    Shift=    0.000
 RMSDP=1.65D-08 MaxDP=4.61D-07 DE=-6.82D-13 OVMax= 5.43D-07

 Cycle  12  Pass 1  IDiag  1:
 E= -644.148710215036     Delta-E=       -0.000000000019 Rises=F Damp=F
 DIIS: error= 4.30D-08 at cycle  12 NSaved=  12.
 NSaved=12 IEnMin=12 EnMin= -644.148710215036     IErMin=12 ErrMin= 4.30D-08
 ErrMax= 4.30D-08  0.00D+00 EMaxC= 1.00D-01 BMatC= 4.68D-13 BMatP= 9.14D-12
 IDIUse=1 WtCom= 1.00D+00 WtEn= 0.00D+00
 Coeff-Com:  0.653D-06-0.120D-05-0.387D-05-0.950D-05 0.180D-04 0.375D-03
 Coeff-Com:  0.743D-03-0.125D-02-0.236D-01 0.784D-02 0.178D+00 0.838D+00
 Coeff:      0.653D-06-0.120D-05-0.387D-05-0.950D-05 0.180D-04 0.375D-03
 Coeff:      0.743D-03-0.125D-02-0.236D-01 0.784D-02 0.178D+00 0.838D+00
 Gap=     0.351 Goal=   None    Shift=    0.000
 RMSDP=5.55D-09 MaxDP=1.00D-07 DE=-1.94D-11 OVMax= 1.84D-07

 SCF Done:  E(RM062X) =  -644.148710215     A.U. after   12 cycles
            NFock= 12  Conv=0.56D-08     -V/T= 2.0025
 KE= 6.425578091888D+02 PE=-2.088186759752D+03 EE= 5.212485077930D+02
 Leave Link  502 at Fri Feb 17 21:08:03 2023, MaxMem=  6710886400 cpu:             107.8 elap:               5.8
 (Enter /data0/home/software/g16/l601.exe)
 Copying SCF densities to generalized density rwf, IOpCl= 0 IROHF=0.

 **********************************************************************

            Population analysis using the SCF density.

 **********************************************************************

 Alpha  occ. eigenvalues --  -78.16800 -19.69541 -19.67688 -19.67602 -19.58751
 Alpha  occ. eigenvalues --   -6.97587  -5.09502  -5.09460  -5.09286  -1.24453
 Alpha  occ. eigenvalues --   -1.17263  -1.16213  -1.09112  -0.72997  -0.65786
 Alpha  occ. eigenvalues --   -0.63819  -0.57793  -0.54037  -0.50862  -0.50201
 Alpha  occ. eigenvalues --   -0.46670  -0.45277  -0.43883  -0.38716  -0.37627
 Alpha virt. eigenvalues --   -0.02537   0.01242   0.02274   0.04771   0.08178
 Alpha virt. eigenvalues --    0.10487   0.11778   0.13353   0.15416   0.16773
 Alpha virt. eigenvalues --    0.17603   0.18271   0.19395   0.20568   0.21197
 Alpha virt. eigenvalues --    0.23133   0.23568   0.25129   0.25826   0.27880
 Alpha virt. eigenvalues --    0.28215   0.29254   0.29978   0.31673   0.33375
 Alpha virt. eigenvalues --    0.34101   0.36558   0.36809   0.38297   0.44503
 Alpha virt. eigenvalues --    0.46605   0.47783   0.49646   0.56228   0.58270
 Alpha virt. eigenvalues --    0.74221   0.75884   0.76935   0.86630   0.97177
 Alpha virt. eigenvalues --    1.00622   1.01687   1.04485   1.08587   1.11173
 Alpha virt. eigenvalues --    1.13030   1.14746   1.16805   1.19032   1.20819
 Alpha virt. eigenvalues --    1.23150   1.25022   1.27429   1.27685   1.32684
 Alpha virt. eigenvalues --    1.35462   1.39085   1.44586   1.47441   1.49144
 Alpha virt. eigenvalues --    1.52258   1.55326   1.57866   1.61468   1.66182
 Alpha virt. eigenvalues --    1.67899   1.70648   1.72711   1.75744   1.78939
 Alpha virt. eigenvalues --    1.80976   1.83847   1.88521   1.92831   1.95395
 Alpha virt. eigenvalues --    2.02004   2.03049   2.08932   2.12863   2.14511
 Alpha virt. eigenvalues --    2.22209   2.23760   2.26471   2.35154   2.42731
 Alpha virt. eigenvalues --    2.46866   2.58577   2.60788   2.64499   2.69858
 Alpha virt. eigenvalues --    2.72809   2.82079   2.84551   2.91928   2.95367
 Alpha virt. eigenvalues --    5.01214   5.05155   5.06434   5.07525   5.10544
 Alpha virt. eigenvalues --    5.12714   5.18768   5.21939   5.35312   5.44845
 Alpha virt. eigenvalues --    5.51802   5.54297   6.70392   6.73573   6.74695
 Alpha virt. eigenvalues --    6.77339   6.79443   6.81103   6.84026   6.85601
 Alpha virt. eigenvalues --    6.91484   6.92057   6.93746   6.95502   7.00615
 Alpha virt. eigenvalues --    7.07236   7.10339   7.23336   7.25021   7.27002
 Alpha virt. eigenvalues --    7.31708   7.39986   7.64245  14.22031  14.24602
 Alpha virt. eigenvalues --   14.35651  49.97672  50.00344  50.01038  50.10063
 Alpha virt. eigenvalues --  163.85775
          Condensed to atoms (all electrons):
              10         11         12         13         14         15
    10  P   12.449958   0.591835   0.288223  -0.004222   0.166388   0.041584
    11  O    0.591835   8.078784  -0.039148  -0.002872  -0.033452   0.003279
    12  O    0.288223  -0.039148   8.083580   0.274919   0.002783  -0.014047
    13  H   -0.004222  -0.002872   0.274919   0.380094   0.002449   0.000699
    14  O    0.166388  -0.033452   0.002783   0.002449   8.148157   0.229082
    15  H    0.041584   0.003279  -0.014047   0.000699   0.229082   0.443878
    16  O    0.225110   0.003511  -0.000372  -0.002378  -0.012735  -0.014667
    17  H    0.005649  -0.007255  -0.010504  -0.000850  -0.001705   0.002131
              16         17
    10  P    0.225110   0.005649
    11  O    0.003511  -0.007255
    12  O   -0.000372  -0.010504
    13  H   -0.002378  -0.000850
    14  O   -0.012735  -0.001705
    15  H   -0.014667   0.002131
    16  O    8.073085   0.258004
    17  H    0.258004   0.439587
 Mulliken charges:
               1
     1  C    0.000000
     2  C    0.000000
     3  C    0.000000
     4  N    0.000000
     5  H    0.000000
     6  H    0.000000
     7  H    0.000000
     8  H    0.000000
     9  N    0.000000
    10  P    1.235475
    11  O   -0.594684
    12  O   -0.585433
    13  H    0.352162
    14  O   -0.500966
    15  H    0.308060
    16  O   -0.529559
    17  H    0.314943
 Sum of Mulliken charges =  -0.00000
 Mulliken charges with hydrogens summed into heavy atoms:
               1
     1  C    0.000000
     2  C    0.000000
     3  C    0.000000
     4  N    0.000000
     9  N    0.000000
    10  P    1.235475
    11  O   -0.594684
    12  O   -0.233270
    14  O   -0.192905
    16  O   -0.214616
         Mulliken charges condensed to fragments:
      1      0.000000
      2     -0.000000
 Electronic spatial extent (au):  <R**2>=          70503.1194
 Charge=             -0.0000 electrons
 Dipole moment (field-independent basis, Debye):
    X=             -3.2708    Y=             -2.8766    Z=              2.0809  Tot=              4.8273
 Quadrupole moment (field-independent basis, Debye-Ang):
   XX=           -112.2042   YY=            -86.3074   ZZ=             17.4218
   XY=            -63.8319   XZ=            -12.2903   YZ=            -14.4504
 Traceless Quadrupole moment (field-independent basis, Debye-Ang):
   XX=            -51.8409   YY=            -25.9441   ZZ=             77.7851
   XY=            -63.8319   XZ=            -12.2903   YZ=            -14.4504
 Octapole moment (field-independent basis, Debye-Ang**2):
  XXX=          -2653.0332  YYY=          -1648.1246  ZZZ=           -334.2452  XYY=          -1303.0327
  XXY=          -1423.2782  XXZ=          -1028.5366  XZZ=           -212.2964  YZZ=           -226.7090
  YYZ=           -879.1694  XYZ=           -507.8350
 Hexadecapole moment (field-independent basis, Debye-Ang**3):
 XXXX=         -53143.3344 YYYY=         -25910.4233 ZZZZ=         -16929.7105 XXXY=         -28882.6703
 XXXZ=         -28461.0858 YYYX=         -22251.0107 YYYZ=         -18911.2588 ZZZX=          -8719.0665
 ZZZY=          -7455.0304 XXYY=         -21667.1190 XXZZ=         -13245.0274 YYZZ=         -11419.4615
 XXYZ=         -14041.4189 YYXZ=         -13606.7435 ZZXY=          -6509.7212
 N-N= 2.802317325548D+02 E-N=-2.088186763056D+03  KE= 6.425578091888D+02
 No NMR shielding tensors so no spin-rotation constants.
 Leave Link  601 at Fri Feb 17 21:08:03 2023, MaxMem=  6710886400 cpu:               1.9 elap:               0.1
 (Enter /data0/home/software/g16/l122.exe)
 CPIOFr:  IOpCl= 0 IRwI=-1 IRwCP=  731 ICalc=  4 LCPTot=      158204 Len1MO=      416108 IndFrg=     2238744
 Restoring MOs from calculation   1 to rwf.
 CPIOFr:  IOpCl= 0 IRwI=-2 IRwCP=  731 ICalc=  0 LCPTot=      158204 Len1MO=      416108 IndFrg=      574312
 Counterpoise corrected energy =    -870.355141798744
                   BSSE energy =       0.001498709735
              sum of fragments =    -870.336622563552
           complexation energy =     -12.56 kcal/mole (raw)
           complexation energy =     -11.62 kcal/mole (corrected)
 Leave Link  122 at Fri Feb 17 21:08:03 2023, MaxMem=  6710886400 cpu:               0.2 elap:               0.0
 (Enter /data0/home/software/g16/l9999.exe)
 1\1\GINC-LOCALHOST\SP\RM062X\6-311+G(2d,p)\C3H7N2O4P1\WUHANYU\17-Feb-2
 023\0\\#p M062X/6-311+G(2d,p) nosymm em=GD3 counterpoise=2\\Title Card
  Required\\0,1\C,0,8.741396,10.137319,10.75097\C,0,8.609032,8.746942,1
 0.798303\C,0,10.393544,9.175138,9.584481\N,0,9.86578,10.397563,9.97135
 4\H,0,10.305194,11.310013,9.83292\H,0,8.143271,10.91239,11.179106\H,0,
 7.866675,8.145185,11.283292\H,0,11.290068,9.067134,8.994688\N,0,9.6375
 43,8.16764,10.07163\P,0,12.140624,9.052795,12.704697\O,0,12.624072,9.3
 41066,11.352927\O,0,11.693636,7.58293,13.065154\H,0,11.538127,7.009323
 ,12.184862\O,0,13.229465,9.423439,13.797949\H,0,12.841557,9.175329,14.
 724911\O,0,10.907135,9.958209,13.175792\H,0,10.039913,9.56768,12.79584
 \\Version=ES64L-G16RevA.03\HF=-644.1487102\RMSD=5.550e-09\Dipole=-1.00
 30899,0.408663,0.4437151\Quadrupole=-43.5469056,18.8127028,24.7342027,
 -13.3023596,-14.2308057,11.3260644\PG=C01 [X(C3H7N2O4P1)]\\@


 IF YOU WANT TO LEARN FROM THE THEORETICAL PHYSICISTS ABOUT THE
 METHODS WHICH THEY USE, I ADVISE YOU TO FOLLOW THIS PRINCIPLE VERY STRICTLY:
 DON'T LISTEN TO THEIR WORDS; PAY ATTENTION, INSTEAD, TO THEIR ACTIONS.
 -- A.EINSTEIN, 1934
 Job cpu time:       0 days  0 hours 34 minutes 21.1 seconds.
 Elapsed time:       0 days  0 hours  1 minutes 29.4 seconds.
 File lengths (MBytes):  RWF=     82 Int=      0 D2E=      0 Chk=     24 Scr=      1
 Normal termination of Gaussian 16 at Fri Feb 17 21:08:03 2023.
