 Entering Gaussian System, Link 0=g16
 Initial command:
 /data0/home/software/g16/l1.exe "/data0/home/software/g16/scratch/Gau-2527407.inp" -scrdir="/data0/home/software/g16/scratch/"
 Default is to use a total of  22 processors:
                               22 via shared-memory
                                1 via Linda
 Entering Link 1 = /data0/home/software/g16/l1.exe PID=   2527408.
  
 Copyright (c) 1988,1990,1992,1993,1995,1998,2003,2009,2016,
            Gaussian, Inc.  All Rights Reserved.
  
 This is part of the Gaussian(R) 16 program.  It is based on
 the Gaussian(R) 09 system (copyright 2009, Gaussian, Inc.),
 the Gaussian(R) 03 system (copyright 2003, Gaussian, Inc.),
 the Gaussian(R) 98 system (copyright 1998, Gaussian, Inc.),
 the Gaussian(R) 94 system (copyright 1995, Gaussian, Inc.),
 the Gaussian 92(TM) system (copyright 1992, Gaussian, Inc.),
 the Gaussian 90(TM) system (copyright 1990, Gaussian, Inc.),
 the Gaussian 88(TM) system (copyright 1988, Gaussian, Inc.),
 the Gaussian 86(TM) system (copyright 1986, Carnegie Mellon
 University), and the Gaussian 82(TM) system (copyright 1983,
 Carnegie Mellon University). Gaussian is a federally registered
 trademark of Gaussian, Inc.
  
 This software contains proprietary and confidential information,
 including trade secrets, belonging to Gaussian, Inc.
  
 This software is provided under written license and may be
 used, copied, transmitted, or stored only in accord with that
 written license.
  
 The following legend is applicable only to US Government
 contracts under FAR:
  
                    RESTRICTED RIGHTS LEGEND
  
 Use, reproduction and disclosure by the US Government is
 subject to restrictions as set forth in subparagraphs (a)
 and (c) of the Commercial Computer Software - Restricted
 Rights clause in FAR 52.227-19.
  
 Gaussian, Inc.
 340 Quinnipiac St., Bldg. 40, Wallingford CT 06492
  
  
 ---------------------------------------------------------------
 Warning -- This program may not be used in any manner that
 competes with the business of Gaussian, Inc. or will provide
 assistance to any competitor of Gaussian, Inc.  The licensee
 of this program is prohibited from giving any competitor of
 Gaussian, Inc. access to this program.  By using this program,
 the user acknowledges that Gaussian, Inc. is engaged in the
 business of creating and licensing software in the field of
 computational chemistry and represents and warrants to the
 licensee that it is not a competitor of Gaussian, Inc. and that
 it will not use this program in any manner prohibited above.
 ---------------------------------------------------------------
  

 Cite this work as:
 Gaussian 16, Revision A.03,
 M. J. Frisch, G. W. Trucks, H. B. Schlegel, G. E. Scuseria, 
 M. A. Robb, J. R. Cheeseman, G. Scalmani, V. Barone, 
 G. A. Petersson, H. Nakatsuji, X. Li, M. Caricato, A. V. Marenich, 
 J. Bloino, B. G. Janesko, R. Gomperts, B. Mennucci, H. P. Hratchian, 
 J. V. Ortiz, A. F. Izmaylov, J. L. Sonnenberg, D. Williams-Young, 
 F. Ding, F. Lipparini, F. Egidi, J. Goings, B. Peng, A. Petrone, 
 T. Henderson, D. Ranasinghe, V. G. Zakrzewski, J. Gao, N. Rega, 
 G. Zheng, W. Liang, M. Hada, M. Ehara, K. Toyota, R. Fukuda, 
 J. Hasegawa, M. Ishida, T. Nakajima, Y. Honda, O. Kitao, H. Nakai, 
 T. Vreven, K. Throssell, J. A. Montgomery, Jr., J. E. Peralta, 
 F. Ogliaro, M. J. Bearpark, J. J. Heyd, E. N. Brothers, K. N. Kudin, 
 V. N. Staroverov, T. A. Keith, R. Kobayashi, J. Normand, 
 K. Raghavachari, A. P. Rendell, J. C. Burant, S. S. Iyengar, 
 J. Tomasi, M. Cossi, J. M. Millam, M. Klene, C. Adamo, R. Cammi, 
 J. W. Ochterski, R. L. Martin, K. Morokuma, O. Farkas, 
 J. B. Foresman, and D. J. Fox, Gaussian, Inc., Wallingford CT, 2016.
 
 ******************************************
 Gaussian 16:  ES64L-G16RevA.03 25-Dec-2016
                11-Oct-2023 
 ******************************************
 %mem=50GB
 %nprocshared=24
 Will use up to   24 processors via shared memory.
 ----------------------------------------
 #p M052X/6-31G* scrf=(smd,solvent=water)
 ----------------------------------------
 1/38=1,172=1/1;
 2/12=2,17=6,18=5,40=1/2;
 3/5=1,6=6,7=1,11=2,25=1,30=1,70=32201,72=1,74=-38/1,2,3;
 4//1;
 5/5=2,38=5,53=1/2;
 6/7=2,8=2,9=2,10=2,28=1/1;
 99/5=1,9=1/99;
 Leave Link    1 at Wed Oct 11 20:23:14 2023, MaxMem=  6710886400 cpu:               0.8 elap:               0.0
 (Enter /data0/home/software/g16/l101.exe)
 -------------------
 Title Card Required
 -------------------
 Symbolic Z-matrix:
 Charge =  0 Multiplicity = 1
 C                    -2.48398  -0.96065  -1.17024 
 H                    -3.53691  -1.10815  -0.94402 
 H                    -2.36864  -0.44504  -2.12047 
 H                    -1.96325  -1.91463  -1.19127 
 C                    -2.61118   1.19467  -0.04657 
 H                    -3.66816   0.98628   0.10076 
 H                    -2.23365   1.78827   0.77977 
 H                    -2.45552   1.71079  -0.99087 
 C                    -2.03962  -0.81819   1.21886 
 H                    -1.4665   -1.74147   1.18584 
 H                    -1.68227  -0.17666   2.01787 
 H                    -3.09598  -1.0331    1.3609 
 C                    -0.41543   0.09144  -0.43097 
 H                    -0.40888   0.56596  -1.41159 
 H                     0.00177  -0.91002  -0.52518 
 C                     0.37896   0.91522   0.56744 
 H                     0.39469   0.43023   1.54305 
 H                    -0.07156   1.90085   0.69127 
 C                     1.81164   1.09585   0.06438 
 H                     2.34282   1.76523   0.74855 
 H                     1.81439   1.58204  -0.91295 
 N                    -1.8817   -0.11204  -0.09174 
 C                     2.65057  -0.18449  -0.02081 
 O                     2.4225   -1.1101    0.80805 
 O                     3.55548  -0.21733  -0.90581 
 
 ITRead=  0  0  0  0  0  0  0  0  0  0  0  0  0  0  0  0  0  0  0  0
 ITRead=  0  0  0  0  0
 MicOpt= -1 -1 -1 -1 -1 -1 -1 -1 -1 -1 -1 -1 -1 -1 -1 -1 -1 -1 -1 -1
 MicOpt= -1 -1 -1 -1 -1
 NAtoms=     25 NQM=       25 NQMF=       0 NMMI=      0 NMMIF=      0
                NMic=       0 NMicF=      0.
                    Isotopes and Nuclear Properties:
 (Nuclear quadrupole moments (NQMom) in fm**2, nuclear magnetic moments (NMagM)
  in nuclear magnetons)

  Atom         1           2           3           4           5           6           7           8           9          10
 IAtWgt=          12           1           1           1          12           1           1           1          12           1
 AtmWgt=  12.0000000   1.0078250   1.0078250   1.0078250  12.0000000   1.0078250   1.0078250   1.0078250  12.0000000   1.0078250
 NucSpn=           0           1           1           1           0           1           1           1           0           1
 AtZEff=  -0.0000000  -0.0000000  -0.0000000  -0.0000000  -0.0000000  -0.0000000  -0.0000000  -0.0000000  -0.0000000  -0.0000000
 NQMom=    0.0000000   0.0000000   0.0000000   0.0000000   0.0000000   0.0000000   0.0000000   0.0000000   0.0000000   0.0000000
 NMagM=    0.0000000   2.7928460   2.7928460   2.7928460   0.0000000   2.7928460   2.7928460   2.7928460   0.0000000   2.7928460
 AtZNuc=   6.0000000   1.0000000   1.0000000   1.0000000   6.0000000   1.0000000   1.0000000   1.0000000   6.0000000   1.0000000

  Atom        11          12          13          14          15          16          17          18          19          20
 IAtWgt=           1           1          12           1           1          12           1           1          12           1
 AtmWgt=   1.0078250   1.0078250  12.0000000   1.0078250   1.0078250  12.0000000   1.0078250   1.0078250  12.0000000   1.0078250
 NucSpn=           1           1           0           1           1           0           1           1           0           1
 AtZEff=  -0.0000000  -0.0000000  -0.0000000  -0.0000000  -0.0000000  -0.0000000  -0.0000000  -0.0000000  -0.0000000  -0.0000000
 NQMom=    0.0000000   0.0000000   0.0000000   0.0000000   0.0000000   0.0000000   0.0000000   0.0000000   0.0000000   0.0000000
 NMagM=    2.7928460   2.7928460   0.0000000   2.7928460   2.7928460   0.0000000   2.7928460   2.7928460   0.0000000   2.7928460
 AtZNuc=   1.0000000   1.0000000   6.0000000   1.0000000   1.0000000   6.0000000   1.0000000   1.0000000   6.0000000   1.0000000

  Atom        21          22          23          24          25
 IAtWgt=           1          14          12          16          16
 AtmWgt=   1.0078250  14.0030740  12.0000000  15.9949146  15.9949146
 NucSpn=           1           2           0           0           0
 AtZEff=  -0.0000000  -0.0000000  -0.0000000  -0.0000000  -0.0000000
 NQMom=    0.0000000   2.0440000   0.0000000   0.0000000   0.0000000
 NMagM=    2.7928460   0.4037610   0.0000000   0.0000000   0.0000000
 AtZNuc=   1.0000000   7.0000000   6.0000000   8.0000000   8.0000000
 Leave Link  101 at Wed Oct 11 20:23:15 2023, MaxMem=  6710886400 cpu:               2.0 elap:               0.1
 (Enter /data0/home/software/g16/l202.exe)
                          Input orientation:                          
 ---------------------------------------------------------------------
 Center     Atomic      Atomic             Coordinates (Angstroms)
 Number     Number       Type             X           Y           Z
 ---------------------------------------------------------------------
      1          6           0       -2.483980   -0.960648   -1.170244
      2          1           0       -3.536908   -1.108148   -0.944017
      3          1           0       -2.368636   -0.445041   -2.120472
      4          1           0       -1.963248   -1.914625   -1.191267
      5          6           0       -2.611177    1.194674   -0.046566
      6          1           0       -3.668162    0.986282    0.100760
      7          1           0       -2.233645    1.788269    0.779765
      8          1           0       -2.455519    1.710792   -0.990866
      9          6           0       -2.039623   -0.818192    1.218861
     10          1           0       -1.466504   -1.741467    1.185836
     11          1           0       -1.682272   -0.176662    2.017869
     12          1           0       -3.095979   -1.033101    1.360903
     13          6           0       -0.415434    0.091435   -0.430965
     14          1           0       -0.408883    0.565964   -1.411590
     15          1           0        0.001769   -0.910019   -0.525184
     16          6           0        0.378960    0.915220    0.567436
     17          1           0        0.394689    0.430233    1.543047
     18          1           0       -0.071559    1.900845    0.691274
     19          6           0        1.811642    1.095847    0.064380
     20          1           0        2.342817    1.765234    0.748545
     21          1           0        1.814386    1.582041   -0.912954
     22          7           0       -1.881698   -0.112036   -0.091742
     23          6           0        2.650565   -0.184494   -0.020806
     24          8           0        2.422500   -1.110097    0.808052
     25          8           0        3.555478   -0.217326   -0.905806
 ---------------------------------------------------------------------
                    Distance matrix (angstroms):
                    1          2          3          4          5
     1  C    0.000000
     2  H    1.087011   0.000000
     3  H    1.087239   1.785670   0.000000
     4  H    1.087049   1.785481   1.785340   0.000000
     5  C    2.433977   2.639202   2.654916   3.376077   0.000000
     6  H    2.609267   2.344232   2.944711   3.604348   1.087359
     7  H    3.379608   3.613745   3.662959   4.203511   1.085223
     8  H    2.677607   3.019606   2.435400   3.664170   1.087341
     9  C    2.434249   2.646503   3.376187   2.648908   2.445324
    10  H    2.682545   3.037094   3.664183   2.434616   3.383787
    11  H    3.379561   3.616643   4.203450   3.660330   2.646756
    12  H    2.605091   2.347915   3.604832   2.928094   2.679363
    13  C    2.435630   3.383167   2.637658   2.645385   2.487204
    14  H    2.587435   3.578521   2.316307   2.935628   2.666208
    15  H    2.568582   3.568881   2.894817   2.305253   3.389144
    16  C    3.838598   4.659671   4.077308   4.072714   3.065292
    17  H    4.193237   4.899955   4.671557   4.305194   3.485179
    18  H    4.180092   4.872049   4.322691   4.656207   2.737288
    19  C    4.919943   5.872090   4.962120   4.988926   4.425314
    20  H    5.866017   6.759605   5.942589   5.987189   5.049732
    21  H    5.000742   5.989527   4.802586   5.155061   4.526178
    22  N    1.498684   2.111476   2.112758   2.113039   1.497221
    23  C    5.318569   6.323787   5.446913   5.064642   5.439549
    24  O    5.292404   6.211626   5.654515   4.886648   5.601807
    25  O    6.090772   7.148214   6.051644   5.780886   6.384330
                    6          7          8          9         10
     6  H    0.000000
     7  H    1.778221   0.000000
     8  H    1.785235   1.786159   0.000000
     9  C    2.675522   2.650300   3.384025   0.000000
    10  H    3.669510   3.634891   4.199318   1.087195   0.000000
    11  H    2.995247   2.387021   3.634953   1.085207   1.785343
    12  H    2.448114   3.006904   3.670144   1.087313   1.785391
    13  C    3.415219   2.766045   2.664161   2.487436   2.660512
    14  H    3.617564   3.102551   2.382511   3.390350   3.631724
    15  H    4.178057   3.739081   3.622675   2.686523   2.403065
    16  C    4.074559   2.762789   3.330993   3.046082   3.293348
    17  H    4.346969   3.055323   4.022963   2.754911   2.882346
    18  H    3.757750   2.166823   2.923864   3.397762   3.931526
    19  C    5.481020   4.166002   4.438509   4.452933   4.478198
    20  H    6.095758   4.576626   5.104169   5.108920   5.196066
    21  H    5.607217   4.392537   4.272556   5.015889   5.120045
    22  N    2.105900   2.120035   2.111965   1.497089   2.111785
    23  C    6.427426   5.328059   5.532198   4.892465   4.564034
    24  O    6.480064   5.484616   5.915115   4.490492   3.957992
    25  O    7.392078   6.354330   6.313237   6.015015   5.649626
                   11         12         13         14         15
    11  H    0.000000
    12  H    1.778668   0.000000
    13  C    2.770116   3.414776   0.000000
    14  H    3.732854   4.179020   1.089425   0.000000
    15  H    3.137025   3.628845   1.088965   1.769993   0.000000
    16  C    2.746751   4.062111   1.518713   2.158523   2.160460
    17  H    2.215298   3.789365   2.160511   3.064968   2.495644
    18  H    2.944535   4.266563   2.156765   2.513510   3.063675
    19  C    4.200337   5.504374   2.492805   2.718454   2.765271
    20  H    4.645803   6.147045   3.435229   3.698146   3.776224
    21  H    4.889722   6.010081   2.725127   2.494790   3.105851
    22  N    2.120001   2.105473   1.518685   2.090662   2.090956
    23  C    4.788500   5.970931   3.105594   3.443500   2.792294
    24  O    4.379967   5.546637   3.321553   3.968970   2.770828
    25  O    5.998629   7.074273   4.011103   4.072532   3.640542
                   16         17         18         19         20
    16  C    0.000000
    17  H    1.089622   0.000000
    18  H    1.090761   1.762272   0.000000
    19  C    1.529140   2.153428   2.141837   0.000000
    20  H    2.147570   2.491719   2.418860   1.094672   0.000000
    21  H    2.167176   3.061722   2.496392   1.091592   1.753105
    22  N    2.569114   2.854563   2.818050   3.888974   4.698590
    23  C    2.591445   2.812917   3.502236   1.533076   2.118502
    24  O    2.887189   2.650444   3.911488   2.406737   2.877050
    25  O    3.680132   4.050531   4.493630   2.388859   2.852712
                   21         22         23         24         25
    21  H    0.000000
    22  N    4.147930   0.000000
    23  C    2.148434   4.533397   0.000000
    24  O    3.252579   4.509088   1.263234   0.000000
    25  O    2.503832   5.498788   1.266164   2.240087   0.000000
 Stoichiometry    C7H15NO2
 Framework group  C1[X(C7H15NO2)]
 Deg. of freedom    69
 Full point group                 C1      NOp   1
 Largest Abelian subgroup         C1      NOp   1
 Largest concise Abelian subgroup C1      NOp   1
                         Standard orientation:                         
 ---------------------------------------------------------------------
 Center     Atomic      Atomic             Coordinates (Angstroms)
 Number     Number       Type             X           Y           Z
 ---------------------------------------------------------------------
      1          6           0       -2.483980   -0.960648   -1.170244
      2          1           0       -3.536908   -1.108148   -0.944017
      3          1           0       -2.368636   -0.445041   -2.120472
      4          1           0       -1.963248   -1.914625   -1.191267
      5          6           0       -2.611177    1.194674   -0.046566
      6          1           0       -3.668162    0.986282    0.100760
      7          1           0       -2.233645    1.788269    0.779765
      8          1           0       -2.455519    1.710792   -0.990866
      9          6           0       -2.039623   -0.818192    1.218861
     10          1           0       -1.466504   -1.741467    1.185836
     11          1           0       -1.682272   -0.176662    2.017869
     12          1           0       -3.095979   -1.033101    1.360903
     13          6           0       -0.415434    0.091435   -0.430965
     14          1           0       -0.408883    0.565964   -1.411590
     15          1           0        0.001769   -0.910019   -0.525184
     16          6           0        0.378960    0.915220    0.567436
     17          1           0        0.394689    0.430233    1.543047
     18          1           0       -0.071559    1.900845    0.691274
     19          6           0        1.811642    1.095847    0.064380
     20          1           0        2.342817    1.765234    0.748545
     21          1           0        1.814386    1.582041   -0.912954
     22          7           0       -1.881698   -0.112036   -0.091742
     23          6           0        2.650565   -0.184494   -0.020806
     24          8           0        2.422500   -1.110097    0.808052
     25          8           0        3.555478   -0.217326   -0.905806
 ---------------------------------------------------------------------
 Rotational constants (GHZ):           2.5880954           0.6060883           0.5901742
 Leave Link  202 at Wed Oct 11 20:23:15 2023, MaxMem=  6710886400 cpu:               0.1 elap:               0.0
 (Enter /data0/home/software/g16/l301.exe)
 Standard basis: 6-31G(d) (6D, 7F)
 Ernie: Thresh=  0.10000D-02 Tol=  0.10000D-05 Strict=F.
 There are   180 symmetry adapted cartesian basis functions of A   symmetry.
 There are   180 symmetry adapted basis functions of A   symmetry.
   180 basis functions,   340 primitive gaussians,   180 cartesian basis functions
    40 alpha electrons       40 beta electrons
       nuclear repulsion energy       572.2459331889 Hartrees.
 IExCor= 3428 DFT=T Ex+Corr=M052X ExCW=0 ScaHFX=  0.560000
 ScaDFX=  0.440000  0.440000  1.000000  1.000000 ScalE2=  1.000000  1.000000
 IRadAn=      5 IRanWt=     -1 IRanGd=            0 ICorTp=0 IEmpDi=  4
 NAtoms=   25 NActive=   25 NUniq=   25 SFac= 1.00D+00 NAtFMM=   60 NAOKFM=F Big=F
 Integral buffers will be    131072 words long.
 Raffenetti 2 integral format.
 Two-electron integral symmetry is turned on.
 ------------------------------------------------------------------------------
 Polarizable Continuum Model (PCM)
 =================================
 Model                : PCM.
 Atomic radii         : SMD-Coulomb.
 Polarization charges : Total charges.
 Charge compensation  : None.
 Solution method      : On-the-fly selection.
 Cavity type          : VdW (van der Waals Surface) (Alpha=1.000).
 Cavity algorithm     : GePol (No added spheres)
                        Default sphere list used, NSphG=   25.
                        Lebedev-Laikov grids with approx.  5.0 points / Ang**2.
                        Smoothing algorithm: York/Karplus (Gamma=1.0000).
                        Polarization charges: spherical gaussians, with
                                              point-specific exponents (IZeta= 3).
                        Self-potential: point-specific (ISelfS= 7).
                        Self-field    : sphere-specific E.n sum rule (ISelfD= 2).
 Solvent              : Water, Eps=  78.355300 Eps(inf)=   1.777849
 ------------------------------------------------------------------------------
 GePol: Number of generator spheres                  =      25
 GePol: Total number of spheres                      =      25
 GePol: Number of exposed spheres                    =      25 (100.00%)
 GePol: Number of points                             =    1649
 GePol: Average weight of points                     =       0.12
 GePol: Minimum weight of points                     =   0.12D-08
 GePol: Maximum weight of points                     =    0.21991
 GePol: Number of points with low weight             =      93
 GePol: Fraction of low-weight points (<1% of avg)   =       5.64%
 GePol: Cavity surface area                          =    193.246 Ang**2
 GePol: Cavity volume                                =    160.453 Ang**3
 ------------------------------------------------------------------------------
 Atomic radii for non-electrostatic terms: SMD-CDS.
 ------------------------------------------------------------------------------
 PCM non-electrostatic energy =         0.0108668022 Hartrees.
 Nuclear repulsion after PCM non-electrostatic terms =      572.2567999910 Hartrees.
 Leave Link  301 at Wed Oct 11 20:23:15 2023, MaxMem=  6710886400 cpu:               1.6 elap:               0.1
 (Enter /data0/home/software/g16/l302.exe)
 NPDir=0 NMtPBC=     1 NCelOv=     1 NCel=       1 NClECP=     1 NCelD=      1
         NCelK=      1 NCelE2=     1 NClLst=     1 CellRange=     0.0.
 One-electron integrals computed using PRISM.
 One-electron integral symmetry used in STVInt
 NBasis=   180 RedAO= T EigKep=  3.40D-03  NBF=   180
 NBsUse=   180 1.00D-06 EigRej= -1.00D+00 NBFU=   180
 Precomputing XC quadrature grid using
 IXCGrd= 4 IRadAn=           5 IRanWt=          -1 IRanGd=           0 AccXCQ= 0.00D+00.
 Generated NRdTot=       0 NPtTot=           0 NUsed=           0 NTot=          32
 NSgBfM=   180   180   180   180   180 MxSgAt=    25 MxSgA2=    25.
 Leave Link  302 at Wed Oct 11 20:23:15 2023, MaxMem=  6710886400 cpu:               4.2 elap:               0.2
 (Enter /data0/home/software/g16/l303.exe)
 DipDrv:  MaxL=1.
 Leave Link  303 at Wed Oct 11 20:23:15 2023, MaxMem=  6710886400 cpu:               0.5 elap:               0.0
 (Enter /data0/home/software/g16/l401.exe)
 ExpMin= 1.61D-01 ExpMax= 5.48D+03 ExpMxC= 8.25D+02 IAcc=3 IRadAn=         5 AccDes= 0.00D+00
 Harris functional with IExCor= 1009 and IRadAn=       5 diagonalized for initial guess.
 HarFok:  IExCor= 1009 AccDes= 0.00D+00 IRadAn=         5 IDoV= 1 UseB2=F ITyADJ=14
 ICtDFT=  3500011 ScaDFX=  1.000000  1.000000  1.000000  1.000000
 FoFCou: FMM=F IPFlag=           0 FMFlag=      100000 FMFlg1=           0
         NFxFlg=           0 DoJE=T BraDBF=F KetDBF=T FulRan=T
         wScrn=  0.000000 ICntrl=       500 IOpCl=  0 I1Cent=   200000004 NGrid=           0
         NMat0=    1 NMatS0=      1 NMatT0=    0 NMatD0=    1 NMtDS0=    0 NMtDT0=    0
 Petite list used in FoFCou.
 Harris En= -480.575662694845    
 JPrj=0 DoOrth=F DoCkMO=F.
 Leave Link  401 at Wed Oct 11 20:23:15 2023, MaxMem=  6710886400 cpu:              12.3 elap:               0.5
 (Enter /data0/home/software/g16/l502.exe)
 Integral symmetry usage will be decided dynamically.
 Closed shell SCF:
 Using DIIS extrapolation, IDIIS=  1040.
 NGot=  6710886400 LenX=  6710815003 LenY=  6710782162
 Requested convergence on RMS density matrix=1.00D-08 within 128 cycles.
 Requested convergence on MAX density matrix=1.00D-06.
 Requested convergence on             energy=1.00D-06.
 No special actions if energy rises.
 Fock matrices will be formed incrementally for  20 cycles.

 Cycle   1  Pass 1  IDiag  1:
 FoFJK:  IHMeth= 1 ICntrl=       0 DoSepK=F KAlg= 0 I1Cent=           0 FoldK=F
 IRaf= 920000000 NMat=       1 IRICut=       1 DoRegI=T DoRafI=F ISym2E= 0 IDoP0=0 IntGTp=1.
 FoFCou: FMM=F IPFlag=           0 FMFlag=      100000 FMFlg1=           0
         NFxFlg=           0 DoJE=F BraDBF=F KetDBF=F FulRan=T
         wScrn=  0.000000 ICntrl=         0 IOpCl=  0 I1Cent=           0 NGrid=           0
         NMat0=    1 NMatS0=      1 NMatT0=    0 NMatD0=    1 NMtDS0=    0 NMtDT0=    0
 Symmetry not used in FoFCou.
 Inv3:  Mode=1 IEnd=     8157603.
 Iteration    1 A*A^-1 deviation from unit magnitude is 4.88D-15 for   1627.
 Iteration    1 A*A^-1 deviation from orthogonality  is 2.42D-15 for   1613    315.
 Iteration    1 A^-1*A deviation from unit magnitude is 4.88D-15 for   1627.
 Iteration    1 A^-1*A deviation from orthogonality  is 9.03D-15 for   1335   1293.
 E= -480.607443269181    
 DIIS: error= 5.47D-02 at cycle   1 NSaved=   1.
 NSaved= 1 IEnMin= 1 EnMin= -480.607443269181     IErMin= 1 ErrMin= 5.47D-02
 ErrMax= 5.47D-02  0.00D+00 EMaxC= 1.00D-01 BMatC= 3.74D-01 BMatP= 3.74D-01
 IDIUse=3 WtCom= 4.53D-01 WtEn= 5.47D-01
 Coeff-Com:  0.100D+01
 Coeff-En:   0.100D+01
 Coeff:      0.100D+01
 Gap=     0.347 Goal=   None    Shift=    0.000
 GapD=    0.347 DampG=1.000 DampE=0.500 DampFc=0.5000 IDamp=-1.
 Damping current iteration by 5.00D-01
 RMSDP=5.03D-03 MaxDP=1.30D-01              OVMax= 1.21D-01

 Cycle   2  Pass 1  IDiag  1:
 RMSU=  2.50D-03    CP:  9.89D-01
 E= -480.765369474473     Delta-E=       -0.157926205292 Rises=F Damp=T
 DIIS: error= 9.60D-03 at cycle   2 NSaved=   2.
 NSaved= 2 IEnMin= 2 EnMin= -480.765369474473     IErMin= 2 ErrMin= 9.60D-03
 ErrMax= 9.60D-03  0.00D+00 EMaxC= 1.00D-01 BMatC= 2.17D-02 BMatP= 3.74D-01
 IDIUse=3 WtCom= 9.04D-01 WtEn= 9.60D-02
 Coeff-Com: -0.444D-01 0.104D+01
 Coeff-En:   0.000D+00 0.100D+01
 Coeff:     -0.401D-01 0.104D+01
 Gap=     0.410 Goal=   None    Shift=    0.000
 RMSDP=1.02D-03 MaxDP=2.31D-02 DE=-1.58D-01 OVMax= 6.56D-02

 Cycle   3  Pass 1  IDiag  1:
 RMSU=  9.55D-04    CP:  9.85D-01  1.15D+00
 E= -480.913114905775     Delta-E=       -0.147745431302 Rises=F Damp=F
 DIIS: error= 3.67D-03 at cycle   3 NSaved=   3.
 NSaved= 3 IEnMin= 3 EnMin= -480.913114905775     IErMin= 3 ErrMin= 3.67D-03
 ErrMax= 3.67D-03  0.00D+00 EMaxC= 1.00D-01 BMatC= 5.11D-03 BMatP= 2.17D-02
 IDIUse=3 WtCom= 9.63D-01 WtEn= 3.67D-02
 Coeff-Com: -0.440D-01 0.308D+00 0.736D+00
 Coeff-En:   0.000D+00 0.000D+00 0.100D+01
 Coeff:     -0.423D-01 0.297D+00 0.746D+00
 Gap=     0.410 Goal=   None    Shift=    0.000
 RMSDP=4.14D-04 MaxDP=1.31D-02 DE=-1.48D-01 OVMax= 1.24D-02

 Cycle   4  Pass 1  IDiag  1:
 RMSU=  3.49D-04    CP:  9.88D-01  1.15D+00  7.77D-01
 E= -480.916505413767     Delta-E=       -0.003390507992 Rises=F Damp=F
 DIIS: error= 1.49D-03 at cycle   4 NSaved=   4.
 NSaved= 4 IEnMin= 4 EnMin= -480.916505413767     IErMin= 4 ErrMin= 1.49D-03
 ErrMax= 1.49D-03  0.00D+00 EMaxC= 1.00D-01 BMatC= 9.27D-04 BMatP= 5.11D-03
 IDIUse=3 WtCom= 9.85D-01 WtEn= 1.49D-02
 Coeff-Com: -0.464D-02 0.103D-01 0.304D+00 0.690D+00
 Coeff-En:   0.000D+00 0.000D+00 0.102D+00 0.898D+00
 Coeff:     -0.457D-02 0.102D-01 0.301D+00 0.694D+00
 Gap=     0.409 Goal=   None    Shift=    0.000
 RMSDP=1.45D-04 MaxDP=3.93D-03 DE=-3.39D-03 OVMax= 3.70D-03

 Cycle   5  Pass 1  IDiag  1:
 RMSU=  5.88D-05    CP:  9.87D-01  1.16D+00  8.68D-01  7.21D-01
 E= -480.917305341528     Delta-E=       -0.000799927762 Rises=F Damp=F
 DIIS: error= 1.71D-04 at cycle   5 NSaved=   5.
 NSaved= 5 IEnMin= 5 EnMin= -480.917305341528     IErMin= 5 ErrMin= 1.71D-04
 ErrMax= 1.71D-04  0.00D+00 EMaxC= 1.00D-01 BMatC= 9.78D-06 BMatP= 9.27D-04
 IDIUse=3 WtCom= 9.98D-01 WtEn= 1.71D-03
 Coeff-Com:  0.139D-03-0.367D-02 0.615D-01 0.186D+00 0.756D+00
 Coeff-En:   0.000D+00 0.000D+00 0.000D+00 0.000D+00 0.100D+01
 Coeff:      0.139D-03-0.367D-02 0.614D-01 0.186D+00 0.756D+00
 Gap=     0.408 Goal=   None    Shift=    0.000
 RMSDP=1.93D-05 MaxDP=5.16D-04 DE=-8.00D-04 OVMax= 4.92D-04

 Cycle   6  Pass 1  IDiag  1:
 RMSU=  1.51D-05    CP:  9.87D-01  1.16D+00  8.69D-01  7.46D-01  8.65D-01
 E= -480.917313753150     Delta-E=       -0.000008411622 Rises=F Damp=F
 DIIS: error= 6.68D-05 at cycle   6 NSaved=   6.
 NSaved= 6 IEnMin= 6 EnMin= -480.917313753150     IErMin= 6 ErrMin= 6.68D-05
 ErrMax= 6.68D-05  0.00D+00 EMaxC= 1.00D-01 BMatC= 1.26D-06 BMatP= 9.78D-06
 IDIUse=1 WtCom= 1.00D+00 WtEn= 0.00D+00
 Coeff-Com:  0.395D-03-0.233D-02 0.293D-02 0.255D-01 0.290D+00 0.684D+00
 Coeff:      0.395D-03-0.233D-02 0.293D-02 0.255D-01 0.290D+00 0.684D+00
 Gap=     0.408 Goal=   None    Shift=    0.000
 RMSDP=6.74D-06 MaxDP=1.84D-04 DE=-8.41D-06 OVMax= 2.78D-04

 Cycle   7  Pass 1  IDiag  1:
 RMSU=  4.75D-06    CP:  9.87D-01  1.16D+00  8.71D-01  7.52D-01  9.24D-01
                    CP:  8.71D-01
 E= -480.917314736963     Delta-E=       -0.000000983813 Rises=F Damp=F
 DIIS: error= 2.28D-05 at cycle   7 NSaved=   7.
 NSaved= 7 IEnMin= 7 EnMin= -480.917314736963     IErMin= 7 ErrMin= 2.28D-05
 ErrMax= 2.28D-05  0.00D+00 EMaxC= 1.00D-01 BMatC= 1.27D-07 BMatP= 1.26D-06
 IDIUse=1 WtCom= 1.00D+00 WtEn= 0.00D+00
 Coeff-Com:  0.156D-03-0.639D-03-0.426D-02-0.628D-02 0.514D-01 0.269D+00
 Coeff-Com:  0.690D+00
 Coeff:      0.156D-03-0.639D-03-0.426D-02-0.628D-02 0.514D-01 0.269D+00
 Coeff:      0.690D+00
 Gap=     0.408 Goal=   None    Shift=    0.000
 RMSDP=2.51D-06 MaxDP=8.95D-05 DE=-9.84D-07 OVMax= 1.24D-04

 Cycle   8  Pass 1  IDiag  1:
 RMSU=  1.82D-06    CP:  9.87D-01  1.16D+00  8.72D-01  7.53D-01  9.40D-01
                    CP:  9.35D-01  8.44D-01
 E= -480.917314826446     Delta-E=       -0.000000089483 Rises=F Damp=F
 DIIS: error= 9.88D-06 at cycle   8 NSaved=   8.
 NSaved= 8 IEnMin= 8 EnMin= -480.917314826446     IErMin= 8 ErrMin= 9.88D-06
 ErrMax= 9.88D-06  0.00D+00 EMaxC= 1.00D-01 BMatC= 2.23D-08 BMatP= 1.27D-07
 IDIUse=1 WtCom= 1.00D+00 WtEn= 0.00D+00
 Coeff-Com:  0.131D-04 0.259D-04-0.229D-02-0.642D-02-0.161D-01 0.267D-01
 Coeff-Com:  0.327D+00 0.671D+00
 Coeff:      0.131D-04 0.259D-04-0.229D-02-0.642D-02-0.161D-01 0.267D-01
 Coeff:      0.327D+00 0.671D+00
 Gap=     0.408 Goal=   None    Shift=    0.000
 RMSDP=8.31D-07 MaxDP=2.54D-05 DE=-8.95D-08 OVMax= 4.50D-05

 Cycle   9  Pass 1  IDiag  1:
 RMSU=  3.78D-07    CP:  9.87D-01  1.16D+00  8.72D-01  7.53D-01  9.43D-01
                    CP:  9.52D-01  9.61D-01  8.07D-01
 E= -480.917314843912     Delta-E=       -0.000000017466 Rises=F Damp=F
 DIIS: error= 1.55D-06 at cycle   9 NSaved=   9.
 NSaved= 9 IEnMin= 9 EnMin= -480.917314843912     IErMin= 9 ErrMin= 1.55D-06
 ErrMax= 1.55D-06  0.00D+00 EMaxC= 1.00D-01 BMatC= 6.69D-10 BMatP= 2.23D-08
 IDIUse=1 WtCom= 1.00D+00 WtEn= 0.00D+00
 Coeff-Com: -0.535D-05 0.436D-04-0.679D-03-0.221D-02-0.907D-02-0.351D-02
 Coeff-Com:  0.867D-01 0.235D+00 0.694D+00
 Coeff:     -0.535D-05 0.436D-04-0.679D-03-0.221D-02-0.907D-02-0.351D-02
 Coeff:      0.867D-01 0.235D+00 0.694D+00
 Gap=     0.408 Goal=   None    Shift=    0.000
 RMSDP=1.77D-07 MaxDP=5.19D-06 DE=-1.75D-08 OVMax= 6.58D-06

 Cycle  10  Pass 1  IDiag  1:
 RMSU=  1.33D-07    CP:  9.87D-01  1.16D+00  8.72D-01  7.53D-01  9.43D-01
                    CP:  9.57D-01  9.71D-01  8.48D-01  9.48D-01
 E= -480.917314844470     Delta-E=       -0.000000000558 Rises=F Damp=F
 DIIS: error= 5.15D-07 at cycle  10 NSaved=  10.
 NSaved=10 IEnMin=10 EnMin= -480.917314844470     IErMin=10 ErrMin= 5.15D-07
 ErrMax= 5.15D-07  0.00D+00 EMaxC= 1.00D-01 BMatC= 9.88D-11 BMatP= 6.69D-10
 IDIUse=1 WtCom= 1.00D+00 WtEn= 0.00D+00
 Coeff-Com: -0.420D-05 0.124D-04 0.570D-04 0.701D-04-0.777D-03-0.342D-02
 Coeff-Com: -0.109D-01-0.547D-02 0.273D+00 0.748D+00
 Coeff:     -0.420D-05 0.124D-04 0.570D-04 0.701D-04-0.777D-03-0.342D-02
 Coeff:     -0.109D-01-0.547D-02 0.273D+00 0.748D+00
 Gap=     0.408 Goal=   None    Shift=    0.000
 RMSDP=7.91D-08 MaxDP=2.04D-06 DE=-5.58D-10 OVMax= 4.16D-06

 Cycle  11  Pass 1  IDiag  1:
 RMSU=  4.29D-08    CP:  9.87D-01  1.16D+00  8.72D-01  7.53D-01  9.43D-01
                    CP:  9.57D-01  9.77D-01  8.62D-01  1.06D+00  9.43D-01
 E= -480.917314844569     Delta-E=       -0.000000000099 Rises=F Damp=F
 DIIS: error= 1.59D-07 at cycle  11 NSaved=  11.
 NSaved=11 IEnMin=11 EnMin= -480.917314844569     IErMin=11 ErrMin= 1.59D-07
 ErrMax= 1.59D-07  0.00D+00 EMaxC= 1.00D-01 BMatC= 9.15D-12 BMatP= 9.88D-11
 IDIUse=1 WtCom= 1.00D+00 WtEn= 0.00D+00
 Coeff-Com: -0.150D-05 0.209D-05 0.786D-04 0.204D-03 0.349D-03-0.113D-02
 Coeff-Com: -0.120D-01-0.220D-01 0.468D-01 0.281D+00 0.707D+00
 Coeff:     -0.150D-05 0.209D-05 0.786D-04 0.204D-03 0.349D-03-0.113D-02
 Coeff:     -0.120D-01-0.220D-01 0.468D-01 0.281D+00 0.707D+00
 Gap=     0.408 Goal=   None    Shift=    0.000
 RMSDP=2.51D-08 MaxDP=4.46D-07 DE=-9.87D-11 OVMax= 1.39D-06

 Cycle  12  Pass 1  IDiag  1:
 RMSU=  1.59D-08    CP:  9.87D-01  1.16D+00  8.72D-01  7.53D-01  9.44D-01
                    CP:  9.58D-01  9.78D-01  8.65D-01  1.09D+00  1.04D+00
                    CP:  9.67D-01
 E= -480.917314844569     Delta-E=       -0.000000000001 Rises=F Damp=F
 DIIS: error= 6.96D-08 at cycle  12 NSaved=  12.
 NSaved=12 IEnMin=12 EnMin= -480.917314844569     IErMin=12 ErrMin= 6.96D-08
 ErrMax= 6.96D-08  0.00D+00 EMaxC= 1.00D-01 BMatC= 8.02D-13 BMatP= 9.15D-12
 IDIUse=1 WtCom= 1.00D+00 WtEn= 0.00D+00
 Coeff-Com:  0.364D-06-0.141D-05 0.716D-05 0.297D-04 0.176D-03 0.310D-03
 Coeff-Com: -0.117D-02-0.338D-02-0.254D-01-0.513D-01 0.150D+00 0.931D+00
 Coeff:      0.364D-06-0.141D-05 0.716D-05 0.297D-04 0.176D-03 0.310D-03
 Coeff:     -0.117D-02-0.338D-02-0.254D-01-0.513D-01 0.150D+00 0.931D+00
 Gap=     0.408 Goal=   None    Shift=    0.000
 RMSDP=1.18D-08 MaxDP=2.02D-07 DE=-6.82D-13 OVMax= 9.03D-07

 Cycle  13  Pass 1  IDiag  1:
 RMSU=  4.92D-09    CP:  9.87D-01  1.16D+00  8.72D-01  7.53D-01  9.44D-01
                    CP:  9.58D-01  9.79D-01  8.67D-01  1.10D+00  1.07D+00
                    CP:  1.14D+00  1.14D+00
 E= -480.917314844582     Delta-E=       -0.000000000012 Rises=F Damp=F
 DIIS: error= 2.26D-08 at cycle  13 NSaved=  13.
 NSaved=13 IEnMin=13 EnMin= -480.917314844582     IErMin=13 ErrMin= 2.26D-08
 ErrMax= 2.26D-08  0.00D+00 EMaxC= 1.00D-01 BMatC= 4.55D-14 BMatP= 8.02D-13
 IDIUse=1 WtCom= 1.00D+00 WtEn= 0.00D+00
 Coeff-Com:  0.195D-06-0.342D-06-0.755D-05-0.188D-04-0.202D-04 0.146D-03
 Coeff-Com:  0.118D-02 0.225D-02-0.658D-02-0.345D-01-0.659D-01 0.719D-01
 Coeff-Com:  0.103D+01
 Coeff:      0.195D-06-0.342D-06-0.755D-05-0.188D-04-0.202D-04 0.146D-03
 Coeff:      0.118D-02 0.225D-02-0.658D-02-0.345D-01-0.659D-01 0.719D-01
 Coeff:      0.103D+01
 Gap=     0.408 Goal=   None    Shift=    0.000
 RMSDP=4.13D-09 MaxDP=7.41D-08 DE=-1.23D-11 OVMax= 3.62D-07

 Error on total polarization charges =  0.04058
 SCF Done:  E(RM052X) =  -480.917314845     A.U. after   13 cycles
            NFock= 13  Conv=0.41D-08     -V/T= 2.0093
 KE= 4.764807257588D+02 PE=-2.263755772459D+03 EE= 7.341009318647D+02
 SMD-CDS (non-electrostatic) energy       (kcal/mol) =       6.82
 (included in total energy above)
 Leave Link  502 at Wed Oct 11 20:23:33 2023, MaxMem=  6710886400 cpu:             402.4 elap:              17.3
 (Enter /data0/home/software/g16/l601.exe)
 Copying SCF densities to generalized density rwf, IOpCl= 0 IROHF=0.

 **********************************************************************

            Population analysis using the SCF density.

 **********************************************************************

 Orbital symmetries:
       Occupied  (A) (A) (A) (A) (A) (A) (A) (A) (A) (A) (A) (A)
                 (A) (A) (A) (A) (A) (A) (A) (A) (A) (A) (A) (A)
                 (A) (A) (A) (A) (A) (A) (A) (A) (A) (A) (A) (A)
                 (A) (A) (A) (A)
       Virtual   (A) (A) (A) (A) (A) (A) (A) (A) (A) (A) (A) (A)
                 (A) (A) (A) (A) (A) (A) (A) (A) (A) (A) (A) (A)
                 (A) (A) (A) (A) (A) (A) (A) (A) (A) (A) (A) (A)
                 (A) (A) (A) (A) (A) (A) (A) (A) (A) (A) (A) (A)
                 (A) (A) (A) (A) (A) (A) (A) (A) (A) (A) (A) (A)
                 (A) (A) (A) (A) (A) (A) (A) (A) (A) (A) (A) (A)
                 (A) (A) (A) (A) (A) (A) (A) (A) (A) (A) (A) (A)
                 (A) (A) (A) (A) (A) (A) (A) (A) (A) (A) (A) (A)
                 (A) (A) (A) (A) (A) (A) (A) (A) (A) (A) (A) (A)
                 (A) (A) (A) (A) (A) (A) (A) (A) (A) (A) (A) (A)
                 (A) (A) (A) (A) (A) (A) (A) (A) (A) (A) (A) (A)
                 (A) (A) (A) (A) (A) (A) (A) (A)
 The electronic state is 1-A.
 Alpha  occ. eigenvalues --  -19.61213 -19.60859 -14.92289 -10.65721 -10.61853
 Alpha  occ. eigenvalues --  -10.61174 -10.61133 -10.61113 -10.57083 -10.55867
 Alpha  occ. eigenvalues --   -1.13417  -1.12993  -1.03214  -0.90478  -0.84360
 Alpha  occ. eigenvalues --   -0.84320  -0.81639  -0.73126  -0.68509  -0.60170
 Alpha  occ. eigenvalues --   -0.59784  -0.58478  -0.57149  -0.54074  -0.51276
 Alpha  occ. eigenvalues --   -0.50171  -0.49977  -0.48824  -0.47308  -0.46282
 Alpha  occ. eigenvalues --   -0.46171  -0.45979  -0.45717  -0.44354  -0.42555
 Alpha  occ. eigenvalues --   -0.40600  -0.39712  -0.31253  -0.30373  -0.29965
 Alpha virt. eigenvalues --    0.10862   0.11449   0.15410   0.17002   0.17195
 Alpha virt. eigenvalues --    0.17604   0.18727   0.19200   0.20306   0.21952
 Alpha virt. eigenvalues --    0.22345   0.22788   0.23727   0.25107   0.25429
 Alpha virt. eigenvalues --    0.25937   0.26483   0.27568   0.28896   0.30883
 Alpha virt. eigenvalues --    0.31464   0.32462   0.33874   0.40449   0.46173
 Alpha virt. eigenvalues --    0.53472   0.53980   0.54265   0.55407   0.55984
 Alpha virt. eigenvalues --    0.62296   0.63947   0.67572   0.68003   0.68626
 Alpha virt. eigenvalues --    0.70069   0.70684   0.73162   0.74752   0.75136
 Alpha virt. eigenvalues --    0.80552   0.83289   0.84028   0.84959   0.88932
 Alpha virt. eigenvalues --    0.89128   0.90650   0.92167   0.93896   0.94871
 Alpha virt. eigenvalues --    0.97426   0.97692   0.98276   0.98736   0.99520
 Alpha virt. eigenvalues --    1.00682   1.01167   1.02474   1.03600   1.04149
 Alpha virt. eigenvalues --    1.04449   1.05619   1.06376   1.08374   1.10776
 Alpha virt. eigenvalues --    1.11555   1.12749   1.15683   1.16438   1.19359
 Alpha virt. eigenvalues --    1.22693   1.25652   1.30701   1.40395   1.41822
 Alpha virt. eigenvalues --    1.49117   1.54697   1.55302   1.57607   1.57789
 Alpha virt. eigenvalues --    1.67503   1.68544   1.73540   1.77969   1.79285
 Alpha virt. eigenvalues --    1.79990   1.84900   1.86614   1.89714   1.90110
 Alpha virt. eigenvalues --    1.91961   1.94463   1.96576   1.97448   1.98459
 Alpha virt. eigenvalues --    1.99572   2.01714   2.03276   2.06548   2.08091
 Alpha virt. eigenvalues --    2.10037   2.14756   2.18552   2.18844   2.20696
 Alpha virt. eigenvalues --    2.21755   2.25154   2.26464   2.32257   2.32750
 Alpha virt. eigenvalues --    2.33538   2.34733   2.38212   2.40466   2.46593
 Alpha virt. eigenvalues --    2.49457   2.53878   2.55405   2.59929   2.63010
 Alpha virt. eigenvalues --    2.63585   2.74647   2.75910   2.77159   2.79061
 Alpha virt. eigenvalues --    2.86140   2.91531   2.98812   3.05195   3.20017
 Alpha virt. eigenvalues --    3.88727   4.11141   4.22734   4.24911   4.33495
 Alpha virt. eigenvalues --    4.33616   4.37410   4.41280   4.55417   4.61659
          Condensed to atoms (all electrons):
               1          2          3          4          5          6
     1  C    5.154754   0.381432   0.382707   0.382430  -0.053812  -0.003576
     2  H    0.381432   0.442853  -0.019934  -0.019816  -0.003255   0.003115
     3  H    0.382707  -0.019934   0.441392  -0.019856  -0.003041  -0.000446
     4  H    0.382430  -0.019816  -0.019856   0.440433   0.004336   0.000054
     5  C   -0.053812  -0.003255  -0.003041   0.004336   5.162379   0.382747
     6  H   -0.003576   0.003115  -0.000446   0.000054   0.382747   0.442582
     7  H    0.004085   0.000019   0.000016  -0.000156   0.382592  -0.020387
     8  H   -0.002699  -0.000326   0.002559  -0.000019   0.382324  -0.019964
     9  C   -0.053885  -0.003364   0.004332  -0.002912  -0.054950  -0.002815
    10  H   -0.002677  -0.000304  -0.000022   0.002513   0.004177  -0.000008
    11  H    0.004046   0.000016  -0.000156   0.000023  -0.002731  -0.000397
    12  H   -0.003507   0.003101   0.000060  -0.000481  -0.002891   0.002591
    13  C   -0.055600   0.004303  -0.003204  -0.002981  -0.048220   0.004111
    14  H   -0.003115   0.000033   0.003538  -0.000536  -0.004312  -0.000038
    15  H   -0.002408   0.000043  -0.000574   0.003296   0.004309  -0.000128
    16  C    0.004432  -0.000161   0.000048   0.000021  -0.003359   0.000120
    17  H   -0.000046   0.000003   0.000001  -0.000007  -0.000432  -0.000017
    18  H   -0.000031   0.000003  -0.000004  -0.000000   0.002380   0.000052
    19  C   -0.000103   0.000002  -0.000008   0.000003   0.000001  -0.000000
    20  H    0.000002  -0.000000   0.000000  -0.000000   0.000002  -0.000000
    21  H   -0.000005   0.000000  -0.000001   0.000000  -0.000006  -0.000000
    22  N    0.243263  -0.029587  -0.029677  -0.029598   0.232911  -0.029539
    23  C   -0.000005   0.000000   0.000001  -0.000006  -0.000000   0.000000
    24  O    0.000002  -0.000000   0.000000  -0.000007  -0.000001   0.000000
    25  O    0.000000  -0.000000  -0.000000   0.000000  -0.000000  -0.000000
               7          8          9         10         11         12
     1  C    0.004085  -0.002699  -0.053885  -0.002677   0.004046  -0.003507
     2  H    0.000019  -0.000326  -0.003364  -0.000304   0.000016   0.003101
     3  H    0.000016   0.002559   0.004332  -0.000022  -0.000156   0.000060
     4  H   -0.000156  -0.000019  -0.002912   0.002513   0.000023  -0.000481
     5  C    0.382592   0.382324  -0.054950   0.004177  -0.002731  -0.002891
     6  H   -0.020387  -0.019964  -0.002815  -0.000008  -0.000397   0.002591
     7  H    0.437442  -0.019600  -0.002802   0.000035   0.002685  -0.000378
     8  H   -0.019600   0.441491   0.004207  -0.000158   0.000041  -0.000013
     9  C   -0.002802   0.004207   5.161585   0.382050   0.382665   0.382757
    10  H    0.000035  -0.000158   0.382050   0.441000  -0.019663  -0.019979
    11  H    0.002685   0.000041   0.382665  -0.019663   0.438124  -0.020461
    12  H   -0.000378  -0.000013   0.382757  -0.019979  -0.020461   0.443222
    13  C   -0.004795  -0.001935  -0.047746  -0.001799  -0.005222   0.004126
    14  H   -0.000159   0.003250   0.004443   0.000048  -0.000043  -0.000132
    15  H   -0.000029   0.000041  -0.004139   0.003332  -0.000088  -0.000054
    16  C    0.002116  -0.000875  -0.002980  -0.001187   0.003075   0.000118
    17  H    0.000039   0.000037   0.002304   0.000166   0.000165   0.000051
    18  H    0.001349  -0.000000  -0.000682   0.000068   0.000048  -0.000023
    19  C    0.000020  -0.000020   0.000075  -0.000040   0.000063  -0.000002
    20  H    0.000002   0.000000   0.000004   0.000000   0.000001  -0.000000
    21  H    0.000006   0.000002   0.000003  -0.000000  -0.000001   0.000000
    22  N   -0.028260  -0.030157   0.232372  -0.030190  -0.028051  -0.029645
    23  C   -0.000003   0.000000  -0.000039   0.000019  -0.000012   0.000000
    24  O   -0.000000  -0.000000  -0.000057   0.000141  -0.000034  -0.000000
    25  O   -0.000000  -0.000000  -0.000000   0.000000  -0.000000  -0.000000
              13         14         15         16         17         18
     1  C   -0.055600  -0.003115  -0.002408   0.004432  -0.000046  -0.000031
     2  H    0.004303   0.000033   0.000043  -0.000161   0.000003   0.000003
     3  H   -0.003204   0.003538  -0.000574   0.000048   0.000001  -0.000004
     4  H   -0.002981  -0.000536   0.003296   0.000021  -0.000007  -0.000000
     5  C   -0.048220  -0.004312   0.004309  -0.003359  -0.000432   0.002380
     6  H    0.004111  -0.000038  -0.000128   0.000120  -0.000017   0.000052
     7  H   -0.004795  -0.000159  -0.000029   0.002116   0.000039   0.001349
     8  H   -0.001935   0.003250   0.000041  -0.000875   0.000037  -0.000000
     9  C   -0.047746   0.004443  -0.004139  -0.002980   0.002304  -0.000682
    10  H   -0.001799   0.000048   0.003332  -0.001187   0.000166   0.000068
    11  H   -0.005222  -0.000043  -0.000088   0.003075   0.000165   0.000048
    12  H    0.004126  -0.000132  -0.000054   0.000118   0.000051  -0.000023
    13  C    5.145654   0.386481   0.375096   0.352616  -0.036123  -0.039057
    14  H    0.386481   0.465458  -0.022429  -0.036360   0.004020  -0.003065
    15  H    0.375096  -0.022429   0.467583  -0.031302  -0.003677   0.004209
    16  C    0.352616  -0.036360  -0.031302   5.136637   0.372718   0.379089
    17  H   -0.036123   0.004020  -0.003677   0.372718   0.518038  -0.026985
    18  H   -0.039057  -0.003065   0.004209   0.379089  -0.026985   0.514649
    19  C   -0.042921  -0.002042  -0.007101   0.295323  -0.033050  -0.026467
    20  H    0.004326   0.000005   0.000027  -0.027928  -0.002248  -0.003846
    21  H   -0.006019   0.003938  -0.000450  -0.038061   0.004838  -0.002445
    22  N    0.209698  -0.034187  -0.032705  -0.036767  -0.003131  -0.002940
    23  C   -0.002457  -0.000317   0.006448  -0.030108  -0.004072   0.003230
    24  O   -0.005632   0.000119   0.008594   0.008828   0.012105   0.000286
    25  O    0.000202  -0.000033  -0.000442   0.004010   0.000187  -0.000064
              19         20         21         22         23         24
     1  C   -0.000103   0.000002  -0.000005   0.243263  -0.000005   0.000002
     2  H    0.000002  -0.000000   0.000000  -0.029587   0.000000  -0.000000
     3  H   -0.000008   0.000000  -0.000001  -0.029677   0.000001   0.000000
     4  H    0.000003  -0.000000   0.000000  -0.029598  -0.000006  -0.000007
     5  C    0.000001   0.000002  -0.000006   0.232911  -0.000000  -0.000001
     6  H   -0.000000  -0.000000  -0.000000  -0.029539   0.000000   0.000000
     7  H    0.000020   0.000002   0.000006  -0.028260  -0.000003  -0.000000
     8  H   -0.000020   0.000000   0.000002  -0.030157   0.000000  -0.000000
     9  C    0.000075   0.000004   0.000003   0.232372  -0.000039  -0.000057
    10  H   -0.000040   0.000000  -0.000000  -0.030190   0.000019   0.000141
    11  H    0.000063   0.000001  -0.000001  -0.028051  -0.000012  -0.000034
    12  H   -0.000002  -0.000000   0.000000  -0.029645   0.000000  -0.000000
    13  C   -0.042921   0.004326  -0.006019   0.209698  -0.002457  -0.005632
    14  H   -0.002042   0.000005   0.003938  -0.034187  -0.000317   0.000119
    15  H   -0.007101   0.000027  -0.000450  -0.032705   0.006448   0.008594
    16  C    0.295323  -0.027928  -0.038061  -0.036767  -0.030108   0.008828
    17  H   -0.033050  -0.002248   0.004838  -0.003131  -0.004072   0.012105
    18  H   -0.026467  -0.003846  -0.002445  -0.002940   0.003230   0.000286
    19  C    5.475489   0.365913   0.355093   0.003094   0.305967  -0.141241
    20  H    0.365913   0.498369  -0.022896  -0.000078  -0.019948   0.000578
    21  H    0.355093  -0.022896   0.541158  -0.000019  -0.024295   0.003791
    22  N    0.003094  -0.000078  -0.000019   6.882057   0.000015   0.000024
    23  C    0.305967  -0.019948  -0.024295   0.000015   4.250887   0.472494
    24  O   -0.141241   0.000578   0.003791   0.000024   0.472494   8.465746
    25  O   -0.127142   0.000677   0.006556  -0.000000   0.494203  -0.101134
              25
     1  C    0.000000
     2  H   -0.000000
     3  H   -0.000000
     4  H    0.000000
     5  C   -0.000000
     6  H   -0.000000
     7  H   -0.000000
     8  H   -0.000000
     9  C   -0.000000
    10  H    0.000000
    11  H   -0.000000
    12  H   -0.000000
    13  C    0.000202
    14  H   -0.000033
    15  H   -0.000442
    16  C    0.004010
    17  H    0.000187
    18  H   -0.000064
    19  C   -0.127142
    20  H    0.000677
    21  H    0.006556
    22  N   -0.000000
    23  C    0.494203
    24  O   -0.101134
    25  O    8.462750
 Mulliken charges:
               1
     1  C   -0.375685
     2  H    0.241822
     3  H    0.242269
     4  H    0.243269
     5  C   -0.381147
     6  H    0.241943
     7  H    0.246163
     8  H    0.241815
     9  C   -0.380426
    10  H    0.242475
    11  H    0.245907
    12  H    0.241541
    13  C   -0.182901
    14  H    0.235438
    15  H    0.232548
    16  C   -0.350063
    17  H    0.195115
    18  H    0.200247
    19  C   -0.420904
    20  H    0.207039
    21  H    0.178812
    22  N   -0.428904
    23  C    0.547999
    24  O   -0.724603
    25  O   -0.739769
 Sum of Mulliken charges =  -0.00000
 Mulliken charges with hydrogens summed into heavy atoms:
               1
     1  C    0.351675
     5  C    0.348774
     9  C    0.349496
    13  C    0.285084
    16  C    0.045300
    19  C   -0.035052
    22  N   -0.428904
    23  C    0.547999
    24  O   -0.724603
    25  O   -0.739769
 Electronic spatial extent (au):  <R**2>=           2053.4313
 Charge=              0.0000 electrons
 Dipole moment (field-independent basis, Debye):
    X=            -23.6585    Y=              4.1585    Z=              0.0554  Tot=             24.0212
 Quadrupole moment (field-independent basis, Debye-Ang):
   XX=            -87.6685   YY=            -59.4695   ZZ=            -60.6646
   XY=             13.3169   XZ=              6.2721   YZ=              3.0447
 Traceless Quadrupole moment (field-independent basis, Debye-Ang):
   XX=            -18.4010   YY=              9.7980   ZZ=              8.6029
   XY=             13.3169   XZ=              6.2721   YZ=              3.0447
 Octapole moment (field-independent basis, Debye-Ang**2):
  XXX=           -239.0663  YYY=              3.0050  ZZZ=             -0.8288  XYY=            -24.0653
  XXY=             29.3019  XXZ=             25.0731  XZZ=            -29.1531  YZZ=              2.2963
  YYZ=             -3.6468  XYZ=              6.3506
 Hexadecapole moment (field-independent basis, Debye-Ang**3):
 XXXX=          -2308.8647 YYYY=           -354.6812 ZZZZ=           -286.2720 XXXY=            100.3521
 XXXZ=            122.9969 YYYX=             11.9146 YYYZ=              6.8327 ZZZX=             10.1154
 ZZZY=             -0.9534 XXYY=           -384.5061 XXZZ=           -400.7201 YYZZ=           -106.4946
 XXYZ=             14.6418 YYXZ=             -4.8776 ZZXY=             13.2459
 N-N= 5.722567999910D+02 E-N=-2.263755772396D+03  KE= 4.764807257588D+02
 No NMR shielding tensors so no spin-rotation constants.
 Leave Link  601 at Wed Oct 11 20:23:33 2023, MaxMem=  6710886400 cpu:               2.2 elap:               0.1
 (Enter /data0/home/software/g16/l9999.exe)
 1\1\GINC-LOCALHOST\SP\RM052X\6-31G(d)\C7H15N1O2\WUHANYU\11-Oct-2023\0\
 \#p M052X/6-31G* scrf=(smd,solvent=water)\\Title Card Required\\0,1\C,
 0,-2.48398,-0.960648,-1.170244\H,0,-3.536908,-1.108148,-0.944017\H,0,-
 2.368636,-0.445041,-2.120472\H,0,-1.963248,-1.914625,-1.191267\C,0,-2.
 611177,1.194674,-0.046566\H,0,-3.668162,0.986282,0.10076\H,0,-2.233645
 ,1.788269,0.779765\H,0,-2.455519,1.710792,-0.990866\C,0,-2.039623,-0.8
 18192,1.218861\H,0,-1.466504,-1.741467,1.185836\H,0,-1.682272,-0.17666
 2,2.017869\H,0,-3.095979,-1.033101,1.360903\C,0,-0.415434,0.091435,-0.
 430965\H,0,-0.408883,0.565964,-1.41159\H,0,0.001769,-0.910019,-0.52518
 4\C,0,0.37896,0.91522,0.567436\H,0,0.394689,0.430233,1.543047\H,0,-0.0
 71559,1.900845,0.691274\C,0,1.811642,1.095847,0.06438\H,0,2.342817,1.7
 65234,0.748545\H,0,1.814386,1.582041,-0.912954\N,0,-1.881698,-0.112036
 ,-0.091742\C,0,2.650565,-0.184494,-0.020806\O,0,2.4225,-1.110097,0.808
 052\O,0,3.555478,-0.217326,-0.905806\\Version=ES64L-G16RevA.03\State=1
 -A\HF=-480.9173148\RMSD=4.127e-09\Dipole=-9.307961,1.636087,0.0218007\
 Quadrupole=-13.6806724,7.2845927,6.3960797,9.9007581,4.6631539,2.26363
 41\PG=C01 [X(C7H15N1O2)]\\@


 The lyf so short, the craft so long to lerne.
                             -- Chaucer
 Job cpu time:       0 days  0 hours  7 minutes  6.9 seconds.
 Elapsed time:       0 days  0 hours  0 minutes 18.5 seconds.
 File lengths (MBytes):  RWF=     69 Int=      0 D2E=      0 Chk=      4 Scr=      1
 Normal termination of Gaussian 16 at Wed Oct 11 20:23:33 2023.
